<event>
12    4  0.4280696E-008  0.3140920E+04  0.7818608E-02  0.8204597E-01
          1   -1    0    0  501    0  0.00000000000E+00  0.00000000000E+00  0.17773477016E+04  0.17773477016E+04  0.00000000000E+00 0. -1.
         -2   -1    0    0    0  501 -0.00000000000E+00 -0.00000000000E+00 -0.13876549176E+04  0.13876549176E+04  0.00000000000E+00 0.  1.
        -24    2    1    2    0    0  0.77982867079E+03  0.10296748404E+04 -0.46464072969E+03  0.13747554237E+04  0.75487975570E+02 0.  0.
        254    2    1    2    0    0 -0.77982867079E+03 -0.10296748404E+04  0.85433351371E+03  0.17902471955E+04  0.89818496736E+03 0.  0.
         23    2    4    4    0    0 -0.73718292322E+03 -0.26243963354E+03  0.53797878650E+03  0.95415988912E+03  0.93202444936E+02 0.  0.
         23    2    4    4    0    0 -0.42645747570E+02 -0.76723520687E+03  0.31635472721E+03  0.83608730638E+03  0.92158276979E+02 0.  0.
          1    1    3    3  502    0  0.17848223783E+03  0.28440009774E+03 -0.10462526803E+03  0.35168987976E+03  0.00000000000E+00 0. -1.
         -2    1    3    3    0  502  0.60134643296E+03  0.74527474267E+03 -0.36001546166E+03  0.10230655439E+04  0.00000000000E+00 0.  1.
         11    1    5    5    0    0 -0.14334644321E+03 -0.43979084056E+02  0.14916383556E+03  0.21149991124E+03  0.00000000000E+00 0.  1.
        -11    1    5    5    0    0 -0.59383648001E+03 -0.21846054948E+03  0.38881495094E+03  0.74265997788E+03  0.00000000000E+00 0. -1.
          4    1    6    6  503    0 -0.37775514983E+01 -0.76764690280E+02  0.31955307205E+01  0.76923981863E+02  0.00000000000E+00 0.  1.
         -4    1    6    6    0  503 -0.38868196071E+02 -0.69047051659E+03  0.31315919649E+03  0.75916332452E+03  0.00000000000E+00 0. -1.
<mgrwt>
<rscale>  0 0.31409204E+04</rscale>
<asrwt>0</asrwt>
<pdfrwt beam="1">  1        1 0.27343811E+00 0.31409204E+04</pdfrwt>
<pdfrwt beam="2">  1       -2 0.21348537E+00 0.31409204E+04</pdfrwt>
<totfact> 0.33925507E-01</totfact>
</mgrwt>
</event>
<event>
12    4  0.4280696E-008  0.1196527E+04  0.7818608E-02  0.9115902E-01
          1   -1    0    0  501    0  0.00000000000E+00  0.00000000000E+00  0.39281922113E+03  0.39281922113E+03  0.00000000000E+00 0. -1.
         -2   -1    0    0    0  501 -0.00000000000E+00 -0.00000000000E+00 -0.91115433778E+03  0.91115433778E+03  0.00000000000E+00 0.  1.
        -24    2    1    2    0    0  0.21279542360E+03  0.47230094472E+01 -0.24776847790E+03  0.33633177724E+03  0.80160131112E+02 0.  0.
        254    2    1    2    0    0 -0.21279542360E+03 -0.47230094472E+01 -0.27056663875E+03  0.96764178167E+03  0.90433407129E+03 0.  0.
         23    2    4    4    0    0 -0.36760342579E+03  0.33947257073E+03 -0.24925995415E+02  0.50903524773E+03  0.90120326527E+02 0.  0.
         23    2    4    4    0    0  0.15480800219E+03 -0.34419558017E+03 -0.24564064334E+03  0.45860653394E+03  0.86859152433E+02 0.  0.
          3    1    3    3  502    0  0.13570190565E+02 -0.90504077045E+01 -0.60150267245E+02  0.62322665229E+02  0.00000000000E+00 0. -1.
         -4    1    3    3    0  502  0.19922523303E+03  0.13773417152E+02 -0.18761821065E+03  0.27400911201E+03  0.00000000000E+00 0.  1.
         11    1    5    5    0    0 -0.88564132827E+02  0.46307291962E+02 -0.29748834705E+02  0.10427350612E+03  0.00000000000E+00 0.  1.
        -11    1    5    5    0    0 -0.27903929296E+03  0.29316527876E+03  0.48228392898E+01  0.40476174161E+03  0.00000000000E+00 0. -1.
          2    1    6    6  503    0  0.12104522431E+03 -0.32471817474E+03 -0.23315216732E+03  0.41767663624E+03  0.00000000000E+00 0. -1.
         -2    1    6    6    0  503  0.33762777877E+02 -0.19477405432E+02 -0.12488476012E+02  0.40929897696E+02  0.00000000000E+00 0.  1.
<mgrwt>
<rscale>  0 0.11965265E+04</rscale>
<asrwt>0</asrwt>
<pdfrwt beam="1">  1        1 0.60433726E-01 0.11965265E+04</pdfrwt>
<pdfrwt beam="2">  1       -2 0.14017759E+00 0.11965265E+04</pdfrwt>
<totfact> 0.19012486E+01</totfact>
</mgrwt>
</event>
<event>
12    4  0.4280696E-008  0.1311295E+04  0.7818608E-02  0.9020656E-01
         -4   -1    0    0    0  501 -0.00000000000E+00  0.00000000000E+00  0.10924989497E+03  0.10924989497E+03  0.00000000000E+00 0.  1.
          1   -1    0    0  501    0  0.00000000000E+00 -0.00000000000E+00 -0.39347735475E+04  0.39347735475E+04  0.00000000000E+00 0. -1.
        -24    2    1    2    0    0  0.22743271620E+03  0.66684591279E+02 -0.17749771795E+04  0.17925301744E+04  0.80299211809E+02 0.  0.
        254    2    1    2    0    0 -0.22743271620E+03 -0.66684591279E+02 -0.20505464731E+04  0.22514932681E+04  0.89905985500E+03 0.  0.
         23    2    4    4    0    0 -0.38171326075E+02  0.26282486500E+03 -0.16482087564E+03  0.32563137617E+03  0.91301217429E+02 0.  0.
         23    2    4    4    0    0 -0.18926139012E+03 -0.32950945628E+03 -0.18857255975E+04  0.19258618919E+04  0.92664137140E+02 0.  0.
          3    1    3    3  502    0  0.20887008454E+03  0.78729144158E+02 -0.14816669915E+04  0.14983864869E+04  0.00000000000E+00 0. -1.
         -4    1    3    3    0  502  0.18562631660E+02 -0.12044552879E+02 -0.29331018795E+03  0.29414368751E+03  0.00000000000E+00 0.  1.
         11    1    5    5    0    0 -0.52583593578E+02  0.23096061047E+03 -0.16817222796E+03  0.29049911559E+03  0.00000000000E+00 0.  1.
        -11    1    5    5    0    0  0.14412267503E+02  0.31864254532E+02  0.33513523148E+01  0.35132260585E+02  0.00000000000E+00 0. -1.
          3    1    6    6  503    0 -0.37901834311E+02 -0.29800930095E+02 -0.38667352222E+03  0.38966788072E+03  0.00000000000E+00 0. -1.
         -3    1    6    6    0  503 -0.15135955581E+03 -0.29970852619E+03 -0.14990520752E+04  0.15361940112E+04  0.00000000000E+00 0.  1.
<mgrwt>
<rscale>  0 0.13112949E+04</rscale>
<asrwt>0</asrwt>
<pdfrwt beam="1">  1        1 0.60534967E+00 0.13112949E+04</pdfrwt>
<pdfrwt beam="2">  1       -4 0.16807679E-01 0.13112949E+04</pdfrwt>
<totfact> 0.17642793E+00</totfact>
</mgrwt>
</event>
<event>
12    4  0.4280696E-008  0.1666942E+04  0.7818608E-02  0.8780447E-01
         -2   -1    0    0    0  501 -0.00000000000E+00  0.00000000000E+00  0.17753318716E+03  0.17753318716E+03  0.00000000000E+00 0.  1.
          1   -1    0    0  501    0  0.00000000000E+00 -0.00000000000E+00 -0.39129227842E+04  0.39129227842E+04  0.00000000000E+00 0. -1.
        -24    2    1    2    0    0 -0.44021764211E+03 -0.17021007252E+03 -0.46356059858E+03  0.66634497205E+03  0.79775635443E+02 0.  0.
        254    2    1    2    0    0  0.44021764211E+03  0.17021007252E+03 -0.32718289984E+04  0.34241109993E+04  0.89269709259E+03 0.  0.
         23    2    4    4    0    0  0.33565852770E+03  0.48241894499E+03 -0.13966724678E+04  0.15179120267E+04  0.89265069030E+02 0.  0.
         23    2    4    4    0    0  0.10455911441E+03 -0.31220887247E+03 -0.18751565306E+04  0.19061989726E+04  0.94739223717E+02 0.  0.
          1    1    3    3  502    0 -0.12114447589E+03 -0.51857511466E+02 -0.18174138331E+03  0.22448856528E+03  0.00000000000E+00 0. -1.
         -2    1    3    3    0  502 -0.31907316622E+03 -0.11835256106E+03 -0.28181921527E+03  0.44185640677E+03  0.00000000000E+00 0.  1.
         11    1    5    5    0    0  0.77297814925E+02  0.63231960707E+02 -0.28748666887E+03  0.30433832789E+03  0.00000000000E+00 0. -1.
        -11    1    5    5    0    0  0.25836071278E+03  0.41918698428E+03 -0.11091857990E+04  0.12135736988E+04  0.00000000000E+00 0.  1.
          3    1    6    6  503    0 -0.10283036413E+02 -0.13734313956E+01 -0.85024102342E+02  0.85654685399E+02  0.00000000000E+00 0. -1.
         -3    1    6    6    0  503  0.11484215082E+03 -0.31083544107E+03 -0.17901324282E+04  0.18205442872E+04  0.00000000000E+00 0.  1.
<mgrwt>
<rscale>  0 0.16669417E+04</rscale>
<asrwt>0</asrwt>
<pdfrwt beam="1">  1        1 0.60198813E+00 0.16669417E+04</pdfrwt>
<pdfrwt beam="2">  1       -2 0.27312798E-01 0.16669417E+04</pdfrwt>
<totfact> 0.11844709E+00</totfact>
</mgrwt>
</event>
<event>
12    4  0.4280696E-008  0.1017229E+04  0.7818608E-02  0.9289848E-01
         -4   -1    0    0    0  501 -0.00000000000E+00  0.00000000000E+00  0.15264403718E+03  0.15264403718E+03  0.00000000000E+00 0.  1.
          1   -1    0    0  501    0  0.00000000000E+00 -0.00000000000E+00 -0.16947182381E+04  0.16947182381E+04  0.00000000000E+00 0. -1.
        -24    2    1    2    0    0  0.53648356116E+02 -0.55783756076E+02 -0.22105052505E+03  0.24820750755E+03  0.82180646284E+02 0.  0.
        254    2    1    2    0    0 -0.53648356116E+02  0.55783756076E+02 -0.13210236759E+04  0.15991547677E+04  0.89788776883E+03 0.  0.
         23    2    4    4    0    0  0.21637482237E+02 -0.98229890711E+02  0.98798608543E+02  0.16612378033E+03  0.87855866471E+02 0.  0.
         23    2    4    4    0    0 -0.75285838352E+02  0.15401364679E+03 -0.14198222844E+04  0.14330309874E+04  0.91073216194E+02 0.  0.
          1    1    3    3  502    0  0.57356364683E+02 -0.69386467509E+02 -0.21457131155E+03  0.23269095853E+03  0.00000000000E+00 0. -1.
         -2    1    3    3    0  502 -0.37080085677E+01  0.13602711433E+02 -0.64792135039E+01  0.15516549020E+02  0.00000000000E+00 0.  1.
         11    1    5    5    0    0  0.38098458614E+02 -0.68202146780E+01  0.42638164449E+02  0.57584902054E+02  0.00000000000E+00 0. -1.
        -11    1    5    5    0    0 -0.16460976378E+02 -0.91409676033E+02  0.56160444094E+02  0.10853887827E+03  0.00000000000E+00 0.  1.
          3    1    6    6  503    0 -0.92482725855E+02  0.11657792452E+03 -0.97294841960E+03  0.98426220808E+03  0.00000000000E+00 0. -1.
         -3    1    6    6    0  503  0.17196887503E+02  0.37435722264E+02 -0.44687386482E+03  0.44876877933E+03  0.00000000000E+00 0.  1.
<mgrwt>
<rscale>  0 0.10172289E+04</rscale>
<asrwt>0</asrwt>
<pdfrwt beam="1">  1        1 0.26072589E+00 0.10172289E+04</pdfrwt>
<pdfrwt beam="2">  1       -4 0.23483697E-01 0.10172289E+04</pdfrwt>
<totfact> 0.40989119E+01</totfact>
</mgrwt>
</event>
<event>
12    4  0.4280696E-008  0.1871341E+04  0.7818608E-02  0.8669255E-01
          1   -1    0    0  501    0  0.00000000000E+00  0.00000000000E+00  0.40638702879E+04  0.40638702879E+04  0.00000000000E+00 0. -1.
         -2   -1    0    0    0  501 -0.00000000000E+00 -0.00000000000E+00 -0.21542983393E+03  0.21542983393E+03  0.00000000000E+00 0.  1.
        -24    2    1    2    0    0  0.39996247379E+03  0.25827710914E+03  0.27533014642E+04  0.27952597167E+04  0.78299971000E+02 0.  0.
        254    2    1    2    0    0 -0.39996247379E+03 -0.25827710914E+03  0.10951389898E+04  0.14840404052E+04  0.88111830738E+03 0.  0.
         23    2    4    4    0    0  0.20794016484E+03 -0.28643539301E+03  0.26809844597E+03  0.45308567120E+03  0.90141567501E+02 0.  0.
         23    2    4    4    0    0 -0.60790263863E+03  0.28158283863E+02  0.82704054383E+03  0.10309547340E+04  0.92374754845E+02 0.  0.
          3    1    3    3  502    0  0.38430668558E+03  0.25434719093E+03  0.27126910777E+04  0.27515590136E+04  0.00000000000E+00 0. -1.
         -4    1    3    3    0  502  0.15655788212E+02  0.39299182158E+01  0.40610386432E+02  0.43700703060E+02  0.00000000000E+00 0.  1.
         11    1    5    5    0    0  0.33681547905E+02 -0.14151891094E+02  0.54532107128E+02  0.65638962504E+02  0.00000000000E+00 0.  1.
        -11    1    5    5    0    0  0.17425861694E+03 -0.27228350191E+03  0.21356633884E+03  0.38744670869E+03  0.00000000000E+00 0. -1.
          1    1    6    6  503    0 -0.52195493525E+03  0.19314560727E+02  0.64913763411E+03  0.83318045747E+03  0.00000000000E+00 0. -1.
         -1    1    6    6    0  503 -0.85947703375E+02  0.88437231357E+01  0.17790290972E+03  0.19777427649E+03  0.00000000000E+00 0.  1.
<mgrwt>
<rscale>  0 0.18713406E+04</rscale>
<asrwt>0</asrwt>
<pdfrwt beam="1">  1        1 0.62521076E+00 0.18713406E+04</pdfrwt>
<pdfrwt beam="2">  1       -2 0.33143054E-01 0.18713406E+04</pdfrwt>
<totfact> 0.59621801E-01</totfact>
</mgrwt>
</event>
<event>
12    4  0.4280696E-008  0.1956680E+04  0.7818608E-02  0.8627146E-01
         -2   -1    0    0    0  501 -0.00000000000E+00  0.00000000000E+00  0.10170313481E+04  0.10170313481E+04  0.00000000000E+00 0.  1.
          1   -1    0    0  501    0  0.00000000000E+00 -0.00000000000E+00 -0.94112107154E+03  0.94112107154E+03  0.00000000000E+00 0. -1.
        -24    2    1    2    0    0  0.30679801843E+03  0.50695196726E+03  0.52203546537E+03  0.79366489365E+03  0.79105088878E+02 0.  0.
        254    2    1    2    0    0 -0.30679801843E+03 -0.50695196726E+03 -0.44612518883E+03  0.11644875260E+04  0.89770718656E+03 0.  0.
         23    2    4    4    0    0 -0.53501552238E+03 -0.24087472855E+03 -0.52863265060E+03  0.79479448721E+03  0.89350733421E+02 0.  0.
         23    2    4    4    0    0  0.22821750396E+03 -0.26607723871E+03  0.82507461769E+02  0.36969303876E+03  0.83577123609E+02 0.  0.
          1    1    3    3  502    0  0.34846206108E+02  0.20350727599E+02  0.33536838739E+02  0.52470274885E+02  0.00000000000E+00 0. -1.
         -2    1    3    3    0  502  0.27195181232E+03  0.48660123966E+03  0.48849862663E+03  0.74119461876E+03  0.00000000000E+00 0.  1.
         11    1    5    5    0    0 -0.51025303825E+03 -0.22322728258E+03 -0.52270994830E+03  0.76381560129E+03  0.00000000000E+00 0. -1.
        -11    1    5    5    0    0 -0.24762484135E+02 -0.17647445970E+02 -0.59227023075E+01  0.30978885913E+02  0.00000000000E+00 0.  1.
          3    1    6    6  503    0  0.20926269404E+03 -0.26760197796E+03  0.69752530896E+02  0.34679548626E+03  0.00000000000E+00 0. -1.
         -3    1    6    6    0  503  0.18954809919E+02  0.15247392556E+01  0.12754930873E+02  0.22897552499E+02  0.00000000000E+00 0.  1.
<mgrwt>
<rscale>  0 0.19566805E+04</rscale>
<asrwt>0</asrwt>
<pdfrwt beam="1">  1        1 0.14478786E+00 0.19566805E+04</pdfrwt>
<pdfrwt beam="2">  1       -2 0.15646636E+00 0.19566805E+04</pdfrwt>
<totfact> 0.36794320E+00</totfact>
</mgrwt>
</event>
<event>
12    4  0.4280696E-008  0.2168926E+04  0.7818608E-02  0.8531474E-01
         -2   -1    0    0    0  501 -0.00000000000E+00  0.00000000000E+00  0.22989116112E+04  0.22989116112E+04  0.00000000000E+00 0.  1.
          1   -1    0    0  501    0  0.00000000000E+00 -0.00000000000E+00 -0.51157245670E+03  0.51157245670E+03  0.00000000000E+00 0. -1.
        -24    2    1    2    0    0  0.19424006926E+03  0.72751877214E+03  0.13706216342E+04  0.15652698924E+04  0.66733827138E+02 0.  0.
        254    2    1    2    0    0 -0.19424006926E+03 -0.72751877214E+03  0.41671752027E+03  0.12452141754E+04  0.89994004395E+03 0.  0.
         23    2    4    4    0    0 -0.18905701394E+01 -0.77105359376E+03  0.58326533702E+03  0.97094467795E+03  0.89486845733E+02 0.  0.
         23    2    4    4    0    0 -0.19234949912E+03  0.43534821622E+02 -0.16654781675E+03  0.27426949749E+03  0.92692887992E+02 0.  0.
          1    1    3    3  502    0  0.12789877259E+03  0.50164421558E+03  0.87730241911E+03  0.10186582104E+04  0.00000000000E+00 0. -1.
         -2    1    3    3    0  502  0.66341296672E+02  0.22587455656E+03  0.49331921509E+03  0.54661168203E+03  0.00000000000E+00 0.  1.
         11    1    5    5    0    0 -0.35113556942E+02 -0.41366328582E+03  0.34870296589E+03  0.54216605790E+03  0.00000000000E+00 0.  1.
        -11    1    5    5    0    0  0.33222986803E+02 -0.35739030794E+03  0.23456237114E+03  0.42877862005E+03  0.00000000000E+00 0. -1.
          3    1    6    6  503    0 -0.54507575644E+02  0.89012591947E+01  0.12113943318E+00  0.55229728340E+02  0.00000000000E+00 0. -1.
         -3    1    6    6    0  503 -0.13784192348E+03  0.34633562427E+02 -0.16666895618E+03  0.21903976915E+03  0.00000000000E+00 0.  1.
<mgrwt>
<rscale>  0 0.21689259E+04</rscale>
<asrwt>0</asrwt>
<pdfrwt beam="1">  1        1 0.78703456E-01 0.21689259E+04</pdfrwt>
<pdfrwt beam="2">  1       -2 0.35367870E+00 0.21689259E+04</pdfrwt>
<totfact> 0.50774283E-01</totfact>
</mgrwt>
</event>
<event>
12    4  0.4280696E-008  0.1400584E+04  0.7818608E-02  0.8953396E-01
         -2   -1    0    0    0  501 -0.00000000000E+00  0.00000000000E+00  0.14386719403E+04  0.14386719403E+04  0.00000000000E+00 0.  1.
          1   -1    0    0  501    0  0.00000000000E+00 -0.00000000000E+00 -0.34087615887E+03  0.34087615887E+03  0.00000000000E+00 0. -1.
        -24    2    1    2    0    0 -0.36106550621E+03 -0.16558166208E+03  0.38766817497E+03  0.56074746529E+03  0.79784204873E+02 0.  0.
        254    2    1    2    0    0  0.36106550621E+03  0.16558166208E+03  0.71012760641E+03  0.12188006338E+04  0.90741841564E+03 0.  0.
         23    2    4    4    0    0  0.65192970832E+03  0.18890436179E+03  0.47902646340E+03  0.83544445595E+03  0.88339593887E+02 0.  0.
         23    2    4    4    0    0 -0.29086420211E+03 -0.23322699702E+02  0.23110114301E+03  0.38335617788E+03  0.91696719842E+02 0.  0.
          3    1    3    3  502    0 -0.16831119277E+01  0.55241771478E+00 -0.36600565360E+01  0.40662076853E+01  0.00000000000E+00 0. -1.
         -4    1    3    3    0  502 -0.35938239428E+03 -0.16613407980E+03  0.39132823151E+03  0.55668125760E+03  0.00000000000E+00 0.  1.
         11    1    5    5    0    0  0.23844129608E+03  0.11037071775E+03  0.16406765177E+03  0.30976465481E+03  0.00000000000E+00 0.  1.
        -11    1    5    5    0    0  0.41348841224E+03  0.78533644040E+02  0.31495881163E+03  0.52567980114E+03  0.00000000000E+00 0. -1.
          1    1    6    6  503    0 -0.22805032725E+03  0.64415590730E+00  0.13168296001E+03  0.26333964505E+03  0.00000000000E+00 0. -1.
         -1    1    6    6    0  503 -0.62813874856E+02 -0.23966855610E+02  0.99418183004E+02  0.12001653284E+03  0.00000000000E+00 0.  1.
<mgrwt>
<rscale>  0 0.14005841E+04</rscale>
<asrwt>0</asrwt>
<pdfrwt beam="1">  1        1 0.52442487E-01 0.14005841E+04</pdfrwt>
<pdfrwt beam="2">  1       -2 0.22133414E+00 0.14005841E+04</pdfrwt>
<totfact> 0.61195214E+00</totfact>
</mgrwt>
</event>
<event>
12    4  0.4280696E-008  0.1345082E+04  0.7818608E-02  0.8994559E-01
          3   -1    0    0  501    0  0.00000000000E+00  0.00000000000E+00  0.27250620481E+03  0.27250620481E+03  0.00000000000E+00 0. -1.
         -4   -1    0    0    0  501 -0.00000000000E+00 -0.00000000000E+00 -0.16598213451E+04  0.16598213451E+04  0.00000000000E+00 0.  1.
        -24    2    1    2    0    0  0.31205602195E+03  0.12803790659E+03 -0.63764360600E+03  0.72497328436E+03  0.72278824059E+02 0.  0.
        254    2    1    2    0    0 -0.31205602195E+03 -0.12803790659E+03 -0.74967153427E+03  0.12073542655E+04  0.88426480584E+03 0.  0.
         23    2    4    4    0    0  0.23347207219E+03  0.16284793159E+03 -0.37816968098E+03  0.48109022934E+03  0.86063022525E+02 0.  0.
         23    2    4    4    0    0 -0.54552809413E+03 -0.29088583818E+03 -0.37150185330E+03  0.72626403619E+03  0.85031470169E+02 0.  0.
          3    1    3    3  502    0  0.10825052574E+02  0.18993277837E+02 -0.22286220945E+02  0.31218616405E+02  0.00000000000E+00 0. -1.
         -4    1    3    3    0  502  0.30123096937E+03  0.10904462875E+03 -0.61535738506E+03  0.69375466796E+03  0.00000000000E+00 0.  1.
         11    1    5    5    0    0  0.33801002092E+02  0.65200207772E+02 -0.11703161915E+03  0.13816647465E+03  0.00000000000E+00 0. -1.
        -11    1    5    5    0    0  0.19967107010E+03  0.97647723815E+02 -0.26113806183E+03  0.34292375469E+03  0.00000000000E+00 0.  1.
          4    1    6    6  503    0 -0.45195523480E+03 -0.22910301839E+03 -0.26590361832E+03  0.57223811612E+03  0.00000000000E+00 0.  1.
         -4    1    6    6    0  503 -0.93572859329E+02 -0.61782819791E+02 -0.10559823498E+03  0.15402592007E+03  0.00000000000E+00 0. -1.
<mgrwt>
<rscale>  0 0.13450823E+04</rscale>
<asrwt>0</asrwt>
<pdfrwt beam="1">  1        3 0.41924032E-01 0.13450823E+04</pdfrwt>
<pdfrwt beam="2">  1       -4 0.25535713E+00 0.13450823E+04</pdfrwt>
<totfact> 0.74287392E-01</totfact>
</mgrwt>
</event>
<event>
12    4  0.4280696E-008  0.1379625E+04  0.7818608E-02  0.8968700E-01
         -2   -1    0    0    0  501 -0.00000000000E+00  0.00000000000E+00  0.74826286814E+03  0.74826286814E+03  0.00000000000E+00 0.  1.
          1   -1    0    0  501    0  0.00000000000E+00 -0.00000000000E+00 -0.63592823741E+03  0.63592823741E+03  0.00000000000E+00 0. -1.
        -24    2    1    2    0    0 -0.27815713356E+03  0.21535195438E+03  0.20280641564E+03  0.41339096376E+03  0.77548639517E+02 0.  0.
        254    2    1    2    0    0  0.27815713356E+03 -0.21535195438E+03 -0.90471784912E+02  0.97080014179E+03  0.90028879601E+03 0.  0.
         23    2    4    4    0    0  0.28803798284E+03  0.99513857788E+01  0.35328047033E+03  0.46455416283E+03  0.89098652372E+02 0.  0.
         23    2    4    4    0    0 -0.98808492871E+01 -0.22530334016E+03 -0.44375225524E+03  0.50624597895E+03  0.92248040140E+02 0.  0.
          3    1    3    3  502    0 -0.11366192566E+03  0.42215069726E+02  0.74070909432E+02  0.14208323293E+03  0.00000000000E+00 0. -1.
         -4    1    3    3    0  502 -0.16449520790E+03  0.17313688466E+03  0.12873550620E+03  0.27130773083E+03  0.00000000000E+00 0.  1.
         11    1    5    5    0    0  0.25041592346E+03  0.37292774802E+02  0.27749294007E+03  0.37563442010E+03  0.00000000000E+00 0. -1.
        -11    1    5    5    0    0  0.37622059385E+02 -0.27341389023E+02  0.75787530258E+02  0.88919742738E+02  0.00000000000E+00 0.  1.
          4    1    6    6  503    0 -0.38322905812E+02 -0.20055365331E+03 -0.39462293280E+03  0.44431708504E+03  0.00000000000E+00 0. -1.
         -4    1    6    6    0  503  0.28442056524E+02 -0.24749686852E+02 -0.49129322440E+02  0.61928893919E+02  0.00000000000E+00 0.  1.
<mgrwt>
<rscale>  0 0.13796253E+04</rscale>
<asrwt>0</asrwt>
<pdfrwt beam="1">  1        1 0.97835113E-01 0.13796253E+04</pdfrwt>
<pdfrwt beam="2">  1       -2 0.11511736E+00 0.13796253E+04</pdfrwt>
<totfact> 0.15814469E+01</totfact>
</mgrwt>
</event>
<event>
12    4  0.4280696E-008  0.2165570E+04  0.7818608E-02  0.8532897E-01
          1   -1    0    0  501    0  0.00000000000E+00  0.00000000000E+00  0.14970917860E+04  0.14970917860E+04  0.00000000000E+00 0. -1.
         -2   -1    0    0    0  501 -0.00000000000E+00 -0.00000000000E+00 -0.78313411421E+03  0.78313411421E+03  0.00000000000E+00 0.  1.
        -24    2    1    2    0    0 -0.90403475836E+02 -0.38793975920E+03 -0.54613921641E+03  0.68089080079E+03  0.81695738482E+02 0.  0.
        254    2    1    2    0    0  0.90403475836E+02  0.38793975920E+03  0.12600968882E+04  0.15993350994E+04  0.90075443234E+03 0.  0.
         23    2    4    4    0    0  0.17304658365E+03 -0.25971332924E+03  0.40377830708E+03  0.51828154485E+03  0.90458305128E+02 0.  0.
         23    2    4    4    0    0 -0.82643107809E+02  0.64765308844E+03  0.85631858115E+03  0.10810535546E+04  0.95450873482E+02 0.  0.
          1    1    3    3  502    0 -0.17736449706E+01 -0.14506229933E+03 -0.15773550437E+03  0.21430516989E+03  0.00000000000E+00 0. -1.
         -2    1    3    3    0  502 -0.88629830866E+02 -0.24287745986E+03 -0.38840371204E+03  0.46658563089E+03  0.00000000000E+00 0.  1.
         11    1    5    5    0    0  0.86059867755E+02 -0.54911706014E+02  0.11624192590E+03  0.15470546736E+03  0.00000000000E+00 0. -1.
        -11    1    5    5    0    0  0.86986715891E+02 -0.20480162323E+03  0.28753638118E+03  0.36357607749E+03  0.00000000000E+00 0.  1.
          4    1    6    6  503    0 -0.28299504695E+02  0.51660456921E+03  0.69049107960E+03  0.86282041811E+03  0.00000000000E+00 0.  1.
         -4    1    6    6    0  503 -0.54343603114E+02  0.13104851923E+03  0.16582750155E+03  0.21823313649E+03  0.00000000000E+00 0. -1.
<mgrwt>
<rscale>  0 0.21655703E+04</rscale>
<asrwt>0</asrwt>
<pdfrwt beam="1">  1        1 0.23032181E+00 0.21655703E+04</pdfrwt>
<pdfrwt beam="2">  1       -2 0.12048217E+00 0.21655703E+04</pdfrwt>
<totfact> 0.27737503E+00</totfact>
</mgrwt>
</event>
<event>
12    4  0.4280696E-008  0.2932632E+04  0.7818608E-02  0.8263234E-01
         -2   -1    0    0    0  501 -0.00000000000E+00  0.00000000000E+00  0.62951479538E+03  0.62951479538E+03  0.00000000000E+00 0.  1.
          1   -1    0    0  501    0  0.00000000000E+00 -0.00000000000E+00 -0.34154591493E+04  0.34154591493E+04  0.00000000000E+00 0. -1.
        -24    2    1    2    0    0  0.73663162053E+03  0.20859142861E+03 -0.27655572006E+04  0.28706452181E+04  0.78490825575E+02 0.  0.
        254    2    1    2    0    0 -0.73663162053E+03 -0.20859142861E+03 -0.20387153254E+02  0.11743287266E+04  0.89022232817E+03 0.  0.
         23    2    4    4    0    0 -0.54637803171E+03 -0.20145293316E+03  0.39458080958E+03  0.70883179013E+03  0.87385660122E+02 0.  0.
         23    2    4    4    0    0 -0.19025358881E+03 -0.71384954508E+01 -0.41496796283E+03  0.46549693644E+03  0.90783266529E+02 0.  0.
          3    1    3    3  502    0  0.56281698186E+03  0.12491080386E+03 -0.20443613673E+04  0.21240948812E+04  0.00000000000E+00 0. -1.
         -4    1    3    3    0  502  0.17381463867E+03  0.83680624743E+02 -0.72119583331E+03  0.74655033692E+03  0.00000000000E+00 0.  1.
         11    1    5    5    0    0 -0.48382004542E+03 -0.16090747792E+03  0.37126529506E+03  0.63072257936E+03  0.00000000000E+00 0. -1.
        -11    1    5    5    0    0 -0.62557986294E+02 -0.40545455240E+02  0.23315514518E+02  0.78109210769E+02  0.00000000000E+00 0.  1.
          4    1    6    6  503    0 -0.72419401247E+01  0.18087988098E+02 -0.86241993920E+02  0.88415510662E+02  0.00000000000E+00 0.  1.
         -4    1    6    6    0  503 -0.18301164869E+03 -0.25226483548E+02 -0.32872596891E+03  0.37708142577E+03  0.00000000000E+00 0. -1.
<mgrwt>
<rscale>  0 0.29326316E+04</rscale>
<asrwt>0</asrwt>
<pdfrwt beam="1">  1        1 0.52545524E+00 0.29326316E+04</pdfrwt>
<pdfrwt beam="2">  1       -2 0.96848432E-01 0.29326316E+04</pdfrwt>
<totfact> 0.19518478E-01</totfact>
</mgrwt>
</event>
<event>
12    4  0.4280696E-008  0.1493870E+04  0.7818608E-02  0.8888539E-01
         -2   -1    0    0    0  501 -0.00000000000E+00  0.00000000000E+00  0.92142189390E+03  0.92142189390E+03  0.00000000000E+00 0.  1.
          1   -1    0    0  501    0  0.00000000000E+00 -0.00000000000E+00 -0.60549051467E+03  0.60549051467E+03  0.00000000000E+00 0. -1.
        -24    2    1    2    0    0  0.32123330663E+03 -0.22660086802E+03 -0.16377661884E+03  0.43267948393E+03  0.76485059079E+02 0.  0.
        254    2    1    2    0    0 -0.32123330663E+03  0.22660086802E+03  0.47970799807E+03  0.10942329246E+04  0.90149161909E+03 0.  0.
         23    2    4    4    0    0 -0.32020420799E+03  0.45547378571E+03  0.59700989557E+03  0.82130910656E+03  0.90225987564E+02 0.  0.
         23    2    4    4    0    0 -0.10290986406E+01 -0.22887291769E+03 -0.11730189750E+03  0.27292381808E+03  0.91344424163E+02 0.  0.
          1    1    3    3  502    0  0.30852517661E+03 -0.22463180198E+03 -0.14163075228E+03  0.40707063398E+03  0.00000000000E+00 0. -1.
         -2    1    3    3    0  502  0.12708130021E+02 -0.19690660384E+01 -0.22145866568E+02  0.25608849949E+02  0.00000000000E+00 0.  1.
         11    1    5    5    0    0 -0.10468992748E+03  0.13717841533E+03  0.24788188771E+03  0.30203199964E+03  0.00000000000E+00 0. -1.
        -11    1    5    5    0    0 -0.21551428050E+03  0.31829537037E+03  0.34912800786E+03  0.51927710692E+03  0.00000000000E+00 0.  1.
          2    1    6    6  503    0 -0.38257142336E+02 -0.18046479066E+03 -0.97927894402E+02  0.20885646293E+03  0.00000000000E+00 0. -1.
         -2    1    6    6    0  503  0.37228043696E+02 -0.48408127026E+02 -0.19374003098E+02  0.64067355148E+02  0.00000000000E+00 0.  1.
<mgrwt>
<rscale>  0 0.14938704E+04</rscale>
<asrwt>0</asrwt>
<pdfrwt beam="1">  1        1 0.93152387E-01 0.14938704E+04</pdfrwt>
<pdfrwt beam="2">  1       -2 0.14175721E+00 0.14938704E+04</pdfrwt>
<totfact> 0.99471648E+00</totfact>
</mgrwt>
</event>
<event>
12    4  0.4280696E-008  0.2734672E+04  0.7818608E-02  0.8323842E-01
          1   -1    0    0  501    0  0.00000000000E+00  0.00000000000E+00  0.24766622500E+04  0.24766622500E+04  0.00000000000E+00 0. -1.
         -2   -1    0    0    0  501 -0.00000000000E+00 -0.00000000000E+00 -0.75488985382E+03  0.75488985382E+03  0.00000000000E+00 0.  1.
        -24    2    1    2    0    0 -0.78260295925E+03  0.87150452746E+03  0.11389979605E+04  0.16357864272E+04  0.80581314028E+02 0.  0.
        254    2    1    2    0    0  0.78260295925E+03 -0.87150452746E+03  0.58277443560E+03  0.15957656766E+04  0.91370373670E+03 0.  0.
         23    2    4    4    0    0  0.76484929413E+03 -0.19254749021E+03  0.39117657680E+03  0.88428174426E+03  0.82861995434E+02 0.  0.
         23    2    4    4    0    0  0.17753665128E+02 -0.67895703725E+03  0.19159785880E+03  0.71148393229E+03  0.90563764033E+02 0.  0.
          3    1    3    3  502    0 -0.59405054424E+03  0.70979279653E+03  0.88900252331E+03  0.12833656336E+04  0.00000000000E+00 0. -1.
         -4    1    3    3    0  502 -0.18855241501E+03  0.16171173093E+03  0.24999543722E+03  0.35242079360E+03  0.00000000000E+00 0.  1.
         11    1    5    5    0    0  0.10417898099E+03 -0.49877168063E+01  0.73470641848E+02  0.12757771205E+03  0.00000000000E+00 0.  1.
        -11    1    5    5    0    0  0.66067031314E+03 -0.18755977340E+03  0.31770593495E+03  0.75670403221E+03  0.00000000000E+00 0. -1.
          3    1    6    6  503    0  0.11475134392E+02 -0.62886091817E+03  0.20064018624E+03  0.66019256088E+03  0.00000000000E+00 0. -1.
         -3    1    6    6    0  503  0.62785307355E+01 -0.50096119080E+02 -0.90423274480E+01  0.51291371406E+02  0.00000000000E+00 0.  1.
<mgrwt>
<rscale>  0 0.27346716E+04</rscale>
<asrwt>0</asrwt>
<pdfrwt beam="1">  1        1 0.38102496E+00 0.27346716E+04</pdfrwt>
<pdfrwt beam="2">  1       -2 0.11613690E+00 0.27346716E+04</pdfrwt>
<totfact> 0.61953406E-01</totfact>
</mgrwt>
</event>
<event>
12    4  0.4280696E-008  0.1980969E+04  0.7818608E-02  0.8615570E-01
         -2   -1    0    0    0  501 -0.00000000000E+00  0.00000000000E+00  0.61441228269E+03  0.61441228269E+03  0.00000000000E+00 0.  1.
          1   -1    0    0  501    0  0.00000000000E+00 -0.00000000000E+00 -0.15967440954E+04  0.15967440954E+04  0.00000000000E+00 0. -1.
        -24    2    1    2    0    0  0.42977322878E+03 -0.15773548594E+02  0.33679569243E+03  0.55134029658E+03  0.74772663320E+02 0.  0.
        254    2    1    2    0    0 -0.42977322878E+03  0.15773548594E+02 -0.13191275051E+04  0.16598160815E+04  0.91100944926E+03 0.  0.
         23    2    4    4    0    0 -0.51147045072E+03 -0.33967574049E+03 -0.69864706703E+03  0.93426614844E+03  0.88112889045E+02 0.  0.
         23    2    4    4    0    0  0.81697221946E+02  0.35544928909E+03 -0.62048043810E+03  0.72554993307E+03  0.91695682135E+02 0.  0.
          3    1    3    3  502    0  0.20562292733E+03 -0.44598496097E+02  0.16868925055E+03  0.26967735787E+03  0.00000000000E+00 0. -1.
         -4    1    3    3    0  502  0.22415030145E+03  0.28824947502E+02  0.16810644188E+03  0.28166293870E+03  0.00000000000E+00 0.  1.
         11    1    5    5    0    0 -0.38655988342E+03 -0.21096907473E+03 -0.51390646917E+03  0.67678383034E+03  0.00000000000E+00 0. -1.
        -11    1    5    5    0    0 -0.12491056731E+03 -0.12870666576E+03 -0.18474059786E+03  0.25748231810E+03  0.00000000000E+00 0.  1.
          1    1    6    6  503    0  0.95552732817E+02  0.21981638091E+03 -0.39025717779E+03  0.45798496796E+03  0.00000000000E+00 0. -1.
         -1    1    6    6    0  503 -0.13855510872E+02  0.13563290818E+03 -0.23022326032E+03  0.26756496511E+03  0.00000000000E+00 0.  1.
<mgrwt>
<rscale>  0 0.19809686E+04</rscale>
<asrwt>0</asrwt>
<pdfrwt beam="1">  1        1 0.24565293E+00 0.19809686E+04</pdfrwt>
<pdfrwt beam="2">  1       -2 0.94524969E-01 0.19809686E+04</pdfrwt>
<totfact> 0.43141057E+00</totfact>
</mgrwt>
</event>
<event>
12    4  0.4280696E-008  0.1118650E+04  0.7818608E-02  0.9187202E-01
          1   -1    0    0  501    0  0.00000000000E+00  0.00000000000E+00  0.10907881147E+04  0.10907881147E+04  0.00000000000E+00 0. -1.
         -2   -1    0    0    0  501 -0.00000000000E+00 -0.00000000000E+00 -0.28680596894E+03  0.28680596894E+03  0.00000000000E+00 0.  1.
        -24    2    1    2    0    0 -0.28210731899E+02 -0.12371993742E+03 -0.15998127177E+02  0.15110552641E+03  0.80464102115E+02 0.  0.
        254    2    1    2    0    0  0.28210731899E+02  0.12371993742E+03  0.81998027291E+03  0.12264885572E+04  0.90321872472E+03 0.  0.
         23    2    4    4    0    0 -0.41100216140E+03  0.12545857285E+03  0.26659464159E+03  0.51422347818E+03  0.93222596012E+02 0.  0.
         23    2    4    4    0    0  0.43921289330E+03 -0.17386354272E+01  0.55338563132E+03  0.71226507903E+03  0.90415138952E+02 0.  0.
          3    1    3    3  502    0 -0.13818047737E+02 -0.94483671125E+02  0.25026103516E+02  0.98713770112E+02  0.00000000000E+00 0. -1.
         -4    1    3    3    0  502 -0.14392684162E+02 -0.29236266297E+02 -0.41024230692E+02  0.52391756301E+02  0.00000000000E+00 0.  1.
         11    1    5    5    0    0 -0.25653529338E+03  0.49734227313E+02  0.11724649861E+03  0.28640983146E+03  0.00000000000E+00 0.  1.
        -11    1    5    5    0    0 -0.15446686802E+03  0.75724345536E+02  0.14934814298E+03  0.22781364672E+03  0.00000000000E+00 0. -1.
          2    1    6    6  503    0  0.18789609846E+02 -0.10560400215E+02  0.61289573297E+02  0.64969094851E+02  0.00000000000E+00 0. -1.
         -2    1    6    6    0  503  0.42042328346E+03  0.88217647883E+01  0.49209605803E+03  0.64729598418E+03  0.00000000000E+00 0.  1.
<mgrwt>
<rscale>  0 0.11186502E+04</rscale>
<asrwt>0</asrwt>
<pdfrwt beam="1">  1        1 0.16781355E+00 0.11186502E+04</pdfrwt>
<pdfrwt beam="2">  1       -2 0.44123996E-01 0.11186502E+04</pdfrwt>
<totfact> 0.54749664E+01</totfact>
</mgrwt>
</event>
<event>
12    4  0.4280696E-008  0.1456681E+04  0.7818608E-02  0.8913781E-01
          1   -1    0    0  501    0  0.00000000000E+00  0.00000000000E+00  0.32915721251E+03  0.32915721251E+03  0.00000000000E+00 0. -1.
         -2   -1    0    0    0  501 -0.00000000000E+00 -0.00000000000E+00 -0.16116318162E+04  0.16116318162E+04  0.00000000000E+00 0.  1.
        -24    2    1    2    0    0  0.25181652797E+02  0.26435598984E+03 -0.88161096122E+03  0.92397493181E+03  0.77288955703E+02 0.  0.
        254    2    1    2    0    0 -0.25181652797E+02 -0.26435598984E+03 -0.40086364246E+03  0.10168140969E+04  0.89593584747E+03 0.  0.
         23    2    4    4    0    0 -0.20116533023E+03  0.16890205971E+03 -0.45929860849E+03  0.53681339384E+03  0.90653252452E+02 0.  0.
         23    2    4    4    0    0  0.17598367743E+03 -0.43325804955E+03  0.58434966036E+02  0.48000070304E+03  0.91122101852E+02 0.  0.
          3    1    3    3  502    0  0.23025674106E+02  0.19352932318E+02 -0.13011492860E+03  0.13354629273E+03  0.00000000000E+00 0. -1.
         -4    1    3    3    0  502  0.21559786902E+01  0.24500305752E+03 -0.75149603262E+03  0.79042863908E+03  0.00000000000E+00 0.  1.
         11    1    5    5    0    0 -0.38883781825E+02  0.81957236719E+02 -0.11593533148E+03  0.14720712695E+03  0.00000000000E+00 0.  1.
        -11    1    5    5    0    0 -0.16228154841E+03  0.86944822991E+02 -0.34336327701E+03  0.38960626688E+03  0.00000000000E+00 0. -1.
          1    1    6    6  503    0  0.18582225736E+03 -0.39449045586E+03  0.48238881327E+02  0.43872499447E+03  0.00000000000E+00 0. -1.
         -1    1    6    6    0  503 -0.98385799291E+01 -0.38767593682E+02  0.10196084710E+02  0.41275708574E+02  0.00000000000E+00 0.  1.
<mgrwt>
<rscale>  0 0.14566815E+04</rscale>
<asrwt>0</asrwt>
<pdfrwt beam="1">  1        1 0.50639572E-01 0.14566815E+04</pdfrwt>
<pdfrwt beam="2">  1       -2 0.24794335E+00 0.14566815E+04</pdfrwt>
<totfact> 0.43589680E+00</totfact>
</mgrwt>
</event>
<event>
12    4  0.4280696E-008  0.1526257E+04  0.7818608E-02  0.8867178E-01
          1   -1    0    0  501    0  0.00000000000E+00  0.00000000000E+00  0.13544319866E+04  0.13544319866E+04  0.00000000000E+00 0. -1.
         -2   -1    0    0    0  501 -0.00000000000E+00 -0.00000000000E+00 -0.42996987758E+03  0.42996987758E+03  0.00000000000E+00 0.  1.
        -24    2    1    2    0    0 -0.20018537055E+03 -0.40279960849E+03  0.77640818236E+02  0.46330884542E+03  0.79405808399E+02 0.  0.
        254    2    1    2    0    0  0.20018537055E+03  0.40279960849E+03  0.84682129075E+03  0.13210930187E+04  0.90876771426E+03 0.  0.
         23    2    4    4    0    0  0.50236276883E+02  0.27436845937E+03 -0.12944188812E+03  0.32089059304E+03  0.91726960554E+02 0.  0.
         23    2    4    4    0    0  0.14994909366E+03  0.12843114912E+03  0.97626317887E+03  0.10002024257E+04  0.91300641683E+02 0.  0.
          3    1    3    3  502    0 -0.19413925212E+01 -0.56648443124E+02  0.20808550663E+02  0.60380550627E+02  0.00000000000E+00 0. -1.
         -4    1    3    3    0  502 -0.19824397802E+03 -0.34615116537E+03  0.56832267573E+02  0.40292829479E+03  0.00000000000E+00 0.  1.
         11    1    5    5    0    0  0.87832271628E+01  0.20095548980E+02  0.14001242940E+02  0.26019434507E+02  0.00000000000E+00 0.  1.
        -11    1    5    5    0    0  0.41453049720E+02  0.25427291039E+03 -0.14344313106E+03  0.29487115854E+03  0.00000000000E+00 0. -1.
          4    1    6    6  503    0  0.14188539651E+03  0.10084358931E+03  0.65771230059E+03  0.68035752777E+03  0.00000000000E+00 0. -1.
         -4    1    6    6    0  503  0.80636971564E+01  0.27587559811E+02  0.31855087828E+03  0.31984489792E+03  0.00000000000E+00 0.  1.
<mgrwt>
<rscale>  0 0.15262568E+04</rscale>
<asrwt>0</asrwt>
<pdfrwt beam="1">  1        1 0.20837415E+00 0.15262568E+04</pdfrwt>
<pdfrwt beam="2">  1       -2 0.66149212E-01 0.15262568E+04</pdfrwt>
<totfact> 0.14728097E+01</totfact>
</mgrwt>
</event>
<event>
12    4  0.4280696E-008  0.1414157E+04  0.7818608E-02  0.8943635E-01
          1   -1    0    0  501    0  0.00000000000E+00  0.00000000000E+00  0.20617823214E+04  0.20617823214E+04  0.00000000000E+00 0. -1.
         -2   -1    0    0    0  501 -0.00000000000E+00 -0.00000000000E+00 -0.24248911703E+03  0.24248911703E+03  0.00000000000E+00 0.  1.
        -24    2    1    2    0    0 -0.30415872815E+03  0.27862921492E+03  0.53061274173E+03  0.67719056737E+03  0.83008502729E+02 0.  0.
        254    2    1    2    0    0  0.30415872815E+03 -0.27862921492E+03  0.12886804626E+04  0.16270808710E+04  0.90363048581E+03 0.  0.
         23    2    4    4    0    0  0.31512498335E+03 -0.18502959790E+03  0.14031540444E+04  0.14526704133E+04  0.88714994197E+02 0.  0.
         23    2    4    4    0    0 -0.10966255203E+02 -0.93599617017E+02 -0.11447358174E+03  0.17441045777E+03  0.91834959596E+02 0.  0.
          3    1    3    3  502    0 -0.10186443207E+03  0.44590495369E+02  0.14990188009E+03  0.18664203292E+03  0.00000000000E+00 0. -1.
         -4    1    3    3    0  502 -0.20229429609E+03  0.23403871955E+03  0.38071086164E+03  0.49054853445E+03  0.00000000000E+00 0.  1.
         11    1    5    5    0    0  0.14717530387E+03 -0.11852718608E+03  0.58304712722E+03  0.61290555265E+03  0.00000000000E+00 0.  1.
        -11    1    5    5    0    0  0.16794967948E+03 -0.66502411825E+02  0.82010691713E+03  0.83976486063E+03  0.00000000000E+00 0. -1.
          1    1    6    6  503    0  0.31943160950E+02 -0.78402351925E+02 -0.61946423467E+02  0.10490306811E+03  0.00000000000E+00 0. -1.
         -1    1    6    6    0  503 -0.42909416152E+02 -0.15197265091E+02 -0.52527158271E+02  0.69507389656E+02  0.00000000000E+00 0.  1.
<mgrwt>
<rscale>  0 0.14141567E+04</rscale>
<asrwt>0</asrwt>
<pdfrwt beam="1">  1        1 0.31719727E+00 0.14141567E+04</pdfrwt>
<pdfrwt beam="2">  1       -2 0.37306019E-01 0.14141567E+04</pdfrwt>
<totfact> 0.15690303E+01</totfact>
</mgrwt>
</event>
<event>
12    4  0.4280696E-008  0.2208218E+04  0.7818608E-02  0.8515015E-01
          1   -1    0    0  501    0  0.00000000000E+00  0.00000000000E+00  0.17482880426E+04  0.17482880426E+04  0.00000000000E+00 0. -1.
         -2   -1    0    0    0  501 -0.00000000000E+00 -0.00000000000E+00 -0.69728622554E+03  0.69728622554E+03  0.00000000000E+00 0.  1.
        -24    2    1    2    0    0 -0.26306862462E+03 -0.79114840917E+03  0.86335551321E+03  0.12027723714E+04  0.78471196812E+02 0.  0.
        254    2    1    2    0    0  0.26306862462E+03  0.79114840917E+03  0.18764630381E+03  0.12428018966E+04  0.90234389918E+03 0.  0.
         23    2    4    4    0    0  0.40024662894E+03  0.48318470781E+03 -0.25164351630E+03  0.68180198768E+03  0.88682948071E+02 0.  0.
         23    2    4    4    0    0 -0.13717800432E+03  0.30796370136E+03  0.43928982011E+03  0.56099990897E+03  0.89921663576E+02 0.  0.
          3    1    3    3  502    0 -0.10715863579E+03 -0.34509375871E+03  0.42950346295E+03  0.56128949768E+03  0.00000000000E+00 0. -1.
         -4    1    3    3    0  502 -0.15590998882E+03 -0.44605465046E+03  0.43385205026E+03  0.64148287376E+03  0.00000000000E+00 0.  1.
         11    1    5    5    0    0  0.17904355150E+03  0.15840046720E+03 -0.11919849716E+03  0.26712465829E+03  0.00000000000E+00 0. -1.
        -11    1    5    5    0    0  0.22120307744E+03  0.32478424061E+03 -0.13244501914E+03  0.41467732939E+03  0.00000000000E+00 0.  1.
          4    1    6    6  503    0 -0.54424805094E+02  0.18681301151E+03  0.30688471175E+03  0.36337224301E+03  0.00000000000E+00 0.  1.
         -4    1    6    6    0  503 -0.82753199226E+02  0.12115068985E+03  0.13240510836E+03  0.19762766596E+03  0.00000000000E+00 0. -1.
<mgrwt>
<rscale>  0 0.22082184E+04</rscale>
<asrwt>0</asrwt>
<pdfrwt beam="1">  1        1 0.26896739E+00 0.22082184E+04</pdfrwt>
<pdfrwt beam="2">  1       -2 0.10727480E+00 0.22082184E+04</pdfrwt>
<totfact> 0.24676936E+00</totfact>
</mgrwt>
</event>
<event>
12    4  0.4280696E-008  0.1080612E+04  0.7818608E-02  0.9224297E-01
          1   -1    0    0  501    0  0.00000000000E+00  0.00000000000E+00  0.12233458618E+04  0.12233458618E+04  0.00000000000E+00 0. -1.
         -2   -1    0    0    0  501 -0.00000000000E+00 -0.00000000000E+00 -0.23863311663E+03  0.23863311663E+03  0.00000000000E+00 0.  1.
        -24    2    1    2    0    0 -0.39813330967E+02  0.95634205793E+02  0.18862846746E+03  0.22961380182E+03  0.80067450382E+02 0.  0.
        254    2    1    2    0    0  0.39813330967E+02 -0.95634205793E+02  0.79608427767E+03  0.12323651766E+04  0.93500949119E+03 0.  0.
         23    2    4    4    0    0  0.43249146460E+03  0.13120464550E+02  0.15698708684E+03  0.46911534887E+03  0.90571803404E+02 0.  0.
         23    2    4    4    0    0 -0.39267813363E+03 -0.10875467034E+03  0.63909719083E+03  0.76324982769E+03  0.89896524935E+02 0.  0.
          3    1    3    3  502    0 -0.36087285669E+02  0.17894625622E+02  0.11737462395E+03  0.12409396504E+03  0.00000000000E+00 0. -1.
         -4    1    3    3    0  502 -0.37260452985E+01  0.77739580171E+02  0.71253843511E+02  0.10551983678E+03  0.00000000000E+00 0.  1.
         11    1    5    5    0    0  0.23059860911E+03  0.50054649794E+02  0.69382922654E+02  0.24595767206E+03  0.00000000000E+00 0. -1.
        -11    1    5    5    0    0  0.20189285549E+03 -0.36934185244E+02  0.87604164186E+02  0.22315767681E+03  0.00000000000E+00 0.  1.
          1    1    6    6  503    0 -0.19863688599E+03 -0.93987588263E+02  0.38355452457E+03  0.44204564531E+03  0.00000000000E+00 0. -1.
         -1    1    6    6    0  503 -0.19404124764E+03 -0.14767082080E+02  0.25554266626E+03  0.32120418238E+03  0.00000000000E+00 0.  1.
<mgrwt>
<rscale>  0 0.10806125E+04</rscale>
<asrwt>0</asrwt>
<pdfrwt beam="1">  1        1 0.18820705E+00 0.10806125E+04</pdfrwt>
<pdfrwt beam="2">  1       -2 0.36712788E-01 0.10806125E+04</pdfrwt>
<totfact> 0.62800298E+01</totfact>
</mgrwt>
</event>
<event>
12    4  0.4280696E-008  0.1738352E+04  0.7818608E-02  0.8739788E-01
         -2   -1    0    0    0  501 -0.00000000000E+00  0.00000000000E+00  0.51279473385E+03  0.51279473385E+03  0.00000000000E+00 0.  1.
          1   -1    0    0  501    0  0.00000000000E+00 -0.00000000000E+00 -0.14732347113E+04  0.14732347113E+04  0.00000000000E+00 0. -1.
        -24    2    1    2    0    0 -0.50050001632E+03 -0.37496838796E+03 -0.50907067737E+03  0.81043438778E+03  0.80928264691E+02 0.  0.
        254    2    1    2    0    0  0.50050001632E+03  0.37496838796E+03 -0.45136930010E+03  0.11755950574E+04  0.88723612167E+03 0.  0.
         23    2    4    4    0    0  0.20612632661E+03  0.51209369079E+03  0.60340712724E+02  0.56260216483E+03  0.90289443384E+02 0.  0.
         23    2    4    4    0    0  0.29437368971E+03 -0.13712530283E+03 -0.51171001282E+03  0.61299289257E+03  0.91945262245E+02 0.  0.
          1    1    3    3  502    0 -0.22926184843E+03 -0.18302487944E+03 -0.28954190516E+03  0.41218153341E+03  0.00000000000E+00 0. -1.
         -2    1    3    3    0  502 -0.27123816789E+03 -0.19194350852E+03 -0.21952877221E+03  0.39825285437E+03  0.00000000000E+00 0.  1.
         11    1    5    5    0    0  0.10719015499E+03  0.35454528616E+03  0.67187685242E+02  0.37643893836E+03  0.00000000000E+00 0. -1.
        -11    1    5    5    0    0  0.98936171613E+02  0.15754840463E+03 -0.68469725174E+01  0.18616322646E+03  0.00000000000E+00 0.  1.
          2    1    6    6  503    0  0.10406931521E+03 -0.11258543922E+02 -0.21083204027E+03  0.23538760882E+03  0.00000000000E+00 0. -1.
         -2    1    6    6    0  503  0.19030437451E+03 -0.12586675891E+03 -0.30087797255E+03  0.37760528375E+03  0.00000000000E+00 0.  1.
<mgrwt>
<rscale>  0 0.17383521E+04</rscale>
<asrwt>0</asrwt>
<pdfrwt beam="1">  1        1 0.22665150E+00 0.17383521E+04</pdfrwt>
<pdfrwt beam="2">  1       -2 0.78891497E-01 0.17383521E+04</pdfrwt>
<totfact> 0.81062859E+00</totfact>
</mgrwt>
</event>
<event>
12    4  0.4280696E-008  0.1704005E+04  0.7818608E-02  0.8759084E-01
         -2   -1    0    0    0  501 -0.00000000000E+00  0.00000000000E+00  0.96756123671E+03  0.96756123671E+03  0.00000000000E+00 0.  1.
          1   -1    0    0  501    0  0.00000000000E+00 -0.00000000000E+00 -0.75024504581E+03  0.75024504581E+03  0.00000000000E+00 0. -1.
        -24    2    1    2    0    0 -0.64989235783E+02 -0.44769997453E+03 -0.34140834098E+03  0.57230483926E+03  0.79462606153E+02 0.  0.
        254    2    1    2    0    0  0.64989235783E+02  0.44769997453E+03  0.55872453189E+03  0.11455014433E+04  0.89181925636E+03 0.  0.
         23    2    4    4    0    0 -0.16425633161E+02  0.70663745293E+03  0.41688999571E+03  0.82601515080E+03  0.94326398831E+02 0.  0.
         23    2    4    4    0    0  0.81414868944E+02 -0.25893747840E+03  0.14183453618E+03  0.31948629246E+03  0.90980529835E+02 0.  0.
          1    1    3    3  502    0 -0.67175900635E+02 -0.22960394780E+03 -0.20504701900E+03  0.31507912415E+03  0.00000000000E+00 0. -1.
         -2    1    3    3    0  502  0.21866648518E+01 -0.21809602674E+03 -0.13636132198E+03  0.25722571511E+03  0.00000000000E+00 0.  1.
         11    1    5    5    0    0 -0.13727239572E+02  0.59576065931E+03  0.30892360394E+03  0.67123244361E+03  0.00000000000E+00 0.  1.
        -11    1    5    5    0    0 -0.26983935894E+01  0.11087679362E+03  0.10796639177E+03  0.15478270719E+03  0.00000000000E+00 0. -1.
          3    1    6    6  503    0  0.74769424664E+01 -0.11811324764E+03  0.10020792382E+03  0.15507505258E+03  0.00000000000E+00 0.  1.
         -3    1    6    6    0  503  0.73937926478E+02 -0.14082423076E+03  0.41626612361E+02  0.16441123988E+03  0.00000000000E+00 0. -1.
<mgrwt>
<rscale>  0 0.17040047E+04</rscale>
<asrwt>0</asrwt>
<pdfrwt beam="1">  1        1 0.11542231E+00 0.17040047E+04</pdfrwt>
<pdfrwt beam="2">  1       -2 0.14885558E+00 0.17040047E+04</pdfrwt>
<totfact> 0.62335448E+00</totfact>
</mgrwt>
</event>
<event>
12    4  0.4280696E-008  0.1479704E+04  0.7818608E-02  0.8898062E-01
         -4   -1    0    0    0  501 -0.00000000000E+00  0.00000000000E+00  0.12106530618E+04  0.12106530618E+04  0.00000000000E+00 0.  1.
          3   -1    0    0  501    0  0.00000000000E+00 -0.00000000000E+00 -0.45213723240E+03  0.45213723240E+03  0.00000000000E+00 0. -1.
        -24    2    1    2    0    0  0.19101722619E+03  0.29256240263E+03  0.51812753658E+03  0.63011844739E+03  0.80701756196E+02 0.  0.
        254    2    1    2    0    0 -0.19101722619E+03 -0.29256240263E+03  0.24038829283E+03  0.10326718468E+04  0.94156479954E+03 0.  0.
         23    2    4    4    0    0 -0.10427143048E+03  0.19793574580E+03 -0.23622203788E+03  0.33778496171E+03  0.90811554869E+02 0.  0.
         23    2    4    4    0    0 -0.86745795707E+02 -0.49049814843E+03  0.47661033071E+03  0.69488688510E+03  0.87161396622E+02 0.  0.
          3    1    3    3  502    0  0.34630399427E+01  0.37977299434E+01 -0.26651444596E+01  0.57895071775E+01  0.00000000000E+00 0. -1.
         -4    1    3    3    0  502  0.18755418624E+03  0.28876467268E+03  0.52079268104E+03  0.62432894022E+03  0.00000000000E+00 0.  1.
         11    1    5    5    0    0 -0.57524384830E+02  0.28970422415E+02 -0.82169251081E+02  0.10440366875E+03  0.00000000000E+00 0. -1.
        -11    1    5    5    0    0 -0.46747045651E+02  0.16896532339E+03 -0.15405278680E+03  0.23338129296E+03  0.00000000000E+00 0.  1.
          1    1    6    6  503    0 -0.18795387429E+02 -0.20892137646E+03  0.25490723876E+03  0.33011983961E+03  0.00000000000E+00 0. -1.
         -1    1    6    6    0  503 -0.67950408277E+02 -0.28157677197E+03  0.22170309194E+03  0.36476704549E+03  0.00000000000E+00 0.  1.
<mgrwt>
<rscale>  0 0.14797045E+04</rscale>
<asrwt>0</asrwt>
<pdfrwt beam="1">  1        3 0.69559575E-01 0.14797045E+04</pdfrwt>
<pdfrwt beam="2">  1       -4 0.18625432E+00 0.14797045E+04</pdfrwt>
<totfact> 0.71294628E-01</totfact>
</mgrwt>
</event>
<event>
12    4  0.4280696E-008  0.3469227E+04  0.7818608E-02  0.8121122E-01
          1   -1    0    0  501    0  0.00000000000E+00  0.00000000000E+00  0.12508942012E+04  0.12508942012E+04  0.00000000000E+00 0. -1.
         -2   -1    0    0    0  501 -0.00000000000E+00 -0.00000000000E+00 -0.24053862718E+04  0.24053862718E+04  0.00000000000E+00 0.  1.
        -24    2    1    2    0    0 -0.14534012373E+04 -0.20380157461E+03 -0.12542489347E+04  0.19321107094E+04  0.77467183559E+02 0.  0.
        254    2    1    2    0    0  0.14534012373E+04  0.20380157461E+03  0.99756864099E+02  0.17241697637E+04  0.89938851657E+03 0.  0.
         23    2    4    4    0    0  0.12474490445E+04  0.30053904675E+03 -0.23620236044E+03  0.13079120429E+04  0.91594321198E+02 0.  0.
         23    2    4    4    0    0  0.20595219283E+03 -0.96737472139E+02  0.33595922454E+03  0.41625772081E+03  0.92884042426E+02 0.  0.
          3    1    3    3  502    0 -0.11109406701E+03 -0.15103910031E+02 -0.12443181628E+03  0.16749118403E+03  0.00000000000E+00 0. -1.
         -4    1    3    3    0  502 -0.13423071703E+04 -0.18869766458E+03 -0.11298171184E+04  0.17646195253E+04  0.00000000000E+00 0.  1.
         11    1    5    5    0    0  0.31077348505E+03  0.11467973869E+03 -0.71238255737E+02  0.33883106493E+03  0.00000000000E+00 0. -1.
        -11    1    5    5    0    0  0.93667555943E+03  0.18585930806E+03 -0.16496410471E+03  0.96908097797E+03  0.00000000000E+00 0.  1.
          4    1    6    6  503    0  0.14673019852E+03 -0.49938130053E+02  0.28732614103E+03  0.32646573987E+03  0.00000000000E+00 0.  1.
         -4    1    6    6    0  503  0.59221994309E+02 -0.46799342087E+02  0.48633083506E+02  0.89791980940E+02  0.00000000000E+00 0. -1.
<mgrwt>
<rscale>  0 0.34692269E+04</rscale>
<asrwt>0</asrwt>
<pdfrwt beam="1">  1        1 0.19244526E+00 0.34692269E+04</pdfrwt>
<pdfrwt beam="2">  1       -2 0.37005943E+00 0.34692269E+04</pdfrwt>
<totfact> 0.81680210E-02</totfact>
</mgrwt>
</event>
<event>
12    4  0.4280696E-008  0.1321898E+04  0.7818608E-02  0.9012378E-01
         -2   -1    0    0    0  501 -0.00000000000E+00  0.00000000000E+00  0.22241413914E+03  0.22241413914E+03  0.00000000000E+00 0.  1.
          1   -1    0    0  501    0  0.00000000000E+00 -0.00000000000E+00 -0.19641448794E+04  0.19641448794E+04  0.00000000000E+00 0. -1.
        -24    2    1    2    0    0  0.10851362970E+03 -0.32535575077E+03 -0.69075250177E+03  0.77513881901E+03  0.77907622579E+02 0.  0.
        254    2    1    2    0    0 -0.10851362970E+03  0.32535575077E+03 -0.10509782385E+04  0.14114201995E+04  0.87745093849E+03 0.  0.
         23    2    4    4    0    0 -0.92380614367E+01  0.39095102136E+03 -0.11587283015E+04  0.12261602722E+04  0.88823947158E+02 0.  0.
         23    2    4    4    0    0 -0.99275568261E+02 -0.65595270596E+02  0.10775006305E+03  0.18525992727E+03  0.92481276941E+02 0.  0.
          1    1    3    3  502    0  0.23735759227E+02 -0.59045078788E+02 -0.20583892700E+03  0.21545155248E+03  0.00000000000E+00 0. -1.
         -2    1    3    3    0  502  0.84777870471E+02 -0.26631067198E+03 -0.48491357476E+03  0.55968726653E+03  0.00000000000E+00 0.  1.
         11    1    5    5    0    0  0.52799266085E+01 -0.21682180033E+01 -0.66137021848E+01  0.87361233331E+01  0.00000000000E+00 0.  1.
        -11    1    5    5    0    0 -0.14517988045E+02  0.39311923936E+03 -0.11521145993E+04  0.12174241489E+04  0.00000000000E+00 0. -1.
          2    1    6    6  503    0 -0.85163254507E+02 -0.86295339389E+02  0.70137810413E+02  0.14006776206E+03  0.00000000000E+00 0. -1.
         -2    1    6    6    0  503 -0.14112313755E+02  0.20700068793E+02  0.37612252639E+02  0.45192165207E+02  0.00000000000E+00 0.  1.
<mgrwt>
<rscale>  0 0.13218980E+04</rscale>
<asrwt>0</asrwt>
<pdfrwt beam="1">  1        1 0.30217612E+00 0.13218980E+04</pdfrwt>
<pdfrwt beam="2">  1       -2 0.34217561E-01 0.13218980E+04</pdfrwt>
<totfact> 0.21732325E+01</totfact>
</mgrwt>
</event>
<event>
12    4  0.4280696E-008  0.1203151E+04  0.7818608E-02  0.9110103E-01
          1   -1    0    0  501    0  0.00000000000E+00  0.00000000000E+00  0.67835622501E+03  0.67835622501E+03  0.00000000000E+00 0. -1.
         -2   -1    0    0    0  501 -0.00000000000E+00 -0.00000000000E+00 -0.53348489747E+03  0.53348489747E+03  0.00000000000E+00 0.  1.
        -24    2    1    2    0    0 -0.20865226125E+03 -0.45614427794E+01 -0.73213399665E+02  0.23528967964E+03  0.80277385167E+02 0.  0.
        254    2    1    2    0    0  0.20865226125E+03  0.45614427794E+01  0.21808472720E+03  0.97655144285E+03  0.92872773158E+03 0.  0.
         23    2    4    4    0    0  0.28307995488E+03  0.24139125778E+03 -0.23713943807E+03  0.45049079698E+03  0.91119947815E+02 0.  0.
         23    2    4    4    0    0 -0.74427693631E+02 -0.23682981500E+03  0.45522416527E+03  0.52606064586E+03  0.88785807566E+02 0.  0.
          1    1    3    3  502    0 -0.53183757937E+02 -0.36670718134E+02 -0.16080087627E+02  0.66571937743E+02  0.00000000000E+00 0. -1.
         -2    1    3    3    0  502 -0.15546850331E+03  0.32109275354E+02 -0.57133312038E+02  0.16871774190E+03  0.00000000000E+00 0.  1.
         11    1    5    5    0    0  0.20799576339E+03  0.21259237755E+03 -0.15439236430E+03  0.33510410134E+03  0.00000000000E+00 0.  1.
        -11    1    5    5    0    0  0.75084191495E+02  0.28798880234E+02 -0.82747073767E+02  0.11538669565E+03  0.00000000000E+00 0. -1.
          4    1    6    6  503    0 -0.76209821081E+02 -0.16290853398E+03  0.38086438034E+03  0.42119449603E+03  0.00000000000E+00 0. -1.
         -4    1    6    6    0  503  0.17821274504E+01 -0.73921281021E+02  0.74359784935E+02  0.10486614984E+03  0.00000000000E+00 0.  1.
<mgrwt>
<rscale>  0 0.12031505E+04</rscale>
<asrwt>0</asrwt>
<pdfrwt beam="1">  1        1 0.10436250E+00 0.12031505E+04</pdfrwt>
<pdfrwt beam="2">  1       -2 0.82074599E-01 0.12031505E+04</pdfrwt>
<totfact> 0.32306207E+01</totfact>
</mgrwt>
</event>
<event>
12    4  0.4280696E-008  0.2492363E+04  0.7818608E-02  0.8405711E-01
          1   -1    0    0  501    0  0.00000000000E+00  0.00000000000E+00  0.14807847841E+04  0.14807847841E+04  0.00000000000E+00 0. -1.
         -2   -1    0    0    0  501 -0.00000000000E+00 -0.00000000000E+00 -0.10487470963E+04  0.10487470963E+04  0.00000000000E+00 0.  1.
        -24    2    1    2    0    0 -0.52226844862E+03 -0.92860636932E+03 -0.37342473105E+01  0.10683240932E+04  0.78919591861E+02 0.  0.
        254    2    1    2    0    0  0.52226844862E+03  0.92860636932E+03  0.43577193516E+03  0.14612077872E+04  0.90008716044E+03 0.  0.
         23    2    4    4    0    0  0.25530466571E+03 -0.88707975560E+02 -0.65149593623E+02  0.29287550484E+03  0.92097852992E+02 0.  0.
         23    2    4    4    0    0  0.26696378291E+03  0.10173143449E+04  0.50092152878E+03  0.11683322824E+04  0.88768273398E+02 0.  0.
          3    1    3    3  502    0 -0.99535962826E+02 -0.12267678851E+03  0.79897507866E+01  0.15817976625E+03  0.00000000000E+00 0. -1.
         -4    1    3    3    0  502 -0.42273248580E+03 -0.80592958081E+03 -0.11723998097E+02  0.91014432697E+03  0.00000000000E+00 0.  1.
         11    1    5    5    0    0 -0.82327210937E-01 -0.16613538748E+01  0.12105436537E+02  0.12219184433E+02  0.00000000000E+00 0.  1.
        -11    1    5    5    0    0  0.25538699292E+03 -0.87046621685E+02 -0.77255030160E+02  0.28065632041E+03  0.00000000000E+00 0. -1.
          4    1    6    6  503    0  0.26725410783E+03  0.91959100523E+03  0.44904358473E+03  0.10576920705E+04  0.00000000000E+00 0. -1.
         -4    1    6    6    0  503 -0.29032491826E+00  0.97723339647E+02  0.51877944053E+02  0.11064021186E+03  0.00000000000E+00 0.  1.
<mgrwt>
<rscale>  0 0.24923633E+04</rscale>
<asrwt>0</asrwt>
<pdfrwt beam="1">  1        1 0.22781304E+00 0.24923633E+04</pdfrwt>
<pdfrwt beam="2">  1       -2 0.16134571E+00 0.24923633E+04</pdfrwt>
<totfact> 0.12964301E+00</totfact>
</mgrwt>
</event>
<event>
12    4  0.4280696E-008  0.2106856E+04  0.7818608E-02  0.8558229E-01
          1   -1    0    0  501    0  0.00000000000E+00  0.00000000000E+00  0.68675346793E+03  0.68675346793E+03  0.00000000000E+00 0. -1.
         -2   -1    0    0    0  501 -0.00000000000E+00 -0.00000000000E+00 -0.16158794104E+04  0.16158794104E+04  0.00000000000E+00 0.  1.
        -24    2    1    2    0    0  0.69064020124E+03 -0.47386581273E+03 -0.59935148824E+03  0.10329937875E+04  0.79506368210E+02 0.  0.
        254    2    1    2    0    0 -0.69064020124E+03  0.47386581273E+03 -0.32977445425E+03  0.12696390908E+04  0.89537675548E+03 0.  0.
         23    2    4    4    0    0 -0.74395041320E+03  0.16049860012E+03  0.47088094438E+02  0.76802292226E+03  0.91760026922E+02 0.  0.
         23    2    4    4    0    0  0.53310211961E+02  0.31336721261E+03 -0.37686254869E+03  0.50161616857E+03  0.92479248108E+02 0.  0.
          3    1    3    3  502    0  0.62172064313E+03 -0.44564544943E+03 -0.52509730547E+03  0.92782735727E+03  0.00000000000E+00 0. -1.
         -4    1    3    3    0  502  0.68919558111E+02 -0.28220363297E+02 -0.74254182776E+02  0.10516643026E+03  0.00000000000E+00 0.  1.
         11    1    5    5    0    0 -0.64445198641E+03  0.12753771729E+03  0.70195327677E+02  0.66069025734E+03  0.00000000000E+00 0.  1.
        -11    1    5    5    0    0 -0.99498426786E+02  0.32960882834E+02 -0.23107233239E+02  0.10733266492E+03  0.00000000000E+00 0. -1.
          3    1    6    6  503    0  0.44651881171E+02  0.48868918523E+02 -0.68357608945E+02  0.95156315557E+02  0.00000000000E+00 0. -1.
         -3    1    6    6    0  503  0.86583307906E+01  0.26449829408E+03 -0.30850493975E+03  0.40645985302E+03  0.00000000000E+00 0.  1.
<mgrwt>
<rscale>  0 0.21068562E+04</rscale>
<asrwt>0</asrwt>
<pdfrwt beam="1">  1        1 0.10565438E+00 0.21068562E+04</pdfrwt>
<pdfrwt beam="2">  1       -2 0.24859683E+00 0.21068562E+04</pdfrwt>
<totfact> 0.14800812E+00</totfact>
</mgrwt>
</event>
<event>
12    4  0.4280696E-008  0.1780460E+04  0.7818608E-02  0.8716760E-01
         -2   -1    0    0    0  501 -0.00000000000E+00  0.00000000000E+00  0.13055901148E+04  0.13055901148E+04  0.00000000000E+00 0.  1.
          1   -1    0    0  501    0  0.00000000000E+00 -0.00000000000E+00 -0.60701235655E+03  0.60701235655E+03  0.00000000000E+00 0. -1.
        -24    2    1    2    0    0 -0.90802610680E+02 -0.62349999571E+03  0.48614077583E+03  0.79991139163E+03  0.80796174248E+02 0.  0.
        254    2    1    2    0    0  0.90802610680E+02  0.62349999571E+03  0.21243698239E+03  0.11126910797E+04  0.89216288232E+03 0.  0.
         23    2    4    4    0    0  0.95863370967E+02  0.81511628565E+03  0.30466647613E+03  0.88012717802E+03  0.90541939324E+02 0.  0.
         23    2    4    4    0    0 -0.50607602877E+01 -0.19161628994E+03 -0.92229493749E+02  0.23256390167E+03  0.94006781558E+02 0.  0.
          3    1    3    3  502    0  0.69030478570E+01 -0.12393966582E+03  0.12199738386E+03  0.17404612751E+03  0.00000000000E+00 0. -1.
         -4    1    3    3    0  502 -0.97705658537E+02 -0.49956032989E+03  0.36414339197E+03  0.62586526412E+03  0.00000000000E+00 0.  1.
         11    1    5    5    0    0  0.61799969792E+02  0.20718771844E+03  0.94977308183E+02  0.23614968984E+03  0.00000000000E+00 0. -1.
        -11    1    5    5    0    0  0.34063401175E+02  0.60792856721E+03  0.20968916795E+03  0.64397748818E+03  0.00000000000E+00 0.  1.
          4    1    6    6  503    0 -0.42633416976E+02 -0.13474030694E+03 -0.82677997029E+02  0.16373212803E+03  0.00000000000E+00 0. -1.
         -4    1    6    6    0  503  0.37572656688E+02 -0.56875982999E+02 -0.95514967199E+01  0.68831773639E+02  0.00000000000E+00 0.  1.
<mgrwt>
<rscale>  0 0.17804599E+04</rscale>
<asrwt>0</asrwt>
<pdfrwt beam="1">  1        1 0.93386517E-01 0.17804599E+04</pdfrwt>
<pdfrwt beam="2">  1       -2 0.20086002E+00 0.17804599E+04</pdfrwt>
<totfact> 0.36551639E+00</totfact>
</mgrwt>
</event>
<event>
12    4  0.4280696E-008  0.1730037E+04  0.7818608E-02  0.8744416E-01
         -2   -1    0    0    0  501 -0.00000000000E+00  0.00000000000E+00  0.25984530781E+03  0.25984530781E+03  0.00000000000E+00 0.  1.
          1   -1    0    0  501    0  0.00000000000E+00 -0.00000000000E+00 -0.28796246152E+04  0.28796246152E+04  0.00000000000E+00 0. -1.
        -24    2    1    2    0    0 -0.46442683342E+03  0.35883939102E+03 -0.59810376107E+03  0.84137219738E+03  0.75637777411E+02 0.  0.
        254    2    1    2    0    0  0.46442683342E+03 -0.35883939102E+03 -0.20216755463E+04  0.22980977256E+04  0.92175004734E+03 0.  0.
         23    2    4    4    0    0  0.67795121462E+01 -0.48242288649E+03 -0.15391827531E+04  0.16155187213E+04  0.89662636522E+02 0.  0.
         23    2    4    4    0    0  0.45764732127E+03  0.12358349546E+03 -0.48249279326E+03  0.68257900431E+03  0.91656153994E+02 0.  0.
          3    1    3    3  502    0 -0.81592182966E+02  0.10071432524E+03 -0.14438733145E+03  0.19403185593E+03  0.00000000000E+00 0. -1.
         -4    1    3    3    0  502 -0.38283465045E+03  0.25812506579E+03 -0.45371642962E+03  0.64734034146E+03  0.00000000000E+00 0.  1.
         11    1    5    5    0    0  0.29027933926E+01 -0.83892363276E+02 -0.17137013069E+03  0.19082472722E+03  0.00000000000E+00 0.  1.
        -11    1    5    5    0    0  0.38767187535E+01 -0.39853052321E+03 -0.13678126224E+04  0.14246939941E+04  0.00000000000E+00 0. -1.
          3    1    6    6  503    0  0.41528594643E+03  0.13324559139E+03 -0.45908093654E+03  0.63322358707E+03  0.00000000000E+00 0. -1.
         -3    1    6    6    0  503  0.42361374843E+02 -0.96620959286E+01 -0.23411856718E+02  0.49355417244E+02  0.00000000000E+00 0.  1.
<mgrwt>
<rscale>  0 0.17300369E+04</rscale>
<asrwt>0</asrwt>
<pdfrwt beam="1">  1        1 0.44301917E+00 0.17300369E+04</pdfrwt>
<pdfrwt beam="2">  1       -2 0.39976201E-01 0.17300369E+04</pdfrwt>
<totfact> 0.36184332E+00</totfact>
</mgrwt>
</event>
<event>
12    4  0.4280696E-008  0.1033717E+04  0.7818608E-02  0.9272319E-01
         -2   -1    0    0    0  501 -0.00000000000E+00  0.00000000000E+00  0.12590368838E+03  0.12590368838E+03  0.00000000000E+00 0.  1.
          1   -1    0    0  501    0  0.00000000000E+00 -0.00000000000E+00 -0.21218020482E+04  0.21218020482E+04  0.00000000000E+00 0. -1.
        -24    2    1    2    0    0 -0.62024650759E+02  0.69133573884E+02 -0.31763480819E+03  0.34037887042E+03  0.79620322249E+02 0.  0.
        254    2    1    2    0    0  0.62024650759E+02 -0.69133573884E+02 -0.16782635517E+04  0.19073268662E+04  0.90149914991E+03 0.  0.
         23    2    4    4    0    0  0.36312292807E+03  0.19366705816E+03 -0.47153112309E+03  0.63266660910E+03  0.92521607876E+02 0.  0.
         23    2    4    4    0    0 -0.30109827731E+03 -0.26280063204E+03 -0.12067324286E+04  0.12746602571E+04  0.93974847779E+02 0.  0.
          1    1    3    3  502    0 -0.13351174517E+02  0.26306520532E+02 -0.22719140341E+03  0.22909871380E+03  0.00000000000E+00 0. -1.
         -2    1    3    3    0  502 -0.48673476241E+02  0.42827053352E+02 -0.90443404779E+02  0.11128015661E+03  0.00000000000E+00 0.  1.
         11    1    5    5    0    0  0.27234112328E+03  0.18784486951E+03 -0.36879923893E+03  0.49544753614E+03  0.00000000000E+00 0. -1.
        -11    1    5    5    0    0  0.90781804789E+02  0.58221886454E+01 -0.10273188415E+03  0.13721907296E+03  0.00000000000E+00 0.  1.
          4    1    6    6  503    0 -0.24603739981E+03 -0.18205264577E+03 -0.80530553546E+03  0.86150715225E+03  0.00000000000E+00 0. -1.
         -4    1    6    6    0  503 -0.55060877503E+02 -0.80747986275E+02 -0.40142689310E+03  0.41315310482E+03  0.00000000000E+00 0.  1.
<mgrwt>
<rscale>  0 0.10337170E+04</rscale>
<asrwt>0</asrwt>
<pdfrwt beam="1">  1        1 0.32643105E+00 0.10337170E+04</pdfrwt>
<pdfrwt beam="2">  1       -2 0.19369800E-01 0.10337170E+04</pdfrwt>
<totfact> 0.49186090E+01</totfact>
</mgrwt>
</event>
<event>
12    4  0.4280696E-008  0.1729253E+04  0.7818608E-02  0.8744854E-01
          1   -1    0    0  501    0  0.00000000000E+00  0.00000000000E+00  0.13867508201E+04  0.13867508201E+04  0.00000000000E+00 0. -1.
         -2   -1    0    0    0  501 -0.00000000000E+00 -0.00000000000E+00 -0.53908659435E+03  0.53908659435E+03  0.00000000000E+00 0.  1.
        -24    2    1    2    0    0  0.35495438059E+03 -0.50617842395E+03  0.21134831734E+03  0.65678394016E+03  0.66991220546E+02 0.  0.
        254    2    1    2    0    0 -0.35495438059E+03  0.50617842395E+03  0.63631590839E+03  0.12690534743E+04  0.90740816402E+03 0.  0.
         23    2    4    4    0    0  0.58089010228E+02  0.54299946195E+03  0.63720481037E+03  0.84448373362E+03  0.94340114471E+02 0.  0.
         23    2    4    4    0    0 -0.41304339082E+03 -0.36821037999E+02 -0.88890197431E+00  0.42456974066E+03  0.91093594727E+02 0.  0.
          1    1    3    3  502    0  0.31767800949E+03 -0.42399491212E+03  0.19783840584E+03  0.56553606255E+03  0.00000000000E+00 0. -1.
         -2    1    3    3    0  502  0.37276371104E+02 -0.82183511830E+02  0.13509911501E+02  0.91247877609E+02  0.00000000000E+00 0.  1.
         11    1    5    5    0    0  0.63303360472E+02  0.47844712129E+03  0.59921568872E+03  0.76940132891E+03  0.00000000000E+00 0. -1.
        -11    1    5    5    0    0 -0.52143502443E+01  0.64552340659E+02  0.37989121649E+02  0.75082404708E+02  0.00000000000E+00 0.  1.
          1    1    6    6  503    0 -0.16589225617E+03 -0.27063057614E+02 -0.43403801911E+02  0.17359878964E+03  0.00000000000E+00 0. -1.
         -1    1    6    6    0  503 -0.24715113465E+03 -0.97579803847E+01  0.42514899937E+02  0.25097095102E+03  0.00000000000E+00 0.  1.
<mgrwt>
<rscale>  0 0.17292528E+04</rscale>
<asrwt>0</asrwt>
<pdfrwt beam="1">  1        1 0.21334628E+00 0.17292528E+04</pdfrwt>
<pdfrwt beam="2">  1       -2 0.82936400E-01 0.17292528E+04</pdfrwt>
<totfact> 0.83302432E+00</totfact>
</mgrwt>
</event>
<event>
12    4  0.4280696E-008  0.1347449E+04  0.7818608E-02  0.8992761E-01
         -2   -1    0    0    0  501 -0.00000000000E+00  0.00000000000E+00  0.84998661363E+03  0.84998661363E+03  0.00000000000E+00 0.  1.
          1   -1    0    0  501    0  0.00000000000E+00 -0.00000000000E+00 -0.53401389838E+03  0.53401389838E+03  0.00000000000E+00 0. -1.
        -24    2    1    2    0    0 -0.14504334183E+03 -0.69402722378E+02  0.41271648404E+03  0.44995113826E+03  0.79163260034E+02 0.  0.
        254    2    1    2    0    0  0.14504334183E+03  0.69402722378E+02 -0.96743768784E+02  0.93404937376E+03  0.91500522782E+03 0.  0.
         23    2    4    4    0    0 -0.24870191786E+03 -0.26873846383E+03  0.64537763875E+02  0.38306104312E+03  0.92182611736E+02 0.  0.
         23    2    4    4    0    0  0.39374525969E+03  0.33814118621E+03 -0.16128153266E+03  0.55098833063E+03  0.90562775910E+02 0.  0.
          3    1    3    3  502    0 -0.41428534395E+02 -0.26683362420E+02  0.49542003046E+02  0.69876572312E+02  0.00000000000E+00 0. -1.
         -4    1    3    3    0  502 -0.10361480744E+03 -0.42719359958E+02  0.36317448099E+03  0.38007456595E+03  0.00000000000E+00 0.  1.
         11    1    5    5    0    0 -0.68643283267E+02 -0.11592338694E+03 -0.10843352775E+02  0.13515809364E+03  0.00000000000E+00 0. -1.
        -11    1    5    5    0    0 -0.18005863459E+03 -0.15281507689E+03  0.75381116650E+02  0.24790294948E+03  0.00000000000E+00 0.  1.
          3    1    6    6  503    0  0.52472069853E+02  0.10376301947E+02 -0.11962550762E+02  0.54809564654E+02  0.00000000000E+00 0. -1.
         -3    1    6    6    0  503  0.34127318984E+03  0.32776488426E+03 -0.14931898190E+03  0.49617876598E+03  0.00000000000E+00 0.  1.
<mgrwt>
<rscale>  0 0.13474489E+04</rscale>
<asrwt>0</asrwt>
<pdfrwt beam="1">  1        1 0.82155985E-01 0.13474489E+04</pdfrwt>
<pdfrwt beam="2">  1       -2 0.13076717E+00 0.13474489E+04</pdfrwt>
<totfact> 0.14809215E+01</totfact>
</mgrwt>
</event>
<event>
12    4  0.4280696E-008  0.1168422E+04  0.7818608E-02  0.9140955E-01
         -2   -1    0    0    0  501 -0.00000000000E+00  0.00000000000E+00  0.51341477773E+03  0.51341477773E+03  0.00000000000E+00 0.  1.
          1   -1    0    0  501    0  0.00000000000E+00 -0.00000000000E+00 -0.66476945114E+03  0.66476945114E+03  0.00000000000E+00 0. -1.
        -24    2    1    2    0    0 -0.96331414818E+02 -0.94533939584E+02 -0.20481048198E+03  0.25737543424E+03  0.77963923735E+02 0.  0.
        254    2    1    2    0    0  0.96331414818E+02  0.94533939584E+02  0.53455808570E+02  0.92080879463E+03  0.90929363002E+03 0.  0.
         23    2    4    4    0    0  0.99344356601E+02 -0.38161067489E+03 -0.91957225086E+02  0.41467075256E+03  0.89441005137E+02 0.  0.
         23    2    4    4    0    0 -0.30129417829E+01  0.47614461448E+03  0.14541303366E+03  0.50613804208E+03  0.91148206605E+02 0.  0.
          3    1    3    3  502    0 -0.97641406329E+02 -0.56258141672E+02 -0.17782673291E+03  0.21052593587E+03  0.00000000000E+00 0. -1.
         -4    1    3    3    0  502  0.13099915109E+01 -0.38275797912E+02 -0.26983749070E+02  0.46849498369E+02  0.00000000000E+00 0.  1.
         11    1    5    5    0    0  0.86913208441E+01  0.29994987099E+01 -0.18793282053E+01  0.93844512375E+01  0.00000000000E+00 0. -1.
        -11    1    5    5    0    0  0.90653035757E+02 -0.38461017360E+03 -0.90077896880E+02  0.40528630132E+03  0.00000000000E+00 0.  1.
          2    1    6    6  503    0 -0.11141405383E+02  0.78590554152E+02 -0.83336798015E+01  0.79812632677E+02  0.00000000000E+00 0. -1.
         -2    1    6    6    0  503  0.81284636002E+01  0.39755406033E+03  0.15374671346E+03  0.42632540940E+03  0.00000000000E+00 0.  1.
<mgrwt>
<rscale>  0 0.11684219E+04</rscale>
<asrwt>0</asrwt>
<pdfrwt beam="1">  1        1 0.10227222E+00 0.11684219E+04</pdfrwt>
<pdfrwt beam="2">  1       -2 0.78986889E-01 0.11684219E+04</pdfrwt>
<totfact> 0.36397882E+01</totfact>
</mgrwt>
</event>
<event>
12    4  0.4280696E-008  0.2078551E+04  0.7818608E-02  0.8570751E-01
         -2   -1    0    0    0  501 -0.00000000000E+00  0.00000000000E+00  0.11975320332E+04  0.11975320332E+04  0.00000000000E+00 0.  1.
          1   -1    0    0  501    0  0.00000000000E+00 -0.00000000000E+00 -0.90193283006E+03  0.90193283006E+03  0.00000000000E+00 0. -1.
        -24    2    1    2    0    0 -0.32599122664E+03  0.27203830133E+03  0.85194060663E+03  0.95530459251E+03  0.80801918450E+02 0.  0.
        254    2    1    2    0    0  0.32599122664E+03 -0.27203830133E+03 -0.55634140350E+03  0.11441602707E+04  0.90515846714E+03 0.  0.
         23    2    4    4    0    0 -0.16349139423E+03  0.11624524559E+03  0.91571048870E+02  0.23946590450E+03  0.93360962505E+02 0.  0.
         23    2    4    4    0    0  0.48948262087E+03 -0.38828354692E+03 -0.64791245237E+03  0.90469436623E+03  0.91235965596E+02 0.  0.
          1    1    3    3  502    0 -0.32675068366E+02  0.10280933519E+02  0.36563648477E+02  0.50102475754E+02  0.00000000000E+00 0. -1.
         -2    1    3    3    0  502 -0.29331615827E+03  0.26175736781E+03  0.81537695815E+03  0.90520211676E+03  0.00000000000E+00 0.  1.
         11    1    5    5    0    0 -0.12475987625E+03  0.52819713858E+02  0.21220085610E+02  0.13713220237E+03  0.00000000000E+00 0. -1.
        -11    1    5    5    0    0 -0.38731517975E+02  0.63425531732E+02  0.70350963259E+02  0.10233370213E+03  0.00000000000E+00 0.  1.
          1    1    6    6  503    0  0.20345986302E+03 -0.20599996191E+03 -0.25690563820E+03  0.38708191266E+03  0.00000000000E+00 0. -1.
         -1    1    6    6    0  503  0.28602275785E+03 -0.18228358501E+03 -0.39100681417E+03  0.51761245358E+03  0.00000000000E+00 0.  1.
<mgrwt>
<rscale>  0 0.20785509E+04</rscale>
<asrwt>0</asrwt>
<pdfrwt beam="1">  1        1 0.13875890E+00 0.20785509E+04</pdfrwt>
<pdfrwt beam="2">  1       -2 0.18423570E+00 0.20785509E+04</pdfrwt>
<totfact> 0.24821038E+00</totfact>
</mgrwt>
</event>
<event>
12    4  0.4280696E-008  0.1669283E+04  0.7818608E-02  0.8779080E-01
          1   -1    0    0  501    0  0.00000000000E+00  0.00000000000E+00  0.96787064664E+03  0.96787064664E+03  0.00000000000E+00 0. -1.
         -2   -1    0    0    0  501 -0.00000000000E+00 -0.00000000000E+00 -0.71975120299E+03  0.71975120299E+03  0.00000000000E+00 0.  1.
        -24    2    1    2    0    0 -0.14136678407E+03 -0.37404608246E+03 -0.34491460718E+03  0.53452048816E+03  0.82770928300E+02 0.  0.
        254    2    1    2    0    0  0.14136678407E+03  0.37404608246E+03  0.59303405083E+03  0.11531013615E+04  0.90446576769E+03 0.  0.
         23    2    4    4    0    0  0.43157462426E+03  0.47732709479E+03  0.49499661900E+03  0.81697582717E+03  0.91269039850E+02 0.  0.
         23    2    4    4    0    0 -0.29020784019E+03 -0.10328101233E+03  0.98037431836E+02  0.33612553430E+03  0.92094944203E+02 0.  0.
          3    1    3    3  502    0 -0.24206172876E+02 -0.16628347449E+03 -0.16743598488E+03  0.23721496944E+03  0.00000000000E+00 0. -1.
         -4    1    3    3    0  502 -0.11716061120E+03 -0.20776260797E+03 -0.17747862230E+03  0.29730551872E+03  0.00000000000E+00 0.  1.
         11    1    5    5    0    0  0.65137022173E+02  0.47070715371E+02  0.32445070822E+02  0.86666986354E+02  0.00000000000E+00 0. -1.
        -11    1    5    5    0    0  0.36643760209E+03  0.43025637942E+03  0.46255154818E+03  0.73030884082E+03  0.00000000000E+00 0.  1.
          2    1    6    6  503    0 -0.45717672317E+02  0.16185715253E+02  0.24024308030E+02  0.54122549059E+02  0.00000000000E+00 0. -1.
         -2    1    6    6    0  503 -0.24449016788E+03 -0.11946672758E+03  0.74013123806E+02  0.28200298524E+03  0.00000000000E+00 0.  1.
<mgrwt>
<rscale>  0 0.16692826E+04</rscale>
<asrwt>0</asrwt>
<pdfrwt beam="1">  1        1 0.14890318E+00 0.16692826E+04</pdfrwt>
<pdfrwt beam="2">  1       -2 0.11073095E+00 0.16692826E+04</pdfrwt>
<totfact> 0.86724182E+00</totfact>
</mgrwt>
</event>
<event>
12    4  0.4280696E-008  0.2361272E+04  0.7818608E-02  0.8454147E-01
          1   -1    0    0  501    0  0.00000000000E+00  0.00000000000E+00  0.34832276955E+04  0.34832276955E+04  0.00000000000E+00 0. -1.
         -2   -1    0    0    0  501 -0.00000000000E+00 -0.00000000000E+00 -0.40017524983E+03  0.40017524983E+03  0.00000000000E+00 0.  1.
        -24    2    1    2    0    0 -0.43938817075E+03  0.43566016155E+03  0.11794640041E+02  0.62374942485E+03  0.77861996493E+02 0.  0.
        254    2    1    2    0    0  0.43938817075E+03 -0.43566016155E+03  0.30712578056E+04  0.32596535205E+04  0.89991934305E+03 0.  0.
         23    2    4    4    0    0 -0.10752710811E+03 -0.49105586774E+03  0.11207495329E+04  0.12316119540E+04  0.89947460029E+02 0.  0.
         23    2    4    4    0    0  0.54691527886E+03  0.55395706191E+02  0.19505082727E+04  0.20280415664E+04  0.79278413262E+02 0.  0.
          3    1    3    3  502    0 -0.23888410587E+02  0.32586545753E+02  0.19384860823E+02  0.44814193662E+02  0.00000000000E+00 0. -1.
         -4    1    3    3    0  502 -0.41549976017E+03  0.40307361580E+03 -0.75902207818E+01  0.57893523118E+03  0.00000000000E+00 0.  1.
         11    1    5    5    0    0 -0.10266978971E+03 -0.30806217468E+03  0.77786062469E+03  0.84291787301E+03  0.00000000000E+00 0. -1.
        -11    1    5    5    0    0 -0.48573183981E+01 -0.18299369307E+03  0.34288890824E+03  0.38869408104E+03  0.00000000000E+00 0.  1.
          2    1    6    6  503    0  0.45961942865E+03  0.29806622177E+02  0.15308576230E+04  0.15986442744E+04  0.00000000000E+00 0. -1.
         -2    1    6    6    0  503  0.87295850209E+02  0.25589084015E+02  0.41965064964E+03  0.42939729206E+03  0.00000000000E+00 0.  1.
<mgrwt>
<rscale>  0 0.23612721E+04</rscale>
<asrwt>0</asrwt>
<pdfrwt beam="1">  1        1 0.53588116E+00 0.23612721E+04</pdfrwt>
<pdfrwt beam="2">  1       -2 0.61565425E-01 0.23612721E+04</pdfrwt>
<totfact> 0.50012504E-01</totfact>
</mgrwt>
</event>
<event>
12    4  0.4280696E-008  0.1793650E+04  0.7818608E-02  0.8709684E-01
          1   -1    0    0  501    0  0.00000000000E+00  0.00000000000E+00  0.11261270715E+04  0.11261270715E+04  0.00000000000E+00 0. -1.
         -2   -1    0    0    0  501 -0.00000000000E+00 -0.00000000000E+00 -0.71421361888E+03  0.71421361888E+03  0.00000000000E+00 0.  1.
        -24    2    1    2    0    0 -0.21672203726E+03  0.54180624173E+03 -0.16811126418E+03  0.61232802653E+03  0.78496942069E+02 0.  0.
        254    2    1    2    0    0  0.21672203726E+03 -0.54180624173E+03  0.58002471679E+03  0.12280126638E+04  0.91162710877E+03 0.  0.
         23    2    4    4    0    0  0.45634596416E+02 -0.75041172344E+03  0.26274438157E+03  0.80177195738E+03  0.92754463705E+02 0.  0.
         23    2    4    4    0    0  0.17108744084E+03  0.20860548170E+03  0.31728033522E+03  0.42624070645E+03  0.90703744728E+02 0.  0.
          1    1    3    3  502    0 -0.19783889621E+02  0.15523017066E+02 -0.17284151136E+02  0.30514066066E+02  0.00000000000E+00 0. -1.
         -2    1    3    3    0  502 -0.19693814764E+03  0.52628322467E+03 -0.15082711305E+03  0.58181396046E+03  0.00000000000E+00 0.  1.
         11    1    5    5    0    0  0.23439025505E+01 -0.16911641426E+03  0.10037627799E+03  0.19667550085E+03  0.00000000000E+00 0. -1.
        -11    1    5    5    0    0  0.43290693865E+02 -0.58129530918E+03  0.16236810357E+03  0.60509645653E+03  0.00000000000E+00 0.  1.
          1    1    6    6  503    0  0.37581157861E+01  0.49778355658E+02  0.31781148509E+02  0.59178116959E+02  0.00000000000E+00 0. -1.
         -1    1    6    6    0  503  0.16732932506E+03  0.15882712605E+03  0.28549918671E+03  0.36706258949E+03  0.00000000000E+00 0.  1.
<mgrwt>
<rscale>  0 0.17936502E+04</rscale>
<asrwt>0</asrwt>
<pdfrwt beam="1">  1        1 0.17325032E+00 0.17936502E+04</pdfrwt>
<pdfrwt beam="2">  1       -2 0.10987902E+00 0.17936502E+04</pdfrwt>
<totfact> 0.66101224E+00</totfact>
</mgrwt>
</event>
<event>
12    4  0.4280696E-008  0.1799544E+04  0.7818608E-02  0.8706542E-01
         -2   -1    0    0    0  501 -0.00000000000E+00  0.00000000000E+00  0.63317265143E+03  0.63317265143E+03  0.00000000000E+00 0.  1.
          1   -1    0    0  501    0  0.00000000000E+00 -0.00000000000E+00 -0.12786232060E+04  0.12786232060E+04  0.00000000000E+00 0. -1.
        -24    2    1    2    0    0  0.65237847885E+03  0.20351834396E+02 -0.88186955388E+02  0.66416429820E+03  0.85588545264E+02 0.  0.
        254    2    1    2    0    0 -0.65237847885E+03 -0.20351834396E+02 -0.55726359922E+03  0.12476315593E+04  0.90555502969E+03 0.  0.
         23    2    4    4    0    0 -0.46825919510E+02 -0.20964696355E+03  0.16243993157E+03  0.28394294969E+03  0.89957496914E+02 0.  0.
         23    2    4    4    0    0 -0.60555255934E+03  0.18929512915E+03 -0.71970353079E+03  0.96368860956E+03  0.90531850303E+02 0.  0.
          3    1    3    3  502    0  0.93789686726E+02  0.20983652247E+00  0.17227830355E+02  0.95359045225E+02  0.00000000000E+00 0. -1.
         -4    1    3    3    0  502  0.55858879212E+03  0.20141997873E+02 -0.10541478574E+03  0.56880525298E+03  0.00000000000E+00 0.  1.
         11    1    5    5    0    0  0.16874575617E+02 -0.93330844438E+02  0.38285952491E+02  0.10228006641E+03  0.00000000000E+00 0. -1.
        -11    1    5    5    0    0 -0.63700495127E+02 -0.11631611911E+03  0.12415397908E+03  0.18166288329E+03  0.00000000000E+00 0.  1.
          1    1    6    6  503    0 -0.36800426562E+03  0.93026182862E+02 -0.36968135990E+03  0.52985405355E+03  0.00000000000E+00 0. -1.
         -1    1    6    6    0  503 -0.23754829372E+03  0.96268946288E+02 -0.35002217089E+03  0.43383455600E+03  0.00000000000E+00 0.  1.
<mgrwt>
<rscale>  0 0.17995435E+04</rscale>
<asrwt>0</asrwt>
<pdfrwt beam="1">  1        1 0.19671126E+00 0.17995435E+04</pdfrwt>
<pdfrwt beam="2">  1       -2 0.97411177E-01 0.17995435E+04</pdfrwt>
<totfact> 0.68171979E+00</totfact>
</mgrwt>
</event>
<event>
12    4  0.4962162E-008  0.2184726E+04  0.7818608E-02  0.8524813E-01
          1   -1    0    0  501    0  0.00000000000E+00  0.00000000000E+00  0.11221193164E+04  0.11221193164E+04  0.00000000000E+00 0. -1.
         -2   -1    0    0    0  501 -0.00000000000E+00 -0.00000000000E+00 -0.10633955886E+04  0.10633955886E+04  0.00000000000E+00 0.  1.
        -24    2    1    2    0    0 -0.31342824989E+03  0.67667503736E+03 -0.47519709373E+03  0.88802428359E+03  0.81538189466E+02 0.  0.
        254    2    1    2    0    0  0.31342824989E+03 -0.67667503736E+03  0.53392082148E+03  0.12974906214E+04  0.91776036904E+03 0.  0.
         23    2    4    4    0    0  0.13393807106E+03 -0.40182739093E+03  0.76968529571E+03  0.88301104900E+03  0.88816660837E+02 0.  0.
         23    2    4    4    0    0  0.17949017883E+03 -0.27484764643E+03 -0.23576447423E+03  0.41447957240E+03  0.91926468357E+02 0.  0.
          1    1    3    3  502    0 -0.62076549397E+02  0.16980363293E+03 -0.78875216755E+02  0.19725129039E+03  0.00000000000E+00 0. -1.
         -2    1    3    3    0  502 -0.25135170050E+03  0.50687140442E+03 -0.39632187697E+03  0.69077299320E+03  0.00000000000E+00 0.  1.
         11    1    5    5    0    0  0.29231234614E+02 -0.17305778779E+02  0.69448448007E+02  0.77311331555E+02  0.00000000000E+00 0.  1.
        -11    1    5    5    0    0  0.10470683645E+03 -0.38452161215E+03  0.70023684770E+03  0.80569971744E+03  0.00000000000E+00 0. -1.
          1    1    6    6  503    0  0.15183730927E+03 -0.27141780760E+03 -0.22777694226E+03  0.38549258125E+03  0.00000000000E+00 0. -1.
         -1    1    6    6    0  503  0.27652869556E+02 -0.34298388271E+01 -0.79875319631E+01  0.28986991150E+02  0.00000000000E+00 0.  1.
<mgrwt>
<rscale>  0 0.21847258E+04</rscale>
<asrwt>0</asrwt>
<pdfrwt beam="1">  1        1 0.17263374E+00 0.21847258E+04</pdfrwt>
<pdfrwt beam="2">  1       -2 0.16359932E+00 0.21847258E+04</pdfrwt>
<totfact> 0.23157511E+00</totfact>
</mgrwt>
</event>
<event>
12    4  0.4280696E-008  0.1109995E+04  0.7818608E-02  0.9195504E-01
          1   -1    0    0  501    0  0.00000000000E+00  0.00000000000E+00  0.95020366977E+03  0.95020366977E+03  0.00000000000E+00 0. -1.
         -2   -1    0    0    0  501 -0.00000000000E+00 -0.00000000000E+00 -0.32416459346E+03  0.32416459346E+03  0.00000000000E+00 0.  1.
        -24    2    1    2    0    0  0.38236394246E+02 -0.55876975326E+02 -0.82975821457E+02  0.13220755447E+03  0.77521560204E+02 0.  0.
        254    2    1    2    0    0 -0.38236394246E+02  0.55876975326E+02  0.70901489776E+03  0.11421607088E+04  0.89288560363E+03 0.  0.
         23    2    4    4    0    0  0.33525023852E+03  0.27647296017E+03  0.43232353350E+03  0.61965733079E+03  0.90782982204E+02 0.  0.
         23    2    4    4    0    0 -0.37348663276E+03 -0.22059598485E+03  0.27669136427E+03  0.52250337797E+03  0.91086857168E+02 0.  0.
          1    1    3    3  502    0  0.21010281585E+02  0.17007687581E+02 -0.14235983234E+02  0.30550885221E+02  0.00000000000E+00 0. -1.
         -2    1    3    3    0  502  0.17226112661E+02 -0.72884662906E+02 -0.68739838223E+02  0.10165666925E+03  0.00000000000E+00 0.  1.
         11    1    5    5    0    0  0.75612859330E+01 -0.59596335965E+01  0.27786633742E+01  0.10020541288E+02  0.00000000000E+00 0. -1.
        -11    1    5    5    0    0  0.32768895258E+03  0.28243259377E+03  0.42954487012E+03  0.60963678950E+03  0.00000000000E+00 0.  1.
          1    1    6    6  503    0  0.50114608851E+01 -0.89725582124E+00  0.78373663713E+00  0.51511213661E+01  0.00000000000E+00 0. -1.
         -1    1    6    6    0  503 -0.37849809365E+03 -0.21969872902E+03  0.27590762763E+03  0.51735225660E+03  0.00000000000E+00 0.  1.
<mgrwt>
<rscale>  0 0.11099953E+04</rscale>
<asrwt>0</asrwt>
<pdfrwt beam="1">  1        1 0.14618518E+00 0.11099953E+04</pdfrwt>
<pdfrwt beam="2">  1       -2 0.49871476E-01 0.11099953E+04</pdfrwt>
<totfact> 0.55014175E+01</totfact>
</mgrwt>
</event>
<event>
12    4  0.4280696E-008  0.1108477E+04  0.7818608E-02  0.9196968E-01
         -2   -1    0    0    0  501 -0.00000000000E+00  0.00000000000E+00  0.25587346765E+03  0.25587346765E+03  0.00000000000E+00 0.  1.
          1   -1    0    0  501    0  0.00000000000E+00 -0.00000000000E+00 -0.12005175497E+04  0.12005175497E+04  0.00000000000E+00 0. -1.
        -24    2    1    2    0    0  0.16826121374E+03 -0.41674437570E+02 -0.11237094426E+03  0.22111485654E+03  0.78841333538E+02 0.  0.
        254    2    1    2    0    0 -0.16826121374E+03  0.41674437570E+02 -0.83227313779E+03  0.12352761608E+04  0.89620311469E+03 0.  0.
         23    2    4    4    0    0 -0.38203334307E+03 -0.17250532134E+03 -0.10323920363E+03  0.44110709847E+03  0.90606721861E+02 0.  0.
         23    2    4    4    0    0  0.21377212933E+03  0.21417975891E+03 -0.72903393415E+03  0.79416906234E+03  0.87421564945E+02 0.  0.
          1    1    3    3  502    0  0.16015479428E+03 -0.18120480343E+02 -0.11187742506E+03  0.19620007180E+03  0.00000000000E+00 0. -1.
         -2    1    3    3    0  502  0.81064194608E+01 -0.23553957226E+02 -0.49351920754E+00  0.24914784741E+02  0.00000000000E+00 0.  1.
         11    1    5    5    0    0 -0.17509077703E+03 -0.37584342972E+02 -0.18931753856E+02  0.18007713442E+03  0.00000000000E+00 0.  1.
        -11    1    5    5    0    0 -0.20694256604E+03 -0.13492097837E+03 -0.84307449778E+02  0.26102996405E+03  0.00000000000E+00 0. -1.
          3    1    6    6  503    0  0.16445258390E+03  0.20092057271E+03 -0.55378461024E+03  0.61162989089E+03  0.00000000000E+00 0. -1.
         -3    1    6    6    0  503  0.49319545428E+02  0.13259186199E+02 -0.17524932391E+03  0.18253917145E+03  0.00000000000E+00 0.  1.
<mgrwt>
<rscale>  0 0.11084775E+04</rscale>
<asrwt>0</asrwt>
<pdfrwt beam="1">  1        1 0.18469501E+00 0.11084775E+04</pdfrwt>
<pdfrwt beam="2">  1       -2 0.39365149E-01 0.11084775E+04</pdfrwt>
<totfact> 0.56885170E+01</totfact>
</mgrwt>
</event>
<event>
12    4  0.4280696E-008  0.1884399E+04  0.7818608E-02  0.8662661E-01
         -2   -1    0    0    0  501 -0.00000000000E+00  0.00000000000E+00  0.93097687408E+03  0.93097687408E+03  0.00000000000E+00 0.  1.
          1   -1    0    0  501    0  0.00000000000E+00 -0.00000000000E+00 -0.95355765552E+03  0.95355765552E+03  0.00000000000E+00 0. -1.
        -24    2    1    2    0    0 -0.21032110316E+03 -0.45599638989E+03 -0.53462955191E+03  0.73743343795E+03  0.76234136765E+02 0.  0.
        254    2    1    2    0    0  0.21032110316E+03  0.45599638989E+03  0.51204877047E+03  0.11471010917E+04  0.89525376131E+03 0.  0.
         23    2    4    4    0    0  0.18904347995E+03  0.47356287542E+03  0.73763666649E+03  0.90141386375E+03  0.91868752657E+02 0.  0.
         23    2    4    4    0    0  0.21277623207E+02 -0.17566485536E+02 -0.22558789603E+03  0.24568722791E+03  0.93332719139E+02 0.  0.
          3    1    3    3  502    0 -0.13194878435E+03 -0.26014528606E+03 -0.25705857062E+03  0.38879964028E+03  0.00000000000E+00 0. -1.
         -4    1    3    3    0  502 -0.78372318812E+02 -0.19585110382E+03 -0.27757098129E+03  0.34863379767E+03  0.00000000000E+00 0.  1.
         11    1    5    5    0    0  0.16735720512E+03  0.38045189983E+03  0.65115454734E+03  0.77249875515E+03  0.00000000000E+00 0.  1.
        -11    1    5    5    0    0  0.21686274829E+02  0.93110975590E+02  0.86482119157E+02  0.12891510860E+03  0.00000000000E+00 0. -1.
          3    1    6    6  503    0  0.66579175656E+00 -0.44940901746E+02 -0.51923490307E+02  0.68674425910E+02  0.00000000000E+00 0. -1.
         -3    1    6    6    0  503  0.20611831450E+02  0.27374416210E+02 -0.17366440572E+03  0.17701280200E+03  0.00000000000E+00 0.  1.
<mgrwt>
<rscale>  0 0.18843992E+04</rscale>
<asrwt>0</asrwt>
<pdfrwt beam="1">  1        1 0.14670118E+00 0.18843992E+04</pdfrwt>
<pdfrwt beam="2">  1       -2 0.14322721E+00 0.18843992E+04</pdfrwt>
<totfact> 0.45754173E+00</totfact>
</mgrwt>
</event>
<event>
12    4  0.4280696E-008  0.1496920E+04  0.7818608E-02  0.8886504E-01
         -2   -1    0    0    0  501 -0.00000000000E+00  0.00000000000E+00  0.38766496347E+03  0.38766496347E+03  0.00000000000E+00 0.  1.
          1   -1    0    0  501    0  0.00000000000E+00 -0.00000000000E+00 -0.14450419304E+04  0.14450419304E+04  0.00000000000E+00 0. -1.
        -24    2    1    2    0    0 -0.40128535304E+03  0.10350907843E+03 -0.63164910404E+03  0.75967697104E+03  0.79902727221E+02 0.  0.
        254    2    1    2    0    0  0.40128535304E+03 -0.10350907843E+03 -0.42572786288E+03  0.10730299228E+04  0.89353507943E+03 0.  0.
         23    2    4    4    0    0  0.36259365724E+03  0.34725048215E+03 -0.30994430881E+03  0.59694500120E+03  0.90668639934E+02 0.  0.
         23    2    4    4    0    0  0.38691695799E+02 -0.45075956059E+03 -0.11578355407E+03  0.47608492162E+03  0.92573173331E+02 0.  0.
          1    1    3    3  502    0 -0.37651868357E+03  0.92473975018E+02 -0.61741604759E+03  0.72905440877E+03  0.00000000000E+00 0. -1.
         -4    1    3    3    0  502 -0.24766669470E+02  0.11035103415E+02 -0.14233056451E+02  0.30622562269E+02  0.00000000000E+00 0.  1.
         11    1    5    5    0    0  0.25639182729E+03  0.26851365036E+03 -0.26924481848E+03  0.45861653024E+03  0.00000000000E+00 0.  1.
        -11    1    5    5    0    0  0.10620182994E+03  0.78736831791E+02 -0.40699490333E+02  0.13832847096E+03  0.00000000000E+00 0. -1.
          2    1    6    6  503    0  0.60849296855E+02 -0.27873073713E+03 -0.98302736383E+02  0.30175634000E+03  0.00000000000E+00 0. -1.
         -2    1    6    6    0  503 -0.22157601056E+02 -0.17202882345E+03 -0.17480817682E+02  0.17432858162E+03  0.00000000000E+00 0.  1.
<mgrwt>
<rscale>  0 0.14969197E+04</rscale>
<asrwt>0</asrwt>
<pdfrwt beam="1">  1        1 0.22231414E+00 0.14969197E+04</pdfrwt>
<pdfrwt beam="2">  1       -2 0.59640765E-01 0.14969197E+04</pdfrwt>
<totfact> 0.15908858E+01</totfact>
</mgrwt>
</event>
<event>
12    4  0.4280696E-008  0.1595880E+04  0.7818608E-02  0.8823083E-01
          1   -1    0    0  501    0  0.00000000000E+00  0.00000000000E+00  0.91826844907E+03  0.91826844907E+03  0.00000000000E+00 0. -1.
         -2   -1    0    0    0  501 -0.00000000000E+00 -0.00000000000E+00 -0.69337942626E+03  0.69337942626E+03  0.00000000000E+00 0.  1.
        -24    2    1    2    0    0  0.32091319164E+03  0.25813397191E+03  0.48903358762E+03  0.64452940212E+03  0.81522244525E+02 0.  0.
        254    2    1    2    0    0 -0.32091319164E+03 -0.25813397191E+03 -0.26414456480E+03  0.96711847321E+03  0.83422261183E+03 0.  0.
         23    2    4    4    0    0  0.20062715476E+02 -0.48747429748E+03 -0.71129401045E+02  0.50327116443E+03  0.10093943728E+03 0.  0.
         23    2    4    4    0    0 -0.34097590711E+03  0.22934032558E+03 -0.19301516376E+03  0.46384730878E+03  0.95067966485E+02 0.  0.
          1    1    3    3  502    0  0.19656764516E+03  0.18624623237E+03  0.26843000029E+03  0.38128881868E+03  0.00000000000E+00 0. -1.
         -2    1    3    3    0  502  0.12434554648E+03  0.71887739538E+02  0.22060358733E+03  0.26324058343E+03  0.00000000000E+00 0.  1.
         11    1    5    5    0    0  0.34258294633E+02 -0.16119883735E+03 -0.63465333127E+02  0.17659712461E+03  0.00000000000E+00 0.  1.
        -11    1    5    5    0    0 -0.14195579157E+02 -0.32627546014E+03 -0.76640679175E+01  0.32667403982E+03  0.00000000000E+00 0. -1.
          2    1    6    6  503    0 -0.27545147287E+03  0.13894802271E+03 -0.15936892865E+03  0.34724418258E+03  0.00000000000E+00 0. -1.
         -2    1    6    6    0  503 -0.65524434244E+02  0.90392302868E+02 -0.33646235113E+02  0.11660312619E+03  0.00000000000E+00 0.  1.
<mgrwt>
<rscale>  0 0.15958803E+04</rscale>
<asrwt>0</asrwt>
<pdfrwt beam="1">  1        1 0.14127207E+00 0.15958803E+04</pdfrwt>
<pdfrwt beam="2">  1       -2 0.10667376E+00 0.15958803E+04</pdfrwt>
<totfact> 0.10465833E+01</totfact>
</mgrwt>
</event>
<event>
12    4  0.4280696E-008  0.2896997E+04  0.7818608E-02  0.8273771E-01
          1   -1    0    0  501    0  0.00000000000E+00  0.00000000000E+00  0.12530888250E+04  0.12530888250E+04  0.00000000000E+00 0. -1.
         -2   -1    0    0    0  501 -0.00000000000E+00 -0.00000000000E+00 -0.16743812384E+04  0.16743812384E+04  0.00000000000E+00 0.  1.
        -24    2    1    2    0    0 -0.27474773563E+03 -0.86066296283E+03  0.76289749988E+03  0.11851639672E+04  0.79837209090E+02 0.  0.
        254    2    1    2    0    0  0.27474773563E+03  0.86066296283E+03 -0.11841899132E+04  0.17423060962E+04  0.90393458195E+03 0.  0.
         23    2    4    4    0    0 -0.32404221659E+03  0.34502005743E+03 -0.47961978673E+03  0.67958677681E+03  0.88095682278E+02 0.  0.
         23    2    4    4    0    0  0.59878995223E+03  0.51564290540E+03 -0.70457012648E+03  0.10627193194E+04  0.92283670673E+02 0.  0.
          1    1    3    3  502    0 -0.25448411429E+03 -0.71064337223E+03  0.61696959603E+03  0.97489878928E+03  0.00000000000E+00 0. -1.
         -2    1    3    3    0  502 -0.20263621344E+02 -0.15001959060E+03  0.14592790386E+03  0.21026517790E+03  0.00000000000E+00 0.  1.
         11    1    5    5    0    0 -0.21499097357E+03  0.24713540941E+03 -0.38343549595E+03  0.50430130760E+03  0.00000000000E+00 0.  1.
        -11    1    5    5    0    0 -0.10905124302E+03  0.97884648019E+02 -0.96184290785E+02  0.17528546921E+03  0.00000000000E+00 0. -1.
          1    1    6    6  503    0  0.12830712568E+03  0.12544689318E+03 -0.21175797543E+03  0.27756275267E+03  0.00000000000E+00 0. -1.
         -1    1    6    6    0  503  0.47048282655E+03  0.39019601222E+03 -0.49281215105E+03  0.78515656671E+03  0.00000000000E+00 0.  1.
<mgrwt>
<rscale>  0 0.28969974E+04</rscale>
<asrwt>0</asrwt>
<pdfrwt beam="1">  1        1 0.19278290E+00 0.28969974E+04</pdfrwt>
<pdfrwt beam="2">  1       -2 0.25759711E+00 0.28969974E+04</pdfrwt>
<totfact> 0.42524499E-01</totfact>
</mgrwt>
</event>
<event>
12    4  0.4280696E-008  0.2425992E+04  0.7818608E-02  0.8429836E-01
          1   -1    0    0  501    0  0.00000000000E+00  0.00000000000E+00  0.84001576999E+03  0.84001576999E+03  0.00000000000E+00 0. -1.
         -2   -1    0    0    0  501 -0.00000000000E+00 -0.00000000000E+00 -0.17515852976E+04  0.17515852976E+04  0.00000000000E+00 0.  1.
        -24    2    1    2    0    0 -0.16446662761E+03 -0.97564030473E+03 -0.42589767795E+02  0.99373315958E+03  0.82270458364E+02 0.  0.
        254    2    1    2    0    0  0.16446662761E+03  0.97564030473E+03 -0.86897975983E+03  0.15978679080E+04  0.90505952993E+03 0.  0.
         23    2    4    4    0    0  0.10463485679E+03  0.92452933721E+03 -0.10337280840E+04  0.13938405549E+04  0.92167197047E+02 0.  0.
         23    2    4    4    0    0  0.59831770821E+02  0.51110967519E+02  0.16474832417E+03  0.20402735313E+03  0.91065793308E+02 0.  0.
          3    1    3    3  502    0 -0.72976742100E+02 -0.32748705863E+03  0.20347096582E+02  0.33613595880E+03  0.00000000000E+00 0. -1.
         -4    1    3    3    0  502 -0.91489885513E+02 -0.64815324609E+03 -0.62936864377E+02  0.65759720077E+03  0.00000000000E+00 0.  1.
         11    1    5    5    0    0  0.42860973674E+02  0.66604534253E+03 -0.69945057120E+03  0.96679085791E+03  0.00000000000E+00 0. -1.
        -11    1    5    5    0    0  0.61773883118E+02  0.25848399468E+03 -0.33427751280E+03  0.42704969699E+03  0.00000000000E+00 0.  1.
          2    1    6    6  503    0  0.77345428172E+02  0.13284104363E+02  0.10203473716E+03  0.12872400815E+03  0.00000000000E+00 0. -1.
         -2    1    6    6    0  503 -0.17513657351E+02  0.37826863156E+02  0.62713587006E+02  0.75303344980E+02  0.00000000000E+00 0.  1.
<mgrwt>
<rscale>  0 0.24259920E+04</rscale>
<asrwt>0</asrwt>
<pdfrwt beam="1">  1        1 0.12923319E+00 0.24259920E+04</pdfrwt>
<pdfrwt beam="2">  1       -2 0.26947466E+00 0.24259920E+04</pdfrwt>
<totfact> 0.78164709E-01</totfact>
</mgrwt>
</event>
<event>
12    4  0.4280696E-008  0.1598740E+04  0.7818608E-02  0.8821322E-01
          1   -1    0    0  501    0  0.00000000000E+00  0.00000000000E+00  0.27564961021E+04  0.27564961021E+04  0.00000000000E+00 0. -1.
         -2   -1    0    0    0  501 -0.00000000000E+00 -0.00000000000E+00 -0.23181335955E+03  0.23181335955E+03  0.00000000000E+00 0.  1.
        -24    2    1    2    0    0  0.51819768670E+03  0.99124635524E+02  0.10193611163E+04  0.11505957483E+04  0.80118379688E+02 0.  0.
        254    2    1    2    0    0 -0.51819768670E+03 -0.99124635524E+02  0.15053216262E+04  0.18377137133E+04  0.91260284778E+03 0.  0.
         23    2    4    4    0    0 -0.73821980911E+03 -0.23193228337E+03  0.10633179382E+04  0.13182618354E+04  0.91696010342E+02 0.  0.
         23    2    4    4    0    0  0.22002212241E+03  0.13280764785E+03  0.44200368801E+03  0.51945187789E+03  0.91735421483E+02 0.  0.
          3    1    3    3  502    0  0.13850138931E+03 -0.36565422616E+01  0.30777524613E+03  0.33752275075E+03  0.00000000000E+00 0. -1.
         -4    1    3    3    0  502  0.37969629739E+03  0.10278117779E+03  0.71158587018E+03  0.81307299758E+03  0.00000000000E+00 0.  1.
         11    1    5    5    0    0 -0.10987445968E+03 -0.69876909495E+01  0.12167661913E+03  0.16409273097E+03  0.00000000000E+00 0. -1.
        -11    1    5    5    0    0 -0.62834534943E+03 -0.22494459242E+03  0.94164131908E+03  0.11541691044E+04  0.00000000000E+00 0.  1.
          2    1    6    6  503    0  0.19819639657E+03  0.78441315264E+02  0.36521470569E+03  0.42286715740E+03  0.00000000000E+00 0.  1.
         -2    1    6    6    0  503  0.21825725841E+02  0.54366332587E+02  0.76788982316E+02  0.96584720492E+02  0.00000000000E+00 0. -1.
<mgrwt>
<rscale>  0 0.15987403E+04</rscale>
<asrwt>0</asrwt>
<pdfrwt beam="1">  1        1 0.42407630E+00 0.15987403E+04</pdfrwt>
<pdfrwt beam="2">  1       -2 0.35663596E-01 0.15987403E+04</pdfrwt>
<totfact> 0.55923406E+00</totfact>
</mgrwt>
</event>
<event>
12    4  0.4280696E-008  0.2025295E+04  0.7818608E-02  0.8594885E-01
         -2   -1    0    0    0  501 -0.00000000000E+00  0.00000000000E+00  0.77529431896E+03  0.77529431896E+03  0.00000000000E+00 0.  1.
          1   -1    0    0  501    0  0.00000000000E+00 -0.00000000000E+00 -0.13226657421E+04  0.13226657421E+04  0.00000000000E+00 0. -1.
        -24    2    1    2    0    0  0.62459637701E+03  0.87373759195E+02  0.31104589334E+03  0.70767490507E+03  0.79368857373E+02 0.  0.
        254    2    1    2    0    0 -0.62459637701E+03 -0.87373759195E+02 -0.85841731652E+03  0.13902851560E+04  0.89345269476E+03 0.  0.
         23    2    4    4    0    0 -0.36295197054E+02  0.26493544854E+03  0.59078776857E+01  0.28312037450E+03  0.92812230961E+02 0.  0.
         23    2    4    4    0    0 -0.58830117996E+03 -0.35230920774E+03 -0.86432519420E+03  0.11071647815E+04  0.92389154675E+02 0.  0.
          1    1    3    3  502    0  0.21915434622E+03  0.12771209586E+02  0.71469238290E+02  0.23086702511E+03  0.00000000000E+00 0. -1.
         -2    1    3    3    0  502  0.40544203080E+03  0.74602549609E+02  0.23957665505E+03  0.47680787996E+03  0.00000000000E+00 0.  1.
         11    1    5    5    0    0  0.15843979161E+02  0.49863985738E+01 -0.61699303313E+01  0.17719026121E+02  0.00000000000E+00 0. -1.
        -11    1    5    5    0    0 -0.52139176216E+02  0.25994904997E+03  0.12077808017E+02  0.26540134838E+03  0.00000000000E+00 0.  1.
          3    1    6    6  503    0 -0.15664355429E+01 -0.82348529019E+01 -0.27651140476E+02  0.28893807161E+02  0.00000000000E+00 0. -1.
         -3    1    6    6    0  503 -0.58673474442E+03 -0.34407435483E+03 -0.83667405372E+03  0.10782709744E+04  0.00000000000E+00 0.  1.
<mgrwt>
<rscale>  0 0.20252953E+04</rscale>
<asrwt>0</asrwt>
<pdfrwt beam="1">  1        1 0.20348703E+00 0.20252953E+04</pdfrwt>
<pdfrwt beam="2">  1       -2 0.11927605E+00 0.20252953E+04</pdfrwt>
<totfact> 0.38155797E+00</totfact>
</mgrwt>
</event>
<event>
12    4  0.4280696E-008  0.2339931E+04  0.7818608E-02  0.8462341E-01
         -2   -1    0    0    0  501 -0.00000000000E+00  0.00000000000E+00  0.95998447894E+03  0.95998447894E+03  0.00000000000E+00 0.  1.
          1   -1    0    0  501    0  0.00000000000E+00 -0.00000000000E+00 -0.14258759565E+04  0.14258759565E+04  0.00000000000E+00 0. -1.
        -24    2    1    2    0    0  0.70394777490E+03  0.42664108316E+03  0.37175054046E+03  0.90914573865E+03  0.10383846171E+03 0.  0.
        254    2    1    2    0    0 -0.70394777490E+03 -0.42664108316E+03 -0.83764201800E+03  0.14767146968E+04  0.89525251281E+03 0.  0.
         23    2    4    4    0    0 -0.86514780347E+03 -0.50384695712E+03 -0.76416421185E+03  0.12628006305E+04  0.91520553620E+02 0.  0.
         23    2    4    4    0    0  0.16120002856E+03  0.77205873955E+02 -0.73477806152E+02  0.21391406625E+03  0.91728095801E+02 0.  0.
          3    1    3    3  502    0  0.33541197428E+03  0.15604755518E+03  0.13115122721E+03  0.39249544757E+03  0.00000000000E+00 0. -1.
         -4    1    3    3    0  502  0.36853580062E+03  0.27059352798E+03  0.24059931325E+03  0.51665029107E+03  0.00000000000E+00 0.  1.
         11    1    5    5    0    0 -0.86654770693E+03 -0.50134638661E+03 -0.75707977376E+03  0.12551585205E+04  0.00000000000E+00 0.  1.
        -11    1    5    5    0    0  0.13999034599E+01 -0.25005705062E+01 -0.70844380862E+01  0.76421100196E+01  0.00000000000E+00 0. -1.
          3    1    6    6  503    0  0.35450121360E+01  0.10616969637E+02 -0.37363780200E+02  0.39004348811E+02  0.00000000000E+00 0. -1.
         -3    1    6    6    0  503  0.15765501643E+03  0.66588904318E+02 -0.36114025952E+02  0.17490971744E+03  0.00000000000E+00 0.  1.
<mgrwt>
<rscale>  0 0.23399306E+04</rscale>
<asrwt>0</asrwt>
<pdfrwt beam="1">  1        1 0.21936553E+00 0.23399306E+04</pdfrwt>
<pdfrwt beam="2">  1       -2 0.14768992E+00 0.23399306E+04</pdfrwt>
<totfact> 0.18189866E+00</totfact>
</mgrwt>
</event>
<event>
12    4  0.4280696E-008  0.2399197E+04  0.7818608E-02  0.8439804E-01
         -2   -1    0    0    0  501 -0.00000000000E+00  0.00000000000E+00  0.15250925583E+04  0.15250925583E+04  0.00000000000E+00 0.  1.
          1   -1    0    0  501    0  0.00000000000E+00 -0.00000000000E+00 -0.94357304725E+03  0.94357304725E+03  0.00000000000E+00 0. -1.
        -24    2    1    2    0    0  0.55093711311E+03  0.11538620199E+03 -0.63380140833E+03  0.85146063069E+03  0.80220335264E+02 0.  0.
        254    2    1    2    0    0 -0.55093711311E+03 -0.11538620199E+03  0.12153209194E+04  0.16172049749E+04  0.90636709750E+03 0.  0.
         23    2    4    4    0    0  0.39147770199E+02 -0.12854079409E+03  0.95092493667E+03  0.96486459169E+03  0.93006244097E+02 0.  0.
         23    2    4    4    0    0 -0.59008488331E+03  0.13154592101E+02  0.26439598272E+03  0.65234038319E+03  0.85261521540E+02 0.  0.
          1    1    3    3  502    0  0.39553683639E+03  0.47788472706E+02 -0.46366433123E+03  0.61132457756E+03  0.00000000000E+00 0. -1.
         -4    1    3    3    0  502  0.15540027672E+03  0.67597729281E+02 -0.17013707710E+03  0.24013605313E+03  0.00000000000E+00 0.  1.
         11    1    5    5    0    0  0.12628493256E+02 -0.15492491245E+02  0.45845349298E+03  0.45888898587E+03  0.00000000000E+00 0. -1.
        -11    1    5    5    0    0  0.26519276942E+02 -0.11304830284E+03  0.49247144370E+03  0.50597560582E+03  0.00000000000E+00 0.  1.
          2    1    6    6  503    0 -0.49122849819E+03 -0.19443466149E+02  0.20641454429E+03  0.53318894390E+03  0.00000000000E+00 0. -1.
         -2    1    6    6    0  503 -0.98856385124E+02  0.32598058250E+02  0.57981438424E+02  0.11915143928E+03  0.00000000000E+00 0.  1.
<mgrwt>
<rscale>  0 0.23991967E+04</rscale>
<asrwt>0</asrwt>
<pdfrwt beam="1">  1        1 0.14516508E+00 0.23991967E+04</pdfrwt>
<pdfrwt beam="2">  1       -2 0.23462962E+00 0.23991967E+04</pdfrwt>
<totfact> 0.10541718E+00</totfact>
</mgrwt>
</event>
<event>
12    4  0.4280696E-008  0.1391915E+04  0.7818608E-02  0.8959692E-01
          1   -1    0    0  501    0  0.00000000000E+00  0.00000000000E+00  0.95686878836E+03  0.95686878836E+03  0.00000000000E+00 0. -1.
         -2   -1    0    0    0  501 -0.00000000000E+00 -0.00000000000E+00 -0.50618913283E+03  0.50618913283E+03  0.00000000000E+00 0.  1.
        -24    2    1    2    0    0 -0.34699514225E+03 -0.69336715867E+02  0.11724176006E+03  0.38134025945E+03  0.80383793517E+02 0.  0.
        254    2    1    2    0    0  0.34699514225E+03  0.69336715867E+02  0.33343789546E+03  0.10817176617E+04  0.96629139533E+03 0.  0.
         23    2    4    4    0    0 -0.14046451225E+03  0.20462238430E+02 -0.25770289004E+03  0.30837275582E+03  0.92379622189E+02 0.  0.
         23    2    4    4    0    0  0.48745965450E+03  0.48874477437E+02  0.59114078550E+03  0.77334490592E+03  0.92786237786E+02 0.  0.
          3    1    3    3  502    0 -0.94318463010E+02 -0.54987508520E+02  0.45552581924E+02  0.11829892763E+03  0.00000000000E+00 0. -1.
         -4    1    3    3    0  502 -0.25267667924E+03 -0.14349207347E+02  0.71689178135E+02  0.26304133182E+03  0.00000000000E+00 0.  1.
         11    1    5    5    0    0  0.15543285773E+01  0.24036783926E+02 -0.62228972164E+02  0.66728014323E+02  0.00000000000E+00 0. -1.
        -11    1    5    5    0    0 -0.14201884082E+03 -0.35745454953E+01 -0.19547391788E+03  0.24164474150E+03  0.00000000000E+00 0.  1.
          2    1    6    6  503    0  0.21544138834E+03  0.55980544666E+02  0.21838047835E+03  0.31183143926E+03  0.00000000000E+00 0. -1.
         -2    1    6    6    0  503  0.27201826616E+03 -0.71060672292E+01  0.37276030716E+03  0.46151346666E+03  0.00000000000E+00 0.  1.
<mgrwt>
<rscale>  0 0.13919146E+04</rscale>
<asrwt>0</asrwt>
<pdfrwt beam="1">  1        1 0.14721058E+00 0.13919146E+04</pdfrwt>
<pdfrwt beam="2">  1       -2 0.77875251E-01 0.13919146E+04</pdfrwt>
<totfact> 0.20555130E+01</totfact>
</mgrwt>
</event>
<event>
12    4  0.4280696E-008  0.1521399E+04  0.7818608E-02  0.8870346E-01
         -2   -1    0    0    0  501 -0.00000000000E+00  0.00000000000E+00  0.15681336623E+04  0.15681336623E+04  0.00000000000E+00 0.  1.
          1   -1    0    0  501    0  0.00000000000E+00 -0.00000000000E+00 -0.36901429409E+03  0.36901429409E+03  0.00000000000E+00 0. -1.
        -24    2    1    2    0    0  0.20434639583E+03 -0.86865314357E+02 -0.17084864009E+03  0.29128780224E+03  0.79726366928E+02 0.  0.
        254    2    1    2    0    0 -0.20434639583E+03  0.86865314357E+02  0.13699680083E+04  0.16458601542E+04  0.88472609940E+03 0.  0.
         23    2    4    4    0    0  0.66316270972E+02  0.40956224029E+03  0.39534038706E+03  0.58016827333E+03  0.90344492174E+02 0.  0.
         23    2    4    4    0    0 -0.27066266680E+03 -0.32269692594E+03  0.97462762125E+03  0.10656918808E+04  0.91698416444E+02 0.  0.
          3    1    3    3  502    0  0.53337483075E+02 -0.19138301061E+02 -0.91790728879E+02  0.10787353511E+03  0.00000000000E+00 0. -1.
         -4    1    3    3    0  502  0.15100891275E+03 -0.67727013296E+02 -0.79057911213E+02  0.18341426713E+03  0.00000000000E+00 0.  1.
         11    1    5    5    0    0  0.70726210044E+00  0.20782611180E+03  0.15285342952E+03  0.25798520089E+03  0.00000000000E+00 0.  1.
        -11    1    5    5    0    0  0.65609008872E+02  0.20173612850E+03  0.24248695754E+03  0.32218307244E+03  0.00000000000E+00 0. -1.
          2    1    6    6  503    0 -0.26661117994E+03 -0.32889221605E+03  0.96217525103E+03  0.10512054151E+04  0.00000000000E+00 0. -1.
         -2    1    6    6    0  503 -0.40514868591E+01  0.61952901183E+01  0.12452370216E+02  0.14486465732E+02  0.00000000000E+00 0.  1.
<mgrwt>
<rscale>  0 0.15213990E+04</rscale>
<asrwt>0</asrwt>
<pdfrwt beam="1">  1        1 0.56771431E-01 0.15213990E+04</pdfrwt>
<pdfrwt beam="2">  1       -2 0.24125133E+00 0.15213990E+04</pdfrwt>
<totfact> 0.41016167E+00</totfact>
</mgrwt>
</event>
<event>
12    4  0.4280696E-008  0.1593064E+04  0.7818608E-02  0.8824820E-01
         -2   -1    0    0    0  501 -0.00000000000E+00  0.00000000000E+00  0.28115140593E+03  0.28115140593E+03  0.00000000000E+00 0.  1.
          1   -1    0    0  501    0  0.00000000000E+00 -0.00000000000E+00 -0.22566605504E+04  0.22566605504E+04  0.00000000000E+00 0. -1.
        -24    2    1    2    0    0 -0.39563988661E+03 -0.17888960943E+03 -0.17033260361E+03  0.47323534764E+03  0.80038029504E+02 0.  0.
        254    2    1    2    0    0  0.39563988661E+03  0.17888960943E+03 -0.18051765409E+04  0.20645766087E+04  0.90292957491E+03 0.  0.
         23    2    4    4    0    0 -0.51325673161E+02  0.89079749878E+02 -0.15047580742E+04  0.15109793957E+04  0.90511579624E+02 0.  0.
         23    2    4    4    0    0  0.44696555977E+03  0.89809859551E+02 -0.30041846675E+03  0.55359721299E+03  0.91512821914E+02 0.  0.
          1    1    3    3  502    0  0.37096910918E+01 -0.31806724051E+00  0.16713211562E+00  0.37270508328E+01  0.00000000000E+00 0. -1.
         -2    1    3    3    0  502 -0.39934957770E+03 -0.17857154219E+03 -0.17049973572E+03  0.46950829681E+03  0.00000000000E+00 0.  1.
         11    1    5    5    0    0 -0.70567410668E+02  0.35038394094E+02 -0.95096534540E+03  0.95422352552E+03  0.00000000000E+00 0. -1.
        -11    1    5    5    0    0  0.19241737507E+02  0.54041355784E+02 -0.55379272875E+03  0.55675587021E+03  0.00000000000E+00 0.  1.
          2    1    6    6  503    0  0.39269373435E+03  0.49587759581E+02 -0.27227368129E+03  0.48041676951E+03  0.00000000000E+00 0. -1.
         -2    1    6    6    0  503  0.54271825421E+02  0.40222099970E+02 -0.28144785461E+02  0.73180443488E+02  0.00000000000E+00 0.  1.
<mgrwt>
<rscale>  0 0.15930641E+04</rscale>
<asrwt>0</asrwt>
<pdfrwt beam="1">  1        1 0.34717856E+00 0.15930641E+04</pdfrwt>
<pdfrwt beam="2">  1       -2 0.43254061E-01 0.15930641E+04</pdfrwt>
<totfact> 0.85232338E+00</totfact>
</mgrwt>
</event>
<event>
12    4  0.4280696E-008  0.2405150E+04  0.7818608E-02  0.8437578E-01
         -2   -1    0    0    0  501 -0.00000000000E+00  0.00000000000E+00  0.84338684150E+03  0.84338684150E+03  0.00000000000E+00 0.  1.
          1   -1    0    0  501    0  0.00000000000E+00 -0.00000000000E+00 -0.17147373132E+04  0.17147373132E+04  0.00000000000E+00 0. -1.
        -24    2    1    2    0    0  0.35760332698E+02 -0.91488383823E+03  0.13011175550E+03  0.92831135850E+03  0.80880594386E+02 0.  0.
        254    2    1    2    0    0 -0.35760332698E+02  0.91488383823E+03 -0.10014622272E+04  0.16298127962E+04  0.90281333579E+03 0.  0.
         23    2    4    4    0    0 -0.12792104171E+03  0.90251996007E+02 -0.72901699998E+03  0.75165364622E+03  0.94911547861E+02 0.  0.
         23    2    4    4    0    0  0.92160709015E+02  0.82463184222E+03 -0.27244522723E+03  0.87815914998E+03  0.91792262021E+02 0.  0.
          1    1    3    3  502    0  0.63934707137E+01 -0.84091592511E+02 -0.11201593867E+02  0.85074955798E+02  0.00000000000E+00 0. -1.
         -2    1    3    3    0  502  0.29366861984E+02 -0.83079224572E+03  0.14131334937E+03  0.84323640270E+03  0.00000000000E+00 0.  1.
         11    1    5    5    0    0  0.11601265547E+02 -0.34978398875E+01 -0.24134010800E+02  0.27005086992E+02  0.00000000000E+00 0.  1.
        -11    1    5    5    0    0 -0.13952230726E+03  0.93749835895E+02 -0.70488298918E+03  0.72464855922E+03  0.00000000000E+00 0. -1.
          2    1    6    6  503    0  0.84015429242E+02  0.73044515520E+03 -0.20929527448E+03  0.76446924662E+03  0.00000000000E+00 0. -1.
         -2    1    6    6    0  503  0.81452797721E+01  0.94186687017E+02 -0.63149952749E+02  0.11368990336E+03  0.00000000000E+00 0.  1.
<mgrwt>
<rscale>  0 0.24051502E+04</rscale>
<asrwt>0</asrwt>
<pdfrwt beam="1">  1        1 0.26380574E+00 0.24051502E+04</pdfrwt>
<pdfrwt beam="2">  1       -2 0.12975182E+00 0.24051502E+04</pdfrwt>
<totfact> 0.15989631E+00</totfact>
</mgrwt>
</event>
<event>
12    4  0.4280696E-008  0.1425064E+04  0.7818608E-02  0.8935873E-01
         -2   -1    0    0    0  501 -0.00000000000E+00  0.00000000000E+00  0.34225207476E+03  0.34225207476E+03  0.00000000000E+00 0.  1.
          1   -1    0    0  501    0  0.00000000000E+00 -0.00000000000E+00 -0.14834141893E+04  0.14834141893E+04  0.00000000000E+00 0. -1.
        -24    2    1    2    0    0  0.13648455572E+03  0.24308520704E+03  0.62221072055E+02  0.29678755183E+03  0.80578764454E+02 0.  0.
        254    2    1    2    0    0 -0.13648455572E+03 -0.24308520704E+03 -0.12033831866E+04  0.15288787123E+04  0.90089986741E+03 0.  0.
         23    2    4    4    0    0 -0.43114811767E+03  0.85105716238E+02 -0.82483499734E+03  0.93923753056E+03  0.93180919016E+02 0.  0.
         23    2    4    4    0    0  0.29466356195E+03 -0.32819092328E+03 -0.37854818929E+03  0.58964118170E+03  0.99207331767E+02 0.  0.
          1    1    3    3  502    0 -0.27058807768E+01 -0.48514081227E+01 -0.62404508569E+00  0.55899359406E+01  0.00000000000E+00 0. -1.
         -2    1    3    3    0  502  0.13919043650E+03  0.24793661516E+03  0.62845117141E+02  0.29119761589E+03  0.00000000000E+00 0.  1.
         11    1    5    5    0    0 -0.37745617326E+03  0.40855370360E+02 -0.69721356624E+03  0.79388228407E+03  0.00000000000E+00 0. -1.
        -11    1    5    5    0    0 -0.53691944416E+02  0.44250345878E+02 -0.12762143111E+03  0.14535524649E+03  0.00000000000E+00 0.  1.
          1    1    6    6  503    0  0.22218171958E+03 -0.23700212130E+03 -0.33111995614E+03  0.46386975259E+03  0.00000000000E+00 0. -1.
         -1    1    6    6    0  503  0.72481842372E+02 -0.91188801979E+02 -0.47428233152E+02  0.12577142911E+03  0.00000000000E+00 0.  1.
<mgrwt>
<rscale>  0 0.14250636E+04</rscale>
<asrwt>0</asrwt>
<pdfrwt beam="1">  1        1 0.22821756E+00 0.14250636E+04</pdfrwt>
<pdfrwt beam="2">  1       -2 0.52654166E-01 0.14250636E+04</pdfrwt>
<totfact> 0.19518486E+01</totfact>
</mgrwt>
</event>
<event>
12    4  0.4280696E-008  0.3071927E+04  0.7818608E-02  0.8223485E-01
          1   -1    0    0  501    0  0.00000000000E+00  0.00000000000E+00  0.33539456513E+04  0.33539456513E+04  0.00000000000E+00 0. -1.
         -2   -1    0    0    0  501 -0.00000000000E+00 -0.00000000000E+00 -0.70340539530E+03  0.70340539530E+03  0.00000000000E+00 0.  1.
        -24    2    1    2    0    0 -0.49838407299E+03 -0.13075797223E+04  0.10334776802E+04  0.17415013741E+04  0.81237343703E+02 0.  0.
        254    2    1    2    0    0  0.49838407299E+03  0.13075797223E+04  0.16170625758E+04  0.23158496725E+04  0.88888521034E+03 0.  0.
         23    2    4    4    0    0  0.33034847143E+03  0.95090274723E+03  0.49993980880E+03  0.11276863395E+04  0.91599785504E+02 0.  0.
         23    2    4    4    0    0  0.16803560157E+03  0.35667697510E+03  0.11171227670E+04  0.11881633330E+04  0.91183338994E+02 0.  0.
          3    1    3    3  502    0 -0.44425087396E+03 -0.11584274908E+04  0.94688881405E+03  0.15607406949E+04  0.00000000000E+00 0. -1.
         -4    1    3    3    0  502 -0.54133199036E+02 -0.14915223153E+03  0.86588866125E+02  0.18076067920E+03  0.00000000000E+00 0.  1.
         11    1    5    5    0    0  0.14238822997E+03  0.28820877163E+03  0.17589102035E+03  0.36643738226E+03  0.00000000000E+00 0.  1.
        -11    1    5    5    0    0  0.18796024145E+03  0.66269397560E+03  0.32404878845E+03  0.76124895728E+03  0.00000000000E+00 0. -1.
          1    1    6    6  503    0  0.15064403851E+03  0.25047562852E+03  0.72942706552E+03  0.78580882582E+03  0.00000000000E+00 0. -1.
         -1    1    6    6    0  503  0.17391563054E+02  0.10620134658E+03  0.38769570146E+03  0.40235450714E+03  0.00000000000E+00 0.  1.
<mgrwt>
<rscale>  0 0.30719267E+04</rscale>
<asrwt>0</asrwt>
<pdfrwt beam="1">  1        1 0.51599163E+00 0.30719267E+04</pdfrwt>
<pdfrwt beam="2">  1       -2 0.10821622E+00 0.30719267E+04</pdfrwt>
<totfact> 0.16511789E-01</totfact>
</mgrwt>
</event>
<event>
12    4  0.4280696E-008  0.1373369E+04  0.7818608E-02  0.8973325E-01
         -2   -1    0    0    0  501 -0.00000000000E+00  0.00000000000E+00  0.91308636877E+03  0.91308636877E+03  0.00000000000E+00 0.  1.
          1   -1    0    0  501    0  0.00000000000E+00 -0.00000000000E+00 -0.51641918200E+03  0.51641918200E+03  0.00000000000E+00 0. -1.
        -24    2    1    2    0    0 -0.19245676039E+03 -0.21915215109E+03  0.38140391496E+03  0.48658895736E+03  0.78946799376E+02 0.  0.
        254    2    1    2    0    0  0.19245676039E+03  0.21915215109E+03  0.15263271812E+02  0.94291659340E+03  0.89654417889E+03 0.  0.
         23    2    4    4    0    0  0.13923489879E+03 -0.62834512699E+02  0.41000104207E+03  0.44680655574E+03  0.90557775666E+02 0.  0.
         23    2    4    4    0    0  0.53221861598E+02  0.28198666379E+03 -0.39473777025E+03  0.49611003766E+03  0.89208839772E+02 0.  0.
          1    1    3    3  502    0 -0.30292831457E+02 -0.69969149667E+02  0.60571847457E+02  0.97377031415E+02  0.00000000000E+00 0. -1.
         -2    1    3    3    0  502 -0.16216392893E+03 -0.14918300142E+03  0.32083206750E+03  0.38921192595E+03  0.00000000000E+00 0.  1.
         11    1    5    5    0    0  0.91218328945E+02 -0.76113448320E+02  0.34518197468E+03  0.36505429212E+03  0.00000000000E+00 0. -1.
        -11    1    5    5    0    0  0.48016569849E+02  0.13278935621E+02  0.64819067388E+02  0.81752263628E+02  0.00000000000E+00 0.  1.
          1    1    6    6  503    0  0.67888553519E+02  0.23412815510E+03 -0.28199317654E+03  0.37275327004E+03  0.00000000000E+00 0. -1.
         -1    1    6    6    0  503 -0.14666691922E+02  0.47858508688E+02 -0.11274459371E+03  0.12335676762E+03  0.00000000000E+00 0.  1.
<mgrwt>
<rscale>  0 0.13733686E+04</rscale>
<asrwt>0</asrwt>
<pdfrwt beam="1">  1        1 0.79449105E-01 0.13733686E+04</pdfrwt>
<pdfrwt beam="2">  1       -2 0.14047483E+00 0.13733686E+04</pdfrwt>
<totfact> 0.12883651E+01</totfact>
</mgrwt>
</event>
<event>
12    4  0.4280696E-008  0.1691787E+04  0.7818608E-02  0.8766062E-01
          1   -1    0    0  501    0  0.00000000000E+00  0.00000000000E+00  0.58439043536E+03  0.58439043536E+03  0.00000000000E+00 0. -1.
         -2   -1    0    0    0  501 -0.00000000000E+00 -0.00000000000E+00 -0.12244139475E+04  0.12244139475E+04  0.00000000000E+00 0.  1.
        -24    2    1    2    0    0 -0.97823030107E+02  0.26228774312E+03 -0.83478950418E+03  0.88399469402E+03  0.78796556732E+02 0.  0.
        254    2    1    2    0    0  0.97823030107E+02 -0.26228774312E+03  0.19476599206E+03  0.92480968881E+03  0.85963652985E+03 0.  0.
         23    2    4    4    0    0  0.15075038782E+03  0.10686397716E+02 -0.30156608679E+03  0.34925898356E+03  0.90553047277E+02 0.  0.
         23    2    4    4    0    0 -0.52927357712E+02 -0.27297414084E+03  0.49633207885E+03  0.57555070526E+03  0.87160169030E+02 0.  0.
          1    1    3    3  502    0 -0.12352135157E+02  0.62587742687E+02 -0.30124783832E+03  0.30792866199E+03  0.00000000000E+00 0. -1.
         -2    1    3    3    0  502 -0.85470894950E+02  0.19970000044E+03 -0.53354166585E+03  0.57606603203E+03  0.00000000000E+00 0.  1.
         11    1    5    5    0    0  0.14060195630E+03 -0.14191897536E+02 -0.20474333938E+03  0.24877732029E+03  0.00000000000E+00 0.  1.
        -11    1    5    5    0    0  0.10148431518E+02  0.24878295252E+02 -0.96822747406E+02  0.10048166326E+03  0.00000000000E+00 0. -1.
          3    1    6    6  503    0  0.82474813838E+01 -0.10860383810E+02  0.36124901864E+01  0.14107408374E+02  0.00000000000E+00 0. -1.
         -3    1    6    6    0  503 -0.61174839096E+02 -0.26211375703E+03  0.49271958866E+03  0.56144329688E+03  0.00000000000E+00 0.  1.
<mgrwt>
<rscale>  0 0.16917870E+04</rscale>
<asrwt>0</asrwt>
<pdfrwt beam="1">  1        1 0.89906222E-01 0.16917870E+04</pdfrwt>
<pdfrwt beam="2">  1       -2 0.18837137E+00 0.16917870E+04</pdfrwt>
<totfact> 0.47092213E+00</totfact>
</mgrwt>
</event>
<event>
12    4  0.4280696E-008  0.1358568E+04  0.7818608E-02  0.8984367E-01
          1   -1    0    0  501    0  0.00000000000E+00  0.00000000000E+00  0.30780622754E+03  0.30780622754E+03  0.00000000000E+00 0. -1.
         -2   -1    0    0    0  501 -0.00000000000E+00 -0.00000000000E+00 -0.14990820750E+04  0.14990820750E+04  0.00000000000E+00 0.  1.
        -24    2    1    2    0    0 -0.28966867447E+02  0.36845977741E+03 -0.25415962065E+03  0.45573520711E+03  0.80596397293E+02 0.  0.
        254    2    1    2    0    0  0.28966867447E+02 -0.36845977741E+03 -0.93711622683E+03  0.13511530955E+04  0.90045887067E+03 0.  0.
         23    2    4    4    0    0  0.11866485956E+03  0.90436925318E+02  0.10620790689E+03  0.20431480559E+03  0.90577226388E+02 0.  0.
         23    2    4    4    0    0 -0.89697992111E+02 -0.45889670273E+03 -0.10433241337E+04  0.11468382899E+04  0.89893834727E+02 0.  0.
          1    1    3    3  502    0 -0.51619547615E+01  0.31467353323E+03 -0.23847129164E+03  0.39486027304E+03  0.00000000000E+00 0. -1.
         -2    1    3    3    0  502 -0.23804912685E+02  0.53786244180E+02 -0.15688329009E+02  0.60874934071E+02  0.00000000000E+00 0.  1.
         11    1    5    5    0    0  0.17255382637E+02 -0.98676846103E+01 -0.81626485399E+01  0.21488328476E+02  0.00000000000E+00 0.  1.
        -11    1    5    5    0    0  0.10140947692E+03  0.10030460993E+03  0.11437055543E+03  0.18282647711E+03  0.00000000000E+00 0. -1.
          4    1    6    6  503    0 -0.33497549123E+02 -0.32582197846E+03 -0.79022638640E+03  0.85541790325E+03  0.00000000000E+00 0. -1.
         -4    1    6    6    0  503 -0.56200442988E+02 -0.13307472427E+03 -0.25309774733E+03  0.29142038661E+03  0.00000000000E+00 0.  1.
<mgrwt>
<rscale>  0 0.13585681E+04</rscale>
<asrwt>0</asrwt>
<pdfrwt beam="1">  1        1 0.47354805E-01 0.13585681E+04</pdfrwt>
<pdfrwt beam="2">  1       -2 0.23062801E+00 0.13585681E+04</pdfrwt>
<totfact> 0.61361558E+00</totfact>
</mgrwt>
</event>
<event>
12    4  0.4280696E-008  0.1561029E+04  0.7818608E-02  0.8844854E-01
         -2   -1    0    0    0  501 -0.00000000000E+00  0.00000000000E+00  0.28819149000E+03  0.28819149000E+03  0.00000000000E+00 0.  1.
          1   -1    0    0  501    0  0.00000000000E+00 -0.00000000000E+00 -0.21138828196E+04  0.21138828196E+04  0.00000000000E+00 0. -1.
        -24    2    1    2    0    0  0.34862553324E+03 -0.38292359537E+03 -0.66728872861E+03  0.84832431005E+03  0.78801303086E+02 0.  0.
        254    2    1    2    0    0 -0.34862553324E+03  0.38292359537E+03 -0.11584026010E+04  0.15537499996E+04  0.89670074876E+03 0.  0.
         23    2    4    4    0    0  0.10026226689E+03  0.53445491037E+03 -0.57925313475E+03  0.79962907378E+03  0.90431676635E+02 0.  0.
         23    2    4    4    0    0 -0.44888780014E+03 -0.15153131501E+03 -0.57914946624E+03  0.75412092578E+03  0.93926939210E+02 0.  0.
          3    1    3    3  502    0  0.17166287115E+03 -0.13391105829E+03 -0.29795325340E+03  0.36902093989E+03  0.00000000000E+00 0. -1.
         -4    1    3    3    0  502  0.17696266209E+03 -0.24901253708E+03 -0.36933547521E+03  0.47930337016E+03  0.00000000000E+00 0.  1.
         11    1    5    5    0    0  0.73436476762E+02  0.16261364486E+03 -0.18504741002E+03  0.25705769308E+03  0.00000000000E+00 0.  1.
        -11    1    5    5    0    0  0.26825790128E+02  0.37184126552E+03 -0.39420572472E+03  0.54257138071E+03  0.00000000000E+00 0. -1.
          1    1    6    6  503    0 -0.23527338752E+03 -0.12155471396E+03 -0.28099224063E+03  0.38611624501E+03  0.00000000000E+00 0. -1.
         -1    1    6    6    0  503 -0.21361441261E+03 -0.29976601046E+02 -0.29815722561E+03  0.36800468077E+03  0.00000000000E+00 0.  1.
<mgrwt>
<rscale>  0 0.15610292E+04</rscale>
<asrwt>0</asrwt>
<pdfrwt beam="1">  1        1 0.32521275E+00 0.15610292E+04</pdfrwt>
<pdfrwt beam="2">  1       -2 0.44337152E-01 0.15610292E+04</pdfrwt>
<totfact> 0.10174798E+01</totfact>
</mgrwt>
</event>
<event>
12    4  0.4280696E-008  0.2307557E+04  0.7818608E-02  0.8474947E-01
         -2   -1    0    0    0  501 -0.00000000000E+00  0.00000000000E+00  0.52611074261E+03  0.52611074261E+03  0.00000000000E+00 0.  1.
          1   -1    0    0  501    0  0.00000000000E+00 -0.00000000000E+00 -0.25302747188E+04  0.25302747188E+04  0.00000000000E+00 0. -1.
        -24    2    1    2    0    0  0.62646538227E+02  0.10994028377E+03 -0.21417235238E+04  0.21467960225E+04  0.75776347991E+02 0.  0.
        254    2    1    2    0    0 -0.62646538227E+02 -0.10994028377E+03  0.13755954758E+03  0.90958943898E+03  0.89017911884E+03 0.  0.
         23    2    4    4    0    0 -0.40913476000E+03 -0.21135061865E+03 -0.83624949324E+02  0.47667188864E+03  0.90347226947E+02 0.  0.
         23    2    4    4    0    0  0.34648822178E+03  0.10141033488E+03  0.22118449691E+03  0.43291755034E+03  0.90315446456E+02 0.  0.
          3    1    3    3  502    0  0.70410731013E+02  0.49608242791E+02 -0.11643777775E+04  0.11675591023E+04  0.00000000000E+00 0. -1.
         -4    1    3    3    0  502 -0.77641927864E+01  0.60332040983E+02 -0.97734574634E+03  0.97923692014E+03  0.00000000000E+00 0.  1.
         11    1    5    5    0    0 -0.18671024843E+03 -0.86264094761E+02  0.72127894897E+01  0.20580144617E+03  0.00000000000E+00 0.  1.
        -11    1    5    5    0    0 -0.22242451158E+03 -0.12508652389E+03 -0.90837738814E+02  0.27087044247E+03  0.00000000000E+00 0. -1.
          1    1    6    6  503    0  0.15808488672E+03  0.82265274306E+01  0.12532072236E+03  0.20190044728E+03  0.00000000000E+00 0. -1.
         -1    1    6    6    0  503  0.18840333506E+03  0.93183807449E+02  0.95863774553E+02  0.23101710306E+03  0.00000000000E+00 0.  1.
<mgrwt>
<rscale>  0 0.23075569E+04</rscale>
<asrwt>0</asrwt>
<pdfrwt beam="1">  1        1 0.38927303E+00 0.23075569E+04</pdfrwt>
<pdfrwt beam="2">  1       -2 0.80940115E-01 0.23075569E+04</pdfrwt>
<totfact> 0.13794869E+00</totfact>
</mgrwt>
</event>
<event>
12    4  0.4280696E-008  0.1342370E+04  0.7818608E-02  0.8996624E-01
         -2   -1    0    0    0  501 -0.00000000000E+00  0.00000000000E+00  0.50005716765E+03  0.50005716765E+03  0.00000000000E+00 0.  1.
          1   -1    0    0  501    0  0.00000000000E+00 -0.00000000000E+00 -0.90087574522E+03  0.90087574522E+03  0.00000000000E+00 0. -1.
        -24    2    1    2    0    0 -0.21967325218E+03 -0.20381489644E+03  0.10051528203E+03  0.32586136932E+03  0.79280895296E+02 0.  0.
        254    2    1    2    0    0  0.21967325218E+03  0.20381489644E+03 -0.50133385961E+03  0.10750715436E+04  0.90257760621E+03 0.  0.
         23    2    4    4    0    0 -0.20222355470E+03  0.97094551447E+02  0.15097132951E+03  0.28585808184E+03  0.92740404467E+02 0.  0.
         23    2    4    4    0    0  0.42189680688E+03  0.10672034499E+03 -0.65230518912E+03  0.78921346171E+03  0.89273068187E+02 0.  0.
          1    1    3    3  502    0 -0.13029122250E+03 -0.12438159598E+03  0.18969670043E+02  0.18112546056E+03  0.00000000000E+00 0. -1.
         -2    1    3    3    0  502 -0.89382029674E+02 -0.79433300456E+02  0.81545611987E+02  0.14473590876E+03  0.00000000000E+00 0.  1.
         11    1    5    5    0    0 -0.16372843762E+02  0.47699776960E+02  0.30598912287E+02  0.58988407065E+02  0.00000000000E+00 0.  1.
        -11    1    5    5    0    0 -0.18585071094E+03  0.49394774487E+02  0.12037241723E+03  0.22686967477E+03  0.00000000000E+00 0. -1.
          1    1    6    6  503    0  0.28151289957E+03  0.64106355051E+02 -0.50247210583E+03  0.57951475781E+03  0.00000000000E+00 0. -1.
         -1    1    6    6    0  503  0.14038390730E+03  0.42613989942E+02 -0.14983308329E+03  0.20969870390E+03  0.00000000000E+00 0.  1.
<mgrwt>
<rscale>  0 0.13423701E+04</rscale>
<asrwt>0</asrwt>
<pdfrwt beam="1">  1        1 0.13859627E+00 0.13423701E+04</pdfrwt>
<pdfrwt beam="2">  1       -2 0.76931873E-01 0.13423701E+04</pdfrwt>
<totfact> 0.23532212E+01</totfact>
</mgrwt>
</event>
<event>
12    4  0.4280696E-008  0.2277822E+04  0.7818608E-02  0.8486717E-01
         -2   -1    0    0    0  501 -0.00000000000E+00  0.00000000000E+00  0.16415872971E+04  0.16415872971E+04  0.00000000000E+00 0.  1.
          1   -1    0    0  501    0  0.00000000000E+00 -0.00000000000E+00 -0.79016126848E+03  0.79016126848E+03  0.00000000000E+00 0. -1.
        -24    2    1    2    0    0 -0.30507442463E+03  0.71201016786E+03 -0.24199056808E+03  0.81544841384E+03  0.79798476710E+02 0.  0.
        254    2    1    2    0    0  0.30507442463E+03 -0.71201016786E+03  0.10934165967E+04  0.16163001517E+04  0.90379059679E+03 0.  0.
         23    2    4    4    0    0 -0.97240476694E+02 -0.75026756434E+03  0.82183999373E+03  0.11208250833E+04  0.92036751295E+02 0.  0.
         23    2    4    4    0    0  0.40231490132E+03  0.38257396471E+02  0.27157660294E+03  0.49547506845E+03  0.91764829733E+02 0.  0.
          1    1    3    3  502    0 -0.22734380200E+03  0.54914453306E+03 -0.21953186117E+03  0.63359226681E+03  0.00000000000E+00 0. -1.
         -2    1    3    3    0  502 -0.77730622630E+02  0.16286563481E+03 -0.22458706915E+02  0.18185614703E+03  0.00000000000E+00 0.  1.
         11    1    5    5    0    0 -0.22265444410E+01 -0.24289122585E+03  0.31069959078E+03  0.39437969117E+03  0.00000000000E+00 0. -1.
        -11    1    5    5    0    0 -0.95013932253E+02 -0.50737633848E+03  0.51114040295E+03  0.72644539210E+03  0.00000000000E+00 0.  1.
          2    1    6    6  503    0  0.29083911386E+03 -0.12650336766E+02  0.17727922027E+03  0.34084504267E+03  0.00000000000E+00 0. -1.
         -2    1    6    6    0  503  0.11147578746E+03  0.50907733237E+02  0.94297382670E+02  0.15463002577E+03  0.00000000000E+00 0.  1.
<mgrwt>
<rscale>  0 0.22778224E+04</rscale>
<asrwt>0</asrwt>
<pdfrwt beam="1">  1        1 0.12156327E+00 0.22778224E+04</pdfrwt>
<pdfrwt beam="2">  1       -2 0.25255189E+00 0.22778224E+04</pdfrwt>
<totfact> 0.11093973E+00</totfact>
</mgrwt>
</event>
<event>
12    4  0.4280696E-008  0.1343638E+04  0.7818608E-02  0.8995658E-01
         -2   -1    0    0    0  501 -0.00000000000E+00  0.00000000000E+00  0.54899851927E+03  0.54899851927E+03  0.00000000000E+00 0.  1.
          1   -1    0    0  501    0  0.00000000000E+00 -0.00000000000E+00 -0.82211637072E+03  0.82211637072E+03  0.00000000000E+00 0. -1.
        -24    2    1    2    0    0 -0.28305980870E+03  0.16762205780E+03 -0.77613959622E+01  0.33833961326E+03  0.78698443901E+02 0.  0.
        254    2    1    2    0    0  0.28305980870E+03 -0.16762205780E+03 -0.26535645550E+03  0.10327752767E+04  0.94233259212E+03 0.  0.
         23    2    4    4    0    0 -0.30183517117E+03  0.22241351278E+02 -0.26279147151E+03  0.41088853085E+03  0.90392914654E+02 0.  0.
         23    2    4    4    0    0  0.58489497987E+03 -0.18986340908E+03 -0.25649839811E+01  0.62188674588E+03  0.92662257526E+02 0.  0.
          3    1    3    3  502    0 -0.87999316936E+02  0.19553154772E+02 -0.22801099858E+02  0.92984384697E+02  0.00000000000E+00 0. -1.
         -4    1    3    3    0  502 -0.19506049177E+03  0.14806890302E+03  0.15039703895E+02  0.24535522857E+03  0.00000000000E+00 0.  1.
         11    1    5    5    0    0 -0.17844077626E+03  0.43738324015E+02 -0.11325550636E+03  0.21582622950E+03  0.00000000000E+00 0.  1.
        -11    1    5    5    0    0 -0.12339439491E+03 -0.21496972737E+02 -0.14953596516E+03  0.19506230135E+03  0.00000000000E+00 0. -1.
          3    1    6    6  503    0  0.33736932838E+02 -0.21440031710E+00 -0.19117999176E+02  0.38777886705E+02  0.00000000000E+00 0. -1.
         -3    1    6    6    0  503  0.55115804703E+03 -0.18964900876E+03  0.16553015195E+02  0.58310885917E+03  0.00000000000E+00 0.  1.
<mgrwt>
<rscale>  0 0.13436379E+04</rscale>
<asrwt>0</asrwt>
<pdfrwt beam="1">  1        1 0.12647944E+00 0.13436379E+04</pdfrwt>
<pdfrwt beam="2">  1       -2 0.84461311E-01 0.13436379E+04</pdfrwt>
<totfact> 0.22192742E+01</totfact>
</mgrwt>
</event>
<event>
12    4  0.4280696E-008  0.1651360E+04  0.7818608E-02  0.8789603E-01
         -4   -1    0    0    0  501 -0.00000000000E+00  0.00000000000E+00  0.97666934156E+03  0.97666934156E+03  0.00000000000E+00 0.  1.
          1   -1    0    0  501    0  0.00000000000E+00 -0.00000000000E+00 -0.69803276205E+03  0.69803276205E+03  0.00000000000E+00 0. -1.
        -24    2    1    2    0    0  0.50450486761E+03 -0.20468763989E+03  0.24687856112E+03  0.60324404299E+03  0.80821779799E+02 0.  0.
        254    2    1    2    0    0 -0.50450486761E+03  0.20468763989E+03  0.31758018392E+02  0.10714580606E+04  0.92227523690E+03 0.  0.
         23    2    4    4    0    0 -0.40807680632E+03 -0.21206445479E+03 -0.27022523477E+03  0.54002464964E+03  0.84302620763E+02 0.  0.
         23    2    4    4    0    0 -0.96428061287E+02  0.41675209468E+03  0.30198325316E+03  0.53143341099E+03  0.90812475476E+02 0.  0.
          3    1    3    3  502    0  0.48674449534E+03 -0.17939040630E+03  0.22538688353E+03  0.56559735580E+03  0.00000000000E+00 0. -1.
         -4    1    3    3    0  502  0.17760372269E+02 -0.25297233594E+02  0.21491677592E+02  0.37646687190E+02  0.00000000000E+00 0.  1.
         11    1    5    5    0    0 -0.38878439945E+03 -0.17651123129E+03 -0.24327442337E+03  0.49141832393E+03  0.00000000000E+00 0. -1.
        -11    1    5    5    0    0 -0.19292406873E+02 -0.35553223493E+02 -0.26950811398E+02  0.48606325707E+02  0.00000000000E+00 0.  1.
          1    1    6    6  503    0 -0.10840277936E+03  0.36181410241E+03  0.28343726758E+03  0.47222589079E+03  0.00000000000E+00 0. -1.
         -1    1    6    6    0  503  0.11974718070E+02  0.54937992268E+02  0.18545985582E+02  0.59207520202E+02  0.00000000000E+00 0.  1.
<mgrwt>
<rscale>  0 0.16513597E+04</rscale>
<asrwt>0</asrwt>
<pdfrwt beam="1">  1        1 0.10738966E+00 0.16513597E+04</pdfrwt>
<pdfrwt beam="2">  1       -4 0.15025682E+00 0.16513597E+04</pdfrwt>
<totfact> 0.37346029E+00</totfact>
</mgrwt>
</event>
<event>
12    4  0.4280696E-008  0.1624700E+04  0.7818608E-02  0.8805516E-01
         -2   -1    0    0    0  501 -0.00000000000E+00  0.00000000000E+00  0.41333035524E+03  0.41333035524E+03  0.00000000000E+00 0.  1.
          1   -1    0    0  501    0  0.00000000000E+00 -0.00000000000E+00 -0.15965738027E+04  0.15965738027E+04  0.00000000000E+00 0. -1.
        -24    2    1    2    0    0 -0.49414762812E+03 -0.23340317234E+03 -0.54754637120E+03  0.77768828650E+03  0.79580921681E+02 0.  0.
        254    2    1    2    0    0  0.49414762812E+03  0.23340317234E+03 -0.63569707622E+03  0.12322158714E+04  0.90309814627E+03 0.  0.
         23    2    4    4    0    0  0.73250401254E+03  0.84654430772E+02 -0.34982317177E+03  0.82127949682E+03  0.91625647964E+02 0.  0.
         23    2    4    4    0    0 -0.23835638441E+03  0.14874874157E+03 -0.28587390445E+03  0.41093637458E+03  0.90580685565E+02 0.  0.
          3    1    3    3  502    0 -0.39238942125E+03 -0.17749289207E+03 -0.47310742520E+03  0.63976856786E+03  0.00000000000E+00 0. -1.
         -4    1    3    3    0  502 -0.10175820687E+03 -0.55910280270E+02 -0.74438946003E+02  0.13791971863E+03  0.00000000000E+00 0.  1.
         11    1    5    5    0    0  0.70372355852E+03  0.97645546151E+02 -0.34319475112E+03  0.78901466190E+03  0.00000000000E+00 0. -1.
        -11    1    5    5    0    0  0.28780454020E+02 -0.12991115379E+02 -0.66284206440E+01  0.32264834923E+02  0.00000000000E+00 0.  1.
          2    1    6    6  503    0  0.46001460863E+01  0.18792745057E+02 -0.23828173290E+02  0.30693817832E+02  0.00000000000E+00 0.  1.
         -2    1    6    6    0  503 -0.24295653050E+03  0.12995599652E+03 -0.26204573116E+03  0.38024255675E+03  0.00000000000E+00 0. -1.
<mgrwt>
<rscale>  0 0.16246999E+04</rscale>
<asrwt>0</asrwt>
<pdfrwt beam="1">  1        1 0.24562674E+00 0.16246999E+04</pdfrwt>
<pdfrwt beam="2">  1       -2 0.63589286E-01 0.16246999E+04</pdfrwt>
<totfact> 0.10790005E+01</totfact>
</mgrwt>
</event>
<event>
12    4  0.4280696E-008  0.1343399E+04  0.7818608E-02  0.8995840E-01
          1   -1    0    0  501    0  0.00000000000E+00  0.00000000000E+00  0.87915689111E+03  0.87915689111E+03  0.00000000000E+00 0. -1.
         -2   -1    0    0    0  501 -0.00000000000E+00 -0.00000000000E+00 -0.51319665314E+03  0.51319665314E+03  0.00000000000E+00 0.  1.
        -24    2    1    2    0    0  0.14986539642E+03  0.16826602648E+03  0.41341012135E+03  0.47838871634E+03  0.84703853325E+02 0.  0.
        254    2    1    2    0    0 -0.14986539642E+03 -0.16826602648E+03 -0.47449883381E+02  0.91396482791E+03  0.88448127312E+03 0.  0.
         23    2    4    4    0    0 -0.25750533749E+03  0.30810431064E+03  0.86723045362E+01  0.41376829463E+03  0.99457165183E+02 0.  0.
         23    2    4    4    0    0  0.10763994106E+03 -0.47637033713E+03 -0.56122187917E+02  0.50019653327E+03  0.92367834848E+02 0.  0.
          3    1    3    3  502    0  0.10611877371E+03  0.16478733072E+03  0.32140710611E+03  0.37645529131E+03  0.00000000000E+00 0. -1.
         -4    1    3    3    0  502  0.43746622717E+02  0.34786957608E+01  0.92003015243E+02  0.10193342502E+03  0.00000000000E+00 0.  1.
         11    1    5    5    0    0  0.41801250713E+01  0.25329442204E+01 -0.98886257225E+01  0.11030601557E+02  0.00000000000E+00 0.  1.
        -11    1    5    5    0    0 -0.26168546256E+03  0.30557136642E+03  0.18560930259E+02  0.40273769308E+03  0.00000000000E+00 0. -1.
          4    1    6    6  503    0  0.69198986771E+02 -0.33356894824E+03  0.36458827727E+01  0.34069052740E+03  0.00000000000E+00 0. -1.
         -4    1    6    6    0  503  0.38440954291E+02 -0.14280138889E+03 -0.59768070690E+02  0.15950600588E+03  0.00000000000E+00 0.  1.
<mgrwt>
<rscale>  0 0.13433992E+04</rscale>
<asrwt>0</asrwt>
<pdfrwt beam="1">  1        1 0.13525491E+00 0.13433992E+04</pdfrwt>
<pdfrwt beam="2">  1       -2 0.78953331E-01 0.13433992E+04</pdfrwt>
<totfact> 0.23137849E+01</totfact>
</mgrwt>
</event>
<event>
12    4  0.4280696E-008  0.2755103E+04  0.7818608E-02  0.8317344E-01
          1   -1    0    0  501    0  0.00000000000E+00  0.00000000000E+00  0.12355967368E+04  0.12355967368E+04  0.00000000000E+00 0. -1.
         -2   -1    0    0    0  501 -0.00000000000E+00 -0.00000000000E+00 -0.15358149402E+04  0.15358149402E+04  0.00000000000E+00 0.  1.
        -24    2    1    2    0    0 -0.34464042311E+03  0.29057559440E+03  0.10158842144E+04  0.11143471289E+04  0.80855360480E+02 0.  0.
        254    2    1    2    0    0  0.34464042311E+03 -0.29057559440E+03 -0.13161024178E+04  0.16570645480E+04  0.90029225522E+03 0.  0.
         23    2    4    4    0    0 -0.27603872774E+03 -0.24043139000E+03 -0.53639000454E+03  0.65573507328E+03  0.90937433656E+02 0.  0.
         23    2    4    4    0    0  0.62067915085E+03 -0.50144204402E+02 -0.77971241328E+03  0.10013294748E+04  0.83379973885E+02 0.  0.
          3    1    3    3  502    0 -0.29912125221E+03  0.21288390241E+03  0.78856760645E+03  0.86984593427E+03  0.00000000000E+00 0. -1.
         -4    1    3    3    0  502 -0.45519170900E+02  0.77691691992E+02  0.22731660799E+03  0.24450119466E+03  0.00000000000E+00 0.  1.
         11    1    5    5    0    0 -0.55242513463E+02 -0.16964206056E+02 -0.12846875398E+03  0.14086781155E+03  0.00000000000E+00 0.  1.
        -11    1    5    5    0    0 -0.22079621428E+03 -0.22346718394E+03 -0.40792125056E+03  0.51486726173E+03  0.00000000000E+00 0. -1.
          1    1    6    6  503    0  0.27243954719E+03  0.19428267555E+02 -0.34118373419E+03  0.43704359614E+03  0.00000000000E+00 0. -1.
         -1    1    6    6    0  503  0.34823960366E+03 -0.69572471957E+02 -0.43852867909E+03  0.56428587861E+03  0.00000000000E+00 0.  1.
<mgrwt>
<rscale>  0 0.27551028E+04</rscale>
<asrwt>0</asrwt>
<pdfrwt beam="1">  1        1 0.19009181E+00 0.27551028E+04</pdfrwt>
<pdfrwt beam="2">  1       -2 0.23627922E+00 0.27551028E+04</pdfrwt>
<totfact> 0.59978964E-01</totfact>
</mgrwt>
</event>
<event>
12    4  0.4280696E-008  0.1572443E+04  0.7818608E-02  0.8837659E-01
         -4   -1    0    0    0  501 -0.00000000000E+00  0.00000000000E+00  0.26786284467E+04  0.26786284467E+04  0.00000000000E+00 0.  1.
          3   -1    0    0  501    0  0.00000000000E+00 -0.00000000000E+00 -0.23076888763E+03  0.23076888763E+03  0.00000000000E+00 0. -1.
        -24    2    1    2    0    0  0.42087595020E+03  0.24688728623E+02  0.12546916648E+04  0.13260637180E+04  0.80297644508E+02 0.  0.
        254    2    1    2    0    0 -0.42087595020E+03 -0.24688728623E+02  0.11931678943E+04  0.15833336163E+04  0.95160370843E+03 0.  0.
         23    2    4    4    0    0 -0.53186731273E+03 -0.35517472759E+03  0.56203684742E+03  0.85626228322E+03  0.90927192526E+02 0.  0.
         23    2    4    4    0    0  0.11099136253E+03  0.33048599897E+03  0.63113104686E+03  0.72707133311E+03  0.93628238512E+02 0.  0.
          1    1    3    3  502    0  0.32980709497E+02 -0.14982094843E+02  0.15857981738E+03  0.16266452854E+03  0.00000000000E+00 0. -1.
         -2    1    3    3    0  502  0.38789524070E+03  0.39670823466E+02  0.10961118474E+04  0.11633991895E+04  0.00000000000E+00 0.  1.
         11    1    5    5    0    0 -0.15879166292E+03 -0.11263517925E+03  0.22827264522E+03  0.30001646017E+03  0.00000000000E+00 0. -1.
        -11    1    5    5    0    0 -0.37307564981E+03 -0.24253954834E+03  0.33376420219E+03  0.55624582305E+03  0.00000000000E+00 0.  1.
          2    1    6    6  503    0 -0.19119252874E+01  0.41903100695E+02  0.32771641774E+02  0.53230684860E+02  0.00000000000E+00 0. -1.
         -2    1    6    6    0  503  0.11290328782E+03  0.28858289827E+03  0.59835940509E+03  0.67384064825E+03  0.00000000000E+00 0.  1.
<mgrwt>
<rscale>  0 0.15724428E+04</rscale>
<asrwt>0</asrwt>
<pdfrwt beam="1">  1        3 0.35502908E-01 0.15724428E+04</pdfrwt>
<pdfrwt beam="2">  1       -4 0.41209666E+00 0.15724428E+04</pdfrwt>
<totfact> 0.97998138E-02</totfact>
</mgrwt>
</event>
<event>
12    4  0.4280696E-008  0.1620629E+04  0.7818608E-02  0.8807974E-01
          1   -1    0    0  501    0  0.00000000000E+00  0.00000000000E+00  0.12967790020E+04  0.12967790020E+04  0.00000000000E+00 0. -1.
         -4   -1    0    0    0  501 -0.00000000000E+00 -0.00000000000E+00 -0.50633881259E+03  0.50633881259E+03  0.00000000000E+00 0.  1.
        -24    2    1    2    0    0 -0.56311080441E+03  0.27795098934E+02  0.22618735342E+03  0.61274763251E+03  0.80203470798E+02 0.  0.
        254    2    1    2    0    0  0.56311080441E+03 -0.27795098934E+02  0.56425283598E+03  0.11903701821E+04  0.88359128666E+03 0.  0.
         23    2    4    4    0    0  0.62574797040E+03 -0.32486700846E+03  0.27816098467E+03  0.76352755969E+03  0.92204692832E+02 0.  0.
         23    2    4    4    0    0 -0.62637165983E+02  0.29707190952E+03  0.28609185131E+03  0.42684262237E+03  0.90393267959E+02 0.  0.
          1    1    3    3  502    0 -0.17207597533E+03  0.40072080462E+02  0.49579106052E+02  0.18350477017E+03  0.00000000000E+00 0. -1.
         -2    1    3    3    0  502 -0.39103482909E+03 -0.12276981528E+02  0.17660824736E+03  0.42924286234E+03  0.00000000000E+00 0.  1.
         11    1    5    5    0    0  0.16271339762E+03 -0.85620305058E+02  0.30091889156E+02  0.18631158900E+03  0.00000000000E+00 0. -1.
        -11    1    5    5    0    0  0.46303457278E+03 -0.23924670340E+03  0.24806909551E+03  0.57721597069E+03  0.00000000000E+00 0.  1.
          3    1    6    6  503    0  0.41274078625E+01  0.18125145517E+03  0.18682553965E+03  0.26033230257E+03  0.00000000000E+00 0. -1.
         -3    1    6    6    0  503 -0.66764573846E+02  0.11582045435E+03  0.99266311661E+02  0.16651031979E+03  0.00000000000E+00 0.  1.
<mgrwt>
<rscale>  0 0.16206289E+04</rscale>
<asrwt>0</asrwt>
<pdfrwt beam="1">  1        1 0.19950446E+00 0.16206289E+04</pdfrwt>
<pdfrwt beam="2">  1       -4 0.77898280E-01 0.16206289E+04</pdfrwt>
<totfact> 0.62784534E+00</totfact>
</mgrwt>
</event>
<event>
12    4  0.4280696E-008  0.1668839E+04  0.7818608E-02  0.8779339E-01
         -2   -1    0    0    0  501 -0.00000000000E+00  0.00000000000E+00  0.13410539102E+04  0.13410539102E+04  0.00000000000E+00 0.  1.
          1   -1    0    0  501    0  0.00000000000E+00 -0.00000000000E+00 -0.51918533280E+03  0.51918533280E+03  0.00000000000E+00 0. -1.
        -24    2    1    2    0    0  0.42990923905E+03  0.70602380992E+02  0.73154548618E+03  0.85526052426E+03  0.80654299222E+02 0.  0.
        254    2    1    2    0    0 -0.42990923905E+03 -0.70602380992E+02  0.90323091198E+02  0.10049787187E+04  0.90112003322E+03 0.  0.
         23    2    4    4    0    0 -0.17747994175E+02  0.36906488327E+03 -0.40661799715E+02  0.38223661972E+03  0.89036914471E+02 0.  0.
         23    2    4    4    0    0 -0.41216124487E+03 -0.43966726426E+03  0.13098489091E+03  0.62274209900E+03  0.86408825854E+02 0.  0.
          1    1    3    3  502    0  0.19438960343E+03 -0.74988453181E+01  0.33971271679E+03  0.39146938648E+03  0.00000000000E+00 0. -1.
         -2    1    3    3    0  502  0.23551963562E+03  0.78101226310E+02  0.39183276939E+03  0.46379113778E+03  0.00000000000E+00 0.  1.
         11    1    5    5    0    0 -0.44730135355E+02  0.10490336327E+03 -0.33391994771E+01  0.11409053811E+03  0.00000000000E+00 0. -1.
        -11    1    5    5    0    0  0.26982141180E+02  0.26416152000E+03 -0.37322600238E+02  0.26814608161E+03  0.00000000000E+00 0.  1.
          3    1    6    6  503    0 -0.23421881246E+02 -0.63936613156E+02  0.17827870981E+02  0.70386845409E+02  0.00000000000E+00 0. -1.
         -3    1    6    6    0  503 -0.38873936363E+03 -0.37573065111E+03  0.11315701993E+03  0.55235525360E+03  0.00000000000E+00 0.  1.
<mgrwt>
<rscale>  0 0.16688385E+04</rscale>
<asrwt>0</asrwt>
<pdfrwt beam="1">  1        1 0.79874667E-01 0.16688385E+04</pdfrwt>
<pdfrwt beam="2">  1       -2 0.20631598E+00 0.16688385E+04</pdfrwt>
<totfact> 0.42435637E+00</totfact>
</mgrwt>
</event>
<event>
12    4  0.4280696E-008  0.1557978E+04  0.7818608E-02  0.8846788E-01
          1   -1    0    0  501    0  0.00000000000E+00  0.00000000000E+00  0.11623254059E+04  0.11623254059E+04  0.00000000000E+00 0. -1.
         -2   -1    0    0    0  501 -0.00000000000E+00 -0.00000000000E+00 -0.52207717076E+03  0.52207717076E+03  0.00000000000E+00 0.  1.
        -24    2    1    2    0    0 -0.28185906087E+03 -0.27690550329E+03  0.57304752255E+03  0.70055923122E+03  0.79237525174E+02 0.  0.
        254    2    1    2    0    0  0.28185906087E+03  0.27690550329E+03  0.67200712572E+02  0.98384334543E+03  0.89850464919E+03 0.  0.
         23    2    4    4    0    0 -0.28756160477E+03  0.64653597188E+02  0.18240087163E+03  0.35857094469E+03  0.91822003027E+02 0.  0.
         23    2    4    4    0    0  0.56942066565E+03  0.21225190611E+03 -0.11520015905E+03  0.62527240074E+03  0.91671873367E+02 0.  0.
          3    1    3    3  502    0 -0.12850028398E+03 -0.18134656929E+03  0.31144015866E+03  0.38261452352E+03  0.00000000000E+00 0. -1.
         -4    1    3    3    0  502 -0.15335877689E+03 -0.95558934005E+02  0.26160736389E+03  0.31794470770E+03  0.00000000000E+00 0.  1.
         11    1    5    5    0    0 -0.61807005532E+02 -0.19109132912E+02  0.60950006640E+02  0.88882890383E+02  0.00000000000E+00 0. -1.
        -11    1    5    5    0    0 -0.22575459924E+03  0.83762730100E+02  0.12145086499E+03  0.26968805431E+03  0.00000000000E+00 0.  1.
          3    1    6    6  503    0  0.19398203096E+03  0.10477146985E+03 -0.74136128577E+02  0.23259891399E+03  0.00000000000E+00 0. -1.
         -3    1    6    6    0  503  0.37543863469E+03  0.10748043625E+03 -0.41064030477E+02  0.39267348674E+03  0.00000000000E+00 0.  1.
<mgrwt>
<rscale>  0 0.15579776E+04</rscale>
<asrwt>0</asrwt>
<pdfrwt beam="1">  1        1 0.17881929E+00 0.15579776E+04</pdfrwt>
<pdfrwt beam="2">  1       -2 0.80319565E-01 0.15579776E+04</pdfrwt>
<totfact> 0.13176167E+01</totfact>
</mgrwt>
</event>
<event>
12    4  0.4280696E-008  0.2018853E+04  0.7818608E-02  0.8597857E-01
          1   -1    0    0  501    0  0.00000000000E+00  0.00000000000E+00  0.17843816717E+04  0.17843816717E+04  0.00000000000E+00 0. -1.
         -2   -1    0    0    0  501 -0.00000000000E+00 -0.00000000000E+00 -0.57103340382E+03  0.57103340382E+03  0.00000000000E+00 0.  1.
        -24    2    1    2    0    0 -0.55768735643E+03  0.11914232460E+02  0.11709018634E+04  0.12994392659E+04  0.79837933722E+02 0.  0.
        254    2    1    2    0    0  0.55768735643E+03 -0.11914232460E+02  0.42446404499E+02  0.10559758096E+04  0.89561491545E+03 0.  0.
         23    2    4    4    0    0 -0.22206971005E+02  0.84852558036E+01  0.37047303102E+03  0.38234654042E+03  0.91506617952E+02 0.  0.
         23    2    4    4    0    0  0.57989432743E+03 -0.20399488264E+02 -0.32802662652E+03  0.67362926919E+03  0.97372247039E+02 0.  0.
          1    1    3    3  502    0 -0.24958044031E+03 -0.12272369711E+02  0.60652450904E+03  0.65598245960E+03  0.00000000000E+00 0. -1.
         -2    1    3    3    0  502 -0.30810691612E+03  0.24186602171E+02  0.56437735434E+03  0.64345680631E+03  0.00000000000E+00 0.  1.
         11    1    5    5    0    0 -0.41803651139E+02 -0.25399382832E+02  0.27228330112E+03  0.27664213338E+03  0.00000000000E+00 0.  1.
        -11    1    5    5    0    0  0.19596680134E+02  0.33884638635E+02  0.98189729905E+02  0.10570440703E+03  0.00000000000E+00 0. -1.
          4    1    6    6  503    0  0.19906619329E+03 -0.49893297187E+02 -0.13512897620E+03  0.24571636214E+03  0.00000000000E+00 0. -1.
         -4    1    6    6    0  503  0.38082813415E+03  0.29493808923E+02 -0.19289765032E+03  0.42791290705E+03  0.00000000000E+00 0.  1.
<mgrwt>
<rscale>  0 0.20188527E+04</rscale>
<asrwt>0</asrwt>
<pdfrwt beam="1">  1        1 0.27452025E+00 0.20188527E+04</pdfrwt>
<pdfrwt beam="2">  1       -2 0.87851294E-01 0.20188527E+04</pdfrwt>
<totfact> 0.37931831E+00</totfact>
</mgrwt>
</event>
<event>
12    4  0.4280696E-008  0.1734173E+04  0.7818608E-02  0.8742111E-01
          1   -1    0    0  501    0  0.00000000000E+00  0.00000000000E+00  0.63133515901E+03  0.63133515901E+03  0.00000000000E+00 0. -1.
         -2   -1    0    0    0  501 -0.00000000000E+00 -0.00000000000E+00 -0.11908714484E+04  0.11908714484E+04  0.00000000000E+00 0.  1.
        -24    2    1    2    0    0  0.82246349713E+02  0.23153487281E+02 -0.86196373760E+03  0.86985874981E+03  0.79826146596E+02 0.  0.
        254    2    1    2    0    0 -0.82246349713E+02 -0.23153487281E+02  0.30242744821E+03  0.95234785759E+03  0.89900140957E+03 0.  0.
         23    2    4    4    0    0 -0.33818988750E+03  0.18074711958E+03 -0.11880331452E+03  0.41163773766E+03  0.91046572044E+02 0.  0.
         23    2    4    4    0    0  0.25594353779E+03 -0.20390060686E+03  0.42123076273E+03  0.54071011993E+03  0.88597552545E+02 0.  0.
          1    1    3    3  502    0  0.69510657750E+02 -0.91000211593E+01 -0.36401349176E+03  0.37070252779E+03  0.00000000000E+00 0. -1.
         -2    1    3    3    0  502  0.12735691964E+02  0.32253508441E+02 -0.49795024584E+03  0.49915622203E+03  0.00000000000E+00 0.  1.
         11    1    5    5    0    0 -0.34125535418E+03  0.18269664749E+03 -0.12293522774E+03  0.40613587871E+03  0.00000000000E+00 0. -1.
        -11    1    5    5    0    0  0.30654666773E+01 -0.19495279101E+01  0.41319132188E+01  0.55018589467E+01  0.00000000000E+00 0.  1.
          1    1    6    6  503    0  0.21458615145E+03 -0.16034256656E+03  0.38965723041E+03  0.47285273844E+03  0.00000000000E+00 0. -1.
         -1    1    6    6    0  503  0.41357386333E+02 -0.43558040306E+02  0.31573532324E+02  0.67857381492E+02  0.00000000000E+00 0.  1.
<mgrwt>
<rscale>  0 0.17341730E+04</rscale>
<asrwt>0</asrwt>
<pdfrwt beam="1">  1        1 0.97128488E-01 0.17341730E+04</pdfrwt>
<pdfrwt beam="2">  1       -2 0.18321099E+00 0.17341730E+04</pdfrwt>
<totfact> 0.45481341E+00</totfact>
</mgrwt>
</event>
<event>
12    4  0.4280696E-008  0.1483349E+04  0.7818608E-02  0.8895602E-01
          1   -1    0    0  501    0  0.00000000000E+00  0.00000000000E+00  0.37776643698E+04  0.37776643698E+04  0.00000000000E+00 0. -1.
         -2   -1    0    0    0  501 -0.00000000000E+00 -0.00000000000E+00 -0.14561409298E+03  0.14561409298E+03  0.00000000000E+00 0.  1.
        -24    2    1    2    0    0 -0.25256331790E+03  0.16216065707E+03  0.22108720043E+03  0.38139892927E+03  0.80630545118E+02 0.  0.
        254    2    1    2    0    0  0.25256331790E+03 -0.16216065707E+03  0.34109630764E+04  0.35418795335E+04  0.90562531607E+03 0.  0.
         23    2    4    4    0    0  0.22003492016E+03 -0.51953512056E+03  0.17845924844E+04  0.18739497445E+04  0.92656365401E+02 0.  0.
         23    2    4    4    0    0  0.32528397744E+02  0.35737446349E+03  0.16263705920E+04  0.16679297890E+04  0.90187996193E+02 0.  0.
          3    1    3    3  502    0 -0.34314269729E+02 -0.49240568465E+01  0.14595933471E+02  0.37613251877E+02  0.00000000000E+00 0. -1.
         -4    1    3    3    0  502 -0.21824904817E+03  0.16708471391E+03  0.20649126696E+03  0.34378567739E+03  0.00000000000E+00 0.  1.
         11    1    5    5    0    0  0.19829011361E+03 -0.45432129620E+03  0.14507251838E+04  0.15330787221E+04  0.00000000000E+00 0.  1.
        -11    1    5    5    0    0  0.21744806543E+02 -0.65213824356E+02  0.33386730058E+03  0.34087102238E+03  0.00000000000E+00 0. -1.
          1    1    6    6  503    0  0.47827034943E+01  0.20315584493E+02  0.32876426323E+02  0.38941708151E+02  0.00000000000E+00 0. -1.
         -1    1    6    6    0  503  0.27745694250E+02  0.33705887900E+03  0.15934941657E+04  0.16289880809E+04  0.00000000000E+00 0.  1.
<mgrwt>
<rscale>  0 0.14833491E+04</rscale>
<asrwt>0</asrwt>
<pdfrwt beam="1">  1        1 0.58117906E+00 0.14833491E+04</pdfrwt>
<pdfrwt beam="2">  1       -2 0.22402171E-01 0.14833491E+04</pdfrwt>
<totfact> 0.22488333E+00</totfact>
</mgrwt>
</event>
<event>
12    4  0.4280696E-008  0.1709237E+04  0.7818608E-02  0.8756114E-01
         -4   -1    0    0    0  501 -0.00000000000E+00  0.00000000000E+00  0.11371346393E+04  0.11371346393E+04  0.00000000000E+00 0.  1.
          3   -1    0    0  501    0  0.00000000000E+00 -0.00000000000E+00 -0.64229234012E+03  0.64229234012E+03  0.00000000000E+00 0. -1.
        -24    2    1    2    0    0 -0.21352774663E+03  0.50564385608E+02 -0.41756465964E+03  0.47818861340E+03  0.78442649942E+02 0.  0.
        254    2    1    2    0    0  0.21352774663E+03 -0.50564385608E+02  0.91240695886E+03  0.13012383661E+04  0.90143439643E+03 0.  0.
         23    2    4    4    0    0  0.39828528823E+03 -0.68183735808E+02  0.99535618249E+03  0.10788181110E+04  0.99168512785E+02 0.  0.
         23    2    4    4    0    0 -0.18475754160E+03  0.17619350200E+02 -0.82949223628E+02  0.22242025508E+03  0.90246359968E+02 0.  0.
          3    1    3    3  502    0 -0.20429830135E+03  0.52741340632E+02 -0.41847887117E+03  0.46866193633E+03  0.00000000000E+00 0. -1.
         -4    1    3    3    0  502 -0.92294452752E+01 -0.21769550236E+01  0.91421152882E+00  0.95266770693E+01  0.00000000000E+00 0.  1.
         11    1    5    5    0    0  0.11226600423E+03  0.42355091007E+01  0.38217388944E+03  0.39834467112E+03  0.00000000000E+00 0. -1.
        -11    1    5    5    0    0  0.28601928400E+03 -0.72419244908E+02  0.61318229305E+03  0.68047343987E+03  0.00000000000E+00 0.  1.
          3    1    6    6  503    0 -0.40280098854E+01 -0.19905927582E+02 -0.64913547952E+00  0.20319748852E+02  0.00000000000E+00 0. -1.
         -3    1    6    6    0  503 -0.18072953172E+03  0.37525277781E+02 -0.82300088148E+02  0.20210050623E+03  0.00000000000E+00 0.  1.
<mgrwt>
<rscale>  0 0.17092371E+04</rscale>
<asrwt>0</asrwt>
<pdfrwt beam="1">  1        3 0.98814206E-01 0.17092371E+04</pdfrwt>
<pdfrwt beam="2">  1       -4 0.17494379E+00 0.17092371E+04</pdfrwt>
<totfact> 0.38162629E-01</totfact>
</mgrwt>
</event>
<event>
12    4  0.4280696E-008  0.1295451E+04  0.7818608E-02  0.9033180E-01
          1   -1    0    0  501    0  0.00000000000E+00  0.00000000000E+00  0.56168739057E+03  0.56168739057E+03  0.00000000000E+00 0. -1.
         -2   -1    0    0    0  501 -0.00000000000E+00 -0.00000000000E+00 -0.74694330767E+03  0.74694330767E+03  0.00000000000E+00 0.  1.
        -24    2    1    2    0    0 -0.24700788233E+03  0.13968706695E+03  0.12041421326E+03  0.32667601944E+03  0.10813079264E+03 0.  0.
        254    2    1    2    0    0  0.24700788233E+03 -0.13968706695E+03 -0.30567013036E+03  0.98195467880E+03  0.88897434834E+03 0.  0.
         23    2    4    4    0    0  0.44793595613E+03 -0.16863855591E+03  0.11979348631E+03  0.50188365245E+03  0.91930070694E+02 0.  0.
         23    2    4    4    0    0 -0.20092807380E+03  0.28951488961E+02 -0.42546361668E+03  0.48007102635E+03  0.90766853360E+02 0.  0.
          1    1    3    3  502    0 -0.25191564743E+03  0.13013254801E+03  0.13032718005E+03  0.31205952530E+03  0.00000000000E+00 0. -1.
         -2    1    3    3    0  502  0.49077651001E+01  0.95545189376E+01 -0.99129667870E+01  0.14616494139E+02  0.00000000000E+00 0.  1.
         11    1    5    5    0    0  0.18558888223E+03 -0.51597627582E+02  0.91401896802E+02  0.21321316826E+03  0.00000000000E+00 0. -1.
        -11    1    5    5    0    0  0.26234707390E+03 -0.11704092833E+03  0.28391589513E+02  0.28867048419E+03  0.00000000000E+00 0.  1.
          2    1    6    6  503    0 -0.77148129102E+02 -0.23656965664E+02 -0.10421243253E+03  0.13180180932E+03  0.00000000000E+00 0. -1.
         -2    1    6    6    0  503 -0.12377994470E+03  0.52608454625E+02 -0.32125118415E+03  0.34826921702E+03  0.00000000000E+00 0.  1.
<mgrwt>
<rscale>  0 0.12954515E+04</rscale>
<asrwt>0</asrwt>
<pdfrwt beam="1">  1        1 0.86413445E-01 0.12954515E+04</pdfrwt>
<pdfrwt beam="2">  1       -2 0.11491435E+00 0.12954515E+04</pdfrwt>
<totfact> 0.19121442E+01</totfact>
</mgrwt>
</event>
<event>
12    4  0.4280696E-008  0.1626595E+04  0.7818608E-02  0.8804374E-01
          1   -1    0    0  501    0  0.00000000000E+00  0.00000000000E+00  0.49907298682E+03  0.49907298682E+03  0.00000000000E+00 0. -1.
         -2   -1    0    0    0  501 -0.00000000000E+00 -0.00000000000E+00 -0.13253629997E+04  0.13253629997E+04  0.00000000000E+00 0.  1.
        -24    2    1    2    0    0  0.30189009855E+03 -0.44758548751E+03 -0.14187945746E+03  0.56462287585E+03  0.84845808695E+02 0.  0.
        254    2    1    2    0    0 -0.30189009855E+03  0.44758548751E+03 -0.68441055539E+03  0.12598131106E+04  0.90952782539E+03 0.  0.
         23    2    4    4    0    0 -0.26362237852E+02 -0.10725199075E+03 -0.61281427098E+03  0.62912849833E+03  0.89796322810E+02 0.  0.
         23    2    4    4    0    0 -0.27552786070E+03  0.55483747826E+03 -0.71596284415E+02  0.63068461231E+03  0.94216893170E+02 0.  0.
          3    1    3    3  502    0  0.30510022693E+03 -0.42232608127E+03 -0.13669075419E+03  0.53863701105E+03  0.00000000000E+00 0. -1.
         -4    1    3    3    0  502 -0.32101283779E+01 -0.25259406242E+02 -0.51887032728E+01  0.25985864803E+02  0.00000000000E+00 0.  1.
         11    1    5    5    0    0 -0.25232577860E+02 -0.30463233919E+02 -0.65987420534E+02  0.76935240787E+02  0.00000000000E+00 0. -1.
        -11    1    5    5    0    0 -0.11296599928E+01 -0.76788756827E+02 -0.54682685044E+03  0.55219325754E+03  0.00000000000E+00 0.  1.
          4    1    6    6  503    0 -0.64842476086E+01  0.67477171731E+02 -0.24207006181E+02  0.71980506528E+02  0.00000000000E+00 0. -1.
         -4    1    6    6    0  503 -0.26904361309E+03  0.48736030653E+03 -0.47389278234E+02  0.55870410578E+03  0.00000000000E+00 0.  1.
<mgrwt>
<rscale>  0 0.16265951E+04</rscale>
<asrwt>0</asrwt>
<pdfrwt beam="1">  1        1 0.76780461E-01 0.16265951E+04</pdfrwt>
<pdfrwt beam="2">  1       -2 0.20390200E+00 0.16265951E+04</pdfrwt>
<totfact> 0.46631331E+00</totfact>
</mgrwt>
</event>
<event>
12    4  0.4280696E-008  0.1099670E+04  0.7818608E-02  0.9205513E-01
         -2   -1    0    0    0  501 -0.00000000000E+00  0.00000000000E+00  0.37087607587E+03  0.37087607587E+03  0.00000000000E+00 0.  1.
          1   -1    0    0  501    0  0.00000000000E+00 -0.00000000000E+00 -0.81514747419E+03  0.81514747419E+03  0.00000000000E+00 0. -1.
        -24    2    1    2    0    0  0.46337429399E+02 -0.13599897819E+03 -0.17028379732E+03  0.24351495904E+03  0.98285727406E+02 0.  0.
        254    2    1    2    0    0 -0.46337429399E+02  0.13599897819E+03 -0.27398760100E+03  0.94250859103E+03  0.89028667250E+03 0.  0.
         23    2    4    4    0    0  0.13720446349E+03 -0.18026962755E+02 -0.54499276326E+03  0.56933433742E+03  0.89299717652E+02 0.  0.
         23    2    4    4    0    0 -0.18354189289E+03  0.15402594095E+03  0.27100516225E+03  0.37317425361E+03  0.91671198633E+02 0.  0.
          3    1    3    3  502    0  0.20061063750E+02 -0.70246312086E+02 -0.15459785218E+03  0.17098972642E+03  0.00000000000E+00 0. -1.
         -4    1    3    3    0  502  0.26276365649E+02 -0.65752666105E+02 -0.15685945139E+02  0.72525232619E+02  0.00000000000E+00 0.  1.
         11    1    5    5    0    0  0.63570862173E+02  0.27544644204E+02 -0.15399398623E+03  0.16886121442E+03  0.00000000000E+00 0. -1.
        -11    1    5    5    0    0  0.73633601320E+02 -0.45571606959E+02 -0.39099877703E+03  0.40047312300E+03  0.00000000000E+00 0.  1.
          4    1    6    6  503    0 -0.17797235449E+03  0.13819525204E+03  0.27539348927E+03  0.35582813349E+03  0.00000000000E+00 0. -1.
         -4    1    6    6    0  503 -0.55695384067E+01  0.15830688908E+02 -0.43883270175E+01  0.17346120125E+02  0.00000000000E+00 0.  1.
<mgrwt>
<rscale>  0 0.10996703E+04</rscale>
<asrwt>0</asrwt>
<pdfrwt beam="1">  1        1 0.12540730E+00 0.10996703E+04</pdfrwt>
<pdfrwt beam="2">  1       -2 0.57057859E-01 0.10996703E+04</pdfrwt>
<totfact> 0.53932641E+01</totfact>
</mgrwt>
</event>
<event>
12    4  0.4280696E-008  0.1963229E+04  0.7818608E-02  0.8624008E-01
         -2   -1    0    0    0  501 -0.00000000000E+00  0.00000000000E+00  0.54559433531E+03  0.54559433531E+03  0.00000000000E+00 0.  1.
          1   -1    0    0  501    0  0.00000000000E+00 -0.00000000000E+00 -0.17660877653E+04  0.17660877653E+04  0.00000000000E+00 0. -1.
        -24    2    1    2    0    0  0.46227094102E+03  0.38534049617E+03 -0.11540103069E+04  0.13037643271E+04  0.76680579881E+02 0.  0.
        254    2    1    2    0    0 -0.46227094102E+03 -0.38534049617E+03 -0.66483123071E+02  0.10079177735E+04  0.80578937168E+03 0.  0.
         23    2    4    4    0    0 -0.26926105025E+03 -0.54363763795E+03  0.18636449019E+03  0.64086595878E+03  0.89073336856E+02 0.  0.
         23    2    4    4    0    0 -0.19300989077E+03  0.15829714178E+03 -0.25284761326E+03  0.36705181469E+03  0.92110347414E+02 0.  0.
          1    1    3    3  502    0  0.39531864226E+03  0.31381707594E+03 -0.10166118214E+04  0.11350143530E+04  0.00000000000E+00 0. -1.
         -2    1    3    3    0  502  0.66952298765E+02  0.71523420235E+02 -0.13739848546E+03  0.16874997410E+03  0.00000000000E+00 0.  1.
         11    1    5    5    0    0 -0.23693786691E+03 -0.47716264135E+03  0.19304410076E+03  0.56664783059E+03  0.00000000000E+00 0. -1.
        -11    1    5    5    0    0 -0.32323183344E+02 -0.66474996603E+02 -0.66796105675E+01  0.74218128191E+02  0.00000000000E+00 0.  1.
          1    1    6    6  503    0 -0.12769764150E+03  0.11149181076E+03 -0.10679585476E+03  0.20035584869E+03  0.00000000000E+00 0. -1.
         -1    1    6    6    0  503 -0.65312249272E+02  0.46805331020E+02 -0.14605175850E+03  0.16669596599E+03  0.00000000000E+00 0.  1.
<mgrwt>
<rscale>  0 0.19632295E+04</rscale>
<asrwt>0</asrwt>
<pdfrwt beam="1">  1        1 0.27170581E+00 0.19632295E+04</pdfrwt>
<pdfrwt beam="2">  1       -2 0.83937591E-01 0.19632295E+04</pdfrwt>
<totfact> 0.43522774E+00</totfact>
</mgrwt>
</event>
<event>
12    4  0.4280696E-008  0.1971567E+04  0.7818608E-02  0.8620030E-01
         -2   -1    0    0    0  501 -0.00000000000E+00  0.00000000000E+00  0.59245652418E+03  0.59245652418E+03  0.00000000000E+00 0.  1.
          1   -1    0    0  501    0  0.00000000000E+00 -0.00000000000E+00 -0.16402376061E+04  0.16402376061E+04  0.00000000000E+00 0. -1.
        -24    2    1    2    0    0 -0.52857717348E+03 -0.57109754209E+03 -0.34637479070E+03  0.85557643819E+03  0.80556284982E+02 0.  0.
        254    2    1    2    0    0  0.52857717348E+03  0.57109754209E+03 -0.70140629122E+03  0.13771176921E+04  0.89383226706E+03 0.  0.
         23    2    4    4    0    0  0.34456433421E+03  0.81939606708E+02 -0.75951945857E+03  0.84341123992E+03  0.95047525593E+02 0.  0.
         23    2    4    4    0    0  0.18401283927E+03  0.48915793538E+03  0.58113167348E+02  0.53370645218E+03  0.91264594021E+02 0.  0.
          1    1    3    3  502    0 -0.30249196286E+03 -0.30542501638E+03 -0.23186603671E+03  0.48841343880E+03  0.00000000000E+00 0. -1.
         -2    1    3    3    0  502 -0.22608521062E+03 -0.26567252571E+03 -0.11450875399E+03  0.36716299939E+03  0.00000000000E+00 0.  1.
         11    1    5    5    0    0  0.46565871354E+00  0.13798589825E+02 -0.14953168685E+02  0.20352276849E+02  0.00000000000E+00 0.  1.
        -11    1    5    5    0    0  0.34409867549E+03  0.68141016883E+02 -0.74456628989E+03  0.82305896307E+03  0.00000000000E+00 0. -1.
          4    1    6    6  503    0  0.16067897136E+03  0.45669858932E+03  0.75719155722E+02  0.49002522779E+03  0.00000000000E+00 0. -1.
         -4    1    6    6    0  503  0.23333867903E+02  0.32459346059E+02 -0.17605988374E+02  0.43681224394E+02  0.00000000000E+00 0.  1.
<mgrwt>
<rscale>  0 0.19715674E+04</rscale>
<asrwt>0</asrwt>
<pdfrwt beam="1">  1        1 0.25234424E+00 0.19715674E+04</pdfrwt>
<pdfrwt beam="2">  1       -2 0.91147159E-01 0.19715674E+04</pdfrwt>
<totfact> 0.43870248E+00</totfact>
</mgrwt>
</event>
<event>
12    4  0.4280696E-008  0.1542419E+04  0.7818608E-02  0.8856725E-01
          1   -1    0    0  501    0  0.00000000000E+00  0.00000000000E+00  0.52587946853E+03  0.52587946853E+03  0.00000000000E+00 0. -1.
         -2   -1    0    0    0  501 -0.00000000000E+00 -0.00000000000E+00 -0.11309889109E+04  0.11309889109E+04  0.00000000000E+00 0.  1.
        -24    2    1    2    0    0  0.83428338127E+02 -0.41941568829E+03  0.94608494649E+02  0.44520643175E+03  0.79926168578E+02 0.  0.
        254    2    1    2    0    0 -0.83428338127E+02  0.41941568829E+03 -0.69971793698E+03  0.12116619476E+04  0.89199197128E+03 0.  0.
         23    2    4    4    0    0 -0.31582861635E+03 -0.10727778845E+03 -0.67910918363E+02  0.35196737567E+03  0.89514813871E+02 0.  0.
         23    2    4    4    0    0  0.23240027822E+03  0.52669347674E+03 -0.63180701861E+03  0.85969457196E+03  0.92080076711E+02 0.  0.
          1    1    3    3  502    0  0.96275567837E+02 -0.40148538947E+03  0.92014141516E+02  0.42299657819E+03  0.00000000000E+00 0. -1.
         -2    1    3    3    0  502 -0.12847229709E+02 -0.17930298824E+02  0.25943531324E+01  0.22209853563E+02  0.00000000000E+00 0.  1.
         11    1    5    5    0    0 -0.17797334285E+03 -0.99678317589E+02 -0.16539916704E+02  0.20465543385E+03  0.00000000000E+00 0. -1.
        -11    1    5    5    0    0 -0.13785527350E+03 -0.75994708622E+01 -0.51371001659E+02  0.14731194182E+03  0.00000000000E+00 0.  1.
          3    1    6    6  503    0  0.39792243843E+02  0.15871835843E+03 -0.13490174945E+03  0.21206938010E+03  0.00000000000E+00 0.  1.
         -3    1    6    6    0  503  0.19260803438E+03  0.36797511831E+03 -0.49690526916E+03  0.64762519186E+03  0.00000000000E+00 0. -1.
<mgrwt>
<rscale>  0 0.15424187E+04</rscale>
<asrwt>0</asrwt>
<pdfrwt beam="1">  1        1 0.80904533E-01 0.15424187E+04</pdfrwt>
<pdfrwt beam="2">  1       -2 0.17399829E+00 0.15424187E+04</pdfrwt>
<totfact> 0.69514068E+00</totfact>
</mgrwt>
</event>
<event>
12    4  0.4280696E-008  0.1592271E+04  0.7818608E-02  0.8825310E-01
          1   -1    0    0  501    0  0.00000000000E+00  0.00000000000E+00  0.11930845970E+04  0.11930845970E+04  0.00000000000E+00 0. -1.
         -2   -1    0    0    0  501 -0.00000000000E+00 -0.00000000000E+00 -0.53125468397E+03  0.53125468397E+03  0.00000000000E+00 0.  1.
        -24    2    1    2    0    0 -0.40662184259E+03  0.78362868309E+02 -0.14604104130E+03  0.44608892093E+03  0.78646536048E+02 0.  0.
        254    2    1    2    0    0  0.40662184259E+03 -0.78362868309E+02  0.80787095436E+03  0.12782503601E+04  0.89988134892E+03 0.  0.
         23    2    4    4    0    0  0.22212602951E+03  0.25442927372E+03 -0.31968314173E+02  0.35172630372E+03  0.92818054840E+02 0.  0.
         23    2    4    4    0    0  0.18449581308E+03 -0.33279214203E+03  0.83983926853E+03  0.92652405636E+03  0.91255220114E+02 0.  0.
          3    1    3    3  502    0 -0.21590495007E+03  0.79244896094E+02 -0.93474557584E+02  0.24825832098E+03  0.00000000000E+00 0. -1.
         -4    1    3    3    0  502 -0.19071689252E+03 -0.88202778466E+00 -0.52566483716E+02  0.19783059995E+03  0.00000000000E+00 0.  1.
         11    1    5    5    0    0  0.21805804590E+03  0.22667994022E+03 -0.76878407448E+01  0.31463027441E+03  0.00000000000E+00 0.  1.
        -11    1    5    5    0    0  0.40679836055E+01  0.27749333507E+02 -0.24280473428E+02  0.37096029310E+02  0.00000000000E+00 0. -1.
          3    1    6    6  503    0  0.49741599954E+02 -0.29403183434E+02  0.15623540340E+03  0.16657813553E+03  0.00000000000E+00 0. -1.
         -3    1    6    6    0  503  0.13475421313E+03 -0.30338895860E+03  0.68360386513E+03  0.75994592083E+03  0.00000000000E+00 0.  1.
<mgrwt>
<rscale>  0 0.15922711E+04</rscale>
<asrwt>0</asrwt>
<pdfrwt beam="1">  1        1 0.18355148E+00 0.15922711E+04</pdfrwt>
<pdfrwt beam="2">  1       -2 0.81731490E-01 0.15922711E+04</pdfrwt>
<totfact> 0.11991065E+01</totfact>
</mgrwt>
</event>
<event>
12    4  0.4280696E-008  0.2126486E+04  0.7818608E-02  0.8549665E-01
         -2   -1    0    0    0  501 -0.00000000000E+00  0.00000000000E+00  0.25545413585E+04  0.25545413585E+04  0.00000000000E+00 0.  1.
          1   -1    0    0  501    0  0.00000000000E+00 -0.00000000000E+00 -0.44253974842E+03  0.44253974842E+03  0.00000000000E+00 0. -1.
        -24    2    1    2    0    0 -0.82233262971E+03  0.18134358380E+03  0.55003530146E+03  0.10091602931E+04  0.82153606735E+02 0.  0.
        254    2    1    2    0    0  0.82233262971E+03 -0.18134358380E+03  0.15619663086E+04  0.19879208137E+04  0.89608814485E+03 0.  0.
         23    2    4    4    0    0  0.62593009825E+03  0.40527421809E+02  0.32652075150E+03  0.71412003450E+03  0.99602523556E+02 0.  0.
         23    2    4    4    0    0  0.19640253147E+03 -0.22187100561E+03  0.12354455571E+04  0.12738007793E+04  0.91880374559E+02 0.  0.
          1    1    3    3  502    0 -0.12528393365E+03  0.38878249535E+02  0.12030740629E+03  0.17799284909E+03  0.00000000000E+00 0. -1.
         -2    1    3    3    0  502 -0.69704869606E+03  0.14246533427E+03  0.42972789517E+03  0.83116744405E+03  0.00000000000E+00 0.  1.
         11    1    5    5    0    0  0.42925797269E+03 -0.11384591320E+02  0.24941518962E+03  0.49658831324E+03  0.00000000000E+00 0. -1.
        -11    1    5    5    0    0  0.19667212556E+03  0.51912013129E+02  0.77105561883E+02  0.21753172126E+03  0.00000000000E+00 0.  1.
          1    1    6    6  503    0  0.33397985203E+02 -0.10227667040E+02  0.26375633966E+03  0.26605908610E+03  0.00000000000E+00 0. -1.
         -1    1    6    6    0  503  0.16300454626E+03 -0.21164333857E+03  0.97168921742E+03  0.10077416931E+04  0.00000000000E+00 0.  1.
<mgrwt>
<rscale>  0 0.21264864E+04</rscale>
<asrwt>0</asrwt>
<pdfrwt beam="1">  1        1 0.68083040E-01 0.21264864E+04</pdfrwt>
<pdfrwt beam="2">  1       -2 0.39300635E+00 0.21264864E+04</pdfrwt>
<totfact> 0.34759771E-01</totfact>
</mgrwt>
</event>
<event>
12    4  0.4280696E-008  0.1682901E+04  0.7818608E-02  0.8771177E-01
          1   -1    0    0  501    0  0.00000000000E+00  0.00000000000E+00  0.11997803447E+04  0.11997803447E+04  0.00000000000E+00 0. -1.
         -2   -1    0    0    0  501 -0.00000000000E+00 -0.00000000000E+00 -0.59014014218E+03  0.59014014218E+03  0.00000000000E+00 0.  1.
        -24    2    1    2    0    0  0.48101546295E+03 -0.13050475363E+03 -0.12641926396E+03  0.52051041785E+03  0.80882003406E+02 0.  0.
        254    2    1    2    0    0 -0.48101546295E+03  0.13050475363E+03  0.73605946645E+03  0.12694100690E+04  0.90620694040E+03 0.  0.
         23    2    4    4    0    0 -0.43454632632E+02  0.24343065267E+02  0.79922538351E+03  0.80582080580E+03  0.90028148297E+02 0.  0.
         23    2    4    4    0    0 -0.43756083032E+03  0.10616168837E+03 -0.63165917063E+02  0.46358926321E+03  0.90527827653E+02 0.  0.
          3    1    3    3  502    0  0.23030529982E+03 -0.32909055070E+02 -0.88060906822E+02  0.24875341272E+03  0.00000000000E+00 0. -1.
         -4    1    3    3    0  502  0.25071016313E+03 -0.97595698564E+02 -0.38358357134E+02  0.27175700513E+03  0.00000000000E+00 0.  1.
         11    1    5    5    0    0 -0.37203664746E+02  0.55826767112E+02  0.42989279916E+03  0.43509603465E+03  0.00000000000E+00 0.  1.
        -11    1    5    5    0    0 -0.62509678859E+01 -0.31483701845E+02  0.36933258435E+03  0.37072477115E+03  0.00000000000E+00 0. -1.
          1    1    6    6  503    0 -0.34086408675E+03  0.12033520032E+03 -0.52636566017E+02  0.36529370944E+03  0.00000000000E+00 0. -1.
         -1    1    6    6    0  503 -0.96696743567E+02 -0.14173511957E+02 -0.10529351046E+02  0.98295553770E+02  0.00000000000E+00 0.  1.
<mgrwt>
<rscale>  0 0.16829005E+04</rscale>
<asrwt>0</asrwt>
<pdfrwt beam="1">  1        1 0.18458159E+00 0.16829005E+04</pdfrwt>
<pdfrwt beam="2">  1       -2 0.90790791E-01 0.16829005E+04</pdfrwt>
<totfact> 0.92535767E+00</totfact>
</mgrwt>
</event>
<event>
12    4  0.4280696E-008  0.1620287E+04  0.7818608E-02  0.8808181E-01
         -2   -1    0    0    0  501 -0.00000000000E+00  0.00000000000E+00  0.49182340104E+03  0.49182340104E+03  0.00000000000E+00 0.  1.
          1   -1    0    0  501    0  0.00000000000E+00 -0.00000000000E+00 -0.13344886508E+04  0.13344886508E+04  0.00000000000E+00 0. -1.
        -24    2    1    2    0    0 -0.64863052710E+02 -0.98505227472E+01  0.32968898717E+03  0.34489683827E+03  0.77167042108E+02 0.  0.
        254    2    1    2    0    0  0.64863052710E+02  0.98505227472E+01 -0.11723542369E+04  0.14814152135E+04  0.90325651379E+03 0.  0.
         23    2    4    4    0    0  0.66672800492E+02  0.37886135593E+03 -0.97655032515E+03  0.10536444946E+04  0.92385031843E+02 0.  0.
         23    2    4    4    0    0 -0.18097477820E+01 -0.36901083318E+03 -0.19580391175E+03  0.42777071893E+03  0.92067072988E+02 0.  0.
          1    1    3    3  502    0  0.23170016611E+01 -0.26297212834E+02  0.47371924754E+02  0.54231090294E+02  0.00000000000E+00 0. -1.
         -2    1    3    3    0  502 -0.67180054371E+02  0.16446690087E+02  0.28231706241E+03  0.29066574798E+03  0.00000000000E+00 0.  1.
         11    1    5    5    0    0  0.33962299813E+02  0.34543489418E+03 -0.82506339634E+03  0.89510240303E+03  0.00000000000E+00 0. -1.
        -11    1    5    5    0    0  0.32710500678E+02  0.33426461745E+02 -0.15148692881E+03  0.15854209157E+03  0.00000000000E+00 0.  1.
          1    1    6    6  503    0  0.22958097237E+02 -0.33971295622E+03 -0.18680235467E+03  0.38836463094E+03  0.00000000000E+00 0. -1.
         -1    1    6    6    0  503 -0.24767845019E+02 -0.29297876954E+02 -0.90015570820E+01  0.39406087992E+02  0.00000000000E+00 0.  1.
<mgrwt>
<rscale>  0 0.16202873E+04</rscale>
<asrwt>0</asrwt>
<pdfrwt beam="1">  1        1 0.20530594E+00 0.16202873E+04</pdfrwt>
<pdfrwt beam="2">  1       -2 0.75665141E-01 0.16202873E+04</pdfrwt>
<totfact> 0.11247191E+01</totfact>
</mgrwt>
</event>
<event>
12    4  0.4280696E-008  0.1870424E+04  0.7818608E-02  0.8669720E-01
          1   -1    0    0  501    0  0.00000000000E+00  0.00000000000E+00  0.80805335946E+03  0.80805335946E+03  0.00000000000E+00 0. -1.
         -2   -1    0    0    0  501 -0.00000000000E+00 -0.00000000000E+00 -0.10823805958E+04  0.10823805958E+04  0.00000000000E+00 0.  1.
        -24    2    1    2    0    0 -0.60825495117E+03  0.11958760786E+03  0.25092753494E+03  0.67338500158E+03  0.78787378347E+02 0.  0.
        254    2    1    2    0    0  0.60825495117E+03 -0.11958760786E+03 -0.52525477132E+03  0.12170489537E+04  0.90611274099E+03 0.  0.
         23    2    4    4    0    0  0.46840392432E+03 -0.30716808881E+03 -0.70808514601E+03  0.90740348000E+03  0.90785628939E+02 0.  0.
         23    2    4    4    0    0  0.13985102684E+03  0.18758048095E+03  0.18283037469E+03  0.30964547372E+03  0.87798786687E+02 0.  0.
          1    1    3    3  502    0 -0.31818055989E+03  0.10147242327E+03  0.12415354655E+03  0.35629990808E+03  0.00000000000E+00 0. -1.
         -2    1    3    3    0  502 -0.29007439128E+03  0.18115184591E+02  0.12677398838E+03  0.31708509350E+03  0.00000000000E+00 0.  1.
         11    1    5    5    0    0  0.76601402500E+02 -0.67973557383E+02 -0.18501806935E+03  0.21147071985E+03  0.00000000000E+00 0.  1.
        -11    1    5    5    0    0  0.39180252182E+03 -0.23919453142E+03 -0.52306707666E+03  0.69593276015E+03  0.00000000000E+00 0. -1.
          1    1    6    6  503    0  0.13333672461E+03  0.19578538619E+03  0.16403852686E+03  0.28813059169E+03  0.00000000000E+00 0. -1.
         -1    1    6    6    0  503  0.65143022326E+01 -0.82049052449E+01  0.18791847827E+02  0.21514882021E+02  0.00000000000E+00 0.  1.
<mgrwt>
<rscale>  0 0.18704238E+04</rscale>
<asrwt>0</asrwt>
<pdfrwt beam="1">  1        1 0.12431590E+00 0.18704238E+04</pdfrwt>
<pdfrwt beam="2">  1       -2 0.16652009E+00 0.18704238E+04</pdfrwt>
<totfact> 0.40337438E+00</totfact>
</mgrwt>
</event>
<event>
12    4  0.4280696E-008  0.1331507E+04  0.7818608E-02  0.9004946E-01
         -2   -1    0    0    0  501 -0.00000000000E+00  0.00000000000E+00  0.27148449096E+03  0.27148449096E+03  0.00000000000E+00 0.  1.
          1   -1    0    0  501    0  0.00000000000E+00 -0.00000000000E+00 -0.16326083775E+04  0.16326083775E+04  0.00000000000E+00 0. -1.
        -24    2    1    2    0    0  0.11526943794E+02  0.11769504261E+03 -0.83380365857E+03  0.84589741349E+03  0.79554381546E+02 0.  0.
        254    2    1    2    0    0 -0.11526943794E+02 -0.11769504261E+03 -0.52732022801E+03  0.10581954550E+04  0.90979448484E+03 0.  0.
         23    2    4    4    0    0 -0.24231975712E+03 -0.92002597803E+02 -0.70207888738E+03  0.75359829458E+03  0.88387118959E+02 0.  0.
         23    2    4    4    0    0  0.23079281333E+03 -0.25692444806E+02  0.17475865936E+03  0.30459716043E+03  0.91177939864E+02 0.  0.
          3    1    3    3  502    0 -0.33470960735E+02  0.65851600435E+02 -0.42741655922E+03  0.43375298683E+03  0.00000000000E+00 0. -1.
         -4    1    3    3    0  502  0.44997904528E+02  0.51843442174E+02 -0.40638709935E+03  0.41214442666E+03  0.00000000000E+00 0.  1.
         11    1    5    5    0    0 -0.22790326447E+03 -0.55914724115E+02 -0.61465730021E+03  0.65792853034E+03  0.00000000000E+00 0. -1.
        -11    1    5    5    0    0 -0.14416492657E+02 -0.36087873688E+02 -0.87421587164E+02  0.95669764242E+02  0.00000000000E+00 0.  1.
          2    1    6    6  503    0  0.64845603291E+02 -0.29267906368E+02  0.12039374859E+02  0.72156144273E+02  0.00000000000E+00 0. -1.
         -2    1    6    6    0  503  0.16594721004E+03  0.35754615616E+01  0.16271928450E+03  0.23244101616E+03  0.00000000000E+00 0.  1.
<mgrwt>
<rscale>  0 0.13315072E+04</rscale>
<asrwt>0</asrwt>
<pdfrwt beam="1">  1        1 0.25117051E+00 0.13315072E+04</pdfrwt>
<pdfrwt beam="2">  1       -2 0.41766846E-01 0.13315072E+04</pdfrwt>
<totfact> 0.24766679E+01</totfact>
</mgrwt>
</event>
<event>
12    4  0.4280696E-008  0.1444904E+04  0.7818608E-02  0.8921941E-01
          1   -1    0    0  501    0  0.00000000000E+00  0.00000000000E+00  0.10213692979E+04  0.10213692979E+04  0.00000000000E+00 0. -1.
         -2   -1    0    0    0  501 -0.00000000000E+00 -0.00000000000E+00 -0.51101708430E+03  0.51101708430E+03  0.00000000000E+00 0.  1.
        -24    2    1    2    0    0  0.28128860532E+03 -0.15916607173E+03 -0.14676681975E+03  0.36377862518E+03  0.79606977600E+02 0.  0.
        254    2    1    2    0    0 -0.28128860532E+03  0.15916607173E+03  0.65711903337E+03  0.11686077570E+04  0.91070387500E+03 0.  0.
         23    2    4    4    0    0  0.23681788497E+03 -0.20508950536E+03  0.25434686871E+03  0.41332426309E+03  0.89443842660E+02 0.  0.
         23    2    4    4    0    0 -0.51810649029E+03  0.36425557709E+03  0.40277216466E+03  0.75528349396E+03  0.84328399090E+02 0.  0.
          3    1    3    3  502    0  0.59153372612E+02  0.49564035377E+00 -0.30182297810E+02  0.66410377591E+02  0.00000000000E+00 0. -1.
         -4    1    3    3    0  502  0.22213523271E+03 -0.15966171208E+03 -0.11658452194E+03  0.29736824759E+03  0.00000000000E+00 0.  1.
         11    1    5    5    0    0  0.66672537764E+02 -0.10192917987E+03  0.13263677281E+03  0.18007581320E+03  0.00000000000E+00 0.  1.
        -11    1    5    5    0    0  0.17014534721E+03 -0.10316032549E+03  0.12171009590E+03  0.23324844989E+03  0.00000000000E+00 0. -1.
          2    1    6    6  503    0 -0.37770510199E+03  0.28395327104E+03  0.33835624427E+03  0.58118461115E+03  0.00000000000E+00 0. -1.
         -2    1    6    6    0  503 -0.14040138830E+03  0.80302306046E+02  0.64415920396E+02  0.17409888281E+03  0.00000000000E+00 0.  1.
<mgrwt>
<rscale>  0 0.14449044E+04</rscale>
<asrwt>0</asrwt>
<pdfrwt beam="1">  1        1 0.15713374E+00 0.14449044E+04</pdfrwt>
<pdfrwt beam="2">  1       -2 0.78618013E-01 0.14449044E+04</pdfrwt>
<totfact> 0.17831804E+01</totfact>
</mgrwt>
</event>
<event>
12    4  0.4280696E-008  0.1342308E+04  0.7818608E-02  0.8996671E-01
          1   -1    0    0  501    0  0.00000000000E+00  0.00000000000E+00  0.68399454713E+03  0.68399454713E+03  0.00000000000E+00 0. -1.
         -2   -1    0    0    0  501 -0.00000000000E+00 -0.00000000000E+00 -0.65855431418E+03  0.65855431418E+03  0.00000000000E+00 0.  1.
        -24    2    1    2    0    0  0.19563244404E+03  0.30315007398E+03  0.26706910894E+02  0.36652688589E+03  0.58793524093E+02 0.  0.
        254    2    1    2    0    0 -0.19563244404E+03 -0.30315007398E+03 -0.12666779408E+01  0.97602197543E+03  0.90688768407E+03 0.  0.
         23    2    4    4    0    0 -0.26775744552E+03  0.26040533605E+03  0.82338857229E+02  0.39429373475E+03  0.95827309154E+02 0.  0.
         23    2    4    4    0    0  0.72125001479E+02 -0.56355541002E+03 -0.83605535170E+02  0.58172824067E+03  0.92850118364E+02 0.  0.
          3    1    3    3  502    0  0.16356852458E+03  0.26504829887E+03  0.42366008073E+02  0.31432489817E+03  0.00000000000E+00 0. -1.
         -4    1    3    3    0  502  0.32063919465E+02  0.38101775103E+02 -0.15659097179E+02  0.52201987720E+02  0.00000000000E+00 0.  1.
         11    1    5    5    0    0 -0.62480371232E+02  0.88265876725E+02 -0.15167798393E+02  0.10920038412E+03  0.00000000000E+00 0. -1.
        -11    1    5    5    0    0 -0.20527707429E+03  0.17213945932E+03  0.97506655622E+02  0.28509335063E+03  0.00000000000E+00 0.  1.
          3    1    6    6  503    0  0.45843450533E+02 -0.30116045335E+03  0.14813860816E+01  0.30463327974E+03  0.00000000000E+00 0. -1.
         -3    1    6    6    0  503  0.26281550946E+02 -0.26239495667E+03 -0.85086921251E+02  0.27709496093E+03  0.00000000000E+00 0.  1.
<mgrwt>
<rscale>  0 0.13423078E+04</rscale>
<asrwt>0</asrwt>
<pdfrwt beam="1">  1        1 0.10522993E+00 0.13423078E+04</pdfrwt>
<pdfrwt beam="2">  1       -2 0.10131605E+00 0.13423078E+04</pdfrwt>
<totfact> 0.19375469E+01</totfact>
</mgrwt>
</event>
<event>
12    4  0.4280696E-008  0.2724587E+04  0.7818608E-02  0.8327071E-01
         -2   -1    0    0    0  501 -0.00000000000E+00  0.00000000000E+00  0.62173915637E+03  0.62173915637E+03  0.00000000000E+00 0.  1.
          1   -1    0    0  501    0  0.00000000000E+00 -0.00000000000E+00 -0.29849228954E+04  0.29849228954E+04  0.00000000000E+00 0. -1.
        -24    2    1    2    0    0  0.11963479277E+04 -0.12461060933E+03 -0.10227888790E+04  0.15808221008E+04  0.78264009035E+02 0.  0.
        254    2    1    2    0    0 -0.11963479277E+04  0.12461060933E+03 -0.13403948600E+04  0.20258399510E+04  0.92768149608E+03 0.  0.
         23    2    4    4    0    0  0.41524694850E+01 -0.11852185651E+03 -0.53867952635E+03  0.55897712916E+03  0.90637328602E+02 0.  0.
         23    2    4    4    0    0 -0.12005003972E+04  0.24313246583E+03 -0.80171533367E+03  0.14668628218E+04  0.92867982764E+02 0.  0.
          1    1    3    3  502    0  0.42838707831E+03 -0.14573240593E+02 -0.33457469623E+03  0.54375370855E+03  0.00000000000E+00 0. -1.
         -2    1    3    3    0  502  0.76796084942E+03 -0.11003736873E+03 -0.68821418277E+03  0.10370683922E+04  0.00000000000E+00 0.  1.
         11    1    5    5    0    0  0.18715815430E+01 -0.11812501388E+03 -0.33388914833E+03  0.35417366516E+03  0.00000000000E+00 0. -1.
        -11    1    5    5    0    0  0.22808879420E+01 -0.39684262901E+00 -0.20479037802E+03  0.20480346400E+03  0.00000000000E+00 0.  1.
          2    1    6    6  503    0 -0.97259187352E+03  0.23244813968E+03 -0.64124663189E+03  0.11879243802E+04  0.00000000000E+00 0. -1.
         -2    1    6    6    0  503 -0.22790852369E+03  0.10684326154E+02 -0.16046870178E+03  0.27893844168E+03  0.00000000000E+00 0.  1.
<mgrwt>
<rscale>  0 0.27245869E+04</rscale>
<asrwt>0</asrwt>
<pdfrwt beam="1">  1        1 0.45921891E+00 0.27245869E+04</pdfrwt>
<pdfrwt beam="2">  1       -2 0.95652177E-01 0.27245869E+04</pdfrwt>
<totfact> 0.43081161E-01</totfact>
</mgrwt>
</event>
<event>
12    4  0.4447699E-008  0.1348158E+04  0.7818608E-02  0.8992224E-01
         -2   -1    0    0    0  501 -0.00000000000E+00  0.00000000000E+00  0.87952433060E+03  0.87952433060E+03  0.00000000000E+00 0.  1.
          1   -1    0    0  501    0  0.00000000000E+00 -0.00000000000E+00 -0.51662297828E+03  0.51662297828E+03  0.00000000000E+00 0. -1.
        -24    2    1    2    0    0 -0.23687612200E+03  0.42689417772E+02 -0.18523265331E+03  0.31495589786E+03  0.83387038450E+02 0.  0.
        254    2    1    2    0    0  0.23687612200E+03 -0.42689417772E+02  0.54813400564E+03  0.10811914110E+04  0.90032843761E+03 0.  0.
         23    2    4    4    0    0 -0.22341339022E+03 -0.68102911646E+02 -0.10875451187E+03  0.27358605164E+03  0.92033875784E+02 0.  0.
         23    2    4    4    0    0  0.46028951223E+03  0.25413493874E+02  0.65688851751E+03  0.80760535938E+03  0.90617941560E+02 0.  0.
          1    1    3    3  502    0 -0.24014039908E+03  0.33315641514E+02 -0.18510942462E+03  0.30502924831E+03  0.00000000000E+00 0. -1.
         -2    1    3    3    0  502  0.32642770736E+01  0.93737762580E+01 -0.12322869097E+00  0.99266495586E+01  0.00000000000E+00 0.  1.
         11    1    5    5    0    0 -0.25814856141E+02 -0.95051990644E+01 -0.53572542093E+02  0.60222694005E+02  0.00000000000E+00 0. -1.
        -11    1    5    5    0    0 -0.19759853408E+03 -0.58597712581E+02 -0.55181969778E+02  0.21336335763E+03  0.00000000000E+00 0.  1.
          4    1    6    6  503    0  0.10089526685E+03  0.21444826287E+02  0.21126913751E+03  0.23510504867E+03  0.00000000000E+00 0. -1.
         -4    1    6    6    0  503  0.35939424538E+03  0.39686675870E+01  0.44561938000E+03  0.57250031071E+03  0.00000000000E+00 0.  1.
<mgrwt>
<rscale>  0 0.13481580E+04</rscale>
<asrwt>0</asrwt>
<pdfrwt beam="1">  1        1 0.79480458E-01 0.13481580E+04</pdfrwt>
<pdfrwt beam="2">  1       -2 0.13531144E+00 0.13481580E+04</pdfrwt>
<totfact> 0.14213861E+01</totfact>
</mgrwt>
</event>
<event>
12    4  0.4280696E-008  0.3716920E+04  0.7818608E-02  0.8064222E-01
         -2   -1    0    0    0  501 -0.00000000000E+00  0.00000000000E+00  0.10266428514E+04  0.10266428514E+04  0.00000000000E+00 0.  1.
          1   -1    0    0  501    0  0.00000000000E+00 -0.00000000000E+00 -0.33642415103E+04  0.33642415103E+04  0.00000000000E+00 0. -1.
        -24    2    1    2    0    0 -0.11825335815E+04 -0.73892360431E+03 -0.23410182876E+04  0.27260284352E+04  0.80440301639E+02 0.  0.
        254    2    1    2    0    0  0.11825335815E+04  0.73892360431E+03  0.34196286509E+01  0.16648559265E+04  0.90958221053E+03 0.  0.
         23    2    4    4    0    0  0.74460346937E+03 -0.45738271231E+02  0.94049438485E+02  0.75704169406E+03  0.87980188713E+02 0.  0.
         23    2    4    4    0    0  0.43793011215E+03  0.78466187555E+03 -0.90629809834E+02  0.90781423245E+03  0.91847025757E+02 0.  0.
          3    1    3    3  502    0 -0.11680783431E+04 -0.73288378048E+03 -0.23275541577E+04  0.27053713254E+04  0.00000000000E+00 0. -1.
         -4    1    3    3    0  502 -0.14455238462E+02 -0.60398238330E+01 -0.13464129872E+02  0.20657109772E+02  0.00000000000E+00 0.  1.
         11    1    5    5    0    0  0.67245241842E+03 -0.27673649147E+02  0.10721307420E+03  0.68150768828E+03  0.00000000000E+00 0.  1.
        -11    1    5    5    0    0  0.72151050950E+02 -0.18064622084E+02 -0.13163635716E+02  0.75534005782E+02  0.00000000000E+00 0. -1.
          2    1    6    6  503    0  0.24906744566E+02  0.25222179015E+02 -0.19373463822E+02  0.40395981725E+02  0.00000000000E+00 0. -1.
         -2    1    6    6    0  503  0.41302336758E+03  0.75943969653E+03 -0.71256346013E+02  0.86741825072E+03  0.00000000000E+00 0.  1.
<mgrwt>
<rscale>  0 0.37169205E+04</rscale>
<asrwt>0</asrwt>
<pdfrwt beam="1">  1        1 0.51757560E+00 0.37169205E+04</pdfrwt>
<pdfrwt beam="2">  1       -2 0.15794506E+00 0.37169205E+04</pdfrwt>
<totfact> 0.58641209E-02</totfact>
</mgrwt>
</event>
<event>
12    4  0.4280696E-008  0.2057136E+04  0.7818608E-02  0.8580364E-01
         -2   -1    0    0    0  501 -0.00000000000E+00  0.00000000000E+00  0.11892571354E+04  0.11892571354E+04  0.00000000000E+00 0.  1.
          1   -1    0    0  501    0  0.00000000000E+00 -0.00000000000E+00 -0.88959097433E+03  0.88959097433E+03  0.00000000000E+00 0. -1.
        -24    2    1    2    0    0 -0.54732319378E+03  0.32679921529E+03 -0.41959137090E+03  0.76766835322E+03  0.83050445104E+02 0.  0.
        254    2    1    2    0    0  0.54732319378E+03 -0.32679921529E+03  0.71925753196E+03  0.13111797565E+04  0.89190837590E+03 0.  0.
         23    2    4    4    0    0 -0.12305287148E+03  0.57895574427E+02  0.46458364430E+03  0.49223745608E+03  0.89251576436E+02 0.  0.
         23    2    4    4    0    0  0.67037606526E+03 -0.38469478972E+03  0.25467388766E+03  0.81894230042E+03  0.91725417707E+02 0.  0.
          3    1    3    3  502    0 -0.46811073511E+03  0.24707356530E+03 -0.32814334054E+03  0.62277689339E+03  0.00000000000E+00 0. -1.
         -4    1    3    3    0  502 -0.79212458668E+02  0.79725649986E+02 -0.91448030359E+02  0.14489145983E+03  0.00000000000E+00 0.  1.
         11    1    5    5    0    0 -0.68557182789E+02  0.66239328768E+02  0.19475867931E+03  0.21683790986E+03  0.00000000000E+00 0. -1.
        -11    1    5    5    0    0 -0.54495688690E+02 -0.83437543406E+01  0.26982496499E+03  0.27539954621E+03  0.00000000000E+00 0.  1.
          3    1    6    6  503    0  0.31041283806E+03 -0.17813673785E+03  0.16618193153E+03  0.39459506050E+03  0.00000000000E+00 0. -1.
         -3    1    6    6    0  503  0.35996322720E+03 -0.20655805187E+03  0.88491956124E+02  0.42434723992E+03  0.00000000000E+00 0.  1.
<mgrwt>
<rscale>  0 0.20571363E+04</rscale>
<asrwt>0</asrwt>
<pdfrwt beam="1">  1        1 0.13686015E+00 0.20571363E+04</pdfrwt>
<pdfrwt beam="2">  1       -2 0.18296264E+00 0.20571363E+04</pdfrwt>
<totfact> 0.25969412E+00</totfact>
</mgrwt>
</event>
<event>
12    4  0.4280696E-008  0.1547848E+04  0.7818608E-02  0.8853243E-01
          1   -1    0    0  501    0  0.00000000000E+00  0.00000000000E+00  0.60049758718E+03  0.60049758718E+03  0.00000000000E+00 0. -1.
         -2   -1    0    0    0  501 -0.00000000000E+00 -0.00000000000E+00 -0.99743693215E+03  0.99743693215E+03  0.00000000000E+00 0.  1.
        -24    2    1    2    0    0  0.31934400082E+03  0.32893086804E+03 -0.35581715661E+03  0.58605989174E+03  0.81757207398E+02 0.  0.
        254    2    1    2    0    0 -0.31934400082E+03 -0.32893086804E+03 -0.41122188365E+02  0.10118746276E+04  0.90112325504E+03 0.  0.
         23    2    4    4    0    0 -0.15112206016E+03 -0.50942721262E+03  0.27194921306E+03  0.60369274919E+03  0.90192011359E+02 0.  0.
         23    2    4    4    0    0 -0.16822194066E+03  0.18049634458E+03 -0.31307140142E+03  0.40818187840E+03  0.87870312047E+02 0.  0.
          1    1    3    3  502    0  0.14618857397E+02  0.30997503365E+02 -0.61947627906E+01  0.34827163141E+02  0.00000000000E+00 0. -1.
         -2    1    3    3    0  502  0.30472514342E+03  0.29793336468E+03 -0.34962239382E+03  0.55123272860E+03  0.00000000000E+00 0.  1.
         11    1    5    5    0    0  0.85051294170E+01 -0.69373179668E+02  0.47860949572E+02  0.84709183549E+02  0.00000000000E+00 0.  1.
        -11    1    5    5    0    0 -0.15962718958E+03 -0.44005403296E+03  0.22408826348E+03  0.51898356564E+03  0.00000000000E+00 0. -1.
          2    1    6    6  503    0 -0.13648778328E+03  0.17863174047E+03 -0.29721071456E+03  0.37265590366E+03  0.00000000000E+00 0. -1.
         -2    1    6    6    0  503 -0.31734157382E+02  0.18646041143E+01 -0.15860686863E+02  0.35525974737E+02  0.00000000000E+00 0.  1.
<mgrwt>
<rscale>  0 0.15478481E+04</rscale>
<asrwt>0</asrwt>
<pdfrwt beam="1">  1        1 0.92384245E-01 0.15478481E+04</pdfrwt>
<pdfrwt beam="2">  1       -2 0.15345184E+00 0.15478481E+04</pdfrwt>
<totfact> 0.81291079E+00</totfact>
</mgrwt>
</event>
<event>
12    4  0.4280696E-008  0.1435349E+04  0.7818608E-02  0.8928622E-01
          1   -1    0    0  501    0  0.00000000000E+00  0.00000000000E+00  0.10434449967E+04  0.10434449967E+04  0.00000000000E+00 0. -1.
         -2   -1    0    0    0  501 -0.00000000000E+00 -0.00000000000E+00 -0.49361140407E+03  0.49361140407E+03  0.00000000000E+00 0.  1.
        -24    2    1    2    0    0  0.21842868650E+03 -0.29503138671E+03 -0.56446109001E+02  0.37993706423E+03  0.80071214056E+02 0.  0.
        254    2    1    2    0    0 -0.21842868650E+03  0.29503138671E+03  0.60627970158E+03  0.11571193365E+04  0.91465593100E+03 0.  0.
         23    2    4    4    0    0 -0.53273953089E+03  0.22131444426E+03  0.57742946830E+03  0.82129595219E+03  0.91163365493E+02 0.  0.
         23    2    4    4    0    0  0.31431084439E+03  0.73716942457E+02  0.28850233275E+02  0.33582338431E+03  0.87860770427E+02 0.  0.
          3    1    3    3  502    0  0.21261391628E+03 -0.29694471788E+03 -0.46367469266E+02  0.36814505983E+03  0.00000000000E+00 0. -1.
         -2    1    3    3    0  502  0.58147702185E+01  0.19133311620E+01 -0.10078639735E+02  0.11792004398E+02  0.00000000000E+00 0.  1.
         11    1    5    5    0    0 -0.22525390347E+03  0.11121168567E+03  0.31113378128E+03  0.39988947212E+03  0.00000000000E+00 0. -1.
        -11    1    5    5    0    0 -0.30748562742E+03  0.11010275859E+03  0.26629568702E+03  0.42140648007E+03  0.00000000000E+00 0.  1.
          3    1    6    6  503    0  0.29074271201E+03  0.56266683123E+02  0.21216237975E+01  0.29614483873E+03  0.00000000000E+00 0. -1.
         -3    1    6    6    0  503  0.23568132381E+02  0.17450259335E+02  0.26728609478E+02  0.39678545581E+02  0.00000000000E+00 0.  1.
<mgrwt>
<rscale>  0 0.14353485E+04</rscale>
<asrwt>0</asrwt>
<pdfrwt beam="1">  1        1 0.16053000E+00 0.14353485E+04</pdfrwt>
<pdfrwt beam="2">  1       -2 0.75940216E-01 0.14353485E+04</pdfrwt>
<totfact> 0.18539929E+01</totfact>
</mgrwt>
</event>
<event>
12    4  0.4280696E-008  0.1392668E+04  0.7818608E-02  0.8959143E-01
          1   -1    0    0  501    0  0.00000000000E+00  0.00000000000E+00  0.11122852968E+04  0.11122852968E+04  0.00000000000E+00 0. -1.
         -2   -1    0    0    0  501 -0.00000000000E+00 -0.00000000000E+00 -0.43593204938E+03  0.43593204938E+03  0.00000000000E+00 0.  1.
        -24    2    1    2    0    0  0.42037873881E+02  0.57016971614E+02 -0.23265503722E+03  0.25562692712E+03  0.78731452615E+02 0.  0.
        254    2    1    2    0    0 -0.42037873881E+02 -0.57016971614E+02  0.90900828463E+03  0.12925904190E+04  0.91622912636E+03 0.  0.
         23    2    4    4    0    0 -0.36682053750E+03 -0.19462861629E+02  0.87298626551E+03  0.95136247357E+03  0.89718596976E+02 0.  0.
         23    2    4    4    0    0  0.32478266362E+03 -0.37554109985E+02  0.36022019127E+02  0.34122794548E+03  0.90801074607E+02 0.  0.
          1    1    3    3  502    0  0.49612030274E+02  0.14618560939E+02 -0.68013983695E+02  0.85445642662E+02  0.00000000000E+00 0. -1.
         -2    1    3    3    0  502 -0.75741563930E+01  0.42398410675E+02 -0.16464105353E+03  0.17018128446E+03  0.00000000000E+00 0.  1.
         11    1    5    5    0    0 -0.42557403667E+02  0.13960268725E+02  0.18068686150E+03  0.18615521381E+03  0.00000000000E+00 0. -1.
        -11    1    5    5    0    0 -0.32426313383E+03 -0.33423130353E+02  0.69229940401E+03  0.76520725976E+03  0.00000000000E+00 0.  1.
          1    1    6    6  503    0  0.16396709963E+01 -0.15326468906E+02  0.17887547413E+01  0.15517371350E+02  0.00000000000E+00 0. -1.
         -1    1    6    6    0  503  0.32314299262E+03 -0.22227641079E+02  0.34233264385E+02  0.32571057413E+03  0.00000000000E+00 0.  1.
<mgrwt>
<rscale>  0 0.13926677E+04</rscale>
<asrwt>0</asrwt>
<pdfrwt beam="1">  1        1 0.17112081E+00 0.13926677E+04</pdfrwt>
<pdfrwt beam="2">  1       -2 0.67066470E-01 0.13926677E+04</pdfrwt>
<totfact> 0.21667018E+01</totfact>
</mgrwt>
</event>
<event>
12    4  0.4280696E-008  0.2188624E+04  0.7818608E-02  0.8523178E-01
          1   -1    0    0  501    0  0.00000000000E+00  0.00000000000E+00  0.14684759383E+04  0.14684759383E+04  0.00000000000E+00 0. -1.
         -2   -1    0    0    0  501 -0.00000000000E+00 -0.00000000000E+00 -0.81548416690E+03  0.81548416690E+03  0.00000000000E+00 0.  1.
        -24    2    1    2    0    0 -0.59962105298E+03 -0.30915709185E+03 -0.35565185789E+03  0.76712057549E+03  0.82838509756E+02 0.  0.
        254    2    1    2    0    0  0.59962105298E+03  0.30915709185E+03  0.10086436293E+04  0.15168395297E+04  0.91011904354E+03 0.  0.
         23    2    4    4    0    0  0.74025801166E+03  0.33600479854E+03  0.45665470262E+03  0.93765078511E+03  0.98865205813E+02 0.  0.
         23    2    4    4    0    0 -0.14063695869E+03 -0.26847706691E+02  0.55198892670E+03  0.57918874464E+03  0.10133248840E+03 0.  0.
          1    1    3    3  502    0 -0.29680512957E+03 -0.17459839474E+03 -0.22263152052E+03  0.41005204342E+03  0.00000000000E+00 0. -1.
         -2    1    3    3    0  502 -0.30281592341E+03 -0.13455869711E+03 -0.13302033737E+03  0.35706853207E+03  0.00000000000E+00 0.  1.
         11    1    5    5    0    0  0.36726324765E+03  0.22084938063E+03  0.24202140979E+03  0.49216979265E+03  0.00000000000E+00 0.  1.
        -11    1    5    5    0    0  0.37299476401E+03  0.11515541792E+03  0.21463329283E+03  0.44548099247E+03  0.00000000000E+00 0. -1.
          2    1    6    6  503    0 -0.91221374945E+02  0.33585646251E+02  0.31739438545E+03  0.33194657822E+03  0.00000000000E+00 0. -1.
         -2    1    6    6    0  503 -0.49415583742E+02 -0.60433352942E+02  0.23459454126E+03  0.24724216641E+03  0.00000000000E+00 0.  1.
<mgrwt>
<rscale>  0 0.21886241E+04</rscale>
<asrwt>0</asrwt>
<pdfrwt beam="1">  1        1 0.22591938E+00 0.21886241E+04</pdfrwt>
<pdfrwt beam="2">  1       -2 0.12545910E+00 0.21886241E+04</pdfrwt>
<totfact> 0.26187388E+00</totfact>
</mgrwt>
</event>
<event>
12    4  0.4280696E-008  0.2024042E+04  0.7818608E-02  0.8595462E-01
         -2   -1    0    0    0  501 -0.00000000000E+00  0.00000000000E+00  0.88616668088E+03  0.88616668088E+03  0.00000000000E+00 0.  1.
          1   -1    0    0  501    0  0.00000000000E+00 -0.00000000000E+00 -0.11557493713E+04  0.11557493713E+04  0.00000000000E+00 0. -1.
        -24    2    1    2    0    0 -0.39570887513E+02 -0.75801293446E+03 -0.39723359000E+03  0.86025765475E+03  0.78097654144E+02 0.  0.
        254    2    1    2    0    0  0.39570887513E+02  0.75801293446E+03  0.12765089961E+03  0.11816583974E+04  0.89658928840E+03 0.  0.
         23    2    4    4    0    0  0.22794306327E+03  0.50594648188E+03  0.45129502281E+03  0.72105148837E+03  0.91149156009E+02 0.  0.
         23    2    4    4    0    0 -0.18837217576E+03  0.25206645257E+03 -0.32364412320E+03  0.46060690905E+03  0.91605857176E+02 0.  0.
          1    1    3    3  502    0 -0.56008896088E+02 -0.71181010020E+03 -0.37219979016E+03  0.80519767697E+03  0.00000000000E+00 0. -1.
         -2    1    3    3    0  502  0.16438008575E+02 -0.46202834252E+02 -0.25033799841E+02  0.55059977782E+02  0.00000000000E+00 0.  1.
         11    1    5    5    0    0  0.81854554011E+02  0.25547498235E+03  0.26058642733E+03  0.37399588330E+03  0.00000000000E+00 0. -1.
        -11    1    5    5    0    0  0.14608850926E+03  0.25047149954E+03  0.19070859547E+03  0.34705560506E+03  0.00000000000E+00 0.  1.
          3    1    6    6  503    0 -0.80034915498E+02  0.16635056851E+03 -0.14477408496E+03  0.23460101240E+03  0.00000000000E+00 0. -1.
         -3    1    6    6    0  503 -0.10833726026E+03  0.85715884066E+02 -0.17887003824E+03  0.22600589665E+03  0.00000000000E+00 0.  1.
<mgrwt>
<rscale>  0 0.20240421E+04</rscale>
<asrwt>0</asrwt>
<pdfrwt beam="1">  1        1 0.17780760E+00 0.20240421E+04</pdfrwt>
<pdfrwt beam="2">  1       -2 0.13633334E+00 0.20240421E+04</pdfrwt>
<totfact> 0.35979976E+00</totfact>
</mgrwt>
</event>
<event>
12    4  0.4280696E-008  0.1612881E+04  0.7818608E-02  0.8812674E-01
          1   -1    0    0  501    0  0.00000000000E+00  0.00000000000E+00  0.11723899452E+04  0.11723899452E+04  0.00000000000E+00 0. -1.
         -2   -1    0    0    0  501 -0.00000000000E+00 -0.00000000000E+00 -0.55471836867E+03  0.55471836867E+03  0.00000000000E+00 0.  1.
        -24    2    1    2    0    0 -0.42845471127E+03  0.33049716110E+03  0.88348137113E+02  0.55405469125E+03  0.79808486137E+02 0.  0.
        254    2    1    2    0    0  0.42845471127E+03 -0.33049716110E+03  0.52932343939E+03  0.11730536226E+04  0.89614155403E+03 0.  0.
         23    2    4    4    0    0  0.67934794171E+03 -0.22121239050E+03  0.22581724775E+03  0.75466547142E+03  0.89877676640E+02 0.  0.
         23    2    4    4    0    0 -0.25089323044E+03 -0.10928477059E+03  0.30350619164E+03  0.41838815116E+03  0.89677547385E+02 0.  0.
          3    1    3    3  502    0 -0.19881568984E+03  0.13020896151E+03  0.32456582880E+01  0.23768169152E+03  0.00000000000E+00 0. -1.
         -4    1    3    3    0  502 -0.22963902143E+03  0.20028819959E+03  0.85102478825E+02  0.31637299973E+03  0.00000000000E+00 0.  1.
         11    1    5    5    0    0  0.17407035114E+03 -0.16517032657E+02  0.59360522614E+02  0.18465365190E+03  0.00000000000E+00 0. -1.
        -11    1    5    5    0    0  0.50527759057E+03 -0.20469535785E+03  0.16645672514E+03  0.57001181953E+03  0.00000000000E+00 0.  1.
          4    1    6    6  503    0 -0.53557752295E+02 -0.67247272681E+02  0.98737087799E+02  0.13091845180E+03  0.00000000000E+00 0. -1.
         -4    1    6    6    0  503 -0.19733547814E+03 -0.42037497913E+02  0.20476910384E+03  0.28746969936E+03  0.00000000000E+00 0.  1.
<mgrwt>
<rscale>  0 0.16128809E+04</rscale>
<asrwt>0</asrwt>
<pdfrwt beam="1">  1        1 0.18036768E+00 0.16128809E+04</pdfrwt>
<pdfrwt beam="2">  1       -2 0.85341288E-01 0.16128809E+04</pdfrwt>
<totfact> 0.11238325E+01</totfact>
</mgrwt>
</event>
<event>
12    4  0.4280696E-008  0.1523737E+04  0.7818608E-02  0.8868819E-01
         -4   -1    0    0    0  501 -0.00000000000E+00  0.00000000000E+00  0.82291484350E+03  0.82291484350E+03  0.00000000000E+00 0.  1.
          1   -1    0    0  501    0  0.00000000000E+00 -0.00000000000E+00 -0.70535114239E+03  0.70535114239E+03  0.00000000000E+00 0. -1.
        -24    2    1    2    0    0  0.17173672719E+03  0.43790688233E+03 -0.87928113360E+02  0.48730367234E+03  0.92073747051E+02 0.  0.
        254    2    1    2    0    0 -0.17173672719E+03 -0.43790688233E+03  0.20549181447E+03  0.10409623135E+04  0.90560461094E+03 0.  0.
         23    2    4    4    0    0 -0.11684417357E+03 -0.49779414286E+03 -0.24463538959E+03  0.57441176066E+03  0.93009824094E+02 0.  0.
         23    2    4    4    0    0 -0.54892553623E+02  0.59887260532E+02  0.45012720405E+03  0.46655055289E+03  0.91952390679E+02 0.  0.
          3    1    3    3  502    0  0.16386621122E+03  0.35728468585E+03 -0.45032690754E+02  0.39564178895E+03  0.00000000000E+00 0. -1.
         -4    1    3    3    0  502  0.78705159776E+01  0.80622196479E+02 -0.42895422606E+02  0.91661883394E+02  0.00000000000E+00 0.  1.
         11    1    5    5    0    0 -0.84263237023E+02 -0.16680932060E+03 -0.96509987310E+02  0.21033264179E+03  0.00000000000E+00 0.  1.
        -11    1    5    5    0    0 -0.32580936547E+02 -0.33098482226E+03 -0.14812540228E+03  0.36407911886E+03  0.00000000000E+00 0. -1.
          2    1    6    6  503    0 -0.11310237064E+02  0.12873710591E+02  0.65194155626E+01  0.18334575700E+02  0.00000000000E+00 0.  1.
         -2    1    6    6    0  503 -0.43582316559E+02  0.47013549941E+02  0.44360778849E+03  0.44821597719E+03  0.00000000000E+00 0. -1.
<mgrwt>
<rscale>  0 0.15237374E+04</rscale>
<asrwt>0</asrwt>
<pdfrwt beam="1">  1        1 0.10851556E+00 0.15237374E+04</pdfrwt>
<pdfrwt beam="2">  1       -4 0.12660228E+00 0.15237374E+04</pdfrwt>
<totfact> 0.58039552E+00</totfact>
</mgrwt>
</event>
<event>
12    4  0.4280696E-008  0.1851358E+04  0.7818608E-02  0.8679455E-01
          1   -1    0    0  501    0  0.00000000000E+00  0.00000000000E+00  0.98438011651E+03  0.98438011651E+03  0.00000000000E+00 0. -1.
         -2   -1    0    0    0  501 -0.00000000000E+00 -0.00000000000E+00 -0.87047800574E+03  0.87047800574E+03  0.00000000000E+00 0.  1.
        -24    2    1    2    0    0 -0.57301967542E+03 -0.38177897351E+03  0.62613306027E+02  0.69615735458E+03  0.81289010374E+02 0.  0.
        254    2    1    2    0    0  0.57301967542E+03  0.38177897351E+03  0.51288804747E+02  0.11587007677E+04  0.93051071702E+03 0.  0.
         23    2    4    4    0    0  0.42717775202E+03  0.14911860735E+03 -0.40876069152E+03  0.61637536406E+03  0.90089375693E+02 0.  0.
         23    2    4    4    0    0  0.14584192340E+03  0.23266036616E+03  0.46004949626E+03  0.54232540361E+03  0.84086811035E+02 0.  0.
          1    1    3    3  502    0 -0.45471780673E+02 -0.11187767578E+02 -0.83220744282E+01  0.47561601148E+02  0.00000000000E+00 0. -1.
         -2    1    3    3    0  502 -0.52754789474E+03 -0.37059120594E+03  0.70935380456E+02  0.64859575343E+03  0.00000000000E+00 0.  1.
         11    1    5    5    0    0  0.23608974409E+03  0.55954144508E+02 -0.16758857425E+03  0.29488160976E+03  0.00000000000E+00 0.  1.
        -11    1    5    5    0    0  0.19108800793E+03  0.93164462844E+02 -0.24117211726E+03  0.32149375430E+03  0.00000000000E+00 0. -1.
          3    1    6    6  503    0  0.15292458770E+03  0.23434796932E+03  0.45012790063E+03  0.53001889322E+03  0.00000000000E+00 0. -1.
         -3    1    6    6    0  503 -0.70826643035E+01 -0.16876031606E+01  0.99215956350E+01  0.12306510391E+02  0.00000000000E+00 0.  1.
<mgrwt>
<rscale>  0 0.18513576E+04</rscale>
<asrwt>0</asrwt>
<pdfrwt beam="1">  1        1 0.15144309E+00 0.18513576E+04</pdfrwt>
<pdfrwt beam="2">  1       -2 0.13391969E+00 0.18513576E+04</pdfrwt>
<totfact> 0.51614230E+00</totfact>
</mgrwt>
</event>
<event>
12    4  0.4280696E-008  0.2298684E+04  0.7818608E-02  0.8478440E-01
         -2   -1    0    0    0  501 -0.00000000000E+00  0.00000000000E+00  0.64773619305E+03  0.64773619305E+03  0.00000000000E+00 0.  1.
          1   -1    0    0  501    0  0.00000000000E+00 -0.00000000000E+00 -0.20393897976E+04  0.20393897976E+04  0.00000000000E+00 0. -1.
        -24    2    1    2    0    0 -0.92094678867E+03  0.31370732913E+03 -0.70325352180E+03  0.12030845590E+04  0.79320012221E+02 0.  0.
        254    2    1    2    0    0  0.92094678867E+03 -0.31370732913E+03 -0.68840008270E+03  0.14840414316E+04  0.88426750526E+03 0.  0.
         23    2    4    4    0    0 -0.13064008999E+03 -0.68967861536E+02  0.34183165434E+02  0.18167741375E+03  0.10007394681E+03 0.  0.
         23    2    4    4    0    0  0.10515868787E+04 -0.24473946759E+03 -0.72258324813E+03  0.13023640178E+04  0.91066536581E+02 0.  0.
          3    1    3    3  502    0 -0.61485496806E+03  0.17171465276E+03 -0.44505047549E+03  0.77820465140E+03  0.00000000000E+00 0. -1.
         -4    1    3    3    0  502 -0.30609182061E+03  0.14199267636E+03 -0.25820304631E+03  0.42487990764E+03  0.00000000000E+00 0.  1.
         11    1    5    5    0    0 -0.11167370411E+03 -0.85030094117E+02  0.11841205178E+01  0.14036571959E+03  0.00000000000E+00 0.  1.
        -11    1    5    5    0    0 -0.18966385881E+02  0.16062232581E+02  0.32999044916E+02  0.41311694159E+02  0.00000000000E+00 0. -1.
          4    1    6    6  503    0  0.90980853810E+03 -0.17904195554E+03 -0.61682179224E+03  0.11136771171E+04  0.00000000000E+00 0.  1.
         -4    1    6    6    0  503  0.14177834056E+03 -0.65697512048E+02 -0.10576145589E+03  0.18868690069E+03  0.00000000000E+00 0. -1.
<mgrwt>
<rscale>  0 0.22986836E+04</rscale>
<asrwt>0</asrwt>
<pdfrwt beam="1">  1        1 0.31375227E+00 0.22986836E+04</pdfrwt>
<pdfrwt beam="2">  1       -2 0.99651724E-01 0.22986836E+04</pdfrwt>
<totfact> 0.18533504E+00</totfact>
</mgrwt>
</event>
<event>
12    4  0.4280696E-008  0.2424206E+04  0.7818608E-02  0.8430497E-01
          1   -1    0    0  501    0  0.00000000000E+00  0.00000000000E+00  0.22415085639E+04  0.22415085639E+04  0.00000000000E+00 0. -1.
         -2   -1    0    0    0  501 -0.00000000000E+00 -0.00000000000E+00 -0.65544841611E+03  0.65544841611E+03  0.00000000000E+00 0.  1.
        -24    2    1    2    0    0  0.81988853918E+03  0.80251267817E+00 -0.75962530132E+02  0.82942017562E+03  0.99747987615E+02 0.  0.
        254    2    1    2    0    0 -0.81988853918E+03 -0.80251267817E+00  0.16620226779E+04  0.20675368043E+04  0.91660852869E+03 0.  0.
         23    2    4    4    0    0  0.18948100652E+03 -0.42862003641E+02  0.27182369198E+03  0.34720083395E+03  0.94446261929E+02 0.  0.
         23    2    4    4    0    0 -0.10093695457E+04  0.42059490963E+02  0.13901989859E+04  0.17203359704E+04  0.79415049467E+02 0.  0.
          3    1    3    3  502    0  0.99643072864E+02 -0.26684427606E+01 -0.42582074810E+02  0.10839324542E+03  0.00000000000E+00 0. -1.
         -2    1    3    3    0  502  0.72024546632E+03  0.34709554388E+01 -0.33380455322E+02  0.72102693021E+03  0.00000000000E+00 0.  1.
         11    1    5    5    0    0  0.11021679394E+03  0.15231319437E+02  0.18594200905E+03  0.21668909868E+03  0.00000000000E+00 0. -1.
        -11    1    5    5    0    0  0.79264212578E+02 -0.58093323078E+02  0.85881682929E+02  0.13051173528E+03  0.00000000000E+00 0.  1.
          2    1    6    6  503    0 -0.53113694208E+03 -0.17238955896E+02  0.73764168899E+03  0.90913084547E+03  0.00000000000E+00 0. -1.
         -2    1    6    6    0  503 -0.47823260361E+03  0.59298446859E+02  0.65255729691E+03  0.81120512493E+03  0.00000000000E+00 0.  1.
<mgrwt>
<rscale>  0 0.24242056E+04</rscale>
<asrwt>0</asrwt>
<pdfrwt beam="1">  1        1 0.34484747E+00 0.24242056E+04</pdfrwt>
<pdfrwt beam="2">  1       -2 0.10083822E+00 0.24242056E+04</pdfrwt>
<totfact> 0.12986982E+00</totfact>
</mgrwt>
</event>
<event>
12    4  0.4280696E-008  0.2347089E+04  0.7818608E-02  0.8459583E-01
         -2   -1    0    0    0  501 -0.00000000000E+00  0.00000000000E+00  0.16771804776E+04  0.16771804776E+04  0.00000000000E+00 0.  1.
          1   -1    0    0  501    0  0.00000000000E+00 -0.00000000000E+00 -0.82114376041E+03  0.82114376041E+03  0.00000000000E+00 0. -1.
        -24    2    1    2    0    0  0.21177181869E+03 -0.10016699099E+03 -0.66740715738E+03  0.71190942417E+03  0.80634888423E+02 0.  0.
        254    2    1    2    0    0 -0.21177181869E+03  0.10016699099E+03  0.15234438745E+04  0.17864148138E+04  0.90305920007E+03 0.  0.
         23    2    4    4    0    0  0.17967640136E+03 -0.47404376232E+02  0.26980859350E+01  0.20667498374E+03  0.90423919090E+02 0.  0.
         23    2    4    4    0    0 -0.39144822005E+03  0.14757136722E+03  0.15207457886E+04  0.15797398300E+04  0.88888467930E+02 0.  0.
          1    1    3    3  502    0  0.20452053661E+03 -0.11130340246E+03 -0.64632454305E+03  0.68698800008E+03  0.00000000000E+00 0. -1.
         -2    1    3    3    0  502  0.72512820808E+01  0.11136411471E+02 -0.21082614326E+02  0.24921424099E+02  0.00000000000E+00 0.  1.
         11    1    5    5    0    0  0.82102728495E+02 -0.67198752846E+02  0.11536722344E+02  0.10672219250E+03  0.00000000000E+00 0. -1.
        -11    1    5    5    0    0  0.97573672867E+02  0.19794376614E+02 -0.88386364092E+01  0.99952791236E+02  0.00000000000E+00 0.  1.
          1    1    6    6  503    0 -0.35121465922E+03  0.10272834180E+03  0.12556589696E+04  0.13078930756E+04  0.00000000000E+00 0. -1.
         -1    1    6    6    0  503 -0.40233560830E+02  0.44843025425E+02  0.26508681896E+03  0.27184675450E+03  0.00000000000E+00 0.  1.
<mgrwt>
<rscale>  0 0.23470887E+04</rscale>
<asrwt>0</asrwt>
<pdfrwt beam="1">  1        1 0.12632981E+00 0.23470887E+04</pdfrwt>
<pdfrwt beam="2">  1       -2 0.25802777E+00 0.23470887E+04</pdfrwt>
<totfact> 0.95945743E-01</totfact>
</mgrwt>
</event>
<event>
12    4  0.4280696E-008  0.1536903E+04  0.7818608E-02  0.8860277E-01
         -2   -1    0    0    0  501 -0.00000000000E+00  0.00000000000E+00  0.31377535784E+03  0.31377535784E+03  0.00000000000E+00 0.  1.
          1   -1    0    0  501    0  0.00000000000E+00 -0.00000000000E+00 -0.18819756221E+04  0.18819756221E+04  0.00000000000E+00 0. -1.
        -24    2    1    2    0    0  0.12541922467E+03  0.22795997489E+03 -0.11242812713E+04  0.11592131033E+04  0.10986769278E+03 0.  0.
        254    2    1    2    0    0 -0.12541922467E+03 -0.22795997489E+03 -0.44391899293E+03  0.10365378766E+04  0.89980607087E+03 0.  0.
         23    2    4    4    0    0 -0.55458283456E+02  0.18133698068E+03 -0.55802284535E+03  0.59622116572E+03  0.90174612605E+02 0.  0.
         23    2    4    4    0    0 -0.69960941218E+02 -0.40929695558E+03  0.11410385242E+03  0.44031671083E+03  0.91872659472E+02 0.  0.
          1    1    3    3  502    0  0.26459698174E+02  0.15728583180E+03 -0.58155265709E+03  0.60302772862E+03  0.00000000000E+00 0. -1.
         -2    1    3    3    0  502  0.98959526500E+02  0.70674143090E+02 -0.54272861421E+03  0.55618537473E+03  0.00000000000E+00 0.  1.
         11    1    5    5    0    0  0.95345785536E+01  0.11734184131E+03 -0.28471864635E+03  0.30809856132E+03  0.00000000000E+00 0. -1.
        -11    1    5    5    0    0 -0.64992862010E+02  0.63995139369E+02 -0.27330419900E+03  0.28812260440E+03  0.00000000000E+00 0.  1.
          3    1    6    6  503    0 -0.71866393143E+01 -0.29324310531E+03  0.79045765606E+02  0.30379499610E+03  0.00000000000E+00 0.  1.
         -3    1    6    6    0  503 -0.62774301904E+02 -0.11605385027E+03  0.35058086813E+02  0.13652171473E+03  0.00000000000E+00 0. -1.
<mgrwt>
<rscale>  0 0.15369028E+04</rscale>
<asrwt>0</asrwt>
<pdfrwt beam="1">  1        1 0.28953471E+00 0.15369028E+04</pdfrwt>
<pdfrwt beam="2">  1       -2 0.48273132E-01 0.15369028E+04</pdfrwt>
<totfact> 0.12337352E+01</totfact>
</mgrwt>
</event>
<event>
12    4  0.4280696E-008  0.1546222E+04  0.7818608E-02  0.8854284E-01
          3   -1    0    0  501    0  0.00000000000E+00  0.00000000000E+00  0.12762622057E+04  0.12762622057E+04  0.00000000000E+00 0. -1.
         -4   -1    0    0    0  501 -0.00000000000E+00 -0.00000000000E+00 -0.46832122622E+03  0.46832122622E+03  0.00000000000E+00 0.  1.
        -24    2    1    2    0    0  0.14345756765E+03  0.65249176556E+02  0.81175059732E+03  0.83063693205E+03  0.78620301923E+02 0.  0.
        254    2    1    2    0    0 -0.14345756765E+03 -0.65249176556E+02 -0.38096178093E+01  0.91394649991E+03  0.90024783408E+03 0.  0.
         23    2    4    4    0    0  0.93953829408E+02  0.32548316144E+03  0.20164749439E+03  0.40448151737E+03  0.90426630232E+02 0.  0.
         23    2    4    4    0    0 -0.23741139706E+03 -0.39073233800E+03 -0.20545711220E+03  0.50946498255E+03  0.91137325379E+02 0.  0.
          1    1    3    3  502    0  0.10183352378E+03  0.50262864213E+02  0.37946644154E+03  0.39609494107E+03  0.00000000000E+00 0. -1.
         -2    1    3    3    0  502  0.41624043868E+02  0.14986312343E+02  0.43228415578E+03  0.43454199098E+03  0.00000000000E+00 0.  1.
         11    1    5    5    0    0  0.10682683556E+03  0.24554551488E+03  0.17199014907E+03  0.31825333313E+03  0.00000000000E+00 0. -1.
        -11    1    5    5    0    0 -0.12873006147E+02  0.79937646561E+02  0.29657345321E+02  0.86228184235E+02  0.00000000000E+00 0.  1.
          4    1    6    6  503    0 -0.23467921553E+03 -0.38766763415E+03 -0.21311343520E+03  0.50077726089E+03  0.00000000000E+00 0. -1.
         -4    1    6    6    0  503 -0.27321815342E+01 -0.30647038495E+01  0.76563230010E+01  0.86877216528E+01  0.00000000000E+00 0.  1.
<mgrwt>
<rscale>  0 0.15462221E+04</rscale>
<asrwt>0</asrwt>
<pdfrwt beam="1">  1        3 0.19634803E+00 0.15462221E+04</pdfrwt>
<pdfrwt beam="2">  1       -4 0.72049420E-01 0.15462221E+04</pdfrwt>
<totfact> 0.60222438E-01</totfact>
</mgrwt>
</event>
<event>
12    4  0.4280696E-008  0.1079021E+04  0.7818608E-02  0.9225884E-01
          1   -1    0    0  501    0  0.00000000000E+00  0.00000000000E+00  0.80493948492E+03  0.80493948492E+03  0.00000000000E+00 0. -1.
         -2   -1    0    0    0  501 -0.00000000000E+00 -0.00000000000E+00 -0.36160694775E+03  0.36160694775E+03  0.00000000000E+00 0.  1.
        -24    2    1    2    0    0  0.74894636269E+02  0.12103518008E+03  0.11815964287E+03  0.20162200048E+03  0.80193569029E+02 0.  0.
        254    2    1    2    0    0 -0.74894636269E+02 -0.12103518008E+03  0.32517289429E+03  0.96492443219E+03  0.89726419036E+03 0.  0.
         23    2    4    4    0    0  0.32118407741E+03  0.32467617119E+02 -0.10732169439E+03  0.35200206708E+03  0.90411013726E+02 0.  0.
         23    2    4    4    0    0 -0.39607871368E+03 -0.15350279720E+03  0.43249458868E+03  0.61292236511E+03  0.90447776297E+02 0.  0.
          3    1    3    3  502    0  0.98014486954E+01 -0.65358000274E+01  0.32902352544E+02  0.34947816548E+02  0.00000000000E+00 0. -1.
         -4    1    3    3    0  502  0.65093187574E+02  0.12757098011E+03  0.85257290327E+02  0.16667418393E+03  0.00000000000E+00 0.  1.
         11    1    5    5    0    0  0.28945758145E+03  0.46079949618E+02 -0.70368378926E+02  0.30143118944E+03  0.00000000000E+00 0.  1.
        -11    1    5    5    0    0  0.31726495957E+02 -0.13612332499E+02 -0.36953315460E+02  0.50570877640E+02  0.00000000000E+00 0. -1.
          3    1    6    6  503    0 -0.26050948768E+03 -0.53966615281E+02  0.25922187262E+03  0.37144793441E+03  0.00000000000E+00 0. -1.
         -3    1    6    6    0  503 -0.13556922600E+03 -0.99536181919E+02  0.17327271606E+03  0.24147443070E+03  0.00000000000E+00 0.  1.
<mgrwt>
<rscale>  0 0.10790212E+04</rscale>
<asrwt>0</asrwt>
<pdfrwt beam="1">  1        1 0.12383684E+00 0.10790212E+04</pdfrwt>
<pdfrwt beam="2">  1       -2 0.55631838E-01 0.10790212E+04</pdfrwt>
<totfact> 0.58110687E+01</totfact>
</mgrwt>
</event>
<event>
12    4  0.4280696E-008  0.1400179E+04  0.7818608E-02  0.8953689E-01
          1   -1    0    0  501    0  0.00000000000E+00  0.00000000000E+00  0.16821803612E+04  0.16821803612E+04  0.00000000000E+00 0. -1.
         -2   -1    0    0    0  501 -0.00000000000E+00 -0.00000000000E+00 -0.29136316164E+03  0.29136316164E+03  0.00000000000E+00 0.  1.
        -24    2    1    2    0    0  0.10977759311E+03 -0.20327717299E+03 -0.58296660538E+02  0.25243810851E+03  0.83389261863E+02 0.  0.
        254    2    1    2    0    0 -0.10977759311E+03  0.20327717299E+03  0.14491138601E+04  0.17211054143E+04  0.89938875838E+03 0.  0.
         23    2    4    4    0    0 -0.32685762110E+03  0.34998904876E+03  0.38483754514E+03  0.62138125212E+03  0.93201317679E+02 0.  0.
         23    2    4    4    0    0  0.21708002799E+03 -0.14671187578E+03  0.10642763149E+04  0.10997241622E+04  0.89783324269E+02 0.  0.
          1    1    3    3  502    0  0.97942707256E+01 -0.23310721952E+02  0.19936986280E+02  0.32199393145E+02  0.00000000000E+00 0. -1.
         -2    1    3    3    0  502  0.99983322385E+02 -0.17996645103E+03 -0.78233646818E+02  0.22023871537E+03  0.00000000000E+00 0.  1.
         11    1    5    5    0    0 -0.76967198727E+02  0.14693339775E+03  0.12925552565E+03  0.21028638560E+03  0.00000000000E+00 0. -1.
        -11    1    5    5    0    0 -0.24989042237E+03  0.20305565101E+03  0.25558201949E+03  0.41109486653E+03  0.00000000000E+00 0.  1.
          2    1    6    6  503    0  0.44574309431E+02  0.72789210320E+01  0.20125469104E+03  0.20626027834E+03  0.00000000000E+00 0. -1.
         -2    1    6    6    0  503  0.17250571856E+03 -0.15399079681E+03  0.86302162388E+03  0.89346388383E+03  0.00000000000E+00 0.  1.
<mgrwt>
<rscale>  0 0.14001791E+04</rscale>
<asrwt>0</asrwt>
<pdfrwt beam="1">  1        1 0.25879697E+00 0.14001791E+04</pdfrwt>
<pdfrwt beam="2">  1       -2 0.44825103E-01 0.14001791E+04</pdfrwt>
<totfact> 0.19799732E+01</totfact>
</mgrwt>
</event>
<event>
12    4  0.4280696E-008  0.1481743E+04  0.7818608E-02  0.8896685E-01
          1   -1    0    0  501    0  0.00000000000E+00  0.00000000000E+00  0.96862225388E+03  0.96862225388E+03  0.00000000000E+00 0. -1.
         -2   -1    0    0    0  501 -0.00000000000E+00 -0.00000000000E+00 -0.56667116488E+03  0.56667116488E+03  0.00000000000E+00 0.  1.
        -24    2    1    2    0    0 -0.11404067874E+03 -0.64916294474E+02  0.59872322285E+03  0.61831157339E+03  0.81365241451E+02 0.  0.
        254    2    1    2    0    0  0.11404067874E+03  0.64916294474E+02 -0.19677213385E+03  0.91698184536E+03  0.88595543362E+03 0.  0.
         23    2    4    4    0    0 -0.27831121492E+03 -0.24403079752E+03 -0.29269315329E+02  0.38229529810E+03  0.91021094484E+02 0.  0.
         23    2    4    4    0    0  0.39235189366E+03  0.30894709199E+03 -0.16750281852E+03  0.53468654727E+03  0.91892303860E+02 0.  0.
          3    1    3    3  502    0 -0.71700470141E+02  0.46911017354E+01  0.31717332337E+03  0.32521051784E+03  0.00000000000E+00 0. -1.
         -4    1    3    3    0  502 -0.42340208601E+02 -0.69607396210E+02  0.28154989948E+03  0.29310105556E+03  0.00000000000E+00 0.  1.
         11    1    5    5    0    0 -0.87814336842E+02 -0.12493888954E+03  0.14543529577E+02  0.15340338369E+03  0.00000000000E+00 0. -1.
        -11    1    5    5    0    0 -0.19049687808E+03 -0.11909190797E+03 -0.43812844906E+02  0.22889191440E+03  0.00000000000E+00 0.  1.
          2    1    6    6  503    0  0.39031057833E+03  0.29010027452E+03 -0.17081983565E+03  0.51544149337E+03  0.00000000000E+00 0. -1.
         -2    1    6    6    0  503  0.20413153315E+01  0.18846817465E+02  0.33170171339E+01  0.19245053897E+02  0.00000000000E+00 0.  1.
<mgrwt>
<rscale>  0 0.14817426E+04</rscale>
<asrwt>0</asrwt>
<pdfrwt beam="1">  1        1 0.14901881E+00 0.14817426E+04</pdfrwt>
<pdfrwt beam="2">  1       -2 0.87180179E-01 0.14817426E+04</pdfrwt>
<totfact> 0.15468515E+01</totfact>
</mgrwt>
</event>
<event>
12    4  0.4280696E-008  0.1436284E+04  0.7818608E-02  0.8927965E-01
          1   -1    0    0  501    0  0.00000000000E+00  0.00000000000E+00  0.83512424687E+03  0.83512424687E+03  0.00000000000E+00 0. -1.
         -2   -1    0    0    0  501 -0.00000000000E+00 -0.00000000000E+00 -0.61754606698E+03  0.61754606698E+03  0.00000000000E+00 0.  1.
        -24    2    1    2    0    0  0.44508753492E+02 -0.42061778767E+03 -0.37584535259E+02  0.43227302868E+03  0.80913667497E+02 0.  0.
        254    2    1    2    0    0 -0.44508753492E+02  0.42061778767E+03  0.25516271515E+03  0.10203972852E+04  0.89286183475E+03 0.  0.
         23    2    4    4    0    0  0.30036922451E+03 -0.16128278435E+02  0.32499479248E+03  0.45158309434E+03  0.88452719320E+02 0.  0.
         23    2    4    4    0    0 -0.34487797801E+03  0.43674606611E+03 -0.69832077329E+02  0.56881419084E+03  0.94789866017E+02 0.  0.
          3    1    3    3  502    0  0.14503148135E+02 -0.11202196096E+02  0.63968797121E+01  0.19410063710E+02  0.00000000000E+00 0. -1.
         -4    1    3    3    0  502  0.30005605357E+02 -0.40941559158E+03 -0.43981414971E+02  0.41286296497E+03  0.00000000000E+00 0.  1.
         11    1    5    5    0    0  0.14499137953E+03 -0.26313981206E+02  0.21614481672E+03  0.26159798840E+03  0.00000000000E+00 0.  1.
        -11    1    5    5    0    0  0.15537784499E+03  0.10185702772E+02  0.10884997576E+03  0.18998510593E+03  0.00000000000E+00 0. -1.
          2    1    6    6  503    0 -0.24309307681E+03  0.34191546960E+03 -0.87590184302E+02  0.42857026580E+03  0.00000000000E+00 0.  1.
         -2    1    6    6    0  503 -0.10178490120E+03  0.94830596508E+02  0.17758106973E+02  0.14024392504E+03  0.00000000000E+00 0. -1.
<mgrwt>
<rscale>  0 0.14362837E+04</rscale>
<asrwt>0</asrwt>
<pdfrwt beam="1">  1        1 0.12848065E+00 0.14362837E+04</pdfrwt>
<pdfrwt beam="2">  1       -2 0.95007087E-01 0.14362837E+04</pdfrwt>
<totfact> 0.16368898E+01</totfact>
</mgrwt>
</event>
<event>
12    4  0.4280696E-008  0.2173811E+04  0.7818608E-02  0.8529408E-01
          1   -1    0    0  501    0  0.00000000000E+00  0.00000000000E+00  0.53471338980E+03  0.53471338980E+03  0.00000000000E+00 0. -1.
         -2   -1    0    0    0  501 -0.00000000000E+00 -0.00000000000E+00 -0.22093402961E+04  0.22093402961E+04  0.00000000000E+00 0.  1.
        -24    2    1    2    0    0  0.84983948146E+03  0.28139668258E+03 -0.55868095756E+03  0.10582550730E+04  0.79800689042E+02 0.  0.
        254    2    1    2    0    0 -0.84983948146E+03 -0.28139668258E+03 -0.11159459487E+04  0.16857986129E+04  0.89172325611E+03 0.  0.
         23    2    4    4    0    0  0.11880795914E+03 -0.11111854899E+03 -0.47015768687E+03  0.50559874526E+03  0.90106479247E+02 0.  0.
         23    2    4    4    0    0 -0.96864744060E+03 -0.17027813360E+03 -0.64578826182E+03  0.11801998676E+04  0.92502656137E+02 0.  0.
          1    1    3    3  502    0  0.21641447772E+03  0.10393663130E+03 -0.17026745817E+03  0.29432814477E+03  0.00000000000E+00 0. -1.
         -2    1    3    3    0  502  0.63342500373E+03  0.17746005129E+03 -0.38841349938E+03  0.76392692822E+03  0.00000000000E+00 0.  1.
         11    1    5    5    0    0  0.11958901943E+03 -0.88501810525E+02 -0.31001946068E+03  0.34386940840E+03  0.00000000000E+00 0. -1.
        -11    1    5    5    0    0 -0.78106028578E+00 -0.22616738462E+02 -0.16013822619E+03  0.16172933686E+03  0.00000000000E+00 0.  1.
          4    1    6    6  503    0 -0.75050375306E+03 -0.13567915114E+03 -0.54521330924E+03  0.93750854289E+03  0.00000000000E+00 0. -1.
         -4    1    6    6    0  503 -0.21814368754E+03 -0.34598982460E+02 -0.10057495259E+03  0.24269132471E+03  0.00000000000E+00 0.  1.
<mgrwt>
<rscale>  0 0.21738113E+04</rscale>
<asrwt>0</asrwt>
<pdfrwt beam="1">  1        1 0.82263599E-01 0.21738113E+04</pdfrwt>
<pdfrwt beam="2">  1       -2 0.33989850E+00 0.21738113E+04</pdfrwt>
<totfact> 0.58246988E-01</totfact>
</mgrwt>
</event>
<event>
12    4  0.4280696E-008  0.2391906E+04  0.7818608E-02  0.8442540E-01
         -2   -1    0    0    0  501 -0.00000000000E+00  0.00000000000E+00  0.16201365451E+04  0.16201365451E+04  0.00000000000E+00 0.  1.
          1   -1    0    0  501    0  0.00000000000E+00 -0.00000000000E+00 -0.88282937922E+03  0.88282937922E+03  0.00000000000E+00 0. -1.
        -24    2    1    2    0    0 -0.19517668500E+03 -0.24205607985E+03  0.13382245353E+04  0.13761286349E+04  0.78740260765E+02 0.  0.
        254    2    1    2    0    0  0.19517668500E+03  0.24205607985E+03 -0.60091736941E+03  0.11268372895E+04  0.90109683603E+03 0.  0.
         23    2    4    4    0    0 -0.25766900355E+03  0.38256632038E+03 -0.30776143218E+03  0.56187547949E+03  0.90755993947E+02 0.  0.
         23    2    4    4    0    0  0.45284568855E+03 -0.14051024053E+03 -0.29315593723E+03  0.56496180996E+03  0.91810118457E+02 0.  0.
          1    1    3    3  502    0 -0.10570410844E+03 -0.99988675814E+02  0.47728196887E+03  0.49896810684E+03  0.00000000000E+00 0. -1.
         -2    1    3    3    0  502 -0.89472576560E+02 -0.14206740404E+03  0.86094256641E+03  0.87716052801E+03  0.00000000000E+00 0.  1.
         11    1    5    5    0    0 -0.95827273457E+02  0.21848949669E+03 -0.13778875897E+03  0.27551092283E+03  0.00000000000E+00 0.  1.
        -11    1    5    5    0    0 -0.16184173010E+03  0.16407682369E+03 -0.16997267321E+03  0.28636455666E+03  0.00000000000E+00 0. -1.
          1    1    6    6  503    0  0.24215409519E+03 -0.31376248443E+02 -0.17086316405E+03  0.29802230724E+03  0.00000000000E+00 0. -1.
         -1    1    6    6    0  503  0.21069159336E+03 -0.10913399209E+03 -0.12229277318E+03  0.26693950272E+03  0.00000000000E+00 0.  1.
<mgrwt>
<rscale>  0 0.23919065E+04</rscale>
<asrwt>0</asrwt>
<pdfrwt beam="1">  1        1 0.13581991E+00 0.23919065E+04</pdfrwt>
<pdfrwt beam="2">  1       -2 0.24925177E+00 0.23919065E+04</pdfrwt>
<totfact> 0.95989323E-01</totfact>
</mgrwt>
</event>
<event>
12    4  0.4280696E-008  0.1357086E+04  0.7818608E-02  0.8985482E-01
         -2   -1    0    0    0  501 -0.00000000000E+00  0.00000000000E+00  0.22562297994E+03  0.22562297994E+03  0.00000000000E+00 0.  1.
          1   -1    0    0  501    0  0.00000000000E+00 -0.00000000000E+00 -0.20406626887E+04  0.20406626887E+04  0.00000000000E+00 0. -1.
        -24    2    1    2    0    0  0.26792663385E+03 -0.67935159960E+02 -0.92621033138E+03  0.97023773600E+03  0.84236686327E+02 0.  0.
        254    2    1    2    0    0 -0.26792663385E+03  0.67935159960E+02 -0.88882937734E+03  0.12960479326E+04  0.90184406329E+03 0.  0.
         23    2    4    4    0    0 -0.19890904564E+03 -0.38578946510E+03 -0.26706606469E+03  0.51790352514E+03  0.92203354717E+02 0.  0.
         23    2    4    4    0    0 -0.69017588204E+02  0.45372462506E+03 -0.62176331265E+03  0.77814440746E+03  0.91047454856E+02 0.  0.
          1    1    3    3  502    0  0.26595564655E+03 -0.67354867482E+02 -0.83323670533E+03  0.87724140988E+03  0.00000000000E+00 0. -1.
         -2    1    3    3    0  502  0.19709872920E+01 -0.58029247776E+00 -0.92973626054E+02  0.92996326121E+02  0.00000000000E+00 0.  1.
         11    1    5    5    0    0 -0.12023528331E+03 -0.13692368483E+03 -0.97669291511E+02  0.20674600196E+03  0.00000000000E+00 0.  1.
        -11    1    5    5    0    0 -0.78673762328E+02 -0.24886578028E+03 -0.16939677318E+03  0.31115752318E+03  0.00000000000E+00 0. -1.
          2    1    6    6  503    0  0.15340874628E+02  0.13075322975E+03 -0.14153640227E+03  0.19329848084E+03  0.00000000000E+00 0.  1.
         -2    1    6    6    0  503 -0.84358462832E+02  0.32297139531E+03 -0.48022691038E+03  0.58484592663E+03  0.00000000000E+00 0. -1.
<mgrwt>
<rscale>  0 0.13570857E+04</rscale>
<asrwt>0</asrwt>
<pdfrwt beam="1">  1        1 0.31394811E+00 0.13570857E+04</pdfrwt>
<pdfrwt beam="2">  1       -2 0.34711228E-01 0.13570857E+04</pdfrwt>
<totfact> 0.18715935E+01</totfact>
</mgrwt>
</event>
<event>
12    4  0.4280696E-008  0.1432336E+04  0.7818608E-02  0.8930739E-01
         -2   -1    0    0    0  501 -0.00000000000E+00  0.00000000000E+00  0.13802976002E+04  0.13802976002E+04  0.00000000000E+00 0.  1.
          1   -1    0    0  501    0  0.00000000000E+00 -0.00000000000E+00 -0.37158428806E+03  0.37158428806E+03  0.00000000000E+00 0. -1.
        -24    2    1    2    0    0 -0.35619239681E+03 -0.30111759425E+03  0.52155004417E+03  0.70418170127E+03  0.79451813807E+02 0.  0.
        254    2    1    2    0    0  0.35619239681E+03  0.30111759425E+03  0.48716326801E+03  0.10477001870E+04  0.80174983823E+03 0.  0.
         23    2    4    4    0    0 -0.56524713112E+02  0.23172368488E+03  0.55756809083E+03  0.61324461729E+03  0.91081696321E+02 0.  0.
         23    2    4    4    0    0  0.41271710992E+03  0.69393909371E+02 -0.70404822817E+02  0.43445556974E+03  0.92972444969E+02 0.  0.
          3    1    3    3  502    0 -0.26271388867E+03 -0.19580741855E+03  0.31742826385E+03  0.45620152910E+03  0.00000000000E+00 0. -1.
         -4    1    3    3    0  502 -0.93478508140E+02 -0.10531017570E+03  0.20412178032E+03  0.24798017217E+03  0.00000000000E+00 0.  1.
         11    1    5    5    0    0 -0.29069430086E+02  0.90103702773E+02  0.33413245796E+03  0.34728692530E+03  0.00000000000E+00 0. -1.
        -11    1    5    5    0    0 -0.27455283026E+02  0.14161998211E+03  0.22343563286E+03  0.26595769199E+03  0.00000000000E+00 0.  1.
          2    1    6    6  503    0  0.38700467237E+03  0.76058933327E+02 -0.43752659109E+02  0.39682725834E+03  0.00000000000E+00 0. -1.
         -2    1    6    6    0  503  0.25712437546E+02 -0.66650239566E+01 -0.26652163708E+02  0.37628311405E+02  0.00000000000E+00 0.  1.
<mgrwt>
<rscale>  0 0.14323364E+04</rscale>
<asrwt>0</asrwt>
<pdfrwt beam="1">  1        1 0.57166814E-01 0.14323364E+04</pdfrwt>
<pdfrwt beam="2">  1       -2 0.21235347E+00 0.14323364E+04</pdfrwt>
<totfact> 0.62143772E+00</totfact>
</mgrwt>
</event>
<event>
12    4  0.4280696E-008  0.2597930E+04  0.7818608E-02  0.8368905E-01
          1   -1    0    0  501    0  0.00000000000E+00  0.00000000000E+00  0.15073994538E+04  0.15073994538E+04  0.00000000000E+00 0. -1.
         -2   -1    0    0    0  501 -0.00000000000E+00 -0.00000000000E+00 -0.11193517254E+04  0.11193517254E+04  0.00000000000E+00 0.  1.
        -24    2    1    2    0    0  0.57621536085E+03  0.45192725203E+03  0.10583746021E+04  0.12895156071E+04  0.80195506686E+02 0.  0.
        254    2    1    2    0    0 -0.57621536085E+03 -0.45192725203E+03 -0.67032687362E+03  0.13372355722E+04  0.89587860493E+03 0.  0.
         23    2    4    4    0    0 -0.31405859873E+00 -0.55415756573E+03 -0.27076543654E+03  0.62339584007E+03  0.90651781597E+02 0.  0.
         23    2    4    4    0    0 -0.57590130225E+03  0.10223031370E+03 -0.39956143709E+03  0.71383973210E+03  0.88342934884E+02 0.  0.
          3    1    3    3  502    0  0.34751992900E+03  0.29060340980E+03  0.58939038262E+03  0.74337168763E+03  0.00000000000E+00 0. -1.
         -4    1    3    3    0  502  0.22869543185E+03  0.16132384223E+03  0.46898421947E+03  0.54614391943E+03  0.00000000000E+00 0.  1.
         11    1    5    5    0    0  0.70640900943E+01 -0.55048950531E+03 -0.25749743483E+03  0.60777752983E+03  0.00000000000E+00 0.  1.
        -11    1    5    5    0    0 -0.73781486931E+01 -0.36680604165E+01 -0.13268001705E+02  0.15618310235E+02  0.00000000000E+00 0. -1.
          4    1    6    6  503    0 -0.58992719810E+02 -0.15946746665E+02 -0.46794941596E+02  0.76968865645E+02  0.00000000000E+00 0. -1.
         -4    1    6    6    0  503 -0.51690858244E+03  0.11817706036E+03 -0.35276649549E+03  0.63687086645E+03  0.00000000000E+00 0.  1.
<mgrwt>
<rscale>  0 0.25979301E+04</rscale>
<asrwt>0</asrwt>
<pdfrwt beam="1">  1        1 0.23190761E+00 0.25979301E+04</pdfrwt>
<pdfrwt beam="2">  1       -2 0.17220796E+00 0.25979301E+04</pdfrwt>
<totfact> 0.10281494E+00</totfact>
</mgrwt>
</event>
<event>
12    4  0.4280696E-008  0.1657351E+04  0.7818608E-02  0.8786069E-01
          1   -1    0    0  501    0  0.00000000000E+00  0.00000000000E+00  0.28129576982E+04  0.28129576982E+04  0.00000000000E+00 0. -1.
         -2   -1    0    0    0  501 -0.00000000000E+00 -0.00000000000E+00 -0.24412146241E+03  0.24412146241E+03  0.00000000000E+00 0.  1.
        -24    2    1    2    0    0 -0.52791695268E+03 -0.26019812021E+03  0.84322847587E+03  0.10314007663E+04  0.79711401119E+02 0.  0.
        254    2    1    2    0    0  0.52791695268E+03  0.26019812021E+03  0.17256077599E+04  0.20256783943E+04  0.88275219934E+03 0.  0.
         23    2    4    4    0    0  0.74583611261E+03  0.22441822006E+03  0.10643732360E+04  0.13222297732E+04  0.93627683445E+02 0.  0.
         23    2    4    4    0    0 -0.21791915993E+03  0.35779900155E+02  0.66123452388E+03  0.70344862115E+03  0.94020771623E+02 0.  0.
          1    1    3    3  502    0 -0.10209973825E+03 -0.44846061759E+02  0.21819271620E+03  0.24503793014E+03  0.00000000000E+00 0. -1.
         -2    1    3    3    0  502 -0.42581721444E+03 -0.21535205845E+03  0.62503575967E+03  0.78636283613E+03  0.00000000000E+00 0.  1.
         11    1    5    5    0    0  0.33484934698E+03  0.14382299245E+03  0.53227653271E+03  0.64507941031E+03  0.00000000000E+00 0. -1.
        -11    1    5    5    0    0  0.41098676563E+03  0.80595227608E+02  0.53209670330E+03  0.67715036284E+03  0.00000000000E+00 0.  1.
          4    1    6    6  503    0 -0.73088021917E+02 -0.32382231255E+02  0.22310417794E+03  0.23699354857E+03  0.00000000000E+00 0. -1.
         -4    1    6    6    0  503 -0.14483113801E+03  0.68162131410E+02  0.43813034594E+03  0.46645507257E+03  0.00000000000E+00 0.  1.
<mgrwt>
<rscale>  0 0.16573513E+04</rscale>
<asrwt>0</asrwt>
<pdfrwt beam="1">  1        1 0.43276270E+00 0.16573513E+04</pdfrwt>
<pdfrwt beam="2">  1       -2 0.37557150E-01 0.16573513E+04</pdfrwt>
<totfact> 0.45906023E+00</totfact>
</mgrwt>
</event>
<event>
12    4  0.4280696E-008  0.2529305E+04  0.7818608E-02  0.8392619E-01
          1   -1    0    0  501    0  0.00000000000E+00  0.00000000000E+00  0.10851792773E+04  0.10851792773E+04  0.00000000000E+00 0. -1.
         -2   -1    0    0    0  501 -0.00000000000E+00 -0.00000000000E+00 -0.14738086216E+04  0.14738086216E+04  0.00000000000E+00 0.  1.
        -24    2    1    2    0    0  0.10286867299E+04  0.33103716775E+03 -0.40048116340E+03  0.11552171147E+04  0.79746004076E+02 0.  0.
        254    2    1    2    0    0 -0.10286867299E+04 -0.33103716775E+03  0.11851819110E+02  0.14037707843E+04  0.89590733595E+03 0.  0.
         23    2    4    4    0    0  0.64660370247E+01  0.29699474344E+02  0.25899618705E+03  0.27638034567E+03  0.91559828281E+02 0.  0.
         23    2    4    4    0    0 -0.10351527669E+04 -0.36073664209E+03 -0.24714436794E+03  0.11273904386E+04  0.90866312687E+02 0.  0.
          1    1    3    3  502    0  0.66349775009E+03  0.24897082204E+03 -0.28042594475E+03  0.76213807482E+03  0.00000000000E+00 0. -1.
         -2    1    3    3    0  502  0.36518897978E+03  0.82066345707E+02 -0.12005521865E+03  0.39307903986E+03  0.00000000000E+00 0.  1.
         11    1    5    5    0    0  0.45207192199E+01  0.60525280949E+02  0.12615790085E+03  0.13999843743E+03  0.00000000000E+00 0. -1.
        -11    1    5    5    0    0  0.19453178048E+01 -0.30825806605E+02  0.13283828620E+03  0.13638190824E+03  0.00000000000E+00 0.  1.
          2    1    6    6  503    0 -0.10114223873E+04 -0.35607891027E+03 -0.25460062285E+03  0.11020838956E+04  0.00000000000E+00 0. -1.
         -2    1    6    6    0  503 -0.23730379581E+02 -0.46577318263E+01  0.74562549156E+01  0.25306542992E+02  0.00000000000E+00 0.  1.
<mgrwt>
<rscale>  0 0.25293055E+04</rscale>
<asrwt>0</asrwt>
<pdfrwt beam="1">  1        1 0.16695066E+00 0.25293055E+04</pdfrwt>
<pdfrwt beam="2">  1       -2 0.22673979E+00 0.25293055E+04</pdfrwt>
<totfact> 0.90630934E-01</totfact>
</mgrwt>
</event>
<event>
12    4  0.4280696E-008  0.2154526E+04  0.7818608E-02  0.8537598E-01
          1   -1    0    0  501    0  0.00000000000E+00  0.00000000000E+00  0.20089444468E+04  0.20089444468E+04  0.00000000000E+00 0. -1.
         -2   -1    0    0    0  501 -0.00000000000E+00 -0.00000000000E+00 -0.57766416116E+03  0.57766416116E+03  0.00000000000E+00 0.  1.
        -24    2    1    2    0    0 -0.47015121632E+03  0.41706952838E+03 -0.16051800302E+03  0.65348235631E+03  0.79271703639E+02 0.  0.
        254    2    1    2    0    0  0.47015121632E+03 -0.41706952838E+03  0.15917982886E+04  0.19331262516E+04  0.89898062012E+03 0.  0.
         23    2    4    4    0    0  0.32283319943E+03 -0.87839457804E+02  0.15127836524E+04  0.15519141909E+04  0.89365719696E+02 0.  0.
         23    2    4    4    0    0  0.14731801689E+03 -0.32923007057E+03  0.79014636200E+02  0.38121206073E+03  0.94785468510E+02 0.  0.
          3    1    3    3  502    0 -0.20784624852E+03  0.15562149456E+03 -0.99896261483E+02  0.27820383831E+03  0.00000000000E+00 0. -1.
         -4    1    3    3    0  502 -0.26230496781E+03  0.26144803382E+03 -0.60621741542E+02  0.37527851800E+03  0.00000000000E+00 0.  1.
         11    1    5    5    0    0  0.26270122126E+03 -0.10126996997E+03  0.13129554381E+04  0.13428028600E+04  0.00000000000E+00 0.  1.
        -11    1    5    5    0    0  0.60131978171E+02  0.13430512170E+02  0.19982821433E+03  0.20911133087E+03  0.00000000000E+00 0. -1.
          3    1    6    6  503    0 -0.81813122822E+01 -0.53127797519E+01  0.12406090718E+02  0.15781970290E+02  0.00000000000E+00 0. -1.
         -3    1    6    6    0  503  0.15549932917E+03 -0.32391729082E+03  0.66608545483E+02  0.36543009044E+03  0.00000000000E+00 0.  1.
<mgrwt>
<rscale>  0 0.21545257E+04</rscale>
<asrwt>0</asrwt>
<pdfrwt beam="1">  1        1 0.30906837E+00 0.21545257E+04</pdfrwt>
<pdfrwt beam="2">  1       -2 0.88871410E-01 0.21545257E+04</pdfrwt>
<totfact> 0.25705368E+00</totfact>
</mgrwt>
</event>
<event>
12    4  0.4280696E-008  0.1419171E+04  0.7818608E-02  0.8940057E-01
          1   -1    0    0  501    0  0.00000000000E+00  0.00000000000E+00  0.67171791409E+03  0.67171791409E+03  0.00000000000E+00 0. -1.
         -2   -1    0    0    0  501 -0.00000000000E+00 -0.00000000000E+00 -0.74958809583E+03  0.74958809583E+03  0.00000000000E+00 0.  1.
        -24    2    1    2    0    0  0.12702941955E+02 -0.36501832794E+02  0.39512319408E+03  0.40502593069E+03  0.80186766351E+02 0.  0.
        254    2    1    2    0    0 -0.12702941955E+02  0.36501832794E+02 -0.47299337582E+03  0.10162800792E+04  0.89867052769E+03 0.  0.
         23    2    4    4    0    0 -0.84329602977E+02 -0.32390702629E+03  0.69581841087E+02  0.35409039426E+03  0.92255791574E+02 0.  0.
         23    2    4    4    0    0  0.71626661022E+02  0.36040885908E+03 -0.54257521691E+03  0.66218968498E+03  0.95301566660E+02 0.  0.
          3    1    3    3  502    0 -0.27226926471E+02 -0.73340195750E+01  0.25258737614E+03  0.25415640057E+03  0.00000000000E+00 0. -1.
         -4    1    3    3    0  502  0.39929868427E+02 -0.29167813219E+02  0.14253581795E+03  0.15086953012E+03  0.00000000000E+00 0.  1.
         11    1    5    5    0    0 -0.80592795041E+02 -0.32928060064E+03  0.72903830052E+02  0.34675045928E+03  0.00000000000E+00 0.  1.
        -11    1    5    5    0    0 -0.37368079358E+01  0.53735743520E+01 -0.33219889653E+01  0.73399349828E+01  0.00000000000E+00 0. -1.
          1    1    6    6  503    0 -0.16648834661E+02  0.15469966849E+02 -0.44088402370E+02  0.49601318465E+02  0.00000000000E+00 0. -1.
         -1    1    6    6    0  503  0.88275495683E+02  0.34493889223E+03 -0.49848681454E+03  0.61258836651E+03  0.00000000000E+00 0.  1.
<mgrwt>
<rscale>  0 0.14191712E+04</rscale>
<asrwt>0</asrwt>
<pdfrwt beam="1">  1        1 0.10334122E+00 0.14191712E+04</pdfrwt>
<pdfrwt beam="2">  1       -2 0.11532125E+00 0.14191712E+04</pdfrwt>
<totfact> 0.14472733E+01</totfact>
</mgrwt>
</event>
<event>
12    4  0.4280696E-008  0.1540704E+04  0.7818608E-02  0.8857827E-01
          1   -1    0    0  501    0  0.00000000000E+00  0.00000000000E+00  0.19311904233E+04  0.19311904233E+04  0.00000000000E+00 0. -1.
         -2   -1    0    0    0  501 -0.00000000000E+00 -0.00000000000E+00 -0.30729349784E+03  0.30729349784E+03  0.00000000000E+00 0.  1.
        -24    2    1    2    0    0 -0.18449193865E+03  0.42264669363E+03  0.24328767886E+03  0.52763062564E+03  0.80855917303E+02 0.  0.
        254    2    1    2    0    0  0.18449193865E+03 -0.42264669363E+03  0.13806092466E+04  0.17108532955E+04  0.89903815484E+03 0.  0.
         23    2    4    4    0    0 -0.29350537183E+03  0.67399825255E+02  0.51422918948E+03  0.60287173676E+03  0.91293657722E+02 0.  0.
         23    2    4    4    0    0  0.47799731048E+03 -0.49004651889E+03  0.86638005710E+03  0.11079815587E+04  0.91551688245E+02 0.  0.
          3    1    3    3  502    0 -0.74968363493E+02  0.17706997826E+03  0.14692049999E+03  0.24199104538E+03  0.00000000000E+00 0. -1.
         -4    1    3    3    0  502 -0.10952357516E+03  0.24557671538E+03  0.96367178869E+02  0.28563958026E+03  0.00000000000E+00 0.  1.
         11    1    5    5    0    0 -0.16402928444E+03  0.39229821833E+01  0.33340524832E+03  0.37159124795E+03  0.00000000000E+00 0.  1.
        -11    1    5    5    0    0 -0.12947608738E+03  0.63476843072E+02  0.18082394116E+03  0.23128048882E+03  0.00000000000E+00 0. -1.
          3    1    6    6  503    0  0.91156075291E+02 -0.14486203871E+03  0.18936522905E+03  0.25525209165E+03  0.00000000000E+00 0. -1.
         -3    1    6    6    0  503  0.38684123519E+03 -0.34518448018E+03  0.67701482805E+03  0.85272946707E+03  0.00000000000E+00 0.  1.
<mgrwt>
<rscale>  0 0.15407041E+04</rscale>
<asrwt>0</asrwt>
<pdfrwt beam="1">  1        1 0.29710621E+00 0.15407041E+04</pdfrwt>
<pdfrwt beam="2">  1       -2 0.47275924E-01 0.15407041E+04</pdfrwt>
<totfact> 0.11915103E+01</totfact>
</mgrwt>
</event>
<event>
12    4  0.4280696E-008  0.2961425E+04  0.7818608E-02  0.8254833E-01
          1   -1    0    0  501    0  0.00000000000E+00  0.00000000000E+00  0.22141058344E+04  0.22141058344E+04  0.00000000000E+00 0. -1.
         -2   -1    0    0    0  501 -0.00000000000E+00 -0.00000000000E+00 -0.99024622555E+03  0.99024622555E+03  0.00000000000E+00 0.  1.
        -24    2    1    2    0    0 -0.53428063839E+03  0.75841177476E+03 -0.49492689563E+03  0.10545147072E+04  0.80027588940E+02 0.  0.
        254    2    1    2    0    0  0.53428063839E+03 -0.75841177476E+03  0.17187865045E+04  0.21498373528E+04  0.89829247730E+03 0.  0.
         23    2    4    4    0    0  0.60361282532E+03 -0.32498352743E+03  0.14983775995E+04  0.16503014455E+04  0.91633477720E+02 0.  0.
         23    2    4    4    0    0 -0.69332186933E+02 -0.43342824734E+03  0.22040890498E+03  0.49953590731E+03  0.91044162712E+02 0.  0.
          1    1    3    3  502    0 -0.46411577964E+03  0.66565990446E+03 -0.46135861050E+03  0.93346576413E+03  0.00000000000E+00 0. -1.
         -2    1    3    3    0  502 -0.70164858748E+02  0.92751870304E+02 -0.33568285124E+02  0.12104894305E+03  0.00000000000E+00 0.  1.
         11    1    5    5    0    0  0.83066700126E+02 -0.67236885114E+02  0.30240659269E+03  0.32073450499E+03  0.00000000000E+00 0. -1.
        -11    1    5    5    0    0  0.52054612519E+03 -0.25774664231E+03  0.11959710068E+04  0.13295669405E+04  0.00000000000E+00 0.  1.
          1    1    6    6  503    0  0.15010843278E+02 -0.14739641262E+03  0.51745375248E+02  0.15693505577E+03  0.00000000000E+00 0. -1.
         -1    1    6    6    0  503 -0.84343030210E+02 -0.28603183471E+03  0.16866352973E+03  0.34260085154E+03  0.00000000000E+00 0.  1.
<mgrwt>
<rscale>  0 0.29614253E+04</rscale>
<asrwt>0</asrwt>
<pdfrwt beam="1">  1        1 0.34063167E+00 0.29614253E+04</pdfrwt>
<pdfrwt beam="2">  1       -2 0.15234557E+00 0.29614253E+04</pdfrwt>
<totfact> 0.45995196E-01</totfact>
</mgrwt>
</event>
<event>
12    4  0.4500985E-008  0.1416319E+04  0.7818608E-02  0.8942090E-01
          1   -1    0    0  501    0  0.00000000000E+00  0.00000000000E+00  0.16162240123E+04  0.16162240123E+04  0.00000000000E+00 0. -1.
         -2   -1    0    0    0  501 -0.00000000000E+00 -0.00000000000E+00 -0.31028472137E+03  0.31028472137E+03  0.00000000000E+00 0.  1.
        -24    2    1    2    0    0 -0.75762087852E+02 -0.12249240851E+03 -0.13897831480E+03  0.21559365678E+03  0.80133443469E+02 0.  0.
        254    2    1    2    0    0  0.75762087852E+02  0.12249240851E+03  0.14449176057E+04  0.17109150769E+04  0.90481999804E+03 0.  0.
         23    2    4    4    0    0  0.21485258792E+03 -0.18640788606E+03  0.92966239133E+02  0.31415510497E+03  0.95609486137E+02 0.  0.
         23    2    4    4    0    0 -0.13909050007E+03  0.30890029458E+03  0.13519513666E+04  0.13967599719E+04  0.91653490264E+02 0.  0.
          3    1    3    3  502    0 -0.26294436437E+02 -0.15822083058E+02  0.34724395748E+01  0.30883547990E+02  0.00000000000E+00 0. -1.
         -4    1    3    3    0  502 -0.49467651415E+02 -0.10667032546E+03 -0.14245075437E+03  0.18471010879E+03  0.00000000000E+00 0.  1.
         11    1    5    5    0    0  0.27623945452E+02 -0.51551884543E+02  0.55053518116E+02  0.80321659714E+02  0.00000000000E+00 0. -1.
        -11    1    5    5    0    0  0.18722864247E+03 -0.13485600152E+03  0.37912721017E+02  0.23383344526E+03  0.00000000000E+00 0.  1.
          2    1    6    6  503    0  0.72427793578E+01  0.12239496850E+02  0.21316325739E+02  0.25625161052E+02  0.00000000000E+00 0. -1.
         -2    1    6    6    0  503 -0.14633327943E+03  0.29666079773E+03  0.13306350409E+04  0.13711348109E+04  0.00000000000E+00 0.  1.
<mgrwt>
<rscale>  0 0.14163186E+04</rscale>
<asrwt>0</asrwt>
<pdfrwt beam="1">  1        1 0.24864984E+00 0.14163186E+04</pdfrwt>
<pdfrwt beam="2">  1       -2 0.47736112E-01 0.14163186E+04</pdfrwt>
<totfact> 0.19328679E+01</totfact>
</mgrwt>
</event>
<event>
12    4  0.4280696E-008  0.1471627E+04  0.7818608E-02  0.8903543E-01
         -2   -1    0    0    0  501 -0.00000000000E+00  0.00000000000E+00  0.23688963047E+03  0.23688963047E+03  0.00000000000E+00 0.  1.
          1   -1    0    0  501    0  0.00000000000E+00 -0.00000000000E+00 -0.22855439175E+04  0.22855439175E+04  0.00000000000E+00 0. -1.
        -24    2    1    2    0    0 -0.45226789623E+03 -0.55458224416E+02 -0.73690470303E+03  0.87006777357E+03  0.79796770863E+02 0.  0.
        254    2    1    2    0    0  0.45226789623E+03  0.55458224416E+02 -0.13117495840E+04  0.16523657744E+04  0.89554665802E+03 0.  0.
         23    2    4    4    0    0  0.29899380566E+03  0.40163619198E+03 -0.10931917935E+04  0.12058932712E+04  0.91658918944E+02 0.  0.
         23    2    4    4    0    0  0.15327409057E+03 -0.34617796757E+03 -0.21855779051E+03  0.44647250329E+03  0.90763739077E+02 0.  0.
          1    1    3    3  502    0 -0.45012597336E+03 -0.54985279664E+02 -0.73899654484E+03  0.86703671558E+03  0.00000000000E+00 0. -1.
         -2    1    3    3    0  502 -0.21419228717E+01 -0.47294475198E+00  0.20918418178E+01  0.30310579865E+01  0.00000000000E+00 0.  1.
         11    1    5    5    0    0  0.19566389212E+03  0.32671266704E+03 -0.79337467682E+03  0.88003914874E+03  0.00000000000E+00 0. -1.
        -11    1    5    5    0    0  0.10332991353E+03  0.74923524943E+02 -0.29981711671E+03  0.32585412241E+03  0.00000000000E+00 0.  1.
          4    1    6    6  503    0  0.15926087918E+03 -0.29677610153E+03 -0.20716888227E+03  0.39542259401E+03  0.00000000000E+00 0. -1.
         -4    1    6    6    0  503 -0.59867886082E+01 -0.49401866041E+02 -0.11388908235E+02  0.51049909275E+02  0.00000000000E+00 0.  1.
<mgrwt>
<rscale>  0 0.14716272E+04</rscale>
<asrwt>0</asrwt>
<pdfrwt beam="1">  1        1 0.35162215E+00 0.14716272E+04</pdfrwt>
<pdfrwt beam="2">  1       -2 0.36444558E-01 0.14716272E+04</pdfrwt>
<totfact> 0.11508901E+01</totfact>
</mgrwt>
</event>
<event>
12    4  0.4280696E-008  0.1037828E+04  0.7818608E-02  0.9268001E-01
          1   -1    0    0  501    0  0.00000000000E+00  0.00000000000E+00  0.43595024341E+03  0.43595024341E+03  0.00000000000E+00 0. -1.
         -2   -1    0    0    0  501 -0.00000000000E+00 -0.00000000000E+00 -0.61766662893E+03  0.61766662893E+03  0.00000000000E+00 0.  1.
        -24    2    1    2    0    0  0.40781778200E+02 -0.19003587254E+02  0.74215592236E+02  0.11802823364E+03  0.79990124660E+02 0.  0.
        254    2    1    2    0    0 -0.40781778200E+02  0.19003587254E+02 -0.25593197776E+03  0.93558863870E+03  0.89877729937E+03 0.  0.
         23    2    4    4    0    0 -0.10065403504E+03  0.31671213365E+03 -0.44724091708E+03  0.56474338090E+03  0.92048020068E+02 0.  0.
         23    2    4    4    0    0  0.59872256845E+02 -0.29770854639E+03  0.19130893932E+03  0.37084525780E+03  0.93338251721E+02 0.  0.
          1    1    3    3  502    0  0.24037478707E+02 -0.50572588072E+02  0.47118145493E+02  0.73181327411E+02  0.00000000000E+00 0. -1.
         -2    1    3    3    0  502  0.16744299492E+02  0.31569000818E+02  0.27097446743E+02  0.44846906227E+02  0.00000000000E+00 0.  1.
         11    1    5    5    0    0 -0.38972029613E+02  0.37263094251E+02 -0.40592406892E+02  0.67491486742E+02  0.00000000000E+00 0.  1.
        -11    1    5    5    0    0 -0.61682005432E+02  0.27944903940E+03 -0.40664851018E+03  0.49725189416E+03  0.00000000000E+00 0. -1.
          4    1    6    6  503    0  0.76233831356E+02 -0.25253370538E+03  0.18542543110E+03  0.32243985469E+03  0.00000000000E+00 0. -1.
         -4    1    6    6    0  503 -0.16361574510E+02 -0.45174841013E+02  0.58835082200E+01  0.48405403107E+02  0.00000000000E+00 0.  1.
<mgrwt>
<rscale>  0 0.10378283E+04</rscale>
<asrwt>0</asrwt>
<pdfrwt beam="1">  1        1 0.67069269E-01 0.10378283E+04</pdfrwt>
<pdfrwt beam="2">  1       -2 0.95025634E-01 0.10378283E+04</pdfrwt>
<totfact> 0.43543318E+01</totfact>
</mgrwt>
</event>
<event>
12    4  0.4280696E-008  0.1441014E+04  0.7818608E-02  0.8924654E-01
         -2   -1    0    0    0  501 -0.00000000000E+00  0.00000000000E+00  0.36533424193E+03  0.36533424193E+03  0.00000000000E+00 0.  1.
          1   -1    0    0  501    0  0.00000000000E+00 -0.00000000000E+00 -0.14209726961E+04  0.14209726961E+04  0.00000000000E+00 0. -1.
        -24    2    1    2    0    0 -0.31587831683E+03 -0.15491509857E+02 -0.68870452373E+03  0.76202555687E+03  0.79686450528E+02 0.  0.
        254    2    1    2    0    0  0.31587831683E+03  0.15491509857E+02 -0.36693393041E+03  0.10242813811E+04  0.90249251550E+03 0.  0.
         23    2    4    4    0    0  0.51716271176E+03  0.40507275228E+02  0.73667343630E+02  0.53101726012E+03  0.86338538606E+02 0.  0.
         23    2    4    4    0    0 -0.20128439493E+03 -0.25015765372E+02 -0.44060127404E+03  0.49326412102E+03  0.89659434752E+02 0.  0.
          1    1    3    3  502    0 -0.21092521950E+03  0.27012087574E+02 -0.46377135465E+03  0.51019895187E+03  0.00000000000E+00 0. -1.
         -2    1    3    3    0  502 -0.10495309733E+03 -0.42503597430E+02 -0.22493316908E+03  0.25182660500E+03  0.00000000000E+00 0.  1.
         11    1    5    5    0    0  0.49255574253E+03  0.49798415886E+02  0.85117200358E+02  0.50233054807E+03  0.00000000000E+00 0. -1.
        -11    1    5    5    0    0  0.24606969223E+02 -0.92911406580E+01 -0.11449856728E+02  0.28686712049E+02  0.00000000000E+00 0.  1.
          2    1    6    6  503    0 -0.19756239782E+03 -0.28512351915E+02 -0.35310760405E+03  0.40562154194E+03  0.00000000000E+00 0. -1.
         -2    1    6    6    0  503 -0.37219971047E+01  0.34965865438E+01 -0.87493669986E+02  0.87642579079E+02  0.00000000000E+00 0.  1.
<mgrwt>
<rscale>  0 0.14410135E+04</rscale>
<asrwt>0</asrwt>
<pdfrwt beam="1">  1        1 0.21861118E+00 0.14410135E+04</pdfrwt>
<pdfrwt beam="2">  1       -2 0.56205269E-01 0.14410135E+04</pdfrwt>
<totfact> 0.18817920E+01</totfact>
</mgrwt>
</event>
<event>
12    4  0.4280696E-008  0.1481643E+04  0.7818608E-02  0.8896753E-01
         -2   -1    0    0    0  501 -0.00000000000E+00  0.00000000000E+00  0.68920449281E+03  0.68920449281E+03  0.00000000000E+00 0.  1.
          1   -1    0    0  501    0  0.00000000000E+00 -0.00000000000E+00 -0.79630452608E+03  0.79630452608E+03  0.00000000000E+00 0. -1.
        -24    2    1    2    0    0 -0.36108622274E+03  0.28463429098E+01  0.28468803360E+03  0.46606990079E+03  0.76042843359E+02 0.  0.
        254    2    1    2    0    0  0.36108622274E+03 -0.28463429098E+01 -0.39178806688E+03  0.10194391181E+04  0.86911844085E+03 0.  0.
         23    2    4    4    0    0 -0.17255221660E+03  0.23932658399E+03 -0.85221462256E+00  0.30962184863E+03  0.93880145008E+02 0.  0.
         23    2    4    4    0    0  0.53363843934E+03 -0.24217292690E+03 -0.39093585226E+03  0.70981726946E+03  0.87132112250E+02 0.  0.
          3    1    3    3  502    0 -0.16549288194E+03  0.30848661056E+02  0.10117633923E+03  0.19640821134E+03  0.00000000000E+00 0. -1.
         -4    1    3    3    0  502 -0.19559334081E+03 -0.28002318146E+02  0.18351169437E+03  0.26966168945E+03  0.00000000000E+00 0.  1.
         11    1    5    5    0    0 -0.16632935236E+03  0.18326170280E+03  0.22629476729E+02  0.24852041845E+03  0.00000000000E+00 0. -1.
        -11    1    5    5    0    0 -0.62228642351E+01  0.56064881182E+02 -0.23481691352E+02  0.61101430179E+02  0.00000000000E+00 0.  1.
          2    1    6    6  503    0  0.40562690891E+03 -0.18130325323E+03 -0.33898163185E+03  0.55884935859E+03  0.00000000000E+00 0. -1.
         -2    1    6    6    0  503  0.12801153043E+03 -0.60869673666E+02 -0.51954220405E+02  0.15096791088E+03  0.00000000000E+00 0.  1.
<mgrwt>
<rscale>  0 0.14816432E+04</rscale>
<asrwt>0</asrwt>
<pdfrwt beam="1">  1        1 0.12250839E+00 0.14816432E+04</pdfrwt>
<pdfrwt beam="2">  1       -2 0.10603146E+00 0.14816432E+04</pdfrwt>
<totfact> 0.13572690E+01</totfact>
</mgrwt>
</event>
<event>
12    4  0.4280696E-008  0.1650163E+04  0.7818608E-02  0.8790310E-01
          1   -1    0    0  501    0  0.00000000000E+00  0.00000000000E+00  0.29372250461E+04  0.29372250461E+04  0.00000000000E+00 0. -1.
         -2   -1    0    0    0  501 -0.00000000000E+00 -0.00000000000E+00 -0.23176958936E+03  0.23176958936E+03  0.00000000000E+00 0.  1.
        -24    2    1    2    0    0  0.43132872651E+02 -0.22601893785E+03  0.17495721367E+04  0.17664189073E+04  0.79297475384E+02 0.  0.
        254    2    1    2    0    0 -0.43132872651E+02  0.22601893785E+03  0.95588332012E+03  0.14025757282E+04  0.10002803341E+04 0.  0.
         23    2    4    4    0    0  0.25039202089E+03 -0.30068790909E+03  0.26769310536E+03  0.48286499868E+03  0.91594898849E+02 0.  0.
         23    2    4    4    0    0 -0.29352489354E+03  0.52670684695E+03  0.68819021476E+03  0.91971072955E+03  0.93193822865E+02 0.  0.
          1    1    3    3  502    0 -0.90948358641E+01 -0.14566515027E+03  0.11524887389E+04  0.11616933095E+04  0.00000000000E+00 0. -1.
         -2    1    3    3    0  502  0.52227708515E+02 -0.80353787582E+02  0.59708339774E+03  0.60472559775E+03  0.00000000000E+00 0.  1.
         11    1    5    5    0    0  0.12145362431E+03 -0.21224057457E+03  0.17955243843E+03  0.30337455809E+03  0.00000000000E+00 0. -1.
        -11    1    5    5    0    0  0.12893839658E+03 -0.88447334525E+02  0.88140666933E+02  0.17949044059E+03  0.00000000000E+00 0.  1.
          4    1    6    6  503    0 -0.29198290524E+03  0.50309690782E+03  0.63309417166E+03  0.85974923425E+03  0.00000000000E+00 0. -1.
         -4    1    6    6    0  503 -0.15419882991E+01  0.23609939125E+02  0.55096043099E+02  0.59961495300E+02  0.00000000000E+00 0.  1.
<mgrwt>
<rscale>  0 0.16501630E+04</rscale>
<asrwt>0</asrwt>
<pdfrwt beam="1">  1        1 0.45188075E+00 0.16501630E+04</pdfrwt>
<pdfrwt beam="2">  1       -2 0.35656862E-01 0.16501630E+04</pdfrwt>
<totfact> 0.41362158E+00</totfact>
</mgrwt>
</event>
<event>
12    4  0.4280696E-008  0.1192354E+04  0.7818608E-02  0.9119576E-01
         -2   -1    0    0    0  501 -0.00000000000E+00  0.00000000000E+00  0.32247593785E+03  0.32247593785E+03  0.00000000000E+00 0.  1.
          1   -1    0    0  501    0  0.00000000000E+00 -0.00000000000E+00 -0.11021808280E+04  0.11021808280E+04  0.00000000000E+00 0. -1.
        -24    2    1    2    0    0  0.24112795333E+03  0.41309981879E+02 -0.13870133485E+03  0.29203186193E+03  0.78710505085E+02 0.  0.
        254    2    1    2    0    0 -0.24112795333E+03 -0.41309981879E+02 -0.64100355527E+03  0.11326249039E+04  0.90116835862E+03 0.  0.
         23    2    4    4    0    0 -0.35787911474E+03  0.33828912701E+03 -0.48442372205E+03  0.69646635809E+03  0.88780917108E+02 0.  0.
         23    2    4    4    0    0  0.11675116141E+03 -0.37959910889E+03 -0.15657983322E+03  0.43615854581E+03  0.89390803500E+02 0.  0.
          3    1    3    3  502    0  0.51267969197E+02  0.22738245682E+02  0.14931684503E+00  0.56084354127E+02  0.00000000000E+00 0. -1.
         -4    1    3    3    0  502  0.18985998413E+03  0.18571736196E+02 -0.13885065170E+03  0.23594750780E+03  0.00000000000E+00 0.  1.
         11    1    5    5    0    0 -0.35275869372E+03  0.34079975616E+03 -0.48605922746E+03  0.69053366492E+03  0.00000000000E+00 0. -1.
        -11    1    5    5    0    0 -0.51204210241E+01 -0.25106291520E+01  0.16355054136E+01  0.59326931625E+01  0.00000000000E+00 0.  1.
          4    1    6    6  503    0  0.47894268266E+02 -0.28203682719E+03 -0.12781301260E+03  0.31332857995E+03  0.00000000000E+00 0. -1.
         -4    1    6    6    0  503  0.68856893148E+02 -0.97562281702E+02 -0.28766820622E+02  0.12282996586E+03  0.00000000000E+00 0.  1.
<mgrwt>
<rscale>  0 0.11923536E+04</rscale>
<asrwt>0</asrwt>
<pdfrwt beam="1">  1        1 0.16956628E+00 0.11923536E+04</pdfrwt>
<pdfrwt beam="2">  1       -2 0.49611683E-01 0.11923536E+04</pdfrwt>
<totfact> 0.42164783E+01</totfact>
</mgrwt>
</event>
<event>
12    4  0.4280696E-008  0.2498929E+04  0.7818608E-02  0.8403367E-01
         -2   -1    0    0    0  501 -0.00000000000E+00  0.00000000000E+00  0.10707611474E+04  0.10707611474E+04  0.00000000000E+00 0.  1.
          1   -1    0    0  501    0  0.00000000000E+00 -0.00000000000E+00 -0.14579926909E+04  0.14579926909E+04  0.00000000000E+00 0. -1.
        -24    2    1    2    0    0 -0.70392088223E+03  0.18397629939E+03  0.61367228332E+03  0.95516045813E+03  0.79912090995E+02 0.  0.
        254    2    1    2    0    0  0.70392088223E+03 -0.18397629939E+03 -0.10009038267E+04  0.15735933802E+04  0.97212950198E+03 0.  0.
         23    2    4    4    0    0 -0.14794831339E+03 -0.29814285203E+03 -0.22545544149E+03  0.41247715715E+03  0.92354671877E+02 0.  0.
         23    2    4    4    0    0  0.85186919562E+03  0.11416655265E+03 -0.77544838525E+03  0.11611162230E+04  0.90308122769E+02 0.  0.
          3    1    3    3  502    0 -0.59306960658E+02  0.33217296963E+01  0.76406108830E+02  0.96779351812E+02  0.00000000000E+00 0. -1.
         -4    1    3    3    0  502 -0.64461392157E+03  0.18065456969E+03  0.53726617449E+03  0.85838110632E+03  0.00000000000E+00 0.  1.
         11    1    5    5    0    0 -0.11630276306E+03 -0.24284660556E+03 -0.22147271013E+03  0.34864160374E+03  0.00000000000E+00 0.  1.
        -11    1    5    5    0    0 -0.31645550326E+02 -0.55296246472E+02 -0.39827313626E+01  0.63835553405E+02  0.00000000000E+00 0. -1.
          2    1    6    6  503    0  0.48887937905E+02  0.25476030638E+02 -0.65672178693E+02  0.85743184359E+02  0.00000000000E+00 0. -1.
         -2    1    6    6    0  503  0.80298125771E+03  0.88690522008E+02 -0.70977620656E+03  0.10753730387E+04  0.00000000000E+00 0.  1.
<mgrwt>
<rscale>  0 0.24989293E+04</rscale>
<asrwt>0</asrwt>
<pdfrwt beam="1">  1        1 0.22430657E+00 0.24989293E+04</pdfrwt>
<pdfrwt beam="2">  1       -2 0.16473249E+00 0.24989293E+04</pdfrwt>
<totfact> 0.12693995E+00</totfact>
</mgrwt>
</event>
<event>
12    4  0.4280696E-008  0.1648521E+04  0.7818608E-02  0.8791282E-01
         -2   -1    0    0    0  501 -0.00000000000E+00  0.00000000000E+00  0.10277245289E+04  0.10277245289E+04  0.00000000000E+00 0.  1.
          1   -1    0    0  501    0  0.00000000000E+00 -0.00000000000E+00 -0.66107753201E+03  0.66107753201E+03  0.00000000000E+00 0. -1.
        -24    2    1    2    0    0  0.31715655160E+03  0.18143828409E+03  0.57476085678E+03  0.68565391513E+03  0.79139874182E+02 0.  0.
        254    2    1    2    0    0 -0.31715655160E+03 -0.18143828409E+03 -0.20811385987E+03  0.10031481458E+04  0.91076160140E+03 0.  0.
         23    2    4    4    0    0 -0.97752875191E+02 -0.52904105969E+03 -0.31564061430E+02  0.54658238827E+03  0.91191829437E+02 0.  0.
         23    2    4    4    0    0 -0.21940367641E+03  0.34760277559E+03 -0.17654979844E+03  0.45656575752E+03  0.91196473573E+02 0.  0.
          3    1    3    3  502    0  0.22394545104E+02  0.24763076311E+02  0.22221153346E+02  0.40106174772E+02  0.00000000000E+00 0. -1.
         -4    1    3    3    0  502  0.29476200650E+03  0.15667520778E+03  0.55253970344E+03  0.64554774036E+03  0.00000000000E+00 0.  1.
         11    1    5    5    0    0  0.11952466129E+02 -0.53070068113E+02  0.13524868055E+02  0.56055469242E+02  0.00000000000E+00 0. -1.
        -11    1    5    5    0    0 -0.10970534132E+03 -0.47597099157E+03 -0.45088929485E+02  0.49052691903E+03  0.00000000000E+00 0.  1.
          1    1    6    6  503    0 -0.14941314441E+03  0.17714400882E+03 -0.13309599855E+03  0.26724302126E+03  0.00000000000E+00 0. -1.
         -1    1    6    6    0  503 -0.69990531994E+02  0.17045876678E+03 -0.43453799883E+02  0.18932273626E+03  0.00000000000E+00 0.  1.
<mgrwt>
<rscale>  0 0.16485213E+04</rscale>
<asrwt>0</asrwt>
<pdfrwt beam="1">  1        1 0.10170424E+00 0.16485213E+04</pdfrwt>
<pdfrwt beam="2">  1       -2 0.15811147E+00 0.16485213E+04</pdfrwt>
<totfact> 0.64604570E+00</totfact>
</mgrwt>
</event>
<event>
12    4  0.4280696E-008  0.1188082E+04  0.7818608E-02  0.9123353E-01
         -2   -1    0    0    0  501 -0.00000000000E+00  0.00000000000E+00  0.45762987763E+03  0.45762987763E+03  0.00000000000E+00 0.  1.
          1   -1    0    0  501    0  0.00000000000E+00 -0.00000000000E+00 -0.77111346434E+03  0.77111346434E+03  0.00000000000E+00 0. -1.
        -24    2    1    2    0    0 -0.48628751466E+02  0.44518385805E+02 -0.19436057103E+03  0.22046447087E+03  0.80510304938E+02 0.  0.
        254    2    1    2    0    0  0.48628751466E+02 -0.44518385805E+02 -0.11912301568E+03  0.10082788711E+04  0.99904421670E+03 0.  0.
         23    2    4    4    0    0  0.24652658774E+02 -0.40070625754E+03  0.25407950446E+03  0.48380339098E+03  0.91302070730E+02 0.  0.
         23    2    4    4    0    0  0.23976092692E+02  0.35618787173E+03 -0.37320252014E+03  0.52447548013E+03  0.91376995067E+02 0.  0.
          3    1    3    3  502    0 -0.10374303049E+01  0.49939768530E+02 -0.61476922683E+02  0.79211544393E+02  0.00000000000E+00 0. -1.
         -4    1    3    3    0  502 -0.47591321161E+02 -0.54213827256E+01 -0.13288364835E+03  0.14125292648E+03  0.00000000000E+00 0.  1.
         11    1    5    5    0    0 -0.16084854454E+02 -0.19897023207E+03  0.83049082245E+02  0.21620598016E+03  0.00000000000E+00 0.  1.
        -11    1    5    5    0    0  0.40737513228E+02 -0.20173602546E+03  0.17103042222E+03  0.26759741082E+03  0.00000000000E+00 0. -1.
          3    1    6    6  503    0 -0.10307291000E+02  0.11734369550E+03 -0.18115707752E+03  0.21608718115E+03  0.00000000000E+00 0. -1.
         -3    1    6    6    0  503  0.34283383691E+02  0.23884417623E+03 -0.19204544262E+03  0.30838829898E+03  0.00000000000E+00 0.  1.
<mgrwt>
<rscale>  0 0.11880817E+04</rscale>
<asrwt>0</asrwt>
<pdfrwt beam="1">  1        1 0.11863284E+00 0.11880817E+04</pdfrwt>
<pdfrwt beam="2">  1       -2 0.70404597E-01 0.11880817E+04</pdfrwt>
<totfact> 0.37355923E+01</totfact>
</mgrwt>
</event>
<event>
12    4  0.4280696E-008  0.1213761E+04  0.7818608E-02  0.9100896E-01
         -4   -1    0    0    0  501 -0.00000000000E+00  0.00000000000E+00  0.22612954112E+03  0.22612954112E+03  0.00000000000E+00 0.  1.
          1   -1    0    0  501    0  0.00000000000E+00 -0.00000000000E+00 -0.16287308986E+04  0.16287308986E+04  0.00000000000E+00 0. -1.
        -24    2    1    2    0    0  0.34535976431E+02  0.75844534130E+02  0.61338338953E+02  0.13044892717E+03  0.79431755298E+02 0.  0.
        254    2    1    2    0    0 -0.34535976431E+02 -0.75844534130E+02 -0.14639396964E+04  0.17244115125E+04  0.90748581410E+03 0.  0.
         23    2    4    4    0    0  0.24430079727E+03 -0.30477612055E+03 -0.29683446455E+03  0.49936125128E+03  0.93164353337E+02 0.  0.
         23    2    4    4    0    0 -0.27883677370E+03  0.22893158642E+03 -0.11671052318E+04  0.12250502612E+04  0.91945107181E+02 0.  0.
          1    1    3    3  502    0  0.10957089364E+01 -0.11221634737E+02 -0.83430641741E+01  0.14026132184E+02  0.00000000000E+00 0. -1.
         -2    1    3    3    0  502  0.33440267495E+02  0.87066168867E+02  0.69681403128E+02  0.11642279499E+03  0.00000000000E+00 0.  1.
         11    1    5    5    0    0  0.30853194632E+02 -0.10408251851E+03 -0.78011122304E+02  0.13368180685E+03  0.00000000000E+00 0. -1.
        -11    1    5    5    0    0  0.21344760263E+03 -0.20069360204E+03 -0.21882334224E+03  0.36567944443E+03  0.00000000000E+00 0.  1.
          1    1    6    6  503    0 -0.64506704204E+01  0.39264267150E+02 -0.10482858122E+03  0.11212638077E+03  0.00000000000E+00 0. -1.
         -1    1    6    6    0  503 -0.27238610328E+03  0.18966731927E+03 -0.10622766506E+04  0.11129238805E+04  0.00000000000E+00 0.  1.
<mgrwt>
<rscale>  0 0.12137614E+04</rscale>
<asrwt>0</asrwt>
<pdfrwt beam="1">  1        1 0.25057399E+00 0.12137614E+04</pdfrwt>
<pdfrwt beam="2">  1       -4 0.34789159E-01 0.12137614E+04</pdfrwt>
<totfact> 0.20976398E+01</totfact>
</mgrwt>
</event>
<event>
12    4  0.4280696E-008  0.1576199E+04  0.7818608E-02  0.8835305E-01
         -2   -1    0    0    0  501 -0.00000000000E+00  0.00000000000E+00  0.11351113128E+04  0.11351113128E+04  0.00000000000E+00 0.  1.
          1   -1    0    0  501    0  0.00000000000E+00 -0.00000000000E+00 -0.54717146930E+03  0.54717146930E+03  0.00000000000E+00 0. -1.
        -24    2    1    2    0    0 -0.12653090286E+03  0.41220499361E+03 -0.13568626499E+03  0.45917753849E+03  0.80685954228E+02 0.  0.
        254    2    1    2    0    0  0.12653090286E+03 -0.41220499361E+03  0.72362610853E+03  0.12231052437E+04  0.88680813368E+03 0.  0.
         23    2    4    4    0    0  0.28888137783E+03 -0.21285871802E+03  0.84608997346E+03  0.92396774455E+03  0.95325051614E+02 0.  0.
         23    2    4    4    0    0 -0.16235047497E+03 -0.19934627559E+03 -0.12246386494E+03  0.29913749911E+03  0.91592744486E+02 0.  0.
          1    1    3    3  502    0 -0.69645460111E+02  0.26111446578E+03 -0.44869408085E+02  0.27394254532E+03  0.00000000000E+00 0. -1.
         -2    1    3    3    0  502 -0.56885442754E+02  0.15109052783E+03 -0.90816856903E+02  0.18523499317E+03  0.00000000000E+00 0.  1.
         11    1    5    5    0    0  0.70800635156E+02 -0.10627275897E+03  0.32193387787E+03  0.34633517141E+03  0.00000000000E+00 0. -1.
        -11    1    5    5    0    0  0.21808074268E+03 -0.10658595906E+03  0.52415609560E+03  0.57763257314E+03  0.00000000000E+00 0.  1.
          3    1    6    6  503    0 -0.11811377976E+03 -0.98948465005E+02 -0.10869879359E+03  0.18856588085E+03  0.00000000000E+00 0.  1.
         -3    1    6    6    0  503 -0.44236695215E+02 -0.10039781058E+03 -0.13765071347E+02  0.11057161825E+03  0.00000000000E+00 0. -1.
<mgrwt>
<rscale>  0 0.15761986E+04</rscale>
<asrwt>0</asrwt>
<pdfrwt beam="1">  1        1 0.84180226E-01 0.15761986E+04</pdfrwt>
<pdfrwt beam="2">  1       -2 0.17463251E+00 0.15761986E+04</pdfrwt>
<totfact> 0.64902666E+00</totfact>
</mgrwt>
</event>
<event>
12    4  0.4280696E-008  0.1227468E+04  0.7818608E-02  0.9089148E-01
         -2   -1    0    0    0  501 -0.00000000000E+00  0.00000000000E+00  0.54559044087E+03  0.54559044087E+03  0.00000000000E+00 0.  1.
          1   -1    0    0  501    0  0.00000000000E+00 -0.00000000000E+00 -0.69038819121E+03  0.69038819121E+03  0.00000000000E+00 0. -1.
        -24    2    1    2    0    0 -0.23747968835E+03  0.24646522943E+03  0.30492081290E+02  0.35276239556E+03  0.79811208487E+02 0.  0.
        254    2    1    2    0    0  0.23747968835E+03 -0.24646522943E+03 -0.17528983163E+03  0.88321623652E+03  0.79511174289E+03 0.  0.
         23    2    4    4    0    0 -0.36776300701E+02  0.20864804537E+03 -0.24829603611E+03  0.33918608359E+03  0.92248439694E+02 0.  0.
         23    2    4    4    0    0  0.27425598905E+03 -0.45511327480E+03  0.73006204477E+02  0.54403015293E+03  0.91073931390E+02 0.  0.
          1    1    3    3  502    0 -0.64674379770E+02  0.34647042851E+02 -0.16970542636E+02  0.75307318996E+02  0.00000000000E+00 0. -1.
         -2    1    3    3    0  502 -0.17280530858E+03  0.21181818658E+03  0.47462623926E+02  0.27745507656E+03  0.00000000000E+00 0.  1.
         11    1    5    5    0    0 -0.41595704317E+02  0.43023656220E+02 -0.35833641191E+02  0.69751612549E+02  0.00000000000E+00 0. -1.
        -11    1    5    5    0    0  0.48194036160E+01  0.16562438915E+03 -0.21246239492E+03  0.26943447104E+03  0.00000000000E+00 0.  1.
          3    1    6    6  503    0  0.42795332110E+02 -0.15080508707E+03  0.23246196695E+02  0.15847397388E+03  0.00000000000E+00 0.  1.
         -3    1    6    6    0  503  0.23146065694E+03 -0.30430818773E+03  0.49760007783E+02  0.38555617905E+03  0.00000000000E+00 0. -1.
<mgrwt>
<rscale>  0 0.12274676E+04</rscale>
<asrwt>0</asrwt>
<pdfrwt beam="1">  1        1 0.10621357E+00 0.12274676E+04</pdfrwt>
<pdfrwt beam="2">  1       -2 0.83936992E-01 0.12274676E+04</pdfrwt>
<totfact> 0.29846587E+01</totfact>
</mgrwt>
</event>
<event>
12    4  0.4280696E-008  0.1617810E+04  0.7818608E-02  0.8809681E-01
          1   -1    0    0  501    0  0.00000000000E+00  0.00000000000E+00  0.46920228147E+03  0.46920228147E+03  0.00000000000E+00 0. -1.
         -2   -1    0    0    0  501 -0.00000000000E+00 -0.00000000000E+00 -0.13945526473E+04  0.13945526473E+04  0.00000000000E+00 0.  1.
        -24    2    1    2    0    0 -0.39019031226E+03 -0.39909234623E+03 -0.35714303419E+03  0.66745617484E+03  0.80146227954E+02 0.  0.
        254    2    1    2    0    0  0.39019031226E+03  0.39909234623E+03 -0.56820733167E+03  0.11962987540E+04  0.89260739206E+03 0.  0.
         23    2    4    4    0    0  0.54985647883E+03  0.55286964185E+03 -0.30406825271E+03  0.84200577995E+03  0.92245558045E+02 0.  0.
         23    2    4    4    0    0 -0.15966616657E+03 -0.15377729562E+03 -0.26413907896E+03  0.35429297400E+03  0.81322303213E+02 0.  0.
          3    1    3    3  502    0 -0.26383415756E+03 -0.22423317755E+03 -0.19325812862E+03  0.39653207296E+03  0.00000000000E+00 0. -1.
         -4    1    3    3    0  502 -0.12635615470E+03 -0.17485916868E+03 -0.16388490557E+03  0.27092410188E+03  0.00000000000E+00 0.  1.
         11    1    5    5    0    0  0.49945510476E+03  0.46543680120E+03 -0.28227480781E+03  0.73875969348E+03  0.00000000000E+00 0. -1.
        -11    1    5    5    0    0  0.50401374073E+02  0.87432840648E+02 -0.21793444898E+02  0.10324608648E+03  0.00000000000E+00 0.  1.
          1    1    6    6  503    0 -0.11311507833E+03 -0.14285036666E+03 -0.17242161549E+03  0.25085944609E+03  0.00000000000E+00 0. -1.
         -1    1    6    6    0  503 -0.46551088235E+02 -0.10926928957E+02 -0.91717463470E+02  0.10343352792E+03  0.00000000000E+00 0.  1.
<mgrwt>
<rscale>  0 0.16178100E+04</rscale>
<asrwt>0</asrwt>
<pdfrwt beam="1">  1        1 0.72184967E-01 0.16178100E+04</pdfrwt>
<pdfrwt beam="2">  1       -2 0.21454656E+00 0.16178100E+04</pdfrwt>
<totfact> 0.43365761E+00</totfact>
</mgrwt>
</event>
<event>
12    4  0.4280696E-008  0.2026794E+04  0.7818608E-02  0.8594195E-01
         -2   -1    0    0    0  501 -0.00000000000E+00  0.00000000000E+00  0.63684608993E+03  0.63684608993E+03  0.00000000000E+00 0.  1.
          1   -1    0    0  501    0  0.00000000000E+00 -0.00000000000E+00 -0.16125931972E+04  0.16125931972E+04  0.00000000000E+00 0. -1.
        -24    2    1    2    0    0  0.40355192619E+03  0.67224069120E+03 -0.67535903211E+03  0.10379637989E+04  0.80605965211E+02 0.  0.
        254    2    1    2    0    0 -0.40355192619E+03 -0.67224069120E+03 -0.30038807519E+03  0.12114754882E+04  0.87331446731E+03 0.  0.
         23    2    4    4    0    0 -0.56704961647E+03 -0.63861765287E+03 -0.32240448862E+01  0.85864274430E+03  0.88764822776E+02 0.  0.
         23    2    4    4    0    0  0.16349769028E+03 -0.33623038324E+02 -0.29716403031E+03  0.35283274393E+03  0.91227632039E+02 0.  0.
          1    1    3    3  502    0  0.18534029704E+03  0.34241607694E+03 -0.38298417488E+03  0.54614711723E+03  0.00000000000E+00 0. -1.
         -2    1    3    3    0  502  0.21821162915E+03  0.32982461425E+03 -0.29237485723E+03  0.49181668171E+03  0.00000000000E+00 0.  1.
         11    1    5    5    0    0 -0.15659018731E+03 -0.17484671196E+03 -0.40562453418E+02  0.23819565923E+03  0.00000000000E+00 0. -1.
        -11    1    5    5    0    0 -0.41045942916E+03 -0.46377094091E+03  0.37338408532E+02  0.62044708507E+03  0.00000000000E+00 0.  1.
          3    1    6    6  503    0  0.40138257707E+02  0.30831401887E+02 -0.69108000949E+02  0.85659622164E+02  0.00000000000E+00 0. -1.
         -3    1    6    6    0  503  0.12335943257E+03 -0.64454440210E+02 -0.22805602936E+03  0.26717312177E+03  0.00000000000E+00 0.  1.
<mgrwt>
<rscale>  0 0.20267942E+04</rscale>
<asrwt>0</asrwt>
<pdfrwt beam="1">  1        1 0.24809126E+00 0.20267942E+04</pdfrwt>
<pdfrwt beam="2">  1       -2 0.97976322E-01 0.20267942E+04</pdfrwt>
<totfact> 0.38527981E+00</totfact>
</mgrwt>
</event>
<event>
12    4  0.4280696E-008  0.1184378E+04  0.7818608E-02  0.9126641E-01
         -4   -1    0    0    0  501 -0.00000000000E+00  0.00000000000E+00  0.66075092684E+03  0.66075092684E+03  0.00000000000E+00 0.  1.
          3   -1    0    0  501    0  0.00000000000E+00 -0.00000000000E+00 -0.53074151744E+03  0.53074151744E+03  0.00000000000E+00 0. -1.
        -24    2    1    2    0    0  0.69093413681E+02 -0.11107620643E+03 -0.17917888173E+03  0.23609759639E+03  0.80778585737E+02 0.  0.
        254    2    1    2    0    0 -0.69093413681E+02  0.11107620643E+03  0.30918829112E+03  0.95539484790E+03  0.89446637308E+03 0.  0.
         23    2    4    4    0    0 -0.10303127254E+03  0.13513606680E+03  0.60936935612E+03  0.63942605504E+03  0.93045515802E+02 0.  0.
         23    2    4    4    0    0  0.33937858858E+02 -0.24059860371E+02 -0.30018106500E+03  0.31596879286E+03  0.89425673776E+02 0.  0.
          3    1    3    3  502    0  0.60262856978E+02 -0.10756647917E+03 -0.18686449255E+03  0.22387607722E+03  0.00000000000E+00 0. -1.
         -4    1    3    3    0  502  0.88305567030E+01 -0.35097272549E+01  0.76856108241E+01  0.12221519170E+02  0.00000000000E+00 0.  1.
         11    1    5    5    0    0 -0.18945341457E+02  0.42898718939E+02  0.33164913155E+03  0.33494831319E+03  0.00000000000E+00 0.  1.
        -11    1    5    5    0    0 -0.84085931082E+02  0.92237347861E+02  0.27772022457E+03  0.30447774185E+03  0.00000000000E+00 0. -1.
          1    1    6    6  503    0  0.36079747420E+02 -0.52327867617E+02 -0.25356037321E+03  0.26140546430E+03  0.00000000000E+00 0. -1.
         -1    1    6    6    0  503 -0.21418885619E+01  0.28268007246E+02 -0.46620691787E+02  0.54563328555E+02  0.00000000000E+00 0.  1.
<mgrwt>
<rscale>  0 0.11843782E+04</rscale>
<asrwt>0</asrwt>
<pdfrwt beam="1">  1        3 0.81652542E-01 0.11843782E+04</pdfrwt>
<pdfrwt beam="2">  1       -4 0.10165399E+00 0.11843782E+04</pdfrwt>
<totfact> 0.24923350E+00</totfact>
</mgrwt>
</event>
<event>
12    4  0.4280696E-008  0.1902593E+04  0.7818608E-02  0.8653567E-01
          1   -1    0    0  501    0  0.00000000000E+00  0.00000000000E+00  0.19177719041E+04  0.19177719041E+04  0.00000000000E+00 0. -1.
         -2   -1    0    0    0  501 -0.00000000000E+00 -0.00000000000E+00 -0.47188375121E+03  0.47188375121E+03  0.00000000000E+00 0.  1.
        -24    2    1    2    0    0  0.27421716974E+03 -0.16066854008E+02 -0.29338357368E+03  0.41005823813E+03  0.81367299176E+02 0.  0.
        254    2    1    2    0    0 -0.27421716974E+03  0.16066854008E+02  0.17392717266E+04  0.19795974172E+04  0.90459194958E+03 0.  0.
         23    2    4    4    0    0  0.75125740766E+02  0.70975413124E+02 -0.55520903753E+02  0.14803447500E+03  0.90278728621E+02 0.  0.
         23    2    4    4    0    0 -0.34934291050E+03 -0.54908559117E+02  0.17947926303E+04  0.18315629422E+04  0.91031897038E+02 0.  0.
          3    1    3    3  502    0  0.14621932635E+03  0.47096768260E+01 -0.20984097600E+03  0.25580365060E+03  0.00000000000E+00 0. -1.
         -4    1    3    3    0  502  0.12799784339E+03 -0.20776530834E+02 -0.83542597688E+02  0.15425458753E+03  0.00000000000E+00 0.  1.
         11    1    5    5    0    0 -0.10982484976E+02  0.35304131268E+02 -0.38333857689E+02  0.53258626589E+02  0.00000000000E+00 0. -1.
        -11    1    5    5    0    0  0.86108225742E+02  0.35671281857E+02 -0.17187046064E+02  0.94775848412E+02  0.00000000000E+00 0.  1.
          1    1    6    6  503    0 -0.11754837282E+03 -0.45344649963E+02  0.81491695606E+03  0.82459893433E+03  0.00000000000E+00 0. -1.
         -1    1    6    6    0  503 -0.23179453768E+03 -0.95639091540E+01  0.97987567426E+03  0.10069640078E+04  0.00000000000E+00 0.  1.
<mgrwt>
<rscale>  0 0.19025934E+04</rscale>
<asrwt>0</asrwt>
<pdfrwt beam="1">  1        1 0.29504183E+00 0.19025934E+04</pdfrwt>
<pdfrwt beam="2">  1       -2 0.72597501E-01 0.19025934E+04</pdfrwt>
<totfact> 0.47762265E+00</totfact>
</mgrwt>
</event>
<event>
12    4  0.4280696E-008  0.1908479E+04  0.7818608E-02  0.8650647E-01
         -2   -1    0    0    0  501 -0.00000000000E+00  0.00000000000E+00  0.55471683046E+03  0.55471683046E+03  0.00000000000E+00 0.  1.
          1   -1    0    0  501    0  0.00000000000E+00 -0.00000000000E+00 -0.16415099050E+04  0.16415099050E+04  0.00000000000E+00 0. -1.
        -24    2    1    2    0    0  0.41624500672E+03 -0.61332638315E+03 -0.39664064870E+03  0.84440697170E+03  0.79184416147E+02 0.  0.
        254    2    1    2    0    0 -0.41624500672E+03  0.61332638315E+03 -0.69015242582E+03  0.13518197637E+04  0.89536425262E+03 0.  0.
         23    2    4    4    0    0 -0.25034722342E+03  0.78617771920E+03 -0.29533918858E+03  0.88103533829E+03  0.90823414255E+02 0.  0.
         23    2    4    4    0    0 -0.16589778331E+03 -0.17285133605E+03 -0.39481323725E+03  0.47078442545E+03  0.91437541830E+02 0.  0.
          3    1    3    3  502    0  0.45358676143E+02 -0.77544542509E+02 -0.78329224023E+02  0.11918906372E+03  0.00000000000E+00 0. -1.
         -4    1    3    3    0  502  0.37088633058E+03 -0.53578184064E+03 -0.31831142468E+03  0.72521790798E+03  0.00000000000E+00 0.  1.
         11    1    5    5    0    0 -0.54550793815E+02  0.87724692275E+02 -0.20381117113E+02  0.10529387767E+03  0.00000000000E+00 0. -1.
        -11    1    5    5    0    0 -0.19579642960E+03  0.69845302692E+03 -0.27495807146E+03  0.77574146062E+03  0.00000000000E+00 0.  1.
          3    1    6    6  503    0 -0.11786355017E+02 -0.43751212087E+01 -0.84987117122E+02  0.85911989425E+02  0.00000000000E+00 0. -1.
         -3    1    6    6    0  503 -0.15411142829E+03 -0.16847621484E+03 -0.30982612013E+03  0.38487243602E+03  0.00000000000E+00 0.  1.
<mgrwt>
<rscale>  0 0.19084792E+04</rscale>
<asrwt>0</asrwt>
<pdfrwt beam="1">  1        1 0.25253999E+00 0.19084792E+04</pdfrwt>
<pdfrwt beam="2">  1       -2 0.85341050E-01 0.19084792E+04</pdfrwt>
<totfact> 0.51206590E+00</totfact>
</mgrwt>
</event>
<event>
12    4  0.4398420E-008  0.1784742E+04  0.7818608E-02  0.8714456E-01
         -2   -1    0    0    0  501 -0.00000000000E+00  0.00000000000E+00  0.64250459377E+03  0.64250459377E+03  0.00000000000E+00 0.  1.
          1   -1    0    0  501    0  0.00000000000E+00 -0.00000000000E+00 -0.12394088282E+04  0.12394088282E+04  0.00000000000E+00 0. -1.
        -24    2    1    2    0    0 -0.37857157538E+03  0.53342524014E+03 -0.32591809145E+03  0.73509577173E+03  0.79273367390E+02 0.  0.
        254    2    1    2    0    0  0.37857157538E+03 -0.53342524014E+03 -0.27098614300E+03  0.11468176503E+04  0.90216312759E+03 0.  0.
         23    2    4    4    0    0  0.18302444654E+03 -0.30319309893E+03 -0.59245934185E+03  0.69649640298E+03  0.93140562375E+02 0.  0.
         23    2    4    4    0    0  0.19554712883E+03 -0.23023214121E+03  0.32147319884E+03  0.45032124729E+03  0.90546616405E+02 0.  0.
          1    1    3    3  502    0 -0.35120058651E+03  0.50123211931E+03 -0.28108212802E+03  0.67348545054E+03  0.00000000000E+00 0. -1.
         -2    1    3    3    0  502 -0.27370988872E+02  0.32193120826E+02 -0.44835963437E+02  0.61610321195E+02  0.00000000000E+00 0.  1.
         11    1    5    5    0    0  0.11147444443E+03 -0.22811596540E+03 -0.34648952616E+03  0.42955609316E+03  0.00000000000E+00 0. -1.
        -11    1    5    5    0    0  0.71550002111E+02 -0.75077133526E+02 -0.24596981568E+03  0.26694030982E+03  0.00000000000E+00 0.  1.
          1    1    6    6  503    0  0.18133369627E+03 -0.23151836441E+03  0.32194697318E+03  0.43604187414E+03  0.00000000000E+00 0. -1.
         -1    1    6    6    0  503  0.14213432565E+02  0.12862231994E+01 -0.47377433794E+00  0.14279373149E+02  0.00000000000E+00 0.  1.
<mgrwt>
<rscale>  0 0.17847418E+04</rscale>
<asrwt>0</asrwt>
<pdfrwt beam="1">  1        1 0.19067828E+00 0.17847418E+04</pdfrwt>
<pdfrwt beam="2">  1       -2 0.98846862E-01 0.17847418E+04</pdfrwt>
<totfact> 0.70380075E+00</totfact>
</mgrwt>
</event>
<event>
12    4  0.4280696E-008  0.1948915E+04  0.7818608E-02  0.8630884E-01
         -2   -1    0    0    0  501 -0.00000000000E+00  0.00000000000E+00  0.11537712766E+04  0.11537712766E+04  0.00000000000E+00 0.  1.
          1   -1    0    0  501    0  0.00000000000E+00 -0.00000000000E+00 -0.82301208758E+03  0.82301208758E+03  0.00000000000E+00 0. -1.
        -24    2    1    2    0    0  0.70401879141E+03 -0.28308286868E+03  0.13578111573E+03  0.77487779549E+03  0.78871524378E+02 0.  0.
        254    2    1    2    0    0 -0.70401879141E+03  0.28308286868E+03  0.19497807326E+03  0.12019055687E+04  0.91147253261E+03 0.  0.
         23    2    4    4    0    0 -0.68903563516E+03  0.24545574394E+03  0.49356755337E+03  0.88686299797E+03  0.88873048077E+02 0.  0.
         23    2    4    4    0    0 -0.14983156254E+02  0.37627124744E+02 -0.29858948011E+03  0.31504257069E+03  0.91955686203E+02 0.  0.
          1    1    3    3  502    0  0.15682851432E+03 -0.33399334479E+02  0.11884171591E+02  0.16078535997E+03  0.00000000000E+00 0. -1.
         -2    1    3    3    0  502  0.54719027709E+03 -0.24968353420E+03  0.12389694414E+03  0.61409243552E+03  0.00000000000E+00 0.  1.
         11    1    5    5    0    0 -0.32960738713E+03  0.16139424130E+03  0.22672682896E+03  0.43138635322E+03  0.00000000000E+00 0. -1.
        -11    1    5    5    0    0 -0.35942824802E+03  0.84061502643E+02  0.26684072441E+03  0.45547664475E+03  0.00000000000E+00 0.  1.
          3    1    6    6  503    0  0.22520978827E+02  0.98983578541E+01 -0.23445142794E+03  0.23573850775E+03  0.00000000000E+00 0. -1.
         -3    1    6    6    0  503 -0.37504135081E+02  0.27728766890E+02 -0.64138052171E+02  0.79304062933E+02  0.00000000000E+00 0.  1.
<mgrwt>
<rscale>  0 0.19489153E+04</rscale>
<asrwt>0</asrwt>
<pdfrwt beam="1">  1        1 0.12661724E+00 0.19489153E+04</pdfrwt>
<pdfrwt beam="2">  1       -2 0.17750327E+00 0.19489153E+04</pdfrwt>
<totfact> 0.32518654E+00</totfact>
</mgrwt>
</event>
<event>
12    4  0.4280696E-008  0.1591436E+04  0.7818608E-02  0.8825827E-01
          3   -1    0    0  501    0  0.00000000000E+00  0.00000000000E+00  0.36843670140E+03  0.36843670140E+03  0.00000000000E+00 0. -1.
         -4   -1    0    0    0  501 -0.00000000000E+00 -0.00000000000E+00 -0.17185235992E+04  0.17185235992E+04  0.00000000000E+00 0.  1.
        -24    2    1    2    0    0 -0.31342607389E+03 -0.17916700749E+03 -0.97922841457E+03  0.10469857331E+04  0.83391348181E+02 0.  0.
        254    2    1    2    0    0  0.31342607389E+03  0.17916700749E+03 -0.37085848324E+03  0.10399745676E+04  0.90203900482E+03 0.  0.
         23    2    4    4    0    0 -0.13922653917E+03 -0.27046045807E+03 -0.19255336921E+03  0.37123926689E+03  0.90603006026E+02 0.  0.
         23    2    4    4    0    0  0.45265261305E+03  0.44962746556E+03 -0.17830511403E+03  0.66873530067E+03  0.91405376090E+02 0.  0.
          1    1    3    3  502    0 -0.18129150332E+03 -0.90144499153E+02 -0.65751335384E+03  0.68797997818E+03  0.00000000000E+00 0. -1.
         -2    1    3    3    0  502 -0.13213457056E+03 -0.89022508339E+02 -0.32171506073E+03  0.35900575487E+03  0.00000000000E+00 0.  1.
         11    1    5    5    0    0 -0.32348904670E+02 -0.15416815984E+03 -0.75723645894E+02  0.17478084474E+03  0.00000000000E+00 0.  1.
        -11    1    5    5    0    0 -0.10687763450E+03 -0.11629229823E+03 -0.11682972331E+03  0.19645842215E+03  0.00000000000E+00 0. -1.
          3    1    6    6  503    0  0.38746921009E+03  0.38675225708E+03 -0.18513057136E+03  0.57791264528E+03  0.00000000000E+00 0. -1.
         -3    1    6    6    0  503  0.65183402965E+02  0.62875208481E+02  0.68254573310E+01  0.90822655386E+02  0.00000000000E+00 0.  1.
<mgrwt>
<rscale>  0 0.15914360E+04</rscale>
<asrwt>0</asrwt>
<pdfrwt beam="1">  1        3 0.56682569E-01 0.15914360E+04</pdfrwt>
<pdfrwt beam="2">  1       -4 0.26438825E+00 0.15914360E+04</pdfrwt>
<totfact> 0.34601273E-01</totfact>
</mgrwt>
</event>
<event>
12    4  0.4280696E-008  0.1210833E+04  0.7818608E-02  0.9103427E-01
         -2   -1    0    0    0  501 -0.00000000000E+00  0.00000000000E+00  0.62518215063E+03  0.62518215063E+03  0.00000000000E+00 0.  1.
          1   -1    0    0  501    0  0.00000000000E+00 -0.00000000000E+00 -0.58627568915E+03  0.58627568915E+03  0.00000000000E+00 0. -1.
        -24    2    1    2    0    0  0.20772143308E+03  0.66610445501E+02  0.14603493383E+03  0.27378129500E+03  0.77748635883E+02 0.  0.
        254    2    1    2    0    0 -0.20772143308E+03 -0.66610445501E+02 -0.10712847235E+03  0.93767654478E+03  0.90563549391E+03 0.  0.
         23    2    4    4    0    0 -0.45995047787E+03  0.10249664159E+03  0.17726967931E+03  0.51163057332E+03  0.91001652281E+02 0.  0.
         23    2    4    4    0    0  0.25222904479E+03 -0.16910708709E+03 -0.28439815166E+03  0.42604597146E+03  0.91739648944E+02 0.  0.
          3    1    3    3  502    0 -0.40515645875E+01 -0.49756265971E+01 -0.58472861929E+00  0.64431314746E+01  0.00000000000E+00 0. -1.
         -4    1    3    3    0  502  0.21177299767E+03  0.71586072098E+02  0.14661966245E+03  0.26733816352E+03  0.00000000000E+00 0.  1.
         11    1    5    5    0    0 -0.12996012155E+03  0.46287034690E+02  0.12470535273E+02  0.13851944638E+03  0.00000000000E+00 0. -1.
        -11    1    5    5    0    0 -0.32999035632E+03  0.56209606898E+02  0.16479914404E+03  0.37311112694E+03  0.00000000000E+00 0.  1.
          4    1    6    6  503    0  0.16315704808E+02 -0.26091961822E+02 -0.70620471719E+02  0.77034042611E+02  0.00000000000E+00 0. -1.
         -4    1    6    6    0  503  0.23591333998E+03 -0.14301512527E+03 -0.21377767994E+03  0.34901192885E+03  0.00000000000E+00 0.  1.
<mgrwt>
<rscale>  0 0.12108329E+04</rscale>
<asrwt>0</asrwt>
<pdfrwt beam="1">  1        1 0.90196260E-01 0.12108329E+04</pdfrwt>
<pdfrwt beam="2">  1       -2 0.96181870E-01 0.12108329E+04</pdfrwt>
<totfact> 0.27751512E+01</totfact>
</mgrwt>
</event>
<event>
12    4  0.4280696E-008  0.1303811E+04  0.7818608E-02  0.9026549E-01
         -2   -1    0    0    0  501 -0.00000000000E+00  0.00000000000E+00  0.52454542517E+03  0.52454542517E+03  0.00000000000E+00 0.  1.
          1   -1    0    0  501    0  0.00000000000E+00 -0.00000000000E+00 -0.81018854294E+03  0.81018854294E+03  0.00000000000E+00 0. -1.
        -24    2    1    2    0    0 -0.26053671189E+03 -0.20953018214E+03 -0.11138668800E+03  0.36119697331E+03  0.79208483103E+02 0.  0.
        254    2    1    2    0    0  0.26053671189E+03  0.20953018214E+03 -0.17425642977E+03  0.97353699479E+03  0.89756710135E+03 0.  0.
         23    2    4    4    0    0 -0.27343844569E+03 -0.10097653720E+03  0.51251464150E+02  0.30954825064E+03  0.90711422917E+02 0.  0.
         23    2    4    4    0    0  0.53397515759E+03  0.31050671934E+03 -0.22550789392E+03  0.66398874415E+03  0.92105105533E+02 0.  0.
          1    1    3    3  502    0 -0.70195469032E+01  0.56668082190E+01  0.30457414173E+01  0.95217275164E+01  0.00000000000E+00 0. -1.
         -2    1    3    3    0  502 -0.25351716499E+03 -0.21519699036E+03 -0.11443242941E+03  0.35167524580E+03  0.00000000000E+00 0.  1.
         11    1    5    5    0    0 -0.22033128799E+03 -0.40314315914E+02  0.28636213806E+02  0.22581220799E+03  0.00000000000E+00 0. -1.
        -11    1    5    5    0    0 -0.53107157700E+02 -0.60662221284E+02  0.22615250345E+02  0.83736042647E+02  0.00000000000E+00 0.  1.
          1    1    6    6  503    0  0.23646907268E+03  0.18822725685E+03 -0.12414618093E+03  0.32674056497E+03  0.00000000000E+00 0. -1.
         -1    1    6    6    0  503  0.29750608490E+03  0.12227946249E+03 -0.10136171299E+03  0.33724817918E+03  0.00000000000E+00 0.  1.
<mgrwt>
<rscale>  0 0.13038109E+04</rscale>
<asrwt>0</asrwt>
<pdfrwt beam="1">  1        1 0.12464439E+00 0.13038109E+04</pdfrwt>
<pdfrwt beam="2">  1       -2 0.80699296E-01 0.13038109E+04</pdfrwt>
<totfact> 0.25273172E+01</totfact>
</mgrwt>
</event>
<event>
12    4  0.4280696E-008  0.1679725E+04  0.7818608E-02  0.8773013E-01
         -2   -1    0    0    0  501 -0.00000000000E+00  0.00000000000E+00  0.12551078757E+04  0.12551078757E+04  0.00000000000E+00 0.  1.
          1   -1    0    0  501    0  0.00000000000E+00 -0.00000000000E+00 -0.56199890036E+03  0.56199890036E+03  0.00000000000E+00 0. -1.
        -24    2    1    2    0    0 -0.37994452502E+03  0.15344477200E+03  0.70963755222E+03  0.82288207238E+03  0.75141928205E+02 0.  0.
        254    2    1    2    0    0  0.37994452502E+03 -0.15344477200E+03 -0.16528576909E+02  0.99422470366E+03  0.90570769422E+03 0.  0.
         23    2    4    4    0    0  0.37555333883E+03  0.70512705272E+01  0.39011026996E+03  0.54927857030E+03  0.91819901659E+02 0.  0.
         23    2    4    4    0    0  0.43911861834E+01 -0.16049604253E+03 -0.40663884687E+03  0.44494613336E+03  0.82726341788E+02 0.  0.
          1    1    3    3  502    0 -0.97765292989E+02  0.72653228477E+02  0.17976584537E+03  0.21714581111E+03  0.00000000000E+00 0. -1.
         -2    1    3    3    0  502 -0.28217923203E+03  0.80791543522E+02  0.52987170685E+03  0.60573626127E+03  0.00000000000E+00 0.  1.
         11    1    5    5    0    0  0.29275424681E+03  0.89510311980E+01  0.35254273386E+03  0.45833562940E+03  0.00000000000E+00 0.  1.
        -11    1    5    5    0    0  0.82799092026E+02 -0.18997606707E+01  0.37567536102E+02  0.90942940901E+02  0.00000000000E+00 0. -1.
          3    1    6    6  503    0  0.36007241397E+01 -0.39430784967E+02 -0.31022281418E+02  0.50300436994E+02  0.00000000000E+00 0. -1.
         -3    1    6    6    0  503  0.79046204372E+00 -0.12106525756E+03 -0.37561656545E+03  0.39464569636E+03  0.00000000000E+00 0.  1.
<mgrwt>
<rscale>  0 0.16797253E+04</rscale>
<asrwt>0</asrwt>
<pdfrwt beam="1">  1        1 0.86461369E-01 0.16797253E+04</pdfrwt>
<pdfrwt beam="2">  1       -2 0.19309352E+00 0.16797253E+04</pdfrwt>
<totfact> 0.46335680E+00</totfact>
</mgrwt>
</event>
<event>
12    4  0.4280696E-008  0.1432026E+04  0.7818608E-02  0.8930957E-01
          1   -1    0    0  501    0  0.00000000000E+00  0.00000000000E+00  0.76899885246E+03  0.76899885246E+03  0.00000000000E+00 0. -1.
         -2   -1    0    0    0  501 -0.00000000000E+00 -0.00000000000E+00 -0.66667791976E+03  0.66667791976E+03  0.00000000000E+00 0.  1.
        -24    2    1    2    0    0 -0.20605748114E+03  0.21523008468E+03 -0.26336791325E+03  0.40608423595E+03  0.82207506159E+02 0.  0.
        254    2    1    2    0    0  0.20605748114E+03 -0.21523008468E+03  0.36568884595E+03  0.10295925363E+04  0.91517691394E+03 0.  0.
         23    2    4    4    0    0  0.13987329434E+03  0.23039158763E+03  0.47739968741E+03  0.55555927623E+03  0.89949017453E+02 0.  0.
         23    2    4    4    0    0  0.66184186798E+02 -0.44562167231E+03 -0.11171084146E+03  0.47403326005E+03  0.96276674831E+02 0.  0.
          3    1    3    3  502    0 -0.68824581530E+02  0.80640443601E+02 -0.45010250255E+02  0.11517650279E+03  0.00000000000E+00 0. -1.
         -4    1    3    3    0  502 -0.13723289961E+03  0.13458964108E+03 -0.21835766300E+03  0.29090773316E+03  0.00000000000E+00 0.  1.
         11    1    5    5    0    0  0.55223512737E+02  0.14771450592E+03  0.33610613664E+03  0.37126344650E+03  0.00000000000E+00 0.  1.
        -11    1    5    5    0    0  0.84649781607E+02  0.82677081714E+02  0.14129355077E+03  0.18429582973E+03  0.00000000000E+00 0. -1.
          4    1    6    6  503    0  0.91363877386E+02 -0.34077376305E+03 -0.88342257388E+02  0.36370107247E+03  0.00000000000E+00 0.  1.
         -4    1    6    6    0  503 -0.25179690588E+02 -0.10484790926E+03 -0.23368584068E+02  0.11033218758E+03  0.00000000000E+00 0. -1.
<mgrwt>
<rscale>  0 0.14320259E+04</rscale>
<asrwt>0</asrwt>
<pdfrwt beam="1">  1        1 0.11830752E+00 0.14320259E+04</pdfrwt>
<pdfrwt beam="2">  1       -2 0.10256583E+00 0.14320259E+04</pdfrwt>
<totfact> 0.15599895E+01</totfact>
</mgrwt>
</event>
<event>
12    4  0.4280696E-008  0.1442320E+04  0.7818608E-02  0.8923742E-01
          1   -1    0    0  501    0  0.00000000000E+00  0.00000000000E+00  0.72369163538E+03  0.72369163538E+03  0.00000000000E+00 0. -1.
         -2   -1    0    0    0  501 -0.00000000000E+00 -0.00000000000E+00 -0.71863752133E+03  0.71863752133E+03  0.00000000000E+00 0.  1.
        -24    2    1    2    0    0 -0.37557765828E+03 -0.48908766475E+02  0.21329023391E+03  0.44206866251E+03  0.80506730506E+02 0.  0.
        254    2    1    2    0    0  0.37557765828E+03  0.48908766475E+02 -0.20823611986E+03  0.10002604942E+04  0.90205771978E+03 0.  0.
         23    2    4    4    0    0  0.36503814974E+03  0.75552782304E+02  0.29853219862E+03  0.48449097883E+03  0.81541163062E+02 0.  0.
         23    2    4    4    0    0  0.10539508537E+02 -0.26644015830E+02 -0.50676831848E+03  0.51576951537E+03  0.91559158766E+02 0.  0.
          3    1    3    3  502    0 -0.37915235998E+03 -0.46319448906E+02  0.20720922566E+03  0.43455456116E+03  0.00000000000E+00 0. -1.
         -4    1    3    3    0  502  0.35747017033E+01 -0.25893175691E+01  0.60810082559E+01  0.75141013535E+01  0.00000000000E+00 0.  1.
         11    1    5    5    0    0  0.26635394001E+03  0.17473426705E+02  0.21520640247E+03  0.34287539670E+03  0.00000000000E+00 0.  1.
        -11    1    5    5    0    0  0.98684209733E+02  0.58079355600E+02  0.83325796149E+02  0.14161558213E+03  0.00000000000E+00 0. -1.
          1    1    6    6  503    0  0.33542102040E+02 -0.49515764815E+02 -0.25497291184E+03  0.26189324036E+03  0.00000000000E+00 0. -1.
         -1    1    6    6    0  503 -0.23002593502E+02  0.22871748985E+02 -0.25179540664E+03  0.25387627501E+03  0.00000000000E+00 0.  1.
<mgrwt>
<rscale>  0 0.14423203E+04</rscale>
<asrwt>0</asrwt>
<pdfrwt beam="1">  1        1 0.11133717E+00 0.14423203E+04</pdfrwt>
<pdfrwt beam="2">  1       -2 0.11055962E+00 0.14423203E+04</pdfrwt>
<totfact> 0.14297778E+01</totfact>
</mgrwt>
</event>
<event>
12    4  0.4280696E-008  0.2198405E+04  0.7818608E-02  0.8519092E-01
         -2   -1    0    0    0  501 -0.00000000000E+00  0.00000000000E+00  0.95877327326E+03  0.95877327326E+03  0.00000000000E+00 0.  1.
          1   -1    0    0  501    0  0.00000000000E+00 -0.00000000000E+00 -0.12602001314E+04  0.12602001314E+04  0.00000000000E+00 0. -1.
        -24    2    1    2    0    0  0.37103578674E+02  0.84475265349E+03  0.23136873737E+03  0.88044711838E+03  0.81681788099E+02 0.  0.
        254    2    1    2    0    0 -0.37103578674E+02 -0.84475265349E+03 -0.53279559546E+03  0.13385262862E+04  0.89039190879E+03 0.  0.
         23    2    4    4    0    0 -0.89701737852E+02 -0.62616717641E+03 -0.76886411962E+03  0.99972147392E+03  0.90328602270E+02 0.  0.
         23    2    4    4    0    0  0.52598159178E+02 -0.21858547708E+03  0.23606852416E+03  0.33880481231E+03  0.92272290556E+02 0.  0.
          3    1    3    3  502    0  0.25352432785E+02  0.28819911081E+03  0.41461073017E+02  0.29226784616E+03  0.00000000000E+00 0. -1.
         -4    1    3    3    0  502  0.11751145889E+02  0.55655354268E+03  0.18990766435E+03  0.58817927223E+03  0.00000000000E+00 0.  1.
         11    1    5    5    0    0 -0.17779493124E+02 -0.15866289790E+03 -0.25887404555E+03  0.30414765658E+03  0.00000000000E+00 0.  1.
        -11    1    5    5    0    0 -0.71922244728E+02 -0.46750427851E+03 -0.50999007407E+03  0.69557381734E+03  0.00000000000E+00 0. -1.
          4    1    6    6  503    0  0.70686539774E+02 -0.14321887143E+03  0.19163825012E+03  0.24946633229E+03  0.00000000000E+00 0. -1.
         -4    1    6    6    0  503 -0.18088380596E+02 -0.75366605652E+02  0.44430274038E+02  0.89338480014E+02  0.00000000000E+00 0.  1.
<mgrwt>
<rscale>  0 0.21984051E+04</rscale>
<asrwt>0</asrwt>
<pdfrwt beam="1">  1        1 0.19387694E+00 0.21984051E+04</pdfrwt>
<pdfrwt beam="2">  1       -2 0.14750358E+00 0.21984051E+04</pdfrwt>
<totfact> 0.24212951E+00</totfact>
</mgrwt>
</event>
<event>
12    4  0.4280696E-008  0.1871744E+04  0.7818608E-02  0.8669051E-01
         -2   -1    0    0    0  501 -0.00000000000E+00  0.00000000000E+00  0.11140538824E+04  0.11140538824E+04  0.00000000000E+00 0.  1.
          1   -1    0    0  501    0  0.00000000000E+00 -0.00000000000E+00 -0.78618829417E+03  0.78618829417E+03  0.00000000000E+00 0. -1.
        -24    2    1    2    0    0 -0.70613929673E+03  0.12073217918E+03  0.18346314794E+03  0.74378401198E+03  0.79667837582E+02 0.  0.
        254    2    1    2    0    0  0.70613929673E+03 -0.12073217918E+03  0.14440244032E+03  0.11564581646E+04  0.89628927042E+03 0.  0.
         23    2    4    4    0    0  0.26515491126E+03  0.14195767912E+03 -0.32555346735E+03  0.45301721638E+03  0.93703941235E+02 0.  0.
         23    2    4    4    0    0  0.44098438548E+03 -0.26268985829E+03  0.46995590768E+03  0.70344094824E+03  0.10245693056E+03 0.  0.
          3    1    3    3  502    0 -0.25965153863E+03  0.61520916416E+02  0.10421168742E+03  0.28646783495E+03  0.00000000000E+00 0. -1.
         -4    1    3    3    0  502 -0.44648775811E+03  0.59211262762E+02  0.79251460528E+02  0.45731617703E+03  0.00000000000E+00 0.  1.
         11    1    5    5    0    0  0.82090549552E+02  0.44575560469E+02 -0.16937428301E+03  0.19342566185E+03  0.00000000000E+00 0.  1.
        -11    1    5    5    0    0  0.18306436170E+03  0.97382118648E+02 -0.15617918434E+03  0.25959155452E+03  0.00000000000E+00 0. -1.
          1    1    6    6  503    0  0.31827254082E+02  0.56902663449E+01  0.44592475562E+02  0.55080324166E+02  0.00000000000E+00 0. -1.
         -1    1    6    6    0  503  0.40915713139E+03 -0.26838012464E+03  0.42536343212E+03  0.64836062408E+03  0.00000000000E+00 0.  1.
<mgrwt>
<rscale>  0 0.18717437E+04</rscale>
<asrwt>0</asrwt>
<pdfrwt beam="1">  1        1 0.12095205E+00 0.18717437E+04</pdfrwt>
<pdfrwt beam="2">  1       -2 0.17139290E+00 0.18717437E+04</pdfrwt>
<totfact> 0.38896556E+00</totfact>
</mgrwt>
</event>
<event>
12    4  0.4280696E-008  0.2363066E+04  0.7818608E-02  0.8453462E-01
         -2   -1    0    0    0  501 -0.00000000000E+00  0.00000000000E+00  0.53117847096E+03  0.53117847096E+03  0.00000000000E+00 0.  1.
          1   -1    0    0  501    0  0.00000000000E+00 -0.00000000000E+00 -0.26281560942E+04  0.26281560942E+04  0.00000000000E+00 0. -1.
        -24    2    1    2    0    0 -0.38622802232E+03 -0.17071485234E+03  0.32607743291E+03  0.53971534929E+03  0.81550720195E+02 0.  0.
        254    2    1    2    0    0  0.38622802232E+03  0.17071485234E+03 -0.24230550562E+04  0.26196192159E+04  0.90160600319E+03 0.  0.
         23    2    4    4    0    0 -0.12646289836E+03 -0.10717007196E+03 -0.15770878050E+04  0.15884721446E+04  0.92517677583E+02 0.  0.
         23    2    4    4    0    0  0.51269092069E+03  0.27788492430E+03 -0.84596725122E+03  0.10311470713E+04  0.86785259003E+02 0.  0.
          1    1    3    3  502    0 -0.52865456763E+02 -0.57159999105E+02  0.56030755731E+02  0.95924280577E+02  0.00000000000E+00 0. -1.
         -2    1    3    3    0  502 -0.33336256556E+03 -0.11355485323E+03  0.27004667718E+03  0.44379106871E+03  0.00000000000E+00 0.  1.
         11    1    5    5    0    0 -0.11383959630E+03 -0.39733605040E+02 -0.94030622780E+03  0.94800528221E+03  0.00000000000E+00 0.  1.
        -11    1    5    5    0    0 -0.12623302062E+02 -0.67436466918E+02 -0.63678157717E+03  0.64046686241E+03  0.00000000000E+00 0. -1.
          1    1    6    6  503    0  0.33155700522E+03  0.22378748415E+03 -0.59453794670E+03  0.71657955304E+03  0.00000000000E+00 0. -1.
         -1    1    6    6    0  503  0.18113391547E+03  0.54097440149E+02 -0.25142930452E+03  0.31456751824E+03  0.00000000000E+00 0.  1.
<mgrwt>
<rscale>  0 0.23630658E+04</rscale>
<asrwt>0</asrwt>
<pdfrwt beam="1">  1        1 0.40433171E+00 0.23630658E+04</pdfrwt>
<pdfrwt beam="2">  1       -2 0.81719764E-01 0.23630658E+04</pdfrwt>
<totfact> 0.11478613E+00</totfact>
</mgrwt>
</event>
<event>
12    4  0.4280696E-008  0.2749349E+04  0.7818608E-02  0.8319168E-01
          1   -1    0    0  501    0  0.00000000000E+00  0.00000000000E+00  0.12042709720E+04  0.12042709720E+04  0.00000000000E+00 0. -1.
         -2   -1    0    0    0  501 -0.00000000000E+00 -0.00000000000E+00 -0.15691905749E+04  0.15691905749E+04  0.00000000000E+00 0.  1.
        -24    2    1    2    0    0  0.39047384689E+03  0.35095996007E+03 -0.12899653469E+04  0.13950951809E+04  0.81469313244E+02 0.  0.
        254    2    1    2    0    0 -0.39047384689E+03 -0.35095996007E+03  0.92504574390E+03  0.13783663660E+04  0.87666498273E+03 0.  0.
         23    2    4    4    0    0 -0.58007220230E+03  0.14997847537E+02  0.64132694206E+03  0.86974758423E+03  0.91934315389E+02 0.  0.
         23    2    4    4    0    0  0.18959835541E+03 -0.36595780761E+03  0.28371880184E+03  0.50861878178E+03  0.91236250141E+02 0.  0.
          3    1    3    3  502    0  0.36998054128E+01 -0.35904145180E+00 -0.41927803299E+02  0.42092257725E+02  0.00000000000E+00 0. -1.
         -4    1    3    3    0  502  0.38677404148E+03  0.35131900152E+03 -0.12480375436E+04  0.13530029232E+04  0.00000000000E+00 0.  1.
         11    1    5    5    0    0 -0.51167397482E+03  0.29997104884E+01  0.60149107086E+03  0.78969029568E+03  0.00000000000E+00 0. -1.
        -11    1    5    5    0    0 -0.68398227476E+02  0.11998137049E+02  0.39835871200E+02  0.80057288542E+02  0.00000000000E+00 0.  1.
          1    1    6    6  503    0  0.16015632154E+03 -0.35655425043E+03  0.25728497355E+03  0.46794929046E+03  0.00000000000E+00 0. -1.
         -1    1    6    6    0  503  0.29442033871E+02 -0.94035571737E+01  0.26433828281E+02  0.40669491312E+02  0.00000000000E+00 0.  1.
<mgrwt>
<rscale>  0 0.27493495E+04</rscale>
<asrwt>0</asrwt>
<pdfrwt beam="1">  1        1 0.18527246E+00 0.27493495E+04</pdfrwt>
<pdfrwt beam="2">  1       -2 0.24141393E+00 0.27493495E+04</pdfrwt>
<totfact> 0.58769794E-01</totfact>
</mgrwt>
</event>
<event>
12    4  0.4280696E-008  0.2664785E+04  0.7818608E-02  0.8346522E-01
          1   -1    0    0  501    0  0.00000000000E+00  0.00000000000E+00  0.27928158267E+04  0.27928158267E+04  0.00000000000E+00 0. -1.
         -2   -1    0    0    0  501 -0.00000000000E+00 -0.00000000000E+00 -0.63565608120E+03  0.63565608120E+03  0.00000000000E+00 0.  1.
        -24    2    1    2    0    0  0.63606764179E+03 -0.72162605584E+03  0.18382498230E+04  0.20760895726E+04  0.75228267632E+02 0.  0.
        254    2    1    2    0    0 -0.63606764179E+03  0.72162605584E+03  0.31890992251E+03  0.13523823353E+04  0.89549329022E+03 0.  0.
         23    2    4    4    0    0 -0.55500346870E+03  0.26910847576E+03 -0.19831038729E+03  0.65436522262E+03  0.91752999254E+02 0.  0.
         23    2    4    4    0    0 -0.81064173091E+02  0.45251758008E+03  0.51722030980E+03  0.69801711271E+03  0.91473932459E+02 0.  0.
          1    1    3    3  502    0  0.26998696486E+03 -0.34338262120E+03  0.77303179032E+03  0.88790919275E+03  0.00000000000E+00 0. -1.
         -2    1    3    3    0  502  0.36608067693E+03 -0.37824343464E+03  0.10652180327E+04  0.11881803799E+04  0.00000000000E+00 0.  1.
         11    1    5    5    0    0 -0.29969944613E+03  0.19572741759E+03 -0.11357110485E+03  0.37553611792E+03  0.00000000000E+00 0.  1.
        -11    1    5    5    0    0 -0.25530402257E+03  0.73381058173E+02 -0.84739282439E+02  0.27882910470E+03  0.00000000000E+00 0. -1.
          1    1    6    6  503    0  0.14272598514E+02  0.14121389829E+02  0.21122671409E+02  0.29142545642E+02  0.00000000000E+00 0. -1.
         -1    1    6    6    0  503 -0.95336771606E+02  0.43839619025E+03  0.49609763840E+03  0.66887456707E+03  0.00000000000E+00 0.  1.
<mgrwt>
<rscale>  0 0.26647854E+04</rscale>
<asrwt>0</asrwt>
<pdfrwt beam="1">  1        1 0.42966397E+00 0.26647854E+04</pdfrwt>
<pdfrwt beam="2">  1       -2 0.97793245E-01 0.26647854E+04</pdfrwt>
<totfact> 0.56537649E-01</totfact>
</mgrwt>
</event>
<event>
12    4  0.4280696E-008  0.1384742E+04  0.7818608E-02  0.8964938E-01
         -2   -1    0    0    0  501 -0.00000000000E+00  0.00000000000E+00  0.23964620200E+03  0.23964620200E+03  0.00000000000E+00 0.  1.
          1   -1    0    0  501    0  0.00000000000E+00 -0.00000000000E+00 -0.20003560104E+04  0.20003560104E+04  0.00000000000E+00 0. -1.
        -24    2    1    2    0    0 -0.13500555517E+03 -0.29472710691E+03 -0.85336231090E+03  0.91679816139E+03  0.84859104424E+02 0.  0.
        254    2    1    2    0    0  0.13500555517E+03  0.29472710691E+03 -0.90734749751E+03  0.13232040510E+04  0.90691725747E+03 0.  0.
         23    2    4    4    0    0  0.79031108255E+02 -0.24943373508E+02 -0.97251193212E+03  0.98025110888E+03  0.90800277393E+02 0.  0.
         23    2    4    4    0    0  0.55974446914E+02  0.31967048041E+03  0.65164434614E+02  0.34295294214E+03  0.89710435436E+02 0.  0.
          3    1    3    3  502    0 -0.86093806602E+02 -0.12838618953E+03 -0.49719763185E+03  0.52067325869E+03  0.00000000000E+00 0. -1.
         -4    1    3    3    0  502 -0.48911748566E+02 -0.16634091738E+03 -0.35616467904E+03  0.39612490270E+03  0.00000000000E+00 0.  1.
         11    1    5    5    0    0  0.96735658845E+02 -0.64452900186E+01 -0.73628354944E+03  0.74263907427E+03  0.00000000000E+00 0.  1.
        -11    1    5    5    0    0 -0.17704550590E+02 -0.18498083489E+02 -0.23622838268E+03  0.23761203460E+03  0.00000000000E+00 0. -1.
          2    1    6    6  503    0  0.65459606242E+02  0.25520070928E+03  0.81486635008E+02  0.27577605725E+03  0.00000000000E+00 0. -1.
         -2    1    6    6    0  503 -0.94851593280E+01  0.64469771136E+02 -0.16322200395E+02  0.67176884890E+02  0.00000000000E+00 0.  1.
<mgrwt>
<rscale>  0 0.13847422E+04</rscale>
<asrwt>0</asrwt>
<pdfrwt beam="1">  1        1 0.30774709E+00 0.13847422E+04</pdfrwt>
<pdfrwt beam="2">  1       -2 0.36868645E-01 0.13847422E+04</pdfrwt>
<totfact> 0.17708508E+01</totfact>
</mgrwt>
</event>
<event>
12    4  0.4280696E-008  0.1350074E+04  0.7818608E-02  0.8990772E-01
          1   -1    0    0  501    0  0.00000000000E+00  0.00000000000E+00  0.77667881705E+03  0.77667881705E+03  0.00000000000E+00 0. -1.
         -2   -1    0    0    0  501 -0.00000000000E+00 -0.00000000000E+00 -0.58669675089E+03  0.58669675089E+03  0.00000000000E+00 0.  1.
        -24    2    1    2    0    0 -0.52179408678E+02 -0.87135227218E+02  0.39111403678E+03  0.41182101599E+03  0.79442563758E+02 0.  0.
        254    2    1    2    0    0  0.52179408678E+02  0.87135227218E+02 -0.20113197062E+03  0.95155455196E+03  0.92449270264E+03 0.  0.
         23    2    4    4    0    0  0.19009538295E+03  0.30735612088E+03 -0.44825813879E+03  0.58309637840E+03  0.91989063759E+02 0.  0.
         23    2    4    4    0    0 -0.13791597427E+03 -0.22022089366E+03  0.24712616818E+03  0.36845817355E+03  0.84687807243E+02 0.  0.
          3    1    3    3  502    0 -0.39871636217E+02 -0.64913697868E+02  0.13965280078E+03  0.15907998087E+03  0.00000000000E+00 0. -1.
         -4    1    3    3    0  502 -0.12307772462E+02 -0.22221529350E+02  0.25146123599E+03  0.25274103512E+03  0.00000000000E+00 0.  1.
         11    1    5    5    0    0  0.72324780021E+01  0.69969574358E+02 -0.58667409241E+02  0.91596479086E+02  0.00000000000E+00 0. -1.
        -11    1    5    5    0    0  0.18286290495E+03  0.23738654652E+03 -0.38959072955E+03  0.49149989932E+03  0.00000000000E+00 0.  1.
          3    1    6    6  503    0 -0.12349497193E+03 -0.17732135159E+03  0.23947813189E+03  0.32255797227E+03  0.00000000000E+00 0. -1.
         -3    1    6    6    0  503 -0.14421002346E+02 -0.42899542072E+02  0.76480362831E+01  0.45900201281E+02  0.00000000000E+00 0.  1.
<mgrwt>
<rscale>  0 0.13500740E+04</rscale>
<asrwt>0</asrwt>
<pdfrwt beam="1">  1        1 0.11948905E+00 0.13500740E+04</pdfrwt>
<pdfrwt beam="2">  1       -2 0.90261039E-01 0.13500740E+04</pdfrwt>
<totfact> 0.20867073E+01</totfact>
</mgrwt>
</event>
<event>
12    4  0.4280696E-008  0.1252025E+04  0.7818608E-02  0.9068500E-01
         -2   -1    0    0    0  501 -0.00000000000E+00  0.00000000000E+00  0.17368431211E+03  0.17368431211E+03  0.00000000000E+00 0.  1.
          1   -1    0    0  501    0  0.00000000000E+00 -0.00000000000E+00 -0.22563439752E+04  0.22563439752E+04  0.00000000000E+00 0. -1.
        -24    2    1    2    0    0  0.84741949173E+02 -0.28286674564E+03 -0.44364655467E+03  0.53881268469E+03  0.79385451882E+02 0.  0.
        254    2    1    2    0    0 -0.84741949173E+02  0.28286674564E+03 -0.16390131084E+04  0.18912156027E+04  0.89617949783E+03 0.  0.
         23    2    4    4    0    0  0.25466215118E+03 -0.17058486731E+03 -0.89988751266E+03  0.95568763409E+03  0.97925023959E+02 0.  0.
         23    2    4    4    0    0 -0.33940410035E+03  0.45345161295E+03 -0.73912559579E+03  0.93552796857E+03  0.89957906759E+02 0.  0.
          3    1    3    3  502    0  0.99153341297E+01 -0.57867272194E+02 -0.15196045632E+03  0.16290768959E+03  0.00000000000E+00 0. -1.
         -4    1    3    3    0  502  0.74826615043E+02 -0.22499947345E+03 -0.29168609836E+03  0.37590499511E+03  0.00000000000E+00 0.  1.
         11    1    5    5    0    0  0.19712945159E+03 -0.10575052333E+03 -0.52072153793E+03  0.56673989972E+03  0.00000000000E+00 0. -1.
        -11    1    5    5    0    0  0.57532699587E+02 -0.64834343987E+02 -0.37916597473E+03  0.38894773437E+03  0.00000000000E+00 0.  1.
          1    1    6    6  503    0 -0.24495480690E+03  0.25489901891E+03 -0.46461760850E+03  0.58382008306E+03  0.00000000000E+00 0. -1.
         -1    1    6    6    0  503 -0.94449293459E+02  0.19855259405E+03 -0.27450798730E+03  0.35170788551E+03  0.00000000000E+00 0.  1.
<mgrwt>
<rscale>  0 0.12520248E+04</rscale>
<asrwt>0</asrwt>
<pdfrwt beam="1">  1        1 0.34712984E+00 0.12520248E+04</pdfrwt>
<pdfrwt beam="2">  1       -2 0.26720663E-01 0.12520248E+04</pdfrwt>
<totfact> 0.21999014E+01</totfact>
</mgrwt>
</event>
<event>
12    4  0.4280696E-008  0.1681386E+04  0.7818608E-02  0.8772052E-01
         -2   -1    0    0    0  501 -0.00000000000E+00  0.00000000000E+00  0.37712824264E+03  0.37712824264E+03  0.00000000000E+00 0.  1.
          1   -1    0    0  501    0  0.00000000000E+00 -0.00000000000E+00 -0.18740700561E+04  0.18740700561E+04  0.00000000000E+00 0. -1.
        -24    2    1    2    0    0  0.18489231515E+03  0.10197156671E+03  0.21461916797E+03  0.30975853516E+03  0.72839510028E+02 0.  0.
        254    2    1    2    0    0 -0.18489231515E+03 -0.10197156671E+03 -0.17115609814E+04  0.19414397635E+04  0.89171968342E+03 0.  0.
         23    2    4    4    0    0 -0.16939474975E+03 -0.48502402586E+03 -0.94322860072E+03  0.10779357470E+04  0.91227159437E+02 0.  0.
         23    2    4    4    0    0 -0.15497565398E+02  0.38305245915E+03 -0.76833238068E+03  0.86350401650E+03  0.91297197815E+02 0.  0.
          1    1    3    3  502    0  0.19528153082E+02 -0.43566770886E+01  0.18928838711E+01  0.20097572176E+02  0.00000000000E+00 0. -1.
         -4    1    3    3    0  502  0.16536416207E+03  0.10632824380E+03  0.21272628410E+03  0.28966096298E+03  0.00000000000E+00 0.  1.
         11    1    5    5    0    0 -0.66389591191E+02 -0.31753107295E+03 -0.61515084526E+03  0.69544526926E+03  0.00000000000E+00 0.  1.
        -11    1    5    5    0    0 -0.10300515856E+03 -0.16749295291E+03 -0.32807775545E+03  0.38249047778E+03  0.00000000000E+00 0. -1.
          2    1    6    6  503    0  0.75292141288E+01 -0.22149794336E+01 -0.11225897105E+02  0.13697297730E+02  0.00000000000E+00 0. -1.
         -2    1    6    6    0  503 -0.23026779527E+02  0.38526743858E+03 -0.75710648357E+03  0.84980671877E+03  0.00000000000E+00 0.  1.
<mgrwt>
<rscale>  0 0.16813860E+04</rscale>
<asrwt>0</asrwt>
<pdfrwt beam="1">  1        1 0.28831847E+00 0.16813860E+04</pdfrwt>
<pdfrwt beam="2">  1       -2 0.58019730E-01 0.16813860E+04</pdfrwt>
<totfact> 0.84406403E+00</totfact>
</mgrwt>
</event>
<event>
12    4  0.4280696E-008  0.1831454E+04  0.7818608E-02  0.8689749E-01
          1   -1    0    0  501    0  0.00000000000E+00  0.00000000000E+00  0.13101352877E+04  0.13101352877E+04  0.00000000000E+00 0. -1.
         -2   -1    0    0    0  501 -0.00000000000E+00 -0.00000000000E+00 -0.64005306068E+03  0.64005306068E+03  0.00000000000E+00 0.  1.
        -24    2    1    2    0    0 -0.51444344836E+03 -0.37248813638E+03  0.78288498517E+01  0.64094137919E+03  0.85703485112E+02 0.  0.
        254    2    1    2    0    0  0.51444344836E+03  0.37248813638E+03  0.66225337720E+03  0.13092469692E+04  0.93388897493E+03 0.  0.
         23    2    4    4    0    0  0.17629697419E+03  0.37742006427E+03 -0.12811530652E+03  0.44514532793E+03  0.90632793137E+02 0.  0.
         23    2    4    4    0    0  0.33814647417E+03 -0.49319278903E+01  0.79036868372E+03  0.86410164129E+03  0.87301937930E+02 0.  0.
          1    1    3    3  502    0 -0.23114157364E+03 -0.17663864168E+03  0.45629250721E+02  0.29446504940E+03  0.00000000000E+00 0. -1.
         -2    1    3    3    0  502 -0.28330187472E+03 -0.19584949471E+03 -0.37800400869E+02  0.34647632979E+03  0.00000000000E+00 0.  1.
         11    1    5    5    0    0  0.30393907778E+02  0.15107763164E+03 -0.71877572921E+02  0.17004301191E+03  0.00000000000E+00 0.  1.
        -11    1    5    5    0    0  0.14590306641E+03  0.22634243264E+03 -0.56237733598E+02  0.27510231602E+03  0.00000000000E+00 0. -1.
          2    1    6    6  503    0  0.31079040372E+03 -0.27265578317E+02  0.67848959321E+03  0.74678123631E+03  0.00000000000E+00 0. -1.
         -2    1    6    6    0  503  0.27356070452E+02  0.22333650427E+02  0.11187909051E+03  0.11732040499E+03  0.00000000000E+00 0.  1.
<mgrwt>
<rscale>  0 0.18314542E+04</rscale>
<asrwt>0</asrwt>
<pdfrwt beam="1">  1        1 0.20155927E+00 0.18314542E+04</pdfrwt>
<pdfrwt beam="2">  1       -2 0.98469702E-01 0.18314542E+04</pdfrwt>
<totfact> 0.62924100E+00</totfact>
</mgrwt>
</event>
<event>
12    4  0.4280696E-008  0.1551281E+04  0.7818608E-02  0.8851050E-01
          1   -1    0    0  501    0  0.00000000000E+00  0.00000000000E+00  0.27643916709E+04  0.27643916709E+04  0.00000000000E+00 0. -1.
         -2   -1    0    0    0  501 -0.00000000000E+00 -0.00000000000E+00 -0.21763140733E+03  0.21763140733E+03  0.00000000000E+00 0.  1.
        -24    2    1    2    0    0 -0.27042404784E+03 -0.31841844009E+03  0.32231858696E+03  0.53391839608E+03  0.81609518633E+02 0.  0.
        254    2    1    2    0    0  0.27042404784E+03  0.31841844009E+03  0.22244416766E+04  0.24481046821E+04  0.93303606228E+03 0.  0.
         23    2    4    4    0    0 -0.31831995923E+03  0.25007786897E+03  0.79763661059E+03  0.90040930325E+03  0.10318049156E+03 0.  0.
         23    2    4    4    0    0  0.58874400707E+03  0.68340571117E+02  0.14268050660E+04  0.15476953789E+04  0.91095279428E+02 0.  0.
          3    1    3    3  502    0 -0.34448826916E+01 -0.24832397191E+02  0.38882853005E+02  0.46264364524E+02  0.00000000000E+00 0. -1.
         -4    1    3    3    0  502 -0.26697916515E+03 -0.29358604290E+03  0.28343573395E+03  0.48765403156E+03  0.00000000000E+00 0.  1.
         11    1    5    5    0    0 -0.79593733666E+02  0.12290035195E+03  0.30778255864E+03  0.34083685591E+03  0.00000000000E+00 0.  1.
        -11    1    5    5    0    0 -0.23872622556E+03  0.12717751703E+03  0.48985405195E+03  0.55957244734E+03  0.00000000000E+00 0. -1.
          1    1    6    6  503    0  0.51767412296E+03  0.40897751189E+02  0.12983726629E+04  0.13983671533E+04  0.00000000000E+00 0. -1.
         -1    1    6    6    0  503  0.71069884105E+02  0.27442819928E+02  0.12843240310E+03  0.14932822559E+03  0.00000000000E+00 0.  1.
<mgrwt>
<rscale>  0 0.15512813E+04</rscale>
<asrwt>0</asrwt>
<pdfrwt beam="1">  1        1 0.42529100E+00 0.15512813E+04</pdfrwt>
<pdfrwt beam="2">  1       -2 0.33481757E-01 0.15512813E+04</pdfrwt>
<totfact> 0.62553729E+00</totfact>
</mgrwt>
</event>
<event>
12    4  0.4280696E-008  0.1751700E+04  0.7818608E-02  0.8732415E-01
          1   -1    0    0  501    0  0.00000000000E+00  0.00000000000E+00  0.45094235997E+03  0.45094235997E+03  0.00000000000E+00 0. -1.
         -2   -1    0    0    0  501 -0.00000000000E+00 -0.00000000000E+00 -0.17011331974E+04  0.17011331974E+04  0.00000000000E+00 0.  1.
        -24    2    1    2    0    0  0.23156806685E+03  0.75020816004E+02  0.26891311992E+03  0.37130463307E+03  0.79378662478E+02 0.  0.
        254    2    1    2    0    0 -0.23156806685E+03 -0.75020816004E+02 -0.15191039573E+04  0.17807709243E+04  0.89678110993E+03 0.  0.
         23    2    4    4    0    0  0.18716060018E+03 -0.33423308339E+00 -0.12534354390E+04  0.12712323887E+04  0.99509721000E+02 0.  0.
         23    2    4    4    0    0 -0.41872866703E+03 -0.74686582921E+02 -0.26566851838E+03  0.50953853554E+03  0.90210727088E+02 0.  0.
          3    1    3    3  502    0  0.21883689028E+03  0.89679277990E+02  0.24541486093E+03  0.34082313803E+03  0.00000000000E+00 0. -1.
         -4    1    3    3    0  502  0.12731176568E+02 -0.14658461986E+02  0.23498258991E+02  0.30481495045E+02  0.00000000000E+00 0.  1.
         11    1    5    5    0    0  0.55689426917E+02 -0.19568110946E+02 -0.17599259053E+03  0.18562762499E+03  0.00000000000E+00 0. -1.
        -11    1    5    5    0    0  0.13147117326E+03  0.19233877863E+02 -0.10774428484E+04  0.10856047638E+04  0.00000000000E+00 0.  1.
          2    1    6    6  503    0 -0.63873339675E+02 -0.11870910894E+02 -0.57674794231E+01  0.65222587081E+02  0.00000000000E+00 0. -1.
         -2    1    6    6    0  503 -0.35485532735E+03 -0.62815672027E+02 -0.25990103896E+03  0.44431594846E+03  0.00000000000E+00 0.  1.
<mgrwt>
<rscale>  0 0.17516998E+04</rscale>
<asrwt>0</asrwt>
<pdfrwt beam="1">  1        1 0.69375747E-01 0.17516998E+04</pdfrwt>
<pdfrwt beam="2">  1       -2 0.26171280E+00 0.17516998E+04</pdfrwt>
<totfact> 0.23056797E+00</totfact>
</mgrwt>
</event>
<event>
12    4  0.4280696E-008  0.1582403E+04  0.7818608E-02  0.8831432E-01
          1   -1    0    0  501    0  0.00000000000E+00  0.00000000000E+00  0.91894795231E+03  0.91894795231E+03  0.00000000000E+00 0. -1.
         -2   -1    0    0    0  501 -0.00000000000E+00 -0.00000000000E+00 -0.68121378744E+03  0.68121378744E+03  0.00000000000E+00 0.  1.
        -24    2    1    2    0    0 -0.12609500129E+03 -0.26602763752E+03 -0.36364936181E+03  0.47451830178E+03  0.79095556783E+02 0.  0.
        254    2    1    2    0    0  0.12609500129E+03  0.26602763752E+03  0.60138352668E+03  0.11256434380E+04  0.90484272116E+03 0.  0.
         23    2    4    4    0    0 -0.22511472487E+03  0.38949849635E+03  0.58531181875E+03  0.74434604970E+03  0.95264886096E+02 0.  0.
         23    2    4    4    0    0  0.35120972616E+03 -0.12347085883E+03  0.16071707927E+02  0.38129738828E+03  0.80845988067E+02 0.  0.
          3    1    3    3  502    0 -0.98475153240E+02 -0.24608359689E+03 -0.28717673390E+03  0.39080042088E+03  0.00000000000E+00 0. -1.
         -4    1    3    3    0  502 -0.27619848048E+02 -0.19944040627E+02 -0.76472627911E+02  0.83717880900E+02  0.00000000000E+00 0.  1.
         11    1    5    5    0    0 -0.29765530252E+02  0.12140218125E+03  0.12325132114E+03  0.17554305616E+03  0.00000000000E+00 0. -1.
        -11    1    5    5    0    0 -0.19534919462E+03  0.26809631510E+03  0.46206049761E+03  0.56880299354E+03  0.00000000000E+00 0.  1.
          2    1    6    6  503    0  0.45174510545E+02 -0.35095741269E+02  0.25469007582E+02  0.62618829480E+02  0.00000000000E+00 0. -1.
         -2    1    6    6    0  503  0.30603521561E+03 -0.88375117563E+02 -0.93972996559E+01  0.31867855880E+03  0.00000000000E+00 0.  1.
<mgrwt>
<rscale>  0 0.15824033E+04</rscale>
<asrwt>0</asrwt>
<pdfrwt beam="1">  1        1 0.14137661E+00 0.15824033E+04</pdfrwt>
<pdfrwt beam="2">  1       -2 0.10480212E+00 0.15824033E+04</pdfrwt>
<totfact> 0.10919482E+01</totfact>
</mgrwt>
</event>
<event>
12    4  0.4280696E-008  0.1011148E+04  0.7818608E-02  0.9296402E-01
          1   -1    0    0  501    0  0.00000000000E+00  0.00000000000E+00  0.15478813893E+04  0.15478813893E+04  0.00000000000E+00 0. -1.
         -2   -1    0    0    0  501 -0.00000000000E+00 -0.00000000000E+00 -0.16513208635E+03  0.16513208635E+03  0.00000000000E+00 0.  1.
        -24    2    1    2    0    0  0.62406505698E+02  0.14150834102E+02  0.23975464080E+03  0.25939308553E+03  0.75549103069E+02 0.  0.
        254    2    1    2    0    0 -0.62406505698E+02 -0.14150834102E+02  0.11429946621E+04  0.14536203901E+04  0.89581282799E+03 0.  0.
         23    2    4    4    0    0 -0.46714185967E+03  0.44468723376E+02  0.64863975751E+03  0.80486362465E+03  0.82903165476E+02 0.  0.
         23    2    4    4    0    0  0.40473535397E+03 -0.58619557478E+02  0.49435490462E+03  0.64875676545E+03  0.96185288504E+02 0.  0.
          1    1    3    3  502    0  0.61133718727E+00  0.13544806195E+02  0.14888356933E+03  0.14949967466E+03  0.00000000000E+00 0. -1.
         -2    1    3    3    0  502  0.61795168510E+02  0.60602790760E+00  0.90871071471E+02  0.10989341086E+03  0.00000000000E+00 0.  1.
         11    1    5    5    0    0 -0.40722197973E+03  0.42980274435E+02  0.60571026775E+03  0.73113745167E+03  0.00000000000E+00 0. -1.
        -11    1    5    5    0    0 -0.59919879937E+02  0.14884489401E+01  0.42929489760E+02  0.73726172985E+02  0.00000000000E+00 0.  1.
          4    1    6    6  503    0  0.22173744953E+03 -0.62937762948E+02  0.33144202242E+03  0.40371087768E+03  0.00000000000E+00 0.  1.
         -4    1    6    6    0  503  0.18299790444E+03  0.43182054697E+01  0.16291288220E+03  0.24504588777E+03  0.00000000000E+00 0. -1.
<mgrwt>
<rscale>  0 0.10111476E+04</rscale>
<asrwt>0</asrwt>
<pdfrwt beam="1">  1        1 0.23813559E+00 0.10111476E+04</pdfrwt>
<pdfrwt beam="2">  1       -2 0.25404937E-01 0.10111476E+04</pdfrwt>
<totfact> 0.74281461E+01</totfact>
</mgrwt>
</event>
<event>
12    4  0.4280696E-008  0.1344553E+04  0.7818608E-02  0.8994962E-01
         -2   -1    0    0    0  501 -0.00000000000E+00  0.00000000000E+00  0.49382714379E+03  0.49382714379E+03  0.00000000000E+00 0.  1.
          1   -1    0    0  501    0  0.00000000000E+00 -0.00000000000E+00 -0.91520967097E+03  0.91520967097E+03  0.00000000000E+00 0. -1.
        -24    2    1    2    0    0  0.24287748882E+03  0.72132218173E+02 -0.38555745088E+03  0.46809218982E+03  0.79140500229E+02 0.  0.
        254    2    1    2    0    0 -0.24287748882E+03 -0.72132218173E+02 -0.35825076308E+02  0.94094462493E+03  0.90548374896E+03 0.  0.
         23    2    4    4    0    0 -0.21395656559E+03  0.14367582324E+02  0.41282509172E+03  0.47422701147E+03  0.92102457512E+02 0.  0.
         23    2    4    4    0    0 -0.28920923227E+02 -0.86499800498E+02 -0.44865016802E+03  0.46671761346E+03  0.90662683390E+02 0.  0.
          3    1    3    3  502    0  0.23262864108E+03  0.48976204336E+02 -0.36442755525E+03  0.43511170551E+03  0.00000000000E+00 0. -1.
         -4    1    3    3    0  502  0.10248847735E+02  0.23156013837E+02 -0.21129895624E+02  0.32980484317E+02  0.00000000000E+00 0.  1.
         11    1    5    5    0    0 -0.74352727862E+02 -0.36663411193E+02  0.17725674086E+03  0.19568465969E+03  0.00000000000E+00 0.  1.
        -11    1    5    5    0    0 -0.13960383773E+03  0.51030993517E+02  0.23556835086E+03  0.27854235178E+03  0.00000000000E+00 0. -1.
          4    1    6    6  503    0 -0.51274446905E+02 -0.14921164464E+02 -0.19994515108E+03  0.20695355395E+03  0.00000000000E+00 0.  1.
         -4    1    6    6    0  503  0.22353523678E+02 -0.71578636034E+02 -0.24870501695E+03  0.25976405951E+03  0.00000000000E+00 0. -1.
<mgrwt>
<rscale>  0 0.13445525E+04</rscale>
<asrwt>0</asrwt>
<pdfrwt beam="1">  1        1 0.14080149E+00 0.13445525E+04</pdfrwt>
<pdfrwt beam="2">  1       -2 0.75973407E-01 0.13445525E+04</pdfrwt>
<totfact> 0.23551521E+01</totfact>
</mgrwt>
</event>
<event>
12    4  0.4280696E-008  0.1609829E+04  0.7818608E-02  0.8814532E-01
         -2   -1    0    0    0  501 -0.00000000000E+00  0.00000000000E+00  0.64048343819E+03  0.64048343819E+03  0.00000000000E+00 0.  1.
          1   -1    0    0  501    0  0.00000000000E+00 -0.00000000000E+00 -0.10115596400E+04  0.10115596400E+04  0.00000000000E+00 0. -1.
        -24    2    1    2    0    0  0.50806067353E+03  0.63286069165E+02  0.77810185745E+02  0.52399710274E+03  0.79923489314E+02 0.  0.
        254    2    1    2    0    0 -0.50806067353E+03 -0.63286069165E+02 -0.44888638754E+03  0.11280459754E+04  0.89936530912E+03 0.  0.
         23    2    4    4    0    0 -0.51788132493E+03 -0.13674179912E+03 -0.67934361740E+03  0.86989933294E+03  0.91201494551E+02 0.  0.
         23    2    4    4    0    0  0.98206514015E+01  0.73455729959E+02  0.23045722986E+03  0.25814664250E+03  0.89649120337E+02 0.  0.
          1    1    3    3  502    0  0.38385020770E+03  0.42915473847E+02  0.23636635281E+02  0.38696435285E+03  0.00000000000E+00 0. -1.
         -2    1    3    3    0  502  0.12421046582E+03  0.20370595319E+02  0.54173550465E+02  0.13703274990E+03  0.00000000000E+00 0.  1.
         11    1    5    5    0    0 -0.27339242093E+02 -0.31362022523E+02 -0.52027632522E+02  0.66617453875E+02  0.00000000000E+00 0. -1.
        -11    1    5    5    0    0 -0.49054208283E+03 -0.10537977660E+03 -0.62731598488E+03  0.80328187907E+03  0.00000000000E+00 0.  1.
          1    1    6    6  503    0 -0.20013633777E+02 -0.11953386452E+02  0.28271353358E+02  0.36642849307E+02  0.00000000000E+00 0. -1.
         -1    1    6    6    0  503  0.29834285179E+02  0.85409116411E+02  0.20218587651E+03  0.22150379319E+03  0.00000000000E+00 0.  1.
<mgrwt>
<rscale>  0 0.16098288E+04</rscale>
<asrwt>0</asrwt>
<pdfrwt beam="1">  1        1 0.15562456E+00 0.16098288E+04</pdfrwt>
<pdfrwt beam="2">  1       -2 0.98535913E-01 0.16098288E+04</pdfrwt>
<totfact> 0.10654384E+01</totfact>
</mgrwt>
</event>
<event>
12    4  0.4280696E-008  0.1152076E+04  0.7818608E-02  0.9155871E-01
          1   -1    0    0  501    0  0.00000000000E+00  0.00000000000E+00  0.50931339506E+03  0.50931339506E+03  0.00000000000E+00 0. -1.
         -2   -1    0    0    0  501 -0.00000000000E+00 -0.00000000000E+00 -0.65150372650E+03  0.65150372650E+03  0.00000000000E+00 0.  1.
        -24    2    1    2    0    0 -0.18684864151E+03 -0.94637513008E+02 -0.60146788906E+02  0.23020070298E+03  0.74202787922E+02 0.  0.
        254    2    1    2    0    0  0.18684864151E+03  0.94637513008E+02 -0.82043542532E+02  0.93061641859E+03  0.90302109719E+03 0.  0.
         23    2    4    4    0    0  0.21322473328E+03  0.45672114657E+03 -0.18333386617E+03  0.54247984419E+03  0.81327008192E+02 0.  0.
         23    2    4    4    0    0 -0.26376091778E+02 -0.36208363356E+03  0.10129032364E+03  0.38813657440E+03  0.92682332802E+02 0.  0.
          1    1    3    3  502    0 -0.18270719346E+02 -0.32541828158E+01 -0.31161096277E+02  0.36268758076E+02  0.00000000000E+00 0. -1.
         -2    1    3    3    0  502 -0.16857792216E+03 -0.91383330192E+02 -0.28985692629E+02  0.19393194490E+03  0.00000000000E+00 0.  1.
         11    1    5    5    0    0  0.28154662377E+02  0.20414728344E+02 -0.24870819114E+02  0.42755160979E+02  0.00000000000E+00 0.  1.
        -11    1    5    5    0    0  0.18507007091E+03  0.43630641822E+03 -0.15846304706E+03  0.49972468321E+03  0.00000000000E+00 0. -1.
          2    1    6    6  503    0 -0.59804632746E+02 -0.27428620609E+03  0.77153566847E+02  0.29113946800E+03  0.00000000000E+00 0. -1.
         -2    1    6    6    0  503  0.33428540968E+02 -0.87797427465E+02  0.24136756794E+02  0.96997106397E+02  0.00000000000E+00 0.  1.
<mgrwt>
<rscale>  0 0.11520756E+04</rscale>
<asrwt>0</asrwt>
<pdfrwt beam="1">  1        1 0.78355907E-01 0.11520756E+04</pdfrwt>
<pdfrwt beam="2">  1       -2 0.10023134E+00 0.11520756E+04</pdfrwt>
<totfact> 0.30826470E+01</totfact>
</mgrwt>
</event>
<event>
12    4  0.4280696E-008  0.1465038E+04  0.7818608E-02  0.8908041E-01
          1   -1    0    0  501    0  0.00000000000E+00  0.00000000000E+00  0.31655013701E+03  0.31655013701E+03  0.00000000000E+00 0. -1.
         -2   -1    0    0    0  501 -0.00000000000E+00 -0.00000000000E+00 -0.16950998982E+04  0.16950998982E+04  0.00000000000E+00 0.  1.
        -24    2    1    2    0    0  0.24530842113E+03  0.32706656174E+03 -0.14558176108E+03  0.44093523309E+03  0.77981237095E+02 0.  0.
        254    2    1    2    0    0 -0.24530842113E+03 -0.32706656174E+03 -0.12329680001E+04  0.15707148021E+04  0.88305500566E+03 0.  0.
         23    2    4    4    0    0 -0.28477231653E+03  0.24826756029E+03 -0.49629097564E+03  0.63013068920E+03  0.89598544717E+02 0.  0.
         23    2    4    4    0    0  0.39463895408E+02 -0.57533412203E+03 -0.73667702445E+03  0.94058411291E+03  0.97152890252E+02 0.  0.
          3    1    3    3  502    0  0.23296340008E+03  0.32662192207E+03 -0.13147480846E+03  0.42218414349E+03  0.00000000000E+00 0. -1.
         -4    1    3    3    0  502  0.12345021049E+02  0.44463966737E+00 -0.14106952617E+02  0.18751089602E+02  0.00000000000E+00 0.  1.
         11    1    5    5    0    0 -0.17141062437E+03  0.20420974735E+03 -0.34507715019E+03  0.43607506538E+03  0.00000000000E+00 0. -1.
        -11    1    5    5    0    0 -0.11336169216E+03  0.44057812944E+02 -0.15121382545E+03  0.19405562382E+03  0.00000000000E+00 0.  1.
          1    1    6    6  503    0  0.46071733008E+02 -0.42615010074E+03 -0.47914473860E+03  0.64288894334E+03  0.00000000000E+00 0. -1.
         -1    1    6    6    0  503 -0.66078376004E+01 -0.14918402129E+03 -0.25753228586E+03  0.29769516957E+03  0.00000000000E+00 0.  1.
<mgrwt>
<rscale>  0 0.14650380E+04</rscale>
<asrwt>0</asrwt>
<pdfrwt beam="1">  1        1 0.48700021E-01 0.14650380E+04</pdfrwt>
<pdfrwt beam="2">  1       -2 0.26078460E+00 0.14650380E+04</pdfrwt>
<totfact> 0.38260417E+00</totfact>
</mgrwt>
</event>
<event>
12    4  0.4280696E-008  0.1642637E+04  0.7818608E-02  0.8794774E-01
          3   -1    0    0  501    0  0.00000000000E+00  0.00000000000E+00  0.30754095391E+03  0.30754095391E+03  0.00000000000E+00 0. -1.
         -4   -1    0    0    0  501 -0.00000000000E+00 -0.00000000000E+00 -0.21934117004E+04  0.21934117004E+04  0.00000000000E+00 0.  1.
        -24    2    1    2    0    0 -0.21492668686E+03  0.11245370572E+03  0.11855683111E+03  0.28135265148E+03  0.79147177066E+02 0.  0.
        254    2    1    2    0    0  0.21492668686E+03 -0.11245370572E+03 -0.20044275776E+04  0.22196000028E+04  0.92198424179E+03 0.  0.
         23    2    4    4    0    0 -0.27203934947E+03 -0.71177113734E+02 -0.14266278958E+04  0.14572688059E+04  0.96403477093E+02 0.  0.
         23    2    4    4    0    0  0.48696603633E+03 -0.41276591989E+02 -0.57779968185E+03  0.76233119699E+03  0.91960339096E+02 0.  0.
          3    1    3    3  502    0 -0.96003421576E+02  0.85855094774E+02  0.34569084671E+02  0.13335207485E+03  0.00000000000E+00 0. -1.
         -4    1    3    3    0  502 -0.11892326529E+03  0.26598610949E+02  0.83987746437E+02  0.14800057663E+03  0.00000000000E+00 0.  1.
         11    1    5    5    0    0 -0.11379895768E+03 -0.54169650480E+02 -0.43277272133E+03  0.45075135289E+03  0.00000000000E+00 0. -1.
        -11    1    5    5    0    0 -0.15824039179E+03 -0.17007463254E+02 -0.99385517442E+03  0.10065174530E+04  0.00000000000E+00 0.  1.
          3    1    6    6  503    0  0.55546399048E+02 -0.32041351830E+02 -0.97047729868E+02  0.11631987168E+03  0.00000000000E+00 0. -1.
         -3    1    6    6    0  503  0.43141963729E+03 -0.92352401584E+01 -0.48075195198E+03  0.64601132531E+03  0.00000000000E+00 0.  1.
<mgrwt>
<rscale>  0 0.16426368E+04</rscale>
<asrwt>0</asrwt>
<pdfrwt beam="1">  1        3 0.47313994E-01 0.16426368E+04</pdfrwt>
<pdfrwt beam="2">  1       -4 0.33744795E+00 0.16426368E+04</pdfrwt>
<totfact> 0.17468125E-01</totfact>
</mgrwt>
</event>
<event>
12    4  0.4280696E-008  0.1575032E+04  0.7818608E-02  0.8836036E-01
         -2   -1    0    0    0  501 -0.00000000000E+00  0.00000000000E+00  0.70772867083E+03  0.70772867083E+03  0.00000000000E+00 0.  1.
          1   -1    0    0  501    0  0.00000000000E+00 -0.00000000000E+00 -0.87629798268E+03  0.87629798268E+03  0.00000000000E+00 0. -1.
        -24    2    1    2    0    0 -0.27369663449E+03 -0.30111763251E+03 -0.37808747162E+03  0.56101833300E+03  0.78802014095E+02 0.  0.
        254    2    1    2    0    0  0.27369663449E+03  0.30111763251E+03  0.20951815978E+03  0.10230083205E+04  0.91491337744E+03 0.  0.
         23    2    4    4    0    0 -0.19311931336E+03 -0.13933549820E+03  0.27118533500E+03  0.37205255164E+03  0.90400027705E+02 0.  0.
         23    2    4    4    0    0  0.46681594784E+03  0.44045313071E+03 -0.61667175220E+02  0.65095576887E+03  0.89579478768E+02 0.  0.
          3    1    3    3  502    0 -0.19707613534E+03 -0.16141561718E+03 -0.24451059074E+03  0.35309975017E+03  0.00000000000E+00 0. -1.
         -4    1    3    3    0  502 -0.76620499148E+02 -0.13970201533E+03 -0.13357688088E+03  0.20791858282E+03  0.00000000000E+00 0.  1.
         11    1    5    5    0    0 -0.16603183438E+03 -0.69931644306E+02  0.18821416565E+03  0.26054093163E+03  0.00000000000E+00 0.  1.
        -11    1    5    5    0    0 -0.27087478974E+02 -0.69403853896E+02  0.82971169353E+02  0.11151162001E+03  0.00000000000E+00 0. -1.
          2    1    6    6  503    0  0.10873686214E+03  0.13009961445E+03 -0.50690690204E+02  0.17697220387E+03  0.00000000000E+00 0. -1.
         -2    1    6    6    0  503  0.35807908570E+03  0.31035351626E+03 -0.10976485015E+02  0.47398356500E+03  0.00000000000E+00 0.  1.
<mgrwt>
<rscale>  0 0.15750317E+04</rscale>
<asrwt>0</asrwt>
<pdfrwt beam="1">  1        1 0.13481507E+00 0.15750317E+04</pdfrwt>
<pdfrwt beam="2">  1       -2 0.10888133E+00 0.15750317E+04</pdfrwt>
<totfact> 0.10801543E+01</totfact>
</mgrwt>
</event>
<event>
12    4  0.5528301E-008  0.1415747E+04  0.7818608E-02  0.8942498E-01
         -2   -1    0    0    0  501 -0.00000000000E+00  0.00000000000E+00  0.36230231103E+03  0.36230231103E+03  0.00000000000E+00 0.  1.
          1   -1    0    0  501    0  0.00000000000E+00 -0.00000000000E+00 -0.13830572495E+04  0.13830572495E+04  0.00000000000E+00 0. -1.
        -24    2    1    2    0    0 -0.92028444242E+02 -0.25727271276E+03  0.81318865583E+02  0.29646070726E+03  0.81349307113E+02 0.  0.
        254    2    1    2    0    0  0.92028444242E+02  0.25727271276E+03 -0.11020738041E+04  0.14488988533E+04  0.90004596227E+03 0.  0.
         23    2    4    4    0    0 -0.25852359279E+03  0.38503339787E+03 -0.89703293593E+03  0.10137434695E+04  0.89008810025E+02 0.  0.
         23    2    4    4    0    0  0.35055203703E+03 -0.12776068511E+03 -0.20504086816E+03  0.43515538383E+03  0.90049581563E+02 0.  0.
          1    1    3    3  502    0 -0.49444314436E+01  0.54771832088E+01  0.62155681195E+01  0.96478093499E+01  0.00000000000E+00 0. -1.
         -2    1    3    3    0  502 -0.87084012798E+02 -0.26274989597E+03  0.75103297463E+02  0.28681289791E+03  0.00000000000E+00 0.  1.
         11    1    5    5    0    0 -0.25189452457E+03  0.38504249499E+03 -0.85272106151E+03  0.96893848268E+03  0.00000000000E+00 0. -1.
        -11    1    5    5    0    0 -0.66290682185E+01 -0.90971207250E-02 -0.44311874418E+02  0.44804986805E+02  0.00000000000E+00 0.  1.
          3    1    6    6  503    0  0.33973057011E+03 -0.10088495577E+03 -0.18372320706E+03  0.39918523442E+03  0.00000000000E+00 0. -1.
         -3    1    6    6    0  503  0.10821466918E+02 -0.26875729345E+02 -0.21317661096E+02  0.35970149411E+02  0.00000000000E+00 0.  1.
<mgrwt>
<rscale>  0 0.14157469E+04</rscale>
<asrwt>0</asrwt>
<pdfrwt beam="1">  1        1 0.21277804E+00 0.14157469E+04</pdfrwt>
<pdfrwt beam="2">  1       -2 0.55738817E-01 0.14157469E+04</pdfrwt>
<totfact> 0.20399668E+01</totfact>
</mgrwt>
</event>
<event>
12    4  0.4280696E-008  0.2249669E+04  0.7818608E-02  0.8498034E-01
          1   -1    0    0  501    0  0.00000000000E+00  0.00000000000E+00  0.20814780961E+04  0.20814780961E+04  0.00000000000E+00 0. -1.
         -2   -1    0    0    0  501 -0.00000000000E+00 -0.00000000000E+00 -0.60786270203E+03  0.60786270203E+03  0.00000000000E+00 0.  1.
        -24    2    1    2    0    0  0.24348474835E+03  0.19249009822E+03 -0.44415426049E+03  0.54782300790E+03  0.80621214841E+02 0.  0.
        254    2    1    2    0    0 -0.24348474835E+03 -0.19249009822E+03  0.19177696545E+04  0.21415177902E+04  0.90106644444E+03 0.  0.
         23    2    4    4    0    0 -0.23047404064E+03 -0.56213028477E+02  0.19547058255E+04  0.19711849135E+04  0.91743725589E+02 0.  0.
         23    2    4    4    0    0 -0.13010707704E+02 -0.13627706974E+03 -0.36936170912E+02  0.17033287670E+03  0.94383737537E+02 0.  0.
          3    1    3    3  502    0  0.72541345125E+02  0.10013973834E+03 -0.13875805322E+03  0.18586019284E+03  0.00000000000E+00 0. -1.
         -4    1    3    3    0  502  0.17094340322E+03  0.92350359879E+02 -0.30539620726E+03  0.36196281506E+03  0.00000000000E+00 0.  1.
         11    1    5    5    0    0 -0.16821632924E+03 -0.71006693279E+02  0.12052502297E+04  0.12190023791E+04  0.00000000000E+00 0. -1.
        -11    1    5    5    0    0 -0.62257711402E+02  0.14793664802E+02  0.74945559572E+03  0.75218253443E+03  0.00000000000E+00 0.  1.
          3    1    6    6  503    0 -0.52748281242E+02 -0.94654474130E+02 -0.18660935100E+02  0.10995490505E+03  0.00000000000E+00 0. -1.
         -3    1    6    6    0  503  0.39737573538E+02 -0.41622595609E+02 -0.18275235812E+02  0.60377971644E+02  0.00000000000E+00 0.  1.
<mgrwt>
<rscale>  0 0.22496692E+04</rscale>
<asrwt>0</asrwt>
<pdfrwt beam="1">  1        1 0.32022740E+00 0.22496692E+04</pdfrwt>
<pdfrwt beam="2">  1       -2 0.93517340E-01 0.22496692E+04</pdfrwt>
<totfact> 0.20228770E+00</totfact>
</mgrwt>
</event>
<event>
12    4  0.4280696E-008  0.1361433E+04  0.7818608E-02  0.8982218E-01
          1   -1    0    0  501    0  0.00000000000E+00  0.00000000000E+00  0.13972877184E+04  0.13972877184E+04  0.00000000000E+00 0. -1.
         -2   -1    0    0    0  501 -0.00000000000E+00 -0.00000000000E+00 -0.33162480688E+03  0.33162480688E+03  0.00000000000E+00 0.  1.
        -24    2    1    2    0    0 -0.37954222567E+03  0.43414611609E+01  0.35135334517E+03  0.52361285493E+03  0.81548141260E+02 0.  0.
        254    2    1    2    0    0  0.37954222567E+03 -0.43414611609E+01  0.71430956635E+03  0.12052996703E+04  0.89355357388E+03 0.  0.
         23    2    4    4    0    0  0.62513390899E+03  0.10615230319E+03  0.65199467444E+03  0.91510800849E+03  0.10131582345E+03 0.  0.
         23    2    4    4    0    0 -0.24559168332E+03 -0.11049376435E+03  0.62314891911E+02  0.29019166184E+03  0.88339730447E+02 0.  0.
          1    1    3    3  502    0 -0.34931952445E+03 -0.19231665386E+02  0.31915422876E+03  0.47355401894E+03  0.00000000000E+00 0. -1.
         -2    1    3    3    0  502 -0.30222701217E+02  0.23573126547E+02  0.32199116407E+02  0.50058835998E+02  0.00000000000E+00 0.  1.
         11    1    5    5    0    0  0.45415711476E+03  0.12239948360E+03  0.48053804972E+03  0.67242630503E+03  0.00000000000E+00 0. -1.
        -11    1    5    5    0    0  0.17097679423E+03 -0.16247180414E+02  0.17145662472E+03  0.24268170347E+03  0.00000000000E+00 0.  1.
          1    1    6    6  503    0 -0.16529475352E+03 -0.37670169146E+02  0.10002230646E+02  0.16982768267E+03  0.00000000000E+00 0. -1.
         -1    1    6    6    0  503 -0.80296929799E+02 -0.72823595202E+02  0.52312661265E+02  0.12036397917E+03  0.00000000000E+00 0.  1.
<mgrwt>
<rscale>  0 0.13614335E+04</rscale>
<asrwt>0</asrwt>
<pdfrwt beam="1">  1        1 0.21496734E+00 0.13614335E+04</pdfrwt>
<pdfrwt beam="2">  1       -2 0.51019202E-01 0.13614335E+04</pdfrwt>
<totfact> 0.24039699E+01</totfact>
</mgrwt>
</event>
<event>
12    4  0.4280696E-008  0.2022256E+04  0.7818608E-02  0.8596285E-01
         -2   -1    0    0    0  501 -0.00000000000E+00  0.00000000000E+00  0.59842594932E+03  0.59842594932E+03  0.00000000000E+00 0.  1.
          1   -1    0    0  501    0  0.00000000000E+00 -0.00000000000E+00 -0.17084479910E+04  0.17084479910E+04  0.00000000000E+00 0. -1.
        -24    2    1    2    0    0  0.41118209490E+03 -0.39240377992E+02 -0.12362842465E+04  0.13058257037E+04  0.78558945263E+02 0.  0.
        254    2    1    2    0    0 -0.41118209490E+03  0.39240377992E+02  0.12626220488E+03  0.10010482366E+04  0.90307524886E+03 0.  0.
         23    2    4    4    0    0 -0.43956115114E+03  0.40895813190E+03  0.36222793126E+02  0.60821326880E+03  0.90280287786E+02 0.  0.
         23    2    4    4    0    0  0.28379056240E+02 -0.36971775391E+03  0.90039411754E+02  0.39283496776E+03  0.93357526951E+02 0.  0.
          1    1    3    3  502    0  0.27710291975E+03 -0.23832083821E+02 -0.71051448284E+03  0.76301037127E+03  0.00000000000E+00 0. -1.
         -2    1    3    3    0  502  0.13407917516E+03 -0.15408294171E+02 -0.52576976368E+03  0.54281533244E+03  0.00000000000E+00 0.  1.
         11    1    5    5    0    0 -0.79833520557E+01  0.33874530129E+02  0.80801726915E+01  0.35728236623E+02  0.00000000000E+00 0.  1.
        -11    1    5    5    0    0 -0.43157779909E+03  0.37508360177E+03  0.28142620434E+02  0.57248503218E+03  0.00000000000E+00 0. -1.
          4    1    6    6  503    0  0.15409144675E+02 -0.33906728346E+03  0.10646186589E+03  0.35572207317E+03  0.00000000000E+00 0. -1.
         -4    1    6    6    0  503  0.12969911565E+02 -0.30650470446E+02 -0.16422454140E+02  0.37112894586E+02  0.00000000000E+00 0.  1.
<mgrwt>
<rscale>  0 0.20222558E+04</rscale>
<asrwt>0</asrwt>
<pdfrwt beam="1">  1        1 0.26283815E+00 0.20222558E+04</pdfrwt>
<pdfrwt beam="2">  1       -2 0.92065531E-01 0.20222558E+04</pdfrwt>
<totfact> 0.38334802E+00</totfact>
</mgrwt>
</event>
<event>
12    4  0.4280696E-008  0.3078147E+04  0.7818608E-02  0.8221761E-01
         -2   -1    0    0    0  501 -0.00000000000E+00  0.00000000000E+00  0.26715916953E+04  0.26715916953E+04  0.00000000000E+00 0.  1.
          1   -1    0    0  501    0  0.00000000000E+00 -0.00000000000E+00 -0.88664264415E+03  0.88664264415E+03  0.00000000000E+00 0. -1.
        -24    2    1    2    0    0 -0.16156606564E+03 -0.11300787150E+04 -0.12567626231E+03  0.11510984474E+04  0.77792140245E+02 0.  0.
        254    2    1    2    0    0  0.16156606564E+03  0.11300787150E+04  0.19106253135E+04  0.24071358921E+04  0.91686019588E+03 0.  0.
         23    2    4    4    0    0  0.29277320709E+03  0.84267365353E+03  0.18738071260E+04  0.20773382948E+04  0.91466981627E+02 0.  0.
         23    2    4    4    0    0 -0.13120714145E+03  0.28740506144E+03  0.36818187483E+02  0.32979759721E+03  0.87142945143E+02 0.  0.
          1    1    3    3  502    0 -0.11540382151E+03 -0.65050620417E+03 -0.10420527463E+03  0.66883114681E+03  0.00000000000E+00 0. -1.
         -2    1    3    3    0  502 -0.46162244128E+02 -0.47957251080E+03 -0.21470987684E+02  0.48226730058E+03  0.00000000000E+00 0.  1.
         11    1    5    5    0    0  0.25113171654E+03  0.62572145025E+03  0.13559412207E+04  0.15143219824E+04  0.00000000000E+00 0. -1.
        -11    1    5    5    0    0  0.41641490548E+02  0.21695220328E+03  0.51786590528E+03  0.56301631246E+03  0.00000000000E+00 0.  1.
          1    1    6    6  503    0 -0.82398295488E+02  0.25661558912E+03  0.37286582417E+02  0.27208698775E+03  0.00000000000E+00 0. -1.
         -1    1    6    6    0  503 -0.48808845961E+02  0.30789472322E+02 -0.46839493456E+00  0.57710609456E+02  0.00000000000E+00 0.  1.
<mgrwt>
<rscale>  0 0.30781469E+04</rscale>
<asrwt>0</asrwt>
<pdfrwt beam="1">  1        1 0.13640656E+00 0.30781469E+04</pdfrwt>
<pdfrwt beam="2">  1       -2 0.41101410E+00 0.30781469E+04</pdfrwt>
<totfact> 0.86918637E-02</totfact>
</mgrwt>
</event>
<event>
12    4  0.4280696E-008  0.1504809E+04  0.7818608E-02  0.8881262E-01
          1   -1    0    0  501    0  0.00000000000E+00  0.00000000000E+00  0.37825183884E+04  0.37825183884E+04  0.00000000000E+00 0. -1.
         -2   -1    0    0    0  501 -0.00000000000E+00 -0.00000000000E+00 -0.14966544000E+03  0.14966544000E+03  0.00000000000E+00 0.  1.
        -24    2    1    2    0    0  0.11385331345E+03  0.25223092025E+03  0.21729904172E+04  0.21917602585E+04  0.73093525686E+02 0.  0.
        254    2    1    2    0    0 -0.11385331345E+03 -0.25223092025E+03  0.14598625312E+04  0.17404235699E+04  0.90625193984E+03 0.  0.
         23    2    4    4    0    0  0.19529273393E+03  0.26219843106E+03  0.48877667650E+03  0.59515220003E+03  0.91740026917E+02 0.  0.
         23    2    4    4    0    0 -0.30914604738E+03 -0.51442935131E+03  0.97108585474E+03  0.11452713699E+04  0.91814689848E+02 0.  0.
          3    1    3    3  502    0  0.83435239747E+02  0.14917163104E+03  0.15693792568E+04  0.15786591990E+04  0.00000000000E+00 0. -1.
         -4    1    3    3    0  502  0.30418073705E+02  0.10305928920E+03  0.60361116036E+03  0.61310105954E+03  0.00000000000E+00 0.  1.
         11    1    5    5    0    0  0.20519821417E+03  0.24839688101E+03  0.47000012641E+03  0.56983105954E+03  0.00000000000E+00 0. -1.
        -11    1    5    5    0    0 -0.99054802385E+01  0.13801550051E+02  0.18776550093E+02  0.25321140495E+02  0.00000000000E+00 0.  1.
          1    1    6    6  503    0 -0.29625269606E+03 -0.49675832589E+03  0.95993519519E+03  0.11207185522E+04  0.00000000000E+00 0. -1.
         -1    1    6    6    0  503 -0.12893351321E+02 -0.17671025414E+02  0.11150659550E+02  0.24552817677E+02  0.00000000000E+00 0.  1.
<mgrwt>
<rscale>  0 0.15048087E+04</rscale>
<asrwt>0</asrwt>
<pdfrwt beam="1">  1        1 0.58192583E+00 0.15048087E+04</pdfrwt>
<pdfrwt beam="2">  1       -2 0.23025455E-01 0.15048087E+04</pdfrwt>
<totfact> 0.21162108E+00</totfact>
</mgrwt>
</event>
<event>
12    4  0.4794076E-008  0.1994408E+04  0.7818608E-02  0.8609240E-01
          1   -1    0    0  501    0  0.00000000000E+00  0.00000000000E+00  0.13120625913E+04  0.13120625913E+04  0.00000000000E+00 0. -1.
         -2   -1    0    0    0  501 -0.00000000000E+00 -0.00000000000E+00 -0.75790267085E+03  0.75790267085E+03  0.00000000000E+00 0.  1.
        -24    2    1    2    0    0 -0.51353427343E+02  0.34608393410E+03 -0.51275722883E+03  0.62601797069E+03  0.81038632564E+02 0.  0.
        254    2    1    2    0    0  0.51353427343E+02 -0.34608393410E+03  0.10669171492E+04  0.14439472914E+04  0.90788783070E+03 0.  0.
         23    2    4    4    0    0  0.27533137429E+03 -0.10096954566E+03 -0.15843861322E+02  0.30782518731E+03  0.92212272421E+02 0.  0.
         23    2    4    4    0    0 -0.22397794694E+03 -0.24511438844E+03  0.10827610106E+04  0.11361221041E+04  0.90304182191E+02 0.  0.
          3    1    3    3  502    0  0.42239873703E+01 -0.24733439130E+01 -0.15295360422E+02  0.16059500299E+02  0.00000000000E+00 0. -1.
         -4    1    3    3    0  502 -0.55577414714E+02  0.34855727801E+03 -0.49746186840E+03  0.60995847039E+03  0.00000000000E+00 0.  1.
         11    1    5    5    0    0  0.27273508760E+03 -0.10078339167E+03  0.10192402775E+01  0.29076237531E+03  0.00000000000E+00 0.  1.
        -11    1    5    5    0    0  0.25962866835E+01 -0.18615399499E+00 -0.16863101600E+02  0.17062812002E+02  0.00000000000E+00 0. -1.
          2    1    6    6  503    0 -0.32046138225E+02 -0.48063145017E+02  0.98944128699E+02  0.11457295269E+03  0.00000000000E+00 0. -1.
         -2    1    6    6    0  503 -0.19193180872E+03 -0.19705124342E+03  0.98381688186E+03  0.10215491514E+04  0.00000000000E+00 0.  1.
<mgrwt>
<rscale>  0 0.19944079E+04</rscale>
<asrwt>0</asrwt>
<pdfrwt beam="1">  1        1 0.20185578E+00 0.19944079E+04</pdfrwt>
<pdfrwt beam="2">  1       -2 0.11660041E+00 0.19944079E+04</pdfrwt>
<totfact> 0.41165560E+00</totfact>
</mgrwt>
</event>
<event>
12    4  0.4280696E-008  0.1511872E+04  0.7818608E-02  0.8876596E-01
          1   -1    0    0  501    0  0.00000000000E+00  0.00000000000E+00  0.13131485787E+04  0.13131485787E+04  0.00000000000E+00 0. -1.
         -2   -1    0    0    0  501 -0.00000000000E+00 -0.00000000000E+00 -0.43516713252E+03  0.43516713252E+03  0.00000000000E+00 0.  1.
        -24    2    1    2    0    0  0.12513405903E+03 -0.17975560150E+03 -0.21614252007E+03  0.31786776970E+03  0.79697685223E+02 0.  0.
        254    2    1    2    0    0 -0.12513405903E+03  0.17975560150E+03  0.10941239663E+04  0.14304479416E+04  0.89504382626E+03 0.  0.
         23    2    4    4    0    0 -0.17066926013E+03  0.48510519303E+03  0.93660615618E+03  0.10721321535E+04  0.88211212720E+02 0.  0.
         23    2    4    4    0    0  0.45535201100E+02 -0.30534959153E+03  0.15751781010E+03  0.35831578809E+03  0.90920382251E+02 0.  0.
          1    1    3    3  502    0  0.63054840098E+02 -0.62153848463E+02 -0.39975851292E+02  0.97144646919E+02  0.00000000000E+00 0. -1.
         -2    1    3    3    0  502  0.62079218934E+02 -0.11760175304E+03 -0.17616666878E+03  0.22072312278E+03  0.00000000000E+00 0.  1.
         11    1    5    5    0    0 -0.14951422505E+02  0.32689505550E+01  0.24360977768E+02  0.28769572650E+02  0.00000000000E+00 0. -1.
        -11    1    5    5    0    0 -0.15571783763E+03  0.48183624248E+03  0.91224517841E+03  0.10433625808E+04  0.00000000000E+00 0.  1.
          1    1    6    6  503    0  0.63079957022E+02 -0.23699689608E+03  0.91740454259E+02  0.26184522275E+03  0.00000000000E+00 0. -1.
         -1    1    6    6    0  503 -0.17544755922E+02 -0.68352695452E+02  0.65777355838E+02  0.96470565340E+02  0.00000000000E+00 0.  1.
<mgrwt>
<rscale>  0 0.15118718E+04</rscale>
<asrwt>0</asrwt>
<pdfrwt beam="1">  1        1 0.20202286E+00 0.15118718E+04</pdfrwt>
<pdfrwt beam="2">  1       -2 0.66948790E-01 0.15118718E+04</pdfrwt>
<totfact> 0.15370802E+01</totfact>
</mgrwt>
</event>
<event>
12    4  0.4280696E-008  0.1473905E+04  0.7818608E-02  0.8901993E-01
          1   -1    0    0  501    0  0.00000000000E+00  0.00000000000E+00  0.66827046408E+03  0.66827046408E+03  0.00000000000E+00 0. -1.
         -2   -1    0    0    0  501 -0.00000000000E+00 -0.00000000000E+00 -0.81269367284E+03  0.81269367284E+03  0.00000000000E+00 0.  1.
        -24    2    1    2    0    0 -0.37212144389E+02  0.13130252854E+02 -0.50528555818E+03  0.51324967309E+03  0.80960387831E+02 0.  0.
        254    2    1    2    0    0  0.37212144389E+02 -0.13130252854E+02  0.36086234942E+03  0.96771446382E+03  0.89704654341E+03 0.  0.
         23    2    4    4    0    0 -0.27288310422E+03 -0.15613920797E+03  0.49102784769E+03  0.58998332310E+03  0.90151724867E+02 0.  0.
         23    2    4    4    0    0  0.31009524861E+03  0.14300895512E+03 -0.13016549827E+03  0.37773114072E+03  0.95536031289E+02 0.  0.
          3    1    3    3  502    0 -0.33243880872E+02 -0.19539303507E+02 -0.10936990932E+03  0.11596860377E+03  0.00000000000E+00 0. -1.
         -4    1    3    3    0  502 -0.39682635175E+01  0.32669556361E+02 -0.39591564886E+03  0.39728106932E+03  0.00000000000E+00 0.  1.
         11    1    5    5    0    0 -0.17195484954E+03 -0.53426341318E+02  0.31196025475E+03  0.36019723038E+03  0.00000000000E+00 0. -1.
        -11    1    5    5    0    0 -0.10092825468E+03 -0.10271286665E+03  0.17906759294E+03  0.22978609273E+03  0.00000000000E+00 0.  1.
          2    1    6    6  503    0  0.21381037085E+03  0.12053373869E+03 -0.50101520611E+02  0.25050632570E+03  0.00000000000E+00 0.  1.
         -2    1    6    6    0  503  0.96284877760E+02  0.22475216425E+02 -0.80063977664E+02  0.12722481502E+03  0.00000000000E+00 0. -1.
<mgrwt>
<rscale>  0 0.14739053E+04</rscale>
<asrwt>0</asrwt>
<pdfrwt beam="1">  1        1 0.10281084E+00 0.14739053E+04</pdfrwt>
<pdfrwt beam="2">  1       -2 0.12502979E+00 0.14739053E+04</pdfrwt>
<totfact> 0.11880250E+01</totfact>
</mgrwt>
</event>
<event>
12    4  0.4280696E-008  0.1172622E+04  0.7818608E-02  0.9137163E-01
         -4   -1    0    0    0  501 -0.00000000000E+00  0.00000000000E+00  0.15943721620E+03  0.15943721620E+03  0.00000000000E+00 0.  1.
          3   -1    0    0  501    0  0.00000000000E+00 -0.00000000000E+00 -0.21560891433E+04  0.21560891433E+04  0.00000000000E+00 0. -1.
        -24    2    1    2    0    0  0.22958644775E+02  0.13662864066E+03 -0.84127072694E+02  0.18147048266E+03  0.81606904713E+02 0.  0.
        254    2    1    2    0    0 -0.22958644775E+02 -0.13662864066E+03 -0.19125248544E+04  0.21340558769E+04  0.93661554648E+03 0.  0.
         23    2    4    4    0    0 -0.14749160265E+03 -0.49540841885E+03 -0.13571286391E+04  0.14550486995E+04  0.90472650142E+02 0.  0.
         23    2    4    4    0    0  0.12453295787E+03  0.35877977818E+03 -0.55539621530E+03  0.67900717737E+03  0.91402429488E+02 0.  0.
          1    1    3    3  502    0  0.38646119442E+02  0.28977610029E+02 -0.86714306478E+01  0.49075636933E+02  0.00000000000E+00 0. -1.
         -2    1    3    3    0  502 -0.15687474667E+02  0.10765103063E+03 -0.75455642046E+02  0.13239484572E+03  0.00000000000E+00 0.  1.
         11    1    5    5    0    0 -0.15159091823E+03 -0.49747840456E+03 -0.13476700399E+04  0.14445342176E+04  0.00000000000E+00 0. -1.
        -11    1    5    5    0    0  0.40993155798E+01  0.20699857189E+01 -0.94585992242E+01  0.10514481841E+02  0.00000000000E+00 0.  1.
          1    1    6    6  503    0  0.63113074066E+02  0.27851536981E+03 -0.36493754638E+03  0.46339344416E+03  0.00000000000E+00 0. -1.
         -1    1    6    6    0  503  0.61419883807E+02  0.80264408379E+02 -0.19045866892E+03  0.21561373321E+03  0.00000000000E+00 0.  1.
<mgrwt>
<rscale>  0 0.11726224E+04</rscale>
<asrwt>0</asrwt>
<pdfrwt beam="1">  1        3 0.33170601E+00 0.11726224E+04</pdfrwt>
<pdfrwt beam="2">  1       -4 0.24528804E-01 0.11726224E+04</pdfrwt>
<totfact> 0.94091719E-01</totfact>
</mgrwt>
</event>
<event>
12    4  0.4280696E-008  0.1626822E+04  0.7818608E-02  0.8804237E-01
         -2   -1    0    0    0  501 -0.00000000000E+00  0.00000000000E+00  0.16907587767E+04  0.16907587767E+04  0.00000000000E+00 0.  1.
          1   -1    0    0  501    0  0.00000000000E+00 -0.00000000000E+00 -0.39132582850E+03  0.39132582850E+03  0.00000000000E+00 0. -1.
        -24    2    1    2    0    0  0.37002885703E+03  0.38281326232E+03  0.37154518368E+03  0.65425201135E+03  0.80824018644E+02 0.  0.
        254    2    1    2    0    0 -0.37002885703E+03 -0.38281326232E+03  0.92788776451E+03  0.14278325939E+04  0.94565472753E+03 0.  0.
         23    2    4    4    0    0 -0.60093203311E+03 -0.14932089361E+03  0.25872018417E+03  0.67713995525E+03  0.90367846124E+02 0.  0.
         23    2    4    4    0    0  0.23090317608E+03 -0.23349236871E+03  0.66916758033E+03  0.75069263860E+03  0.88990022487E+02 0.  0.
          3    1    3    3  502    0  0.34432667386E+03  0.34104015575E+03  0.30896668463E+03  0.57474312382E+03  0.00000000000E+00 0. -1.
         -4    1    3    3    0  502  0.25702183169E+02  0.41773106576E+02  0.62578499053E+02  0.79508887531E+02  0.00000000000E+00 0.  1.
         11    1    5    5    0    0 -0.25129081127E+03 -0.70670046268E+02  0.15696050412E+03  0.30459469319E+03  0.00000000000E+00 0. -1.
        -11    1    5    5    0    0 -0.34964122185E+03 -0.78650847340E+02  0.10175968006E+03  0.37254526206E+03  0.00000000000E+00 0.  1.
          1    1    6    6  503    0  0.61093739041E+02 -0.18160933194E+02  0.95026546536E+02  0.11442162816E+03  0.00000000000E+00 0. -1.
         -1    1    6    6    0  503  0.16980943704E+03 -0.21533143552E+03  0.57414103380E+03  0.63627101044E+03  0.00000000000E+00 0.  1.
<mgrwt>
<rscale>  0 0.16268222E+04</rscale>
<asrwt>0</asrwt>
<pdfrwt beam="1">  1        1 0.60203975E-01 0.16268222E+04</pdfrwt>
<pdfrwt beam="2">  1       -2 0.26011673E+00 0.16268222E+04</pdfrwt>
<totfact> 0.28820342E+00</totfact>
</mgrwt>
</event>
<event>
12    4  0.4280696E-008  0.1824079E+04  0.7818608E-02  0.8693598E-01
         -2   -1    0    0    0  501 -0.00000000000E+00  0.00000000000E+00  0.12360491540E+04  0.12360491540E+04  0.00000000000E+00 0.  1.
          1   -1    0    0  501    0  0.00000000000E+00 -0.00000000000E+00 -0.67296360585E+03  0.67296360585E+03  0.00000000000E+00 0. -1.
        -24    2    1    2    0    0 -0.25075375948E+03 -0.59216006913E+03  0.45935973436E+03  0.79421247099E+03  0.78937241913E+02 0.  0.
        254    2    1    2    0    0  0.25075375948E+03  0.59216006913E+03  0.10372581380E+03  0.11148002889E+04  0.90470417499E+03 0.  0.
         23    2    4    4    0    0  0.18836531249E+03 -0.12221816391E+03 -0.21467180665E+03  0.32497174253E+03  0.95414245965E+02 0.  0.
         23    2    4    4    0    0  0.62388446985E+02  0.71437823304E+03  0.31839762045E+03  0.78982854634E+03  0.90683569322E+02 0.  0.
          3    1    3    3  502    0 -0.77743604582E+02 -0.15822494605E+03  0.85785344733E+02  0.19605694830E+03  0.00000000000E+00 0. -1.
         -4    1    3    3    0  502 -0.17301015489E+03 -0.43393512309E+03  0.37357438963E+03  0.59815552270E+03  0.00000000000E+00 0.  1.
         11    1    5    5    0    0  0.12876799346E+03 -0.11427061811E+03 -0.19840500739E+03  0.26268520564E+03  0.00000000000E+00 0. -1.
        -11    1    5    5    0    0  0.59597319030E+02 -0.79475457953E+01 -0.16266799260E+02  0.62286536891E+02  0.00000000000E+00 0.  1.
          4    1    6    6  503    0  0.49388896718E+02  0.31557443026E+03  0.18490383453E+03  0.36907439924E+03  0.00000000000E+00 0. -1.
         -4    1    6    6    0  503  0.12999550267E+02  0.39880380278E+03  0.13349378592E+03  0.42075414710E+03  0.00000000000E+00 0.  1.
<mgrwt>
<rscale>  0 0.18240791E+04</rscale>
<asrwt>0</asrwt>
<pdfrwt beam="1">  1        1 0.10353286E+00 0.18240791E+04</pdfrwt>
<pdfrwt beam="2">  1       -2 0.19016141E+00 0.18240791E+04</pdfrwt>
<totfact> 0.36841267E+00</totfact>
</mgrwt>
</event>
<event>
12    4  0.4280696E-008  0.1558066E+04  0.7818608E-02  0.8846732E-01
         -2   -1    0    0    0  501 -0.00000000000E+00  0.00000000000E+00  0.80658592741E+03  0.80658592741E+03  0.00000000000E+00 0.  1.
          1   -1    0    0  501    0  0.00000000000E+00 -0.00000000000E+00 -0.75242140641E+03  0.75242140641E+03  0.00000000000E+00 0. -1.
        -24    2    1    2    0    0  0.21798876873E+02 -0.27467050130E+03  0.44553593753E+03  0.52943388299E+03  0.76673916685E+02 0.  0.
        254    2    1    2    0    0 -0.21798876873E+02  0.27467050130E+03 -0.39137141653E+03  0.10295734508E+04  0.91155407391E+03 0.  0.
         23    2    4    4    0    0 -0.77300503051E+02  0.55048028671E+03 -0.30693893750E+02  0.56372060084E+03  0.88514896300E+02 0.  0.
         23    2    4    4    0    0  0.55501626177E+02 -0.27580978541E+03 -0.36067752278E+03  0.46585284999E+03  0.88199400015E+02 0.  0.
          3    1    3    3  502    0  0.29322332825E+02 -0.18660367706E+03  0.23792511765E+03  0.30379119984E+03  0.00000000000E+00 0. -1.
         -4    1    3    3    0  502 -0.75234559522E+01 -0.88066824243E+02  0.20761081989E+03  0.22564268314E+03  0.00000000000E+00 0.  1.
         11    1    5    5    0    0 -0.54725439038E+02  0.14812933129E+03 -0.29982529965E+02  0.16073619558E+03  0.00000000000E+00 0. -1.
        -11    1    5    5    0    0 -0.22575064012E+02  0.40235095542E+03 -0.71136378524E+00  0.40298440526E+03  0.00000000000E+00 0.  1.
          3    1    6    6  503    0 -0.94645498953E+01 -0.21741511086E+02 -0.54810580734E+01  0.24337481518E+02  0.00000000000E+00 0. -1.
         -3    1    6    6    0  503  0.64966176073E+02 -0.25406827433E+03 -0.35519646471E+03  0.44151536847E+03  0.00000000000E+00 0.  1.
<mgrwt>
<rscale>  0 0.15580661E+04</rscale>
<asrwt>0</asrwt>
<pdfrwt beam="1">  1        1 0.11575714E+00 0.15580661E+04</pdfrwt>
<pdfrwt beam="2">  1       -2 0.12409014E+00 0.15580661E+04</pdfrwt>
<totfact> 0.10033213E+01</totfact>
</mgrwt>
</event>
<event>
12    4  0.4280696E-008  0.1383988E+04  0.7818608E-02  0.8965491E-01
          1   -1    0    0  501    0  0.00000000000E+00  0.00000000000E+00  0.28663486859E+04  0.28663486859E+04  0.00000000000E+00 0. -1.
         -2   -1    0    0    0  501 -0.00000000000E+00 -0.00000000000E+00 -0.16706119466E+03  0.16706119466E+03  0.00000000000E+00 0.  1.
        -24    2    1    2    0    0  0.33027359881E+03  0.20870122455E+03  0.68436447455E+03  0.79182965925E+03  0.77476603145E+02 0.  0.
        254    2    1    2    0    0 -0.33027359881E+03 -0.20870122455E+03  0.20149230167E+04  0.22415802213E+04  0.90118270857E+03 0.  0.
         23    2    4    4    0    0 -0.32661750793E+03 -0.22816827295E+03  0.26030996688E+03  0.48450847073E+03  0.90815318565E+02 0.  0.
         23    2    4    4    0    0 -0.36560908794E+01  0.19467048403E+02  0.17546130498E+04  0.17570717506E+04  0.90784630743E+02 0.  0.
          3    1    3    3  502    0  0.15679627380E+03  0.10558391073E+03  0.25521534547E+03  0.31759708160E+03  0.00000000000E+00 0. -1.
         -2    1    3    3    0  502  0.17347732501E+03  0.10311731382E+03  0.42914912909E+03  0.47423257764E+03  0.00000000000E+00 0.  1.
         11    1    5    5    0    0 -0.49838365348E+02 -0.49585125629E+02  0.88425160108E+02  0.11296705840E+03  0.00000000000E+00 0. -1.
        -11    1    5    5    0    0 -0.27677914258E+03 -0.17858314732E+03  0.17188480677E+03  0.37154141232E+03  0.00000000000E+00 0.  1.
          3    1    6    6  503    0  0.15326552470E+01  0.53436147082E+02  0.76679711217E+03  0.76865829995E+03  0.00000000000E+00 0. -1.
         -3    1    6    6    0  503 -0.51887461264E+01 -0.33969098679E+02  0.98781593762E+03  0.98841345062E+03  0.00000000000E+00 0.  1.
<mgrwt>
<rscale>  0 0.13839879E+04</rscale>
<asrwt>0</asrwt>
<pdfrwt beam="1">  1        1 0.44097669E+00 0.13839879E+04</pdfrwt>
<pdfrwt beam="2">  1       -2 0.25701724E-01 0.13839879E+04</pdfrwt>
<totfact> 0.87955248E+00</totfact>
</mgrwt>
</event>
<event>
12    4  0.4280696E-008  0.2132555E+04  0.7818608E-02  0.8547037E-01
          1   -1    0    0  501    0  0.00000000000E+00  0.00000000000E+00  0.12618454960E+04  0.12618454960E+04  0.00000000000E+00 0. -1.
         -2   -1    0    0    0  501 -0.00000000000E+00 -0.00000000000E+00 -0.90101980038E+03  0.90101980038E+03  0.00000000000E+00 0.  1.
        -24    2    1    2    0    0 -0.46488691412E+03 -0.96828959287E+02 -0.59544781966E+03  0.76586292733E+03  0.80574358455E+02 0.  0.
        254    2    1    2    0    0  0.46488691412E+03  0.96828959287E+02  0.95627351528E+03  0.13970023691E+04  0.90092224573E+03 0.  0.
         23    2    4    4    0    0  0.62955316700E+02 -0.35822349479E+03  0.53061839983E+03  0.64973185483E+03  0.91149069225E+02 0.  0.
         23    2    4    4    0    0  0.40193159742E+03  0.45505245408E+03  0.42565511545E+03  0.74727051423E+03  0.92785770210E+02 0.  0.
          3    1    3    3  502    0 -0.14262166218E+03  0.46872891480E+01 -0.15395831301E+03  0.20991920196E+03  0.00000000000E+00 0. -1.
         -4    1    3    3    0  502 -0.32226525194E+03 -0.10151624844E+03 -0.44148950665E+03  0.55594372537E+03  0.00000000000E+00 0.  1.
         11    1    5    5    0    0  0.17762021598E+02 -0.17314492687E+03  0.32985891081E+03  0.37296321019E+03  0.00000000000E+00 0. -1.
        -11    1    5    5    0    0  0.45193295102E+02 -0.18507856792E+03  0.20075948903E+03  0.27676864465E+03  0.00000000000E+00 0.  1.
          4    1    6    6  503    0  0.23019641223E+02  0.69116463354E+02  0.60451795071E+02  0.94664718432E+02  0.00000000000E+00 0. -1.
         -4    1    6    6    0  503  0.37891195620E+03  0.38593599073E+03  0.36520332038E+03  0.65260579579E+03  0.00000000000E+00 0.  1.
<mgrwt>
<rscale>  0 0.21325551E+04</rscale>
<asrwt>0</asrwt>
<pdfrwt beam="1">  1        1 0.19413008E+00 0.21325551E+04</pdfrwt>
<pdfrwt beam="2">  1       -2 0.13861843E+00 0.21325551E+04</pdfrwt>
<totfact> 0.28572254E+00</totfact>
</mgrwt>
</event>
<event>
12    4  0.4280696E-008  0.1467162E+04  0.7818608E-02  0.8906588E-01
          1   -1    0    0  501    0  0.00000000000E+00  0.00000000000E+00  0.65641066204E+03  0.65641066204E+03  0.00000000000E+00 0. -1.
         -2   -1    0    0    0  501 -0.00000000000E+00 -0.00000000000E+00 -0.81982350823E+03  0.81982350823E+03  0.00000000000E+00 0.  1.
        -24    2    1    2    0    0  0.40112889835E+03 -0.20187389593E+03 -0.66443746439E+02  0.46096671210E+03  0.80112890857E+02 0.  0.
        254    2    1    2    0    0 -0.40112889835E+03  0.20187389593E+03 -0.96969099750E+02  0.10152674582E+04  0.90537701670E+03 0.  0.
         23    2    4    4    0    0 -0.11356705338E+03  0.41430051910E+03 -0.35557489184E+03  0.56469442197E+03  0.88903828693E+02 0.  0.
         23    2    4    4    0    0 -0.28756184496E+03 -0.21242662317E+03  0.25860579209E+03  0.45057303620E+03  0.91226204256E+02 0.  0.
          3    1    3    3  502    0  0.16111788667E+03 -0.38634345375E+02 -0.17505193386E+02  0.16660737631E+03  0.00000000000E+00 0. -1.
         -4    1    3    3    0  502  0.24001101168E+03 -0.16323955055E+03 -0.48938553053E+02  0.29435933579E+03  0.00000000000E+00 0.  1.
         11    1    5    5    0    0 -0.11071891149E+03  0.34933354418E+03 -0.26093550677E+03  0.44986658149E+03  0.00000000000E+00 0.  1.
        -11    1    5    5    0    0 -0.28481418930E+01  0.64966974921E+02 -0.94639385065E+02  0.11482784047E+03  0.00000000000E+00 0. -1.
          4    1    6    6  503    0 -0.18443072799E+03 -0.81520846773E+02  0.12797560486E+03  0.23882650047E+03  0.00000000000E+00 0. -1.
         -4    1    6    6    0  503 -0.10313111697E+03 -0.13090577640E+03  0.13063018722E+03  0.21174653574E+03  0.00000000000E+00 0.  1.
<mgrwt>
<rscale>  0 0.14671617E+04</rscale>
<asrwt>0</asrwt>
<pdfrwt beam="1">  1        1 0.10098626E+00 0.14671617E+04</pdfrwt>
<pdfrwt beam="2">  1       -2 0.12612669E+00 0.14671617E+04</pdfrwt>
<totfact> 0.11942756E+01</totfact>
</mgrwt>
</event>
<event>
12    4  0.4280696E-008  0.1630863E+04  0.7818608E-02  0.8801809E-01
         -2   -1    0    0    0  501 -0.00000000000E+00  0.00000000000E+00  0.74279518808E+03  0.74279518808E+03  0.00000000000E+00 0.  1.
          1   -1    0    0  501    0  0.00000000000E+00 -0.00000000000E+00 -0.89517063330E+03  0.89517063330E+03  0.00000000000E+00 0. -1.
        -24    2    1    2    0    0 -0.43453549323E+03 -0.20529327473E+02  0.32948090595E+03  0.55114622384E+03  0.77213628966E+02 0.  0.
        254    2    1    2    0    0  0.43453549323E+03  0.20529327473E+02 -0.48185635118E+03  0.10868195975E+04  0.87163567290E+03 0.  0.
         23    2    4    4    0    0 -0.25361711208E+03  0.54359827060E+02 -0.93349656001E+02  0.29128803618E+03  0.94116584128E+02 0.  0.
         23    2    4    4    0    0  0.68815260531E+03 -0.33830499586E+02 -0.38850669518E+03  0.79553156136E+03  0.85055875908E+02 0.  0.
          1    1    3    3  502    0 -0.19262050722E+03  0.25512257437E+02  0.12477482910E+03  0.23091620354E+03  0.00000000000E+00 0. -1.
         -2    1    3    3    0  502 -0.24191498601E+03 -0.46041584910E+02  0.20470607685E+03  0.32023002029E+03  0.00000000000E+00 0.  1.
         11    1    5    5    0    0 -0.22034442773E+03  0.10198510832E+02 -0.76889020439E+02  0.23359708457E+03  0.00000000000E+00 0. -1.
        -11    1    5    5    0    0 -0.33272684353E+02  0.44161316227E+02 -0.16460635563E+02  0.57690951614E+02  0.00000000000E+00 0.  1.
          3    1    6    6  503    0  0.89096403595E+02  0.20709508254E+02 -0.35862873739E+02  0.98250692509E+02  0.00000000000E+00 0. -1.
         -3    1    6    6    0  503  0.59905620172E+03 -0.54540007840E+02 -0.35264382144E+03  0.69728086885E+03  0.00000000000E+00 0.  1.
<mgrwt>
<rscale>  0 0.16308629E+04</rscale>
<asrwt>0</asrwt>
<pdfrwt beam="1">  1        1 0.13771856E+00 0.16308629E+04</pdfrwt>
<pdfrwt beam="2">  1       -2 0.11427618E+00 0.16308629E+04</pdfrwt>
<totfact> 0.92225311E+00</totfact>
</mgrwt>
</event>
<event>
12    4  0.4280696E-008  0.2524644E+04  0.7818608E-02  0.8394258E-01
          1   -1    0    0  501    0  0.00000000000E+00  0.00000000000E+00  0.15445826610E+04  0.15445826610E+04  0.00000000000E+00 0. -1.
         -2   -1    0    0    0  501 -0.00000000000E+00 -0.00000000000E+00 -0.10316421444E+04  0.10316421444E+04  0.00000000000E+00 0.  1.
        -24    2    1    2    0    0  0.10033870099E+04 -0.43249977033E+03  0.17106451573E+03  0.11084434177E+04  0.74445945116E+02 0.  0.
        254    2    1    2    0    0 -0.10033870099E+04  0.43249977033E+03  0.34187600089E+03  0.14677813877E+04  0.91851045683E+03 0.  0.
         23    2    4    4    0    0 -0.13664430699E+03 -0.13585647379E+03  0.36980176013E+03  0.42693346725E+03  0.91598010713E+02 0.  0.
         23    2    4    4    0    0 -0.86674270288E+03  0.56835624412E+03 -0.27925759235E+02  0.10408479205E+04  0.91174625515E+02 0.  0.
          1    1    3    3  502    0  0.95138378369E+02 -0.46773195606E+02 -0.48393008049E+01  0.10612474593E+03  0.00000000000E+00 0. -1.
         -2    1    3    3    0  502  0.90824863150E+03 -0.38572657472E+03  0.17590381654E+03  0.10023186717E+04  0.00000000000E+00 0.  1.
         11    1    5    5    0    0 -0.94695866117E+02 -0.13849594019E+03  0.26075895136E+03  0.31007041656E+03  0.00000000000E+00 0.  1.
        -11    1    5    5    0    0 -0.41948440873E+02  0.26394664061E+01  0.10904280877E+03  0.11686305070E+03  0.00000000000E+00 0. -1.
          3    1    6    6  503    0 -0.77134948213E+01  0.76656047646E+01 -0.10148646594E+02  0.14874626935E+02  0.00000000000E+00 0. -1.
         -3    1    6    6    0  503 -0.85902920805E+03  0.56069063935E+03 -0.17777112641E+02  0.10259732936E+04  0.00000000000E+00 0.  1.
<mgrwt>
<rscale>  0 0.25246438E+04</rscale>
<asrwt>0</asrwt>
<pdfrwt beam="1">  1        1 0.23762810E+00 0.25246438E+04</pdfrwt>
<pdfrwt beam="2">  1       -2 0.15871418E+00 0.25246438E+04</pdfrwt>
<totfact> 0.12214002E+00</totfact>
</mgrwt>
</event>
<event>
12    4  0.4280696E-008  0.1741741E+04  0.7818608E-02  0.8737910E-01
         -2   -1    0    0    0  501 -0.00000000000E+00  0.00000000000E+00  0.42015135636E+03  0.42015135636E+03  0.00000000000E+00 0.  1.
          1   -1    0    0  501    0  0.00000000000E+00 -0.00000000000E+00 -0.18051004629E+04  0.18051004629E+04  0.00000000000E+00 0. -1.
        -24    2    1    2    0    0  0.32590332142E+03 -0.35163569481E+03  0.29613171052E+02  0.48676174204E+03  0.78736375593E+02 0.  0.
        254    2    1    2    0    0 -0.32590332142E+03  0.35163569481E+03 -0.14145622776E+04  0.17384900773E+04  0.88966323665E+03 0.  0.
         23    2    4    4    0    0  0.22315592923E+03 -0.12766329425E+03 -0.45027628193E+03  0.52629927863E+03  0.90253615849E+02 0.  0.
         23    2    4    4    0    0 -0.54905925065E+03  0.47929898906E+03 -0.96428599570E+03  0.12121907986E+04  0.91462938484E+02 0.  0.
          3    1    3    3  502    0  0.61397912728E+02 -0.50791276740E+02 -0.22498387298E+02  0.82798761533E+02  0.00000000000E+00 0. -1.
         -4    1    3    3    0  502  0.26450540869E+03 -0.30084441807E+03  0.52111558349E+02  0.40396298051E+03  0.00000000000E+00 0.  1.
         11    1    5    5    0    0  0.14766538974E+03 -0.12617001513E+03 -0.35576727292E+03  0.40533232356E+03  0.00000000000E+00 0. -1.
        -11    1    5    5    0    0  0.75490539492E+02 -0.14932791225E+01 -0.94509009007E+02  0.12096695507E+03  0.00000000000E+00 0.  1.
          1    1    6    6  503    0 -0.48966487596E+03  0.38566298997E+03 -0.80475667934E+03  0.10179100871E+04  0.00000000000E+00 0. -1.
         -1    1    6    6    0  503 -0.59394374693E+02  0.93635999093E+02 -0.15952931636E+03  0.19428071147E+03  0.00000000000E+00 0.  1.
<mgrwt>
<rscale>  0 0.17417410E+04</rscale>
<asrwt>0</asrwt>
<pdfrwt beam="1">  1        1 0.27770776E+00 0.17417410E+04</pdfrwt>
<pdfrwt beam="2">  1       -2 0.64638672E-01 0.17417410E+04</pdfrwt>
<totfact> 0.74340791E+00</totfact>
</mgrwt>
</event>
<event>
12    4  0.4280696E-008  0.2488845E+04  0.7818608E-02  0.8406970E-01
         -2   -1    0    0    0  501 -0.00000000000E+00  0.00000000000E+00  0.96952498940E+03  0.96952498940E+03  0.00000000000E+00 0.  1.
          1   -1    0    0  501    0  0.00000000000E+00 -0.00000000000E+00 -0.15972639331E+04  0.15972639331E+04  0.00000000000E+00 0. -1.
        -24    2    1    2    0    0 -0.29803846813E+03 -0.79937567814E+03  0.41124621564E+03  0.95047233577E+03  0.80285788844E+02 0.  0.
        254    2    1    2    0    0  0.29803846813E+03  0.79937567814E+03 -0.10389851593E+04  0.16163165867E+04  0.89730749687E+03 0.  0.
         23    2    4    4    0    0  0.59243467412E+03  0.66858773852E+03 -0.82055399308E+03  0.12164124356E+04  0.91443702944E+02 0.  0.
         23    2    4    4    0    0 -0.29439620599E+03  0.13078793962E+03 -0.21843116627E+03  0.39990415110E+03  0.91850663702E+02 0.  0.
          3    1    3    3  502    0 -0.10596101624E+03 -0.31981333709E+03  0.12138461787E+03  0.35810966616E+03  0.00000000000E+00 0. -1.
         -4    1    3    3    0  502 -0.19207745189E+03 -0.47956234106E+03  0.28986159777E+03  0.59236266961E+03  0.00000000000E+00 0.  1.
         11    1    5    5    0    0  0.42036086344E+03  0.43853171064E+03 -0.60408837420E+03  0.85670069487E+03  0.00000000000E+00 0.  1.
        -11    1    5    5    0    0  0.17207381069E+03  0.23005602788E+03 -0.21646561888E+03  0.35971174076E+03  0.00000000000E+00 0. -1.
          3    1    6    6  503    0 -0.76777773468E+02  0.68645092388E+02 -0.35621283118E+02  0.10897637826E+03  0.00000000000E+00 0. -1.
         -3    1    6    6    0  503 -0.21761843252E+03  0.62142847230E+02 -0.18280988315E+03  0.29092777284E+03  0.00000000000E+00 0.  1.
<mgrwt>
<rscale>  0 0.24888450E+04</rscale>
<asrwt>0</asrwt>
<pdfrwt beam="1">  1        1 0.24573291E+00 0.24888450E+04</pdfrwt>
<pdfrwt beam="2">  1       -2 0.14915769E+00 0.24888450E+04</pdfrwt>
<totfact> 0.13311813E+00</totfact>
</mgrwt>
</event>
<event>
12    4  0.4280696E-008  0.1979715E+04  0.7818608E-02  0.8616164E-01
          1   -1    0    0  501    0  0.00000000000E+00  0.00000000000E+00  0.12660085895E+04  0.12660085895E+04  0.00000000000E+00 0. -1.
         -2   -1    0    0    0  501 -0.00000000000E+00 -0.00000000000E+00 -0.77394265706E+03  0.77394265706E+03  0.00000000000E+00 0.  1.
        -24    2    1    2    0    0 -0.65499870467E+03 -0.10140484403E+03 -0.22523441379E+03  0.70564188824E+03  0.88846428034E+02 0.  0.
        254    2    1    2    0    0  0.65499870467E+03  0.10140484403E+03  0.71730034622E+03  0.13343093583E+04  0.90915093989E+03 0.  0.
         23    2    4    4    0    0  0.32387215550E+02 -0.51190334349E+02  0.67618036230E+03  0.68504916153E+03  0.91668365847E+02 0.  0.
         23    2    4    4    0    0  0.62261148911E+03  0.15259517838E+03  0.41119983918E+02  0.64926019678E+03  0.94433019666E+02 0.  0.
          1    1    3    3  502    0 -0.24088683314E+03 -0.25705118717E+01 -0.54819748744E+02  0.24705926164E+03  0.00000000000E+00 0. -1.
         -2    1    3    3    0  502 -0.41411187153E+03 -0.98834332162E+02 -0.17041466504E+03  0.45858262660E+03  0.00000000000E+00 0.  1.
         11    1    5    5    0    0 -0.30185153032E+02 -0.11562759120E+02  0.13455113404E+03  0.13837936455E+03  0.00000000000E+00 0. -1.
        -11    1    5    5    0    0  0.62572368583E+02 -0.39627575229E+02  0.54162922826E+03  0.54666979698E+03  0.00000000000E+00 0.  1.
          4    1    6    6  503    0  0.41989538486E+02  0.20990116947E+02  0.26120051611E+02  0.53721163873E+02  0.00000000000E+00 0. -1.
         -4    1    6    6    0  503  0.58062195063E+03  0.13160506144E+03  0.14999932307E+02  0.59553903291E+03  0.00000000000E+00 0.  1.
<mgrwt>
<rscale>  0 0.19797152E+04</rscale>
<asrwt>0</asrwt>
<pdfrwt beam="1">  1        1 0.19477055E+00 0.19797152E+04</pdfrwt>
<pdfrwt beam="2">  1       -2 0.11906810E+00 0.19797152E+04</pdfrwt>
<totfact> 0.42235394E+00</totfact>
</mgrwt>
</event>
<event>
12    4  0.4280696E-008  0.1354460E+04  0.7818608E-02  0.8987459E-01
          1   -1    0    0  501    0  0.00000000000E+00  0.00000000000E+00  0.23742782534E+04  0.23742782534E+04  0.00000000000E+00 0. -1.
         -2   -1    0    0    0  501 -0.00000000000E+00 -0.00000000000E+00 -0.19317035056E+03  0.19317035056E+03  0.00000000000E+00 0.  1.
        -24    2    1    2    0    0  0.13185257149E+03  0.20924761812E+03  0.11750448942E+04  0.12037454635E+04  0.84279126648E+02 0.  0.
        254    2    1    2    0    0 -0.13185257149E+03 -0.20924761812E+03  0.10060630087E+04  0.13637031405E+04  0.88676592838E+03 0.  0.
         23    2    4    4    0    0 -0.23579791566E+03 -0.49766739701E+03  0.42809888242E+03  0.70357865206E+03  0.92091103934E+02 0.  0.
         23    2    4    4    0    0  0.10394534417E+03  0.28841977889E+03  0.57796412629E+03  0.66012448849E+03  0.87927274432E+02 0.  0.
          1    1    3    3  502    0  0.10395795763E+03  0.20890231038E+03  0.10569241061E+04  0.10823751653E+04  0.00000000000E+00 0. -1.
         -2    1    3    3    0  502  0.27894613858E+02  0.34530773970E+00  0.11812078803E+03  0.12137029820E+03  0.00000000000E+00 0.  1.
         11    1    5    5    0    0 -0.15406590671E+03 -0.21945656510E+03  0.21608813664E+03  0.34437126822E+03  0.00000000000E+00 0. -1.
        -11    1    5    5    0    0 -0.81732008947E+02 -0.27821083191E+03  0.21201074578E+03  0.35920738384E+03  0.00000000000E+00 0.  1.
          1    1    6    6  503    0  0.50368292626E+01  0.12948180008E+03  0.27482572533E+03  0.30384220495E+03  0.00000000000E+00 0. -1.
         -1    1    6    6    0  503  0.98908514908E+02  0.15893797881E+03  0.30313840096E+03  0.35628228354E+03  0.00000000000E+00 0.  1.
<mgrwt>
<rscale>  0 0.13544595E+04</rscale>
<asrwt>0</asrwt>
<pdfrwt beam="1">  1        1 0.36527356E+00 0.13544595E+04</pdfrwt>
<pdfrwt beam="2">  1       -2 0.29718517E-01 0.13544595E+04</pdfrwt>
<totfact> 0.14883562E+01</totfact>
</mgrwt>
</event>
<event>
12    4  0.4280696E-008  0.1919010E+04  0.7818608E-02  0.8645452E-01
         -2   -1    0    0    0  501 -0.00000000000E+00  0.00000000000E+00  0.78418355867E+03  0.78418355867E+03  0.00000000000E+00 0.  1.
          1   -1    0    0  501    0  0.00000000000E+00 -0.00000000000E+00 -0.11740229113E+04  0.11740229113E+04  0.00000000000E+00 0. -1.
        -24    2    1    2    0    0  0.50026455438E+01 -0.69208342085E+03 -0.43993773512E+03  0.82375607279E+03  0.77616807384E+02 0.  0.
        254    2    1    2    0    0 -0.50026455438E+01  0.69208342085E+03  0.50098382480E+02  0.11344503972E+04  0.89747610992E+03 0.  0.
         23    2    4    4    0    0  0.42007945527E+03  0.49762956665E+03  0.15296972542E+02  0.65673886542E+03  0.83486559632E+02 0.  0.
         23    2    4    4    0    0 -0.42508210081E+03  0.19445385421E+03  0.34801409938E+02  0.47771153177E+03  0.92141606295E+02 0.  0.
          1    1    3    3  502    0 -0.27571943650E+01 -0.68705694010E+03 -0.43585761275E+03  0.81365023177E+03  0.00000000000E+00 0. -1.
         -2    1    3    3    0  502  0.77598399088E+01 -0.50264807496E+01 -0.40801223730E+01  0.10105841020E+02  0.00000000000E+00 0.  1.
         11    1    5    5    0    0  0.92935017491E+02  0.16009018603E+03  0.23579853462E+02  0.18660598766E+03  0.00000000000E+00 0.  1.
        -11    1    5    5    0    0  0.32714443778E+03  0.33753938062E+03 -0.82828809199E+01  0.47013287776E+03  0.00000000000E+00 0. -1.
          3    1    6    6  503    0 -0.17218184447E+03  0.12821495186E+03  0.24614005420E+02  0.21608218508E+03  0.00000000000E+00 0. -1.
         -3    1    6    6    0  503 -0.25290025634E+03  0.66238902344E+02  0.10187404518E+02  0.26162934669E+03  0.00000000000E+00 0.  1.
<mgrwt>
<rscale>  0 0.19190096E+04</rscale>
<asrwt>0</asrwt>
<pdfrwt beam="1">  1        1 0.18061891E+00 0.19190096E+04</pdfrwt>
<pdfrwt beam="2">  1       -2 0.12064362E+00 0.19190096E+04</pdfrwt>
<totfact> 0.47935309E+00</totfact>
</mgrwt>
</event>
<event>
12    4  0.4280696E-008  0.2266006E+04  0.7818608E-02  0.8491446E-01
         -2   -1    0    0    0  501 -0.00000000000E+00  0.00000000000E+00  0.74915180890E+03  0.74915180890E+03  0.00000000000E+00 0.  1.
          1   -1    0    0  501    0  0.00000000000E+00 -0.00000000000E+00 -0.17135325847E+04  0.17135325847E+04  0.00000000000E+00 0. -1.
        -24    2    1    2    0    0 -0.86717813501E+03  0.37299551584E+03 -0.55388023702E+03  0.10972587256E+04  0.77909057324E+02 0.  0.
        254    2    1    2    0    0  0.86717813501E+03 -0.37299551584E+03 -0.41050053880E+03  0.13654256680E+04  0.89708025835E+03 0.  0.
         23    2    4    4    0    0  0.87062505454E+03 -0.37625547128E+02 -0.50071713241E+03  0.10090234062E+04  0.89481395893E+02 0.  0.
         23    2    4    4    0    0 -0.34469195336E+01 -0.33536996872E+03  0.90216593607E+02  0.35640226183E+03  0.79991507706E+02 0.  0.
          3    1    3    3  502    0 -0.44975029499E+03  0.20707521402E+03 -0.24765393920E+03  0.55361353461E+03  0.00000000000E+00 0. -1.
         -4    1    3    3    0  502 -0.41742784002E+03  0.16592030182E+03 -0.30622629782E+03  0.54364519096E+03  0.00000000000E+00 0.  1.
         11    1    5    5    0    0  0.86855115041E+03 -0.43591869459E+02 -0.49608136822E+03  0.10011883319E+04  0.00000000000E+00 0. -1.
        -11    1    5    5    0    0  0.20739041315E+01  0.59663223311E+01 -0.46357641926E+01  0.78350743554E+01  0.00000000000E+00 0.  1.
          4    1    6    6  503    0 -0.21321426792E+02 -0.31990105536E+03  0.78807604909E+02  0.33015439881E+03  0.00000000000E+00 0. -1.
         -4    1    6    6    0  503  0.17874507259E+02 -0.15468913357E+02  0.11408988698E+02  0.26247863023E+02  0.00000000000E+00 0.  1.
<mgrwt>
<rscale>  0 0.22660062E+04</rscale>
<asrwt>0</asrwt>
<pdfrwt beam="1">  1        1 0.26362040E+00 0.22660062E+04</pdfrwt>
<pdfrwt beam="2">  1       -2 0.11525412E+00 0.22660062E+04</pdfrwt>
<totfact> 0.21785202E+00</totfact>
</mgrwt>
</event>
<event>
12    4  0.4280696E-008  0.1102872E+04  0.7818608E-02  0.9202397E-01
          1   -1    0    0  501    0  0.00000000000E+00  0.00000000000E+00  0.14384107847E+04  0.14384107847E+04  0.00000000000E+00 0. -1.
         -2   -1    0    0    0  501 -0.00000000000E+00 -0.00000000000E+00 -0.21140107409E+03  0.21140107409E+03  0.00000000000E+00 0.  1.
        -24    2    1    2    0    0 -0.89977878443E+02  0.18994933730E+02 -0.47641198743E+01  0.12110532809E+03  0.78657342557E+02 0.  0.
        254    2    1    2    0    0  0.89977878443E+02 -0.18994933730E+02  0.12317738305E+04  0.15287065307E+04  0.90067755685E+03 0.  0.
         23    2    4    4    0    0  0.35112496969E+03  0.21339853668E+03  0.26737225520E+03  0.49891816070E+03  0.92756285113E+02 0.  0.
         23    2    4    4    0    0 -0.26114709124E+03 -0.23239347041E+03  0.96440157533E+03  0.10297883700E+04  0.90493978846E+02 0.  0.
          1    1    3    3  502    0 -0.73633619896E+02  0.66682065042E+01  0.30781068535E+02  0.80086510332E+02  0.00000000000E+00 0. -1.
         -2    1    3    3    0  502 -0.16344258547E+02  0.12326727226E+02 -0.35545188410E+02  0.41018817762E+02  0.00000000000E+00 0.  1.
         11    1    5    5    0    0  0.33591313509E+03  0.18149698467E+03  0.26226557208E+03  0.46320839809E+03  0.00000000000E+00 0. -1.
        -11    1    5    5    0    0  0.15211834599E+02  0.31901552011E+02  0.51066831223E+01  0.35709762602E+02  0.00000000000E+00 0.  1.
          2    1    6    6  503    0 -0.22118610156E+02 -0.48813098637E+02  0.22556202085E+03  0.23184084361E+03  0.00000000000E+00 0.  1.
         -2    1    6    6    0  503 -0.23902848109E+03 -0.18358037177E+03  0.73883955448E+03  0.79794752643E+03  0.00000000000E+00 0. -1.
<mgrwt>
<rscale>  0 0.11028719E+04</rscale>
<asrwt>0</asrwt>
<pdfrwt beam="1">  1        1 0.22129396E+00 0.11028719E+04</pdfrwt>
<pdfrwt beam="2">  1       -2 0.32523243E-01 0.11028719E+04</pdfrwt>
<totfact> 0.55594994E+01</totfact>
</mgrwt>
</event>
<event>
12    4  0.4280696E-008  0.1955170E+04  0.7818608E-02  0.8627872E-01
         -2   -1    0    0    0  501 -0.00000000000E+00  0.00000000000E+00  0.98346403488E+03  0.98346403488E+03  0.00000000000E+00 0.  1.
          1   -1    0    0  501    0  0.00000000000E+00 -0.00000000000E+00 -0.97174132462E+03  0.97174132462E+03  0.00000000000E+00 0. -1.
        -24    2    1    2    0    0  0.23249672121E+03 -0.55821652856E+03 -0.47138165342E+03  0.77041799658E+03  0.75384402568E+02 0.  0.
        254    2    1    2    0    0 -0.23249672121E+03  0.55821652856E+03  0.48310436367E+03  0.11847873629E+04  0.89703447593E+03 0.  0.
         23    2    4    4    0    0 -0.43869100918E+03 -0.62016665129E+01  0.33283352208E+03  0.55867973973E+03  0.94109701715E+02 0.  0.
         23    2    4    4    0    0  0.20619428797E+03  0.56441819507E+03  0.15027084159E+03  0.62610762319E+03  0.91353416265E+02 0.  0.
          1    1    3    3  502    0  0.14249170891E+03 -0.36584693033E+03 -0.26086570101E+03  0.47137965326E+03  0.00000000000E+00 0. -1.
         -2    1    3    3    0  502  0.90005012303E+02 -0.19236959823E+03 -0.21051595241E+03  0.29903834333E+03  0.00000000000E+00 0.  1.
         11    1    5    5    0    0 -0.24898720830E+03 -0.20526833915E+02  0.13402444864E+03  0.28351108204E+03  0.00000000000E+00 0. -1.
        -11    1    5    5    0    0 -0.18970380089E+03  0.14325167402E+02  0.19880907344E+03  0.27516865769E+03  0.00000000000E+00 0.  1.
          2    1    6    6  503    0  0.14798842870E+03  0.48878573122E+03  0.10938021058E+03  0.52227971102E+03  0.00000000000E+00 0.  1.
         -2    1    6    6    0  503  0.58205859270E+02  0.75632463853E+02  0.40890631008E+02  0.10382791217E+03  0.00000000000E+00 0. -1.
<mgrwt>
<rscale>  0 0.19551702E+04</rscale>
<asrwt>0</asrwt>
<pdfrwt beam="1">  1        1 0.14949867E+00 0.19551702E+04</pdfrwt>
<pdfrwt beam="2">  1       -2 0.15130216E+00 0.19551702E+04</pdfrwt>
<totfact> 0.38062767E+00</totfact>
</mgrwt>
</event>
<event>
12    4  0.4280696E-008  0.3145199E+04  0.7818608E-02  0.8203442E-01
          1   -1    0    0  501    0  0.00000000000E+00  0.00000000000E+00  0.14855456149E+04  0.14855456149E+04  0.00000000000E+00 0. -1.
         -2   -1    0    0    0  501 -0.00000000000E+00 -0.00000000000E+00 -0.16647549329E+04  0.16647549329E+04  0.00000000000E+00 0.  1.
        -24    2    1    2    0    0  0.99130376335E+03 -0.28606595631E+03  0.93086307522E+03  0.13918594962E+04  0.79056370382E+02 0.  0.
        254    2    1    2    0    0 -0.99130376335E+03  0.28606595631E+03 -0.11100723932E+04  0.17584410516E+04  0.89181687085E+03 0.  0.
         23    2    4    4    0    0 -0.42801322960E+03  0.47123922246E+03 -0.93210150214E+03  0.11327654750E+04  0.95303104025E+02 0.  0.
         23    2    4    4    0    0 -0.56329053374E+03 -0.18517326614E+03 -0.17797089107E+03  0.62567557655E+03  0.90614155208E+02 0.  0.
          3    1    3    3  502    0  0.34631274923E+03 -0.13405457543E+03  0.30885246796E+03  0.48300413708E+03  0.00000000000E+00 0. -1.
         -4    1    3    3    0  502  0.64499101412E+03 -0.15201138089E+03  0.62201060726E+03  0.90885535910E+03  0.00000000000E+00 0.  1.
         11    1    5    5    0    0 -0.26579010792E+03  0.35523210562E+03 -0.66536306938E+03  0.79971385159E+03  0.00000000000E+00 0. -1.
        -11    1    5    5    0    0 -0.16222312169E+03  0.11600711683E+03 -0.26673843277E+03  0.33305162345E+03  0.00000000000E+00 0.  1.
          4    1    6    6  503    0 -0.20503170799E+03 -0.23134923072E+02 -0.51908737028E+02  0.21276217456E+03  0.00000000000E+00 0. -1.
         -4    1    6    6    0  503 -0.35825882576E+03 -0.16203834307E+03 -0.12606215404E+03  0.41291340199E+03  0.00000000000E+00 0.  1.
<mgrwt>
<rscale>  0 0.31451991E+04</rscale>
<asrwt>0</asrwt>
<pdfrwt beam="1">  1        1 0.22854548E+00 0.31451991E+04</pdfrwt>
<pdfrwt beam="2">  1       -2 0.25611614E+00 0.31451991E+04</pdfrwt>
<totfact> 0.29128350E-01</totfact>
</mgrwt>
</event>
<event>
12    4  0.4280696E-008  0.1639615E+04  0.7818608E-02  0.8796574E-01
         -2   -1    0    0    0  501 -0.00000000000E+00  0.00000000000E+00  0.95179991554E+03  0.95179991554E+03  0.00000000000E+00 0.  1.
          1   -1    0    0  501    0  0.00000000000E+00 -0.00000000000E+00 -0.70611930284E+03  0.70611930284E+03  0.00000000000E+00 0. -1.
        -24    2    1    2    0    0 -0.43400331905E+03 -0.26962279290E+03 -0.15062764765E+03  0.53977444007E+03  0.87249220742E+02 0.  0.
        254    2    1    2    0    0  0.43400331905E+03  0.26962279290E+03  0.39630826035E+03  0.11181447783E+04  0.91221279131E+03 0.  0.
         23    2    4    4    0    0  0.57261014101E+03  0.28988982089E+03  0.58113022391E+03  0.87065081197E+03  0.91662519109E+02 0.  0.
         23    2    4    4    0    0 -0.13860682196E+03 -0.20267027983E+02 -0.18482196356E+03  0.24749396633E+03  0.86437848419E+02 0.  0.
          1    1    3    3  502    0 -0.31951810114E+03 -0.21808693647E+03 -0.77688255721E+02  0.39457470002E+03  0.00000000000E+00 0. -1.
         -2    1    3    3    0  502 -0.11448521791E+03 -0.51535856436E+02 -0.72939391927E+02  0.14519974006E+03  0.00000000000E+00 0.  1.
         11    1    5    5    0    0  0.15351034465E+03  0.62888170490E+02  0.10155138786E+03  0.19450715225E+03  0.00000000000E+00 0.  1.
        -11    1    5    5    0    0  0.41909979636E+03  0.22700165040E+03  0.47957883605E+03  0.67614365972E+03  0.00000000000E+00 0. -1.
          3    1    6    6  503    0 -0.15039062079E+03 -0.23874675246E+02 -0.17150168293E+03  0.22934726113E+03  0.00000000000E+00 0. -1.
         -3    1    6    6    0  503  0.11783798830E+02  0.36076472629E+01 -0.13320280630E+02  0.18146705202E+02  0.00000000000E+00 0.  1.
<mgrwt>
<rscale>  0 0.16396149E+04</rscale>
<asrwt>0</asrwt>
<pdfrwt beam="1">  1        1 0.10863374E+00 0.16396149E+04</pdfrwt>
<pdfrwt beam="2">  1       -2 0.14643076E+00 0.16396149E+04</pdfrwt>
<totfact> 0.71859132E+00</totfact>
</mgrwt>
</event>
<event>
12    4  0.4280696E-008  0.2025912E+04  0.7818608E-02  0.8594601E-01
          1   -1    0    0  501    0  0.00000000000E+00  0.00000000000E+00  0.88364984706E+03  0.88364984706E+03  0.00000000000E+00 0. -1.
         -2   -1    0    0    0  501 -0.00000000000E+00 -0.00000000000E+00 -0.11611838486E+04  0.11611838486E+04  0.00000000000E+00 0.  1.
        -24    2    1    2    0    0  0.25912590161E+02 -0.70814370942E+03 -0.56507827083E+03  0.90982628763E+03  0.79570383751E+02 0.  0.
        254    2    1    2    0    0 -0.25912590161E+02  0.70814370942E+03  0.28754426930E+03  0.11350074080E+04  0.83870205312E+03 0.  0.
         23    2    4    4    0    0 -0.22665942239E+03  0.95625769437E+02 -0.19289402415E+03  0.32590587412E+03  0.92129000304E+02 0.  0.
         23    2    4    4    0    0  0.20074683223E+03  0.61251793999E+03  0.48043829344E+03  0.80910153389E+03  0.91360937385E+02 0.  0.
          3    1    3    3  502    0  0.22159605855E+02 -0.28393507404E+03 -0.18014177210E+03  0.33698847526E+03  0.00000000000E+00 0. -1.
         -4    1    3    3    0  502  0.37529843060E+01 -0.42420863538E+03 -0.38493649873E+03  0.57283781237E+03  0.00000000000E+00 0.  1.
         11    1    5    5    0    0  0.35304222696E+01  0.15834352289E+02 -0.25823700873E+02  0.30496788693E+02  0.00000000000E+00 0.  1.
        -11    1    5    5    0    0 -0.23018984466E+03  0.79791417148E+02 -0.16707032327E+03  0.29540908543E+03  0.00000000000E+00 0. -1.
          1    1    6    6  503    0  0.82008558276E+02  0.37728967713E+03  0.31159122147E+03  0.49614714893E+03  0.00000000000E+00 0.  1.
         -1    1    6    6    0  503  0.11873827396E+03  0.23522826286E+03  0.16884707198E+03  0.31295438496E+03  0.00000000000E+00 0. -1.
<mgrwt>
<rscale>  0 0.20259121E+04</rscale>
<asrwt>0</asrwt>
<pdfrwt beam="1">  1        1 0.13594613E+00 0.20259121E+04</pdfrwt>
<pdfrwt beam="2">  1       -2 0.17864367E+00 0.20259121E+04</pdfrwt>
<totfact> 0.28204465E+00</totfact>
</mgrwt>
</event>
<event>
12    4  0.4280696E-008  0.3066717E+04  0.7818608E-02  0.8224932E-01
         -2   -1    0    0    0  501 -0.00000000000E+00  0.00000000000E+00  0.94136479104E+03  0.94136479104E+03  0.00000000000E+00 0.  1.
          1   -1    0    0  501    0  0.00000000000E+00 -0.00000000000E+00 -0.24976377578E+04  0.24976377578E+04  0.00000000000E+00 0. -1.
        -24    2    1    2    0    0 -0.78126995822E+03 -0.10668215234E+04 -0.22112763828E+03  0.13430584721E+04  0.80110652947E+02 0.  0.
        254    2    1    2    0    0  0.78126995822E+03  0.10668215234E+04 -0.13351453285E+04  0.20959440767E+04  0.92837363935E+03 0.  0.
         23    2    4    4    0    0  0.16490872509E+03 -0.82053001241E+02  0.28076432006E+02  0.20743901967E+03  0.91187050758E+02 0.  0.
         23    2    4    4    0    0  0.61636123314E+03  0.11488745246E+04 -0.13632217605E+04  0.18885050570E+04  0.90906211216E+02 0.  0.
          1    1    3    3  502    0 -0.14384270710E+03 -0.23435650054E+03 -0.69930656401E+02  0.28373225131E+03  0.00000000000E+00 0. -1.
         -2    1    3    3    0  502 -0.63742725113E+03 -0.83246502283E+03 -0.15119698188E+03  0.10593262208E+04  0.00000000000E+00 0.  1.
         11    1    5    5    0    0  0.33213893044E+02  0.18964385008E+02  0.14520482584E+02  0.40910328822E+02  0.00000000000E+00 0.  1.
        -11    1    5    5    0    0  0.13169483204E+03 -0.10101738625E+03  0.13555949422E+02  0.16652869085E+03  0.00000000000E+00 0. -1.
          1    1    6    6  503    0  0.50165606535E+03  0.85307428097E+03 -0.10376709439E+04  0.14339300975E+04  0.00000000000E+00 0. -1.
         -1    1    6    6    0  503  0.11470516778E+03  0.29580024365E+03 -0.32555081652E+03  0.45457495949E+03  0.00000000000E+00 0.  1.
<mgrwt>
<rscale>  0 0.30667170E+04</rscale>
<asrwt>0</asrwt>
<pdfrwt beam="1">  1        1 0.38425196E+00 0.30667170E+04</pdfrwt>
<pdfrwt beam="2">  1       -2 0.14482535E+00 0.30667170E+04</pdfrwt>
<totfact> 0.33269955E-01</totfact>
</mgrwt>
</event>
<event>
12    4  0.4280696E-008  0.1868224E+04  0.7818608E-02  0.8670837E-01
         -2   -1    0    0    0  501 -0.00000000000E+00  0.00000000000E+00  0.89871689180E+03  0.89871689180E+03  0.00000000000E+00 0.  1.
          1   -1    0    0  501    0  0.00000000000E+00 -0.00000000000E+00 -0.97090125607E+03  0.97090125607E+03  0.00000000000E+00 0. -1.
        -24    2    1    2    0    0  0.28023535010E+03 -0.11853163444E+03 -0.68740599688E+03  0.75582523723E+03  0.78505954381E+02 0.  0.
        254    2    1    2    0    0 -0.28023535010E+03  0.11853163444E+03  0.61522163262E+03  0.11137929106E+04  0.87718606393E+03 0.  0.
         23    2    4    4    0    0 -0.26939959918E+03  0.44690590860E+03  0.55581820655E+03  0.76780214731E+03  0.91023203092E+02 0.  0.
         23    2    4    4    0    0 -0.10835750917E+02 -0.32837427416E+03  0.59403426062E+02  0.34599076333E+03  0.90740089567E+02 0.  0.
          3    1    3    3  502    0  0.25299833737E+03 -0.92286484701E+02 -0.64521459461E+03  0.69916151715E+03  0.00000000000E+00 0. -1.
         -4    1    3    3    0  502  0.27237012726E+02 -0.26245149737E+02 -0.42191402276E+02  0.56663720077E+02  0.00000000000E+00 0.  1.
         11    1    5    5    0    0 -0.37629184230E+02  0.10272070939E+03  0.16372672975E+03  0.19691099938E+03  0.00000000000E+00 0.  1.
        -11    1    5    5    0    0 -0.23177041495E+03  0.34418519921E+03  0.39209147680E+03  0.57089114793E+03  0.00000000000E+00 0. -1.
          2    1    6    6  503    0 -0.15722069548E+02 -0.33199036794E+03  0.51990662236E+02  0.33640424616E+03  0.00000000000E+00 0. -1.
         -2    1    6    6    0  503  0.48863186303E+01  0.36160937770E+01  0.74127638261E+01  0.95865171727E+01  0.00000000000E+00 0.  1.
<mgrwt>
<rscale>  0 0.18682241E+04</rscale>
<asrwt>0</asrwt>
<pdfrwt beam="1">  1        1 0.14936942E+00 0.18682241E+04</pdfrwt>
<pdfrwt beam="2">  1       -2 0.13826414E+00 0.18682241E+04</pdfrwt>
<totfact> 0.48657944E+00</totfact>
</mgrwt>
</event>
<event>
12    4  0.4280696E-008  0.1792525E+04  0.7818608E-02  0.8710285E-01
          1   -1    0    0  501    0  0.00000000000E+00  0.00000000000E+00  0.95738135226E+03  0.95738135226E+03  0.00000000000E+00 0. -1.
         -2   -1    0    0    0  501 -0.00000000000E+00 -0.00000000000E+00 -0.83904503739E+03  0.83904503739E+03  0.00000000000E+00 0.  1.
        -24    2    1    2    0    0 -0.41572808247E+03  0.37664546046E+02 -0.47949107867E+03  0.64064742150E+03  0.79176812023E+02 0.  0.
        254    2    1    2    0    0  0.41572808247E+03 -0.37664546046E+02  0.59782739354E+03  0.11557789681E+04  0.89676026571E+03 0.  0.
         23    2    4    4    0    0  0.44478040328E+03  0.32149251766E+03  0.15624939546E+03  0.57863549060E+03  0.96010995937E+02 0.  0.
         23    2    4    4    0    0 -0.29052320810E+02 -0.35915706371E+03  0.44157799808E+03  0.57714347755E+03  0.90915518666E+02 0.  0.
          3    1    3    3  502    0 -0.12956288837E+03  0.33690560320E+02 -0.19963140671E+03  0.24036283915E+03  0.00000000000E+00 0. -1.
         -4    1    3    3    0  502 -0.28616519410E+03  0.39739857260E+01 -0.27985967196E+03  0.40028458235E+03  0.00000000000E+00 0.  1.
         11    1    5    5    0    0  0.11707536360E+03  0.12902152322E+03  0.22150755265E+02  0.17562417309E+03  0.00000000000E+00 0. -1.
        -11    1    5    5    0    0  0.32770503968E+03  0.19247099445E+03  0.13409864020E+03  0.40301131751E+03  0.00000000000E+00 0.  1.
          3    1    6    6  503    0  0.23151779124E+02 -0.12565017120E+03  0.19847195531E+03  0.23604043603E+03  0.00000000000E+00 0. -1.
         -3    1    6    6    0  503 -0.52204099934E+02 -0.23350689251E+03  0.24310604277E+03  0.34110304152E+03  0.00000000000E+00 0.  1.
<mgrwt>
<rscale>  0 0.17925246E+04</rscale>
<asrwt>0</asrwt>
<pdfrwt beam="1">  1        1 0.14728944E+00 0.17925246E+04</pdfrwt>
<pdfrwt beam="2">  1       -2 0.12908385E+00 0.17925246E+04</pdfrwt>
<totfact> 0.59827929E+00</totfact>
</mgrwt>
</event>
<event>
12    4  0.4280696E-008  0.1149080E+04  0.7818608E-02  0.9158633E-01
          1   -1    0    0  501    0  0.00000000000E+00  0.00000000000E+00  0.26723871159E+04  0.26723871159E+04  0.00000000000E+00 0. -1.
         -2   -1    0    0    0  501 -0.00000000000E+00 -0.00000000000E+00 -0.12352112304E+03  0.12352112304E+03  0.00000000000E+00 0.  1.
        -24    2    1    2    0    0  0.16161722916E+03  0.10205024673E+03  0.28262514443E+03  0.35019236735E+03  0.78888150366E+02 0.  0.
        254    2    1    2    0    0 -0.16161722916E+03 -0.10205024673E+03  0.22662408484E+04  0.24457158715E+04  0.89952440758E+03 0.  0.
         23    2    4    4    0    0 -0.15087869300E+03  0.35576514950E+03  0.14687990679E+04  0.15216426089E+04  0.93232535566E+02 0.  0.
         23    2    4    4    0    0 -0.10738536156E+02 -0.45781539623E+03  0.79744178046E+03  0.92407326265E+03  0.91037071199E+02 0.  0.
          1    1    3    3  502    0  0.37582407630E+02  0.65945350370E+02  0.83588822748E+02  0.11290844914E+03  0.00000000000E+00 0. -1.
         -2    1    3    3    0  502  0.12403482153E+03  0.36104896358E+02  0.19903632168E+03  0.23728391821E+03  0.00000000000E+00 0.  1.
         11    1    5    5    0    0 -0.20960783538E+02  0.16000028479E+02  0.45437049627E+02  0.52534568016E+02  0.00000000000E+00 0.  1.
        -11    1    5    5    0    0 -0.12991790946E+03  0.33976512102E+03  0.14233620183E+04  0.14691080409E+04  0.00000000000E+00 0. -1.
          1    1    6    6  503    0  0.37250409147E+02 -0.24118832127E+03  0.44743472829E+03  0.50966384547E+03  0.00000000000E+00 0. -1.
         -1    1    6    6    0  503 -0.47988945304E+02 -0.21662707496E+03  0.35000705217E+03  0.41440941717E+03  0.00000000000E+00 0.  1.
<mgrwt>
<rscale>  0 0.11490801E+04</rscale>
<asrwt>0</asrwt>
<pdfrwt beam="1">  1        1 0.41113644E+00 0.11490801E+04</pdfrwt>
<pdfrwt beam="2">  1       -2 0.19003252E-01 0.11490801E+04</pdfrwt>
<totfact> 0.21132395E+01</totfact>
</mgrwt>
</event>
<event>
12    4  0.4280696E-008  0.1612282E+04  0.7818608E-02  0.8813038E-01
          1   -1    0    0  501    0  0.00000000000E+00  0.00000000000E+00  0.24979949669E+04  0.24979949669E+04  0.00000000000E+00 0. -1.
         -2   -1    0    0    0  501 -0.00000000000E+00 -0.00000000000E+00 -0.26015389266E+03  0.26015389266E+03  0.00000000000E+00 0.  1.
        -24    2    1    2    0    0  0.34409595934E+03  0.27739080025E+03  0.20992084662E+03  0.49540911840E+03  0.77561249666E+02 0.  0.
        254    2    1    2    0    0 -0.34409595934E+03 -0.27739080025E+03  0.20279202276E+04  0.22627397411E+04  0.90121196247E+03 0.  0.
         23    2    4    4    0    0 -0.41536858816E+03  0.19098247121E+01  0.18785642715E+04  0.19261513666E+04  0.92307385153E+02 0.  0.
         23    2    4    4    0    0  0.71272628823E+02 -0.27930062496E+03  0.14935595604E+03  0.33658837450E+03  0.88858907933E+02 0.  0.
          3    1    3    3  502    0  0.27125203959E+03  0.21798095698E+03  0.19876572465E+03  0.40075077029E+03  0.00000000000E+00 0. -1.
         -4    1    3    3    0  502  0.72843919743E+02  0.59409843270E+02  0.11155121972E+02  0.94658348111E+02  0.00000000000E+00 0.  1.
         11    1    5    5    0    0 -0.32489218367E+03  0.15267411869E+02  0.16074863467E+04  0.16400610903E+04  0.00000000000E+00 0. -1.
        -11    1    5    5    0    0 -0.90476404494E+02 -0.13357587157E+02  0.27107792481E+03  0.28609027635E+03  0.00000000000E+00 0.  1.
          3    1    6    6  503    0  0.78737025176E+01 -0.12784875751E+03  0.24720246605E+02  0.13045455370E+03  0.00000000000E+00 0. -1.
         -3    1    6    6    0  503  0.63398926306E+02 -0.15145186745E+03  0.12463570944E+03  0.20613382080E+03  0.00000000000E+00 0.  1.
<mgrwt>
<rscale>  0 0.16122818E+04</rscale>
<asrwt>0</asrwt>
<pdfrwt beam="1">  1        1 0.38430690E+00 0.16122818E+04</pdfrwt>
<pdfrwt beam="2">  1       -2 0.40023677E-01 0.16122818E+04</pdfrwt>
<totfact> 0.67713104E+00</totfact>
</mgrwt>
</event>
<event>
12    4  0.4280696E-008  0.1566636E+04  0.7818608E-02  0.8841311E-01
          1   -1    0    0  501    0  0.00000000000E+00  0.00000000000E+00  0.15522556098E+04  0.15522556098E+04  0.00000000000E+00 0. -1.
         -2   -1    0    0    0  501 -0.00000000000E+00 -0.00000000000E+00 -0.39528732561E+03  0.39528732561E+03  0.00000000000E+00 0.  1.
        -24    2    1    2    0    0 -0.22651391384E+03 -0.35041390778E+03 -0.13432009866E+02  0.42490218841E+03  0.79139060476E+02 0.  0.
        254    2    1    2    0    0  0.22651391384E+03  0.35041390778E+03  0.11704002941E+04  0.15226407470E+04  0.88005655285E+03 0.  0.
         23    2    4    4    0    0  0.28948870955E+02  0.55268138838E+02  0.11493050843E+04  0.11553127102E+04  0.99763105686E+02 0.  0.
         23    2    4    4    0    0  0.19756504289E+03  0.29514576894E+03  0.21095209805E+02  0.36732803685E+03  0.91334044514E+02 0.  0.
          3    1    3    3  502    0 -0.52832150678E+02 -0.99734967160E+02 -0.37640344501E+02  0.11897518798E+03  0.00000000000E+00 0. -1.
         -4    1    3    3    0  502 -0.17368176317E+03 -0.25067894062E+03  0.24208334635E+02  0.30592700043E+03  0.00000000000E+00 0.  1.
         11    1    5    5    0    0 -0.25461387852E+02 -0.64590712248E+01  0.12624102857E+03  0.12894494627E+03  0.00000000000E+00 0.  1.
        -11    1    5    5    0    0  0.54410258807E+02  0.61727210062E+02  0.10230640557E+04  0.10263677639E+04  0.00000000000E+00 0. -1.
          2    1    6    6  503    0  0.12523023961E+03  0.23689707055E+03 -0.13302461616E+02  0.26829049635E+03  0.00000000000E+00 0. -1.
         -2    1    6    6    0  503  0.72334803280E+02  0.58248698393E+02  0.34397671421E+02  0.99037540505E+02  0.00000000000E+00 0.  1.
<mgrwt>
<rscale>  0 0.15666358E+04</rscale>
<asrwt>0</asrwt>
<pdfrwt beam="1">  1        1 0.23880855E+00 0.15666358E+04</pdfrwt>
<pdfrwt beam="2">  1       -2 0.60813436E-01 0.15666358E+04</pdfrwt>
<totfact> 0.12791489E+01</totfact>
</mgrwt>
</event>
<event>
12    4  0.4280696E-008  0.1446664E+04  0.7818608E-02  0.8920716E-01
          1   -1    0    0  501    0  0.00000000000E+00  0.00000000000E+00  0.58870062815E+03  0.58870062815E+03  0.00000000000E+00 0. -1.
         -2   -1    0    0    0  501 -0.00000000000E+00 -0.00000000000E+00 -0.88875289480E+03  0.88875289480E+03  0.00000000000E+00 0.  1.
        -24    2    1    2    0    0 -0.27892757890E+03 -0.22638149398E+03  0.15710375545E+03  0.40021271641E+03  0.80246204346E+02 0.  0.
        254    2    1    2    0    0  0.27892757890E+03  0.22638149398E+03 -0.45715602210E+03  0.10772408065E+04  0.90686655669E+03 0.  0.
         23    2    4    4    0    0 -0.15417200376E+03 -0.22071062906E+03 -0.32934733299E+03  0.43527081370E+03  0.92243303228E+02 0.  0.
         23    2    4    4    0    0  0.43309958266E+03  0.44709212303E+03 -0.12780868910E+03  0.64196999283E+03  0.91234838233E+02 0.  0.
          1    1    3    3  502    0 -0.22734543102E+03 -0.21467377251E+03  0.15014266986E+03  0.34686250146E+03  0.00000000000E+00 0. -1.
         -2    1    3    3    0  502 -0.51582147883E+02 -0.11707721471E+02  0.69610855844E+01  0.53350214946E+02  0.00000000000E+00 0.  1.
         11    1    5    5    0    0 -0.15766513770E+03 -0.22695645182E+03 -0.31367855909E+03  0.41804517112E+03  0.00000000000E+00 0.  1.
        -11    1    5    5    0    0  0.34931339365E+01  0.62458227613E+01 -0.15668773905E+02  0.17225642581E+02  0.00000000000E+00 0. -1.
          3    1    6    6  503    0  0.36486224521E+03  0.37360552539E+03 -0.71852309010E+02  0.52713214747E+03  0.00000000000E+00 0.  1.
         -3    1    6    6    0  503  0.68237337451E+02  0.73486597643E+02 -0.55956380090E+02  0.11483784537E+03  0.00000000000E+00 0. -1.
<mgrwt>
<rscale>  0 0.14466643E+04</rscale>
<asrwt>0</asrwt>
<pdfrwt beam="1">  1        1 0.90569328E-01 0.14466643E+04</pdfrwt>
<pdfrwt beam="2">  1       -2 0.13673121E+00 0.14466643E+04</pdfrwt>
<totfact> 0.11420384E+01</totfact>
</mgrwt>
</event>
<event>
12    4  0.4280696E-008  0.2332804E+04  0.7818608E-02  0.8465098E-01
         -2   -1    0    0    0  501 -0.00000000000E+00  0.00000000000E+00  0.63928856212E+03  0.63928856212E+03  0.00000000000E+00 0.  1.
          1   -1    0    0  501    0  0.00000000000E+00 -0.00000000000E+00 -0.21281372981E+04  0.21281372981E+04  0.00000000000E+00 0. -1.
        -24    2    1    2    0    0  0.92713414850E+03  0.32272710937E+03 -0.80056969346E+03  0.12696640184E+04  0.86048643104E+02 0.  0.
        254    2    1    2    0    0 -0.92713414850E+03 -0.32272710937E+03 -0.68827904256E+03  0.14977618419E+04  0.89768144582E+03 0.  0.
         23    2    4    4    0    0 -0.31190729069E+03  0.22938583214E+01 -0.72571073631E+03  0.79480083551E+03  0.88095831643E+02 0.  0.
         23    2    4    4    0    0 -0.61522685781E+03 -0.32502096769E+03  0.37431693754E+02  0.70296100639E+03  0.92791857379E+02 0.  0.
          3    1    3    3  502    0  0.62495444589E+03  0.19664642969E+03 -0.48734815864E+03  0.81654522562E+03  0.00000000000E+00 0. -1.
         -4    1    3    3    0  502  0.30217970262E+03  0.12608067967E+03 -0.31322153482E+03  0.45311879274E+03  0.00000000000E+00 0.  1.
         11    1    5    5    0    0 -0.74182338816E+02  0.37417843568E+02 -0.21050161003E+03  0.22630519710E+03  0.00000000000E+00 0.  1.
        -11    1    5    5    0    0 -0.23772495188E+03 -0.35123985246E+02 -0.51520912628E+03  0.56849563841E+03  0.00000000000E+00 0. -1.
          1    1    6    6  503    0 -0.35374251525E+02  0.35973752615E+00 -0.87814808667E+01  0.36449711772E+02  0.00000000000E+00 0.  1.
         -1    1    6    6    0  503 -0.57985260628E+03 -0.32538070521E+03  0.46213174621E+02  0.66651129462E+03  0.00000000000E+00 0. -1.
<mgrwt>
<rscale>  0 0.23328042E+04</rscale>
<asrwt>0</asrwt>
<pdfrwt beam="1">  1        1 0.32740574E+00 0.23328042E+04</pdfrwt>
<pdfrwt beam="2">  1       -2 0.98352087E-01 0.23328042E+04</pdfrwt>
<totfact> 0.16590425E+00</totfact>
</mgrwt>
</event>
<event>
12    4  0.4280696E-008  0.1627897E+04  0.7818608E-02  0.8803591E-01
         -4   -1    0    0    0  501 -0.00000000000E+00  0.00000000000E+00  0.10975459477E+04  0.10975459477E+04  0.00000000000E+00 0.  1.
          1   -1    0    0  501    0  0.00000000000E+00 -0.00000000000E+00 -0.60363054694E+03  0.60363054694E+03  0.00000000000E+00 0. -1.
        -24    2    1    2    0    0  0.32345461346E+03 -0.36026228335E+02  0.64794402502E+03  0.72974537744E+03  0.82316949903E+02 0.  0.
        254    2    1    2    0    0 -0.32345461346E+03  0.36026228335E+02 -0.15402862424E+03  0.97143111722E+03  0.90223767507E+03 0.  0.
         23    2    4    4    0    0  0.14022839062E+03 -0.15217686534E+02 -0.40239473403E+03  0.43524600752E+03  0.87303983711E+02 0.  0.
         23    2    4    4    0    0 -0.46368300408E+03  0.51243914869E+02  0.24836610979E+03  0.53618510970E+03  0.90448218818E+02 0.  0.
          3    1    3    3  502    0  0.16119843547E+02  0.13559567826E+02  0.20889170358E+02  0.29665951424E+02  0.00000000000E+00 0. -1.
         -4    1    3    3    0  502  0.30733476991E+03 -0.49585796161E+02  0.62705485466E+03  0.70007942602E+03  0.00000000000E+00 0.  1.
         11    1    5    5    0    0  0.50797227496E+02 -0.44533311522E+02 -0.12167726390E+03  0.13917230582E+03  0.00000000000E+00 0.  1.
        -11    1    5    5    0    0  0.89431163120E+02  0.29315624988E+02 -0.28071747013E+03  0.29607370171E+03  0.00000000000E+00 0. -1.
          2    1    6    6  503    0 -0.26309469820E+03 -0.12729553738E+02  0.11866319892E+03  0.28889758832E+03  0.00000000000E+00 0. -1.
         -2    1    6    6    0  503 -0.20058830587E+03  0.63973468608E+02  0.12970291087E+03  0.24728752137E+03  0.00000000000E+00 0.  1.
<mgrwt>
<rscale>  0 0.16278971E+04</rscale>
<asrwt>0</asrwt>
<pdfrwt beam="1">  1        1 0.92866238E-01 0.16278971E+04</pdfrwt>
<pdfrwt beam="2">  1       -4 0.16885322E+00 0.16278971E+04</pdfrwt>
<totfact> 0.33638632E+00</totfact>
</mgrwt>
</event>
<event>
12    4  0.4280696E-008  0.1855885E+04  0.7818608E-02  0.8677132E-01
         -2   -1    0    0    0  501 -0.00000000000E+00  0.00000000000E+00  0.92830663653E+03  0.92830663653E+03  0.00000000000E+00 0.  1.
          1   -1    0    0  501    0  0.00000000000E+00 -0.00000000000E+00 -0.92757849376E+03  0.92757849376E+03  0.00000000000E+00 0. -1.
        -24    2    1    2    0    0 -0.18889020858E+03 -0.49275094173E+03 -0.45990293895E+03  0.70549066748E+03  0.87882689878E+02 0.  0.
        254    2    1    2    0    0  0.18889020858E+03  0.49275094173E+03  0.46063108172E+03  0.11503944628E+04  0.91254776595E+03 0.  0.
         23    2    4    4    0    0  0.45519671634E+03  0.40578003416E+03  0.56907473758E+03  0.83895891634E+03  0.90246992591E+02 0.  0.
         23    2    4    4    0    0 -0.26630650776E+03  0.86970907566E+02 -0.10844365586E+03  0.31143554647E+03  0.82152165338E+02 0.  0.
          1    1    3    3  502    0 -0.79439605617E+01 -0.48105173213E+02 -0.78317727552E+02  0.92254434300E+02  0.00000000000E+00 0. -1.
         -2    1    3    3    0  502 -0.18094624802E+03 -0.44464576851E+03 -0.38158521139E+03  0.61323623318E+03  0.00000000000E+00 0.  1.
         11    1    5    5    0    0  0.41769564034E+02  0.62269037970E+02  0.41065052159E+02  0.85489578769E+02  0.00000000000E+00 0.  1.
        -11    1    5    5    0    0  0.41342715231E+03  0.34351099619E+03  0.52800968542E+03  0.75346933757E+03  0.00000000000E+00 0. -1.
          1    1    6    6  503    0 -0.23295781801E+03  0.94355929475E+02 -0.71918874008E+02  0.26142821355E+03  0.00000000000E+00 0. -1.
         -1    1    6    6    0  503 -0.33348689745E+02 -0.73850219090E+01 -0.36524781852E+02  0.50007332918E+02  0.00000000000E+00 0.  1.
<mgrwt>
<rscale>  0 0.18558850E+04</rscale>
<asrwt>0</asrwt>
<pdfrwt beam="1">  1        1 0.14270438E+00 0.18558850E+04</pdfrwt>
<pdfrwt beam="2">  1       -2 0.14281641E+00 0.18558850E+04</pdfrwt>
<totfact> 0.48483641E+00</totfact>
</mgrwt>
</event>
<event>
12    4  0.4280696E-008  0.1872378E+04  0.7818608E-02  0.8668729E-01
         -2   -1    0    0    0  501 -0.00000000000E+00  0.00000000000E+00  0.16020490090E+04  0.16020490090E+04  0.00000000000E+00 0.  1.
          1   -1    0    0  501    0  0.00000000000E+00 -0.00000000000E+00 -0.54708073555E+03  0.54708073555E+03  0.00000000000E+00 0. -1.
        -24    2    1    2    0    0 -0.44230986252E+03  0.48453598385E+03  0.77803709654E+02  0.66542327719E+03  0.79508404949E+02 0.  0.
        254    2    1    2    0    0  0.44230986252E+03 -0.48453598385E+03  0.97716456375E+03  0.14837064673E+04  0.90339424525E+03 0.  0.
         23    2    4    4    0    0  0.15161537445E+03 -0.65189056906E+03  0.33622184226E+03  0.75464998777E+03  0.92211393090E+02 0.  0.
         23    2    4    4    0    0  0.29069448807E+03  0.16735458521E+03  0.64094272149E+03  0.72905647954E+03  0.90581099297E+02 0.  0.
          1    1    3    3  502    0 -0.41536641823E+03  0.47686356305E+03  0.79397721579E+02  0.63736341074E+03  0.00000000000E+00 0. -1.
         -4    1    3    3    0  502 -0.26943444293E+02  0.76724208079E+01 -0.15940119249E+01  0.28059866454E+02  0.00000000000E+00 0.  1.
         11    1    5    5    0    0  0.45707824124E+01 -0.17426549478E+03  0.10962594797E+03  0.20593009297E+03  0.00000000000E+00 0.  1.
        -11    1    5    5    0    0  0.14704459204E+03 -0.47762507428E+03  0.22659589429E+03  0.54871989479E+03  0.00000000000E+00 0. -1.
          4    1    6    6  503    0  0.25366085302E+03  0.12704830433E+03  0.58820837636E+03  0.65304991694E+03  0.00000000000E+00 0. -1.
         -4    1    6    6    0  503  0.37033635044E+02  0.40306280880E+02  0.52734345122E+02  0.76006562601E+02  0.00000000000E+00 0.  1.
<mgrwt>
<rscale>  0 0.18723783E+04</rscale>
<asrwt>0</asrwt>
<pdfrwt beam="1">  1        1 0.84166267E-01 0.18723783E+04</pdfrwt>
<pdfrwt beam="2">  1       -2 0.24646908E+00 0.18723783E+04</pdfrwt>
<totfact> 0.21672842E+00</totfact>
</mgrwt>
</event>
<event>
12    4  0.4280696E-008  0.1430364E+04  0.7818608E-02  0.8932128E-01
         -2   -1    0    0    0  501 -0.00000000000E+00  0.00000000000E+00  0.54382783767E+03  0.54382783767E+03  0.00000000000E+00 0.  1.
          1   -1    0    0  501    0  0.00000000000E+00 -0.00000000000E+00 -0.94052737475E+03  0.94052737475E+03  0.00000000000E+00 0. -1.
        -24    2    1    2    0    0 -0.66508121531E+02 -0.32295033734E+03 -0.41451250232E+03  0.53577935483E+03  0.80738168577E+02 0.  0.
        254    2    1    2    0    0  0.66508121531E+02  0.32295033734E+03  0.17812965234E+02  0.94857585759E+03  0.88924608813E+03 0.  0.
         23    2    4    4    0    0  0.11967215548E+03 -0.90316330239E+02  0.36122485371E+03  0.40151504465E+03  0.90843116622E+02 0.  0.
         23    2    4    4    0    0 -0.53164033954E+02  0.41326666758E+03 -0.34341188848E+03  0.54706081293E+03  0.87909355938E+02 0.  0.
          1    1    3    3  502    0  0.12355292299E+01 -0.77370823340E+02 -0.14853481278E+03  0.16748242130E+03  0.00000000000E+00 0. -1.
         -2    1    3    3    0  502 -0.67743650761E+02 -0.24557951400E+03 -0.26597768954E+03  0.36829693353E+03  0.00000000000E+00 0.  1.
         11    1    5    5    0    0  0.86074139537E+02 -0.96821617722E+01  0.20455609343E+03  0.22213891400E+03  0.00000000000E+00 0. -1.
        -11    1    5    5    0    0  0.33598015948E+02 -0.80634168467E+02  0.15666876028E+03  0.17937613065E+03  0.00000000000E+00 0.  1.
          3    1    6    6  503    0 -0.44532761972E+02  0.82079942297E+02 -0.92793041161E+02  0.13164661904E+03  0.00000000000E+00 0. -1.
         -3    1    6    6    0  503 -0.86312719822E+01  0.33118672528E+03 -0.25061884732E+03  0.41541419390E+03  0.00000000000E+00 0.  1.
<mgrwt>
<rscale>  0 0.14303635E+04</rscale>
<asrwt>0</asrwt>
<pdfrwt beam="1">  1        1 0.14469652E+00 0.14303635E+04</pdfrwt>
<pdfrwt beam="2">  1       -2 0.83665821E-01 0.14303635E+04</pdfrwt>
<totfact> 0.17964951E+01</totfact>
</mgrwt>
</event>
<event>
12    4  0.4280696E-008  0.1537082E+04  0.7818608E-02  0.8860161E-01
          1   -1    0    0  501    0  0.00000000000E+00  0.00000000000E+00  0.37974164512E+03  0.37974164512E+03  0.00000000000E+00 0. -1.
         -2   -1    0    0    0  501 -0.00000000000E+00 -0.00000000000E+00 -0.15554142313E+04  0.15554142313E+04  0.00000000000E+00 0.  1.
        -24    2    1    2    0    0 -0.14426105713E+03 -0.30431461159E+03  0.79716910241E+02  0.35482610338E+03  0.78282452886E+02 0.  0.
        254    2    1    2    0    0  0.14426105713E+03  0.30431461159E+03 -0.12553894964E+04  0.15803297730E+04  0.89889975435E+03 0.  0.
         23    2    4    4    0    0 -0.26193277285E+03  0.59051144484E+02 -0.59041720677E+02  0.29020100557E+03  0.92924074895E+02 0.  0.
         23    2    4    4    0    0  0.40619382998E+03  0.24526346711E+03 -0.11963477757E+04  0.12901287674E+04  0.89647310719E+02 0.  0.
          1    1    3    3  502    0 -0.70978615069E+02 -0.11873414053E+03  0.70072970959E+02  0.15506766647E+03  0.00000000000E+00 0. -1.
         -2    1    3    3    0  502 -0.73282442065E+02 -0.18558047106E+03  0.96439392826E+01  0.19975843691E+03  0.00000000000E+00 0.  1.
         11    1    5    5    0    0 -0.22462211062E+03  0.13201919733E+02 -0.45784925776E+02  0.22962064953E+03  0.00000000000E+00 0.  1.
        -11    1    5    5    0    0 -0.37310662228E+02  0.45849224751E+02 -0.13256794901E+02  0.60580356034E+02  0.00000000000E+00 0. -1.
          4    1    6    6  503    0  0.13190752432E+03  0.12407810553E+03 -0.50752545273E+03  0.53886645508E+03  0.00000000000E+00 0. -1.
         -4    1    6    6    0  503  0.27428630566E+03  0.12118536158E+03 -0.68882232297E+03  0.75126231235E+03  0.00000000000E+00 0.  1.
<mgrwt>
<rscale>  0 0.15370824E+04</rscale>
<asrwt>0</asrwt>
<pdfrwt beam="1">  1        1 0.58421791E-01 0.15370824E+04</pdfrwt>
<pdfrwt beam="2">  1       -2 0.23929450E+00 0.15370824E+04</pdfrwt>
<totfact> 0.40553106E+00</totfact>
</mgrwt>
</event>
<event>
12    4  0.4280696E-008  0.1776442E+04  0.7818608E-02  0.8718928E-01
          1   -1    0    0  501    0  0.00000000000E+00  0.00000000000E+00  0.11184275318E+04  0.11184275318E+04  0.00000000000E+00 0. -1.
         -2   -1    0    0    0  501 -0.00000000000E+00 -0.00000000000E+00 -0.70539831391E+03  0.70539831391E+03  0.00000000000E+00 0.  1.
        -24    2    1    2    0    0  0.16669119165E+03 -0.59621175383E+03  0.38694583006E+03  0.73386077437E+03  0.74633450787E+02 0.  0.
        254    2    1    2    0    0 -0.16669119165E+03  0.59621175383E+03  0.26083387852E+02  0.10899650714E+04  0.89671015656E+03 0.  0.
         23    2    4    4    0    0  0.12271198004E+03 -0.18281220732E+03  0.81506309319E+02  0.25207041490E+03  0.91747928691E+02 0.  0.
         23    2    4    4    0    0 -0.28940317169E+03  0.77902396115E+03 -0.55422921467E+02  0.83789465646E+03  0.91450682163E+02 0.  0.
          1    1    3    3  502    0  0.12045876065E+03 -0.51255442688E+03  0.30875229705E+03  0.61036901499E+03  0.00000000000E+00 0. -1.
         -2    1    3    3    0  502  0.46232431006E+02 -0.83657326959E+02  0.78193533012E+02  0.12349175938E+03  0.00000000000E+00 0.  1.
         11    1    5    5    0    0  0.15414578025E+02 -0.12526176679E+02  0.42698342934E+02  0.47092067348E+02  0.00000000000E+00 0. -1.
        -11    1    5    5    0    0  0.10729740202E+03 -0.17028603064E+03  0.38807966385E+02  0.20497834755E+03  0.00000000000E+00 0.  1.
          2    1    6    6  503    0 -0.17765498109E+03  0.50700765648E+03 -0.78401685644E+02  0.54292253623E+03  0.00000000000E+00 0. -1.
         -2    1    6    6    0  503 -0.11174819060E+03  0.27201630467E+03  0.22978764177E+02  0.29497212023E+03  0.00000000000E+00 0.  1.
<mgrwt>
<rscale>  0 0.17764424E+04</rscale>
<asrwt>0</asrwt>
<pdfrwt beam="1">  1        1 0.17206577E+00 0.17764424E+04</pdfrwt>
<pdfrwt beam="2">  1       -2 0.10852282E+00 0.17764424E+04</pdfrwt>
<totfact> 0.69128117E+00</totfact>
</mgrwt>
</event>
<event>
12    4  0.4280696E-008  0.2714343E+04  0.7818608E-02  0.8330366E-01
         -2   -1    0    0    0  501 -0.00000000000E+00  0.00000000000E+00  0.11340420156E+04  0.11340420156E+04  0.00000000000E+00 0.  1.
          1   -1    0    0  501    0  0.00000000000E+00 -0.00000000000E+00 -0.16242025262E+04  0.16242025262E+04  0.00000000000E+00 0. -1.
        -24    2    1    2    0    0  0.23338219891E+03 -0.11561386585E+04  0.48758505004E+02  0.11833353843E+04  0.82349204685E+02 0.  0.
        254    2    1    2    0    0 -0.23338219891E+03  0.11561386585E+04 -0.53891901559E+03  0.15749091575E+04  0.89374565757E+03 0.  0.
         23    2    4    4    0    0  0.18699058642E+03  0.14338124930E+03 -0.38677928415E+03  0.46341191207E+03  0.98126059465E+02 0.  0.
         23    2    4    4    0    0 -0.42037278533E+03  0.10127574092E+04 -0.15213973144E+03  0.11114972454E+04  0.99442345504E+02 0.  0.
          3    1    3    3  502    0  0.12695466101E+03 -0.48336111687E+03  0.49405908071E+02  0.50219159591E+03  0.00000000000E+00 0. -1.
         -4    1    3    3    0  502  0.10642753790E+03 -0.67277754163E+03 -0.64740306687E+00  0.68114378840E+03  0.00000000000E+00 0.  1.
         11    1    5    5    0    0  0.10126680632E+03  0.75947249687E+02 -0.11680848244E+03  0.17224161044E+03  0.00000000000E+00 0. -1.
        -11    1    5    5    0    0  0.85723780099E+02  0.67433999618E+02 -0.26997080171E+03  0.29117030164E+03  0.00000000000E+00 0.  1.
          3    1    6    6  503    0 -0.17927061024E+03  0.31043969755E+03 -0.50473433597E+02  0.36201978539E+03  0.00000000000E+00 0. -1.
         -3    1    6    6    0  503 -0.24110217508E+03  0.70231771164E+03 -0.10166629784E+03  0.74947745999E+03  0.00000000000E+00 0.  1.
<mgrwt>
<rscale>  0 0.27143426E+04</rscale>
<asrwt>0</asrwt>
<pdfrwt beam="1">  1        1 0.24987731E+00 0.27143426E+04</pdfrwt>
<pdfrwt beam="2">  1       -2 0.17446800E+00 0.27143426E+04</pdfrwt>
<totfact> 0.81538223E-01</totfact>
</mgrwt>
</event>
<event>
12    4  0.4280696E-008  0.1440449E+04  0.7818608E-02  0.8925049E-01
          1   -1    0    0  501    0  0.00000000000E+00  0.00000000000E+00  0.81519407602E+03  0.81519407602E+03  0.00000000000E+00 0. -1.
         -2   -1    0    0    0  501 -0.00000000000E+00 -0.00000000000E+00 -0.63631915117E+03  0.63631915117E+03  0.00000000000E+00 0.  1.
        -24    2    1    2    0    0  0.12272821587E+03 -0.13202587541E+03 -0.33318351208E+03  0.38596875688E+03  0.73943098521E+02 0.  0.
        254    2    1    2    0    0 -0.12272821587E+03  0.13202587541E+03  0.51205843693E+03  0.10655444703E+04  0.91689046708E+03 0.  0.
         23    2    4    4    0    0 -0.15497051808E+03 -0.10838667976E+03  0.70845780652E+03  0.73897605043E+03  0.91703902096E+02 0.  0.
         23    2    4    4    0    0  0.32242302208E+02  0.24041255517E+03 -0.19639936960E+03  0.32656841988E+03  0.96106491722E+02 0.  0.
          3    1    3    3  502    0  0.30474006324E+02 -0.56320337958E+02 -0.18460786700E+03  0.19539884873E+03  0.00000000000E+00 0. -1.
         -4    1    3    3    0  502  0.92254209548E+02 -0.75705537452E+02 -0.14857564508E+03  0.19056990815E+03  0.00000000000E+00 0.  1.
         11    1    5    5    0    0 -0.85704799590E+02 -0.62484423088E+02  0.54915347594E+03  0.55930238328E+03  0.00000000000E+00 0. -1.
        -11    1    5    5    0    0 -0.69265718490E+02 -0.45902256668E+02  0.15930433058E+03  0.17967366715E+03  0.00000000000E+00 0.  1.
          4    1    6    6  503    0  0.25637030053E+02  0.24643028038E+03 -0.17486520978E+03  0.30325398924E+03  0.00000000000E+00 0. -1.
         -4    1    6    6    0  503  0.66052721550E+01 -0.60177252154E+01 -0.21534159815E+02  0.23314430638E+02  0.00000000000E+00 0.  1.
<mgrwt>
<rscale>  0 0.14404494E+04</rscale>
<asrwt>0</asrwt>
<pdfrwt beam="1">  1        1 0.12541447E+00 0.14404494E+04</pdfrwt>
<pdfrwt beam="2">  1       -2 0.97895254E-01 0.14404494E+04</pdfrwt>
<totfact> 0.15864021E+01</totfact>
</mgrwt>
</event>
<event>
12    4  0.4280696E-008  0.2023857E+04  0.7818608E-02  0.8595547E-01
         -2   -1    0    0    0  501 -0.00000000000E+00  0.00000000000E+00  0.90584959254E+03  0.90584959254E+03  0.00000000000E+00 0.  1.
          1   -1    0    0  501    0  0.00000000000E+00 -0.00000000000E+00 -0.11304302179E+04  0.11304302179E+04  0.00000000000E+00 0. -1.
        -24    2    1    2    0    0  0.58288506887E+03 -0.51330491617E+02  0.47119212358E+03  0.75523066087E+03  0.77210821194E+02 0.  0.
        254    2    1    2    0    0 -0.58288506887E+03  0.51330491617E+02 -0.69577274889E+03  0.12810491495E+04  0.90255048752E+03 0.  0.
         23    2    4    4    0    0 -0.25004078380E+03 -0.28720275672E+03  0.46160977187E+02  0.39547508888E+03  0.96249119873E+02 0.  0.
         23    2    4    4    0    0 -0.33284428507E+03  0.33853324834E+03 -0.74193372608E+03  0.88557406065E+03  0.91573384041E+02 0.  0.
          3    1    3    3  502    0  0.60637318454E+01 -0.10048205160E+02  0.68955895306E+01  0.13611922194E+02  0.00000000000E+00 0. -1.
         -4    1    3    3    0  502  0.57682133702E+03 -0.41282286457E+02  0.46429653405E+03  0.74161873868E+03  0.00000000000E+00 0.  1.
         11    1    5    5    0    0 -0.59189989316E+02 -0.22986937542E+02  0.26933164089E+02  0.68972816824E+02  0.00000000000E+00 0. -1.
        -11    1    5    5    0    0 -0.19085079448E+03 -0.26421581918E+03  0.19227813098E+02  0.32650227205E+03  0.00000000000E+00 0.  1.
          3    1    6    6  503    0 -0.16010624505E+03  0.19540269393E+03 -0.46490450552E+03  0.52910530309E+03  0.00000000000E+00 0. -1.
         -3    1    6    6    0  503 -0.17273804002E+03  0.14313055441E+03 -0.27702922055E+03  0.35646875756E+03  0.00000000000E+00 0.  1.
<mgrwt>
<rscale>  0 0.20238575E+04</rscale>
<asrwt>0</asrwt>
<pdfrwt beam="1">  1        1 0.17391234E+00 0.20238575E+04</pdfrwt>
<pdfrwt beam="2">  1       -2 0.13936148E+00 0.20238575E+04</pdfrwt>
<totfact> 0.35496686E+00</totfact>
</mgrwt>
</event>
<event>
12    4  0.4280696E-008  0.1316997E+04  0.7818608E-02  0.9016194E-01
         -2   -1    0    0    0  501 -0.00000000000E+00  0.00000000000E+00  0.25877118560E+03  0.25877118560E+03  0.00000000000E+00 0.  1.
          1   -1    0    0  501    0  0.00000000000E+00 -0.00000000000E+00 -0.16756911482E+04  0.16756911482E+04  0.00000000000E+00 0. -1.
        -24    2    1    2    0    0  0.19149685914E+03 -0.28313508807E+03 -0.37425217867E+03  0.51301341763E+03  0.79256219163E+02 0.  0.
        254    2    1    2    0    0 -0.19149685914E+03  0.28313508807E+03 -0.10426677839E+04  0.14214489161E+04  0.90361739051E+03 0.  0.
         23    2    4    4    0    0  0.22278667566E+03 -0.10028141531E+03 -0.71701665149E+03  0.76352418880E+03  0.95739455130E+02 0.  0.
         23    2    4    4    0    0 -0.41428353479E+03  0.38341650338E+03 -0.32565113241E+03  0.65792472732E+03  0.90428007399E+02 0.  0.
          1    1    3    3  502    0  0.80655110216E+02 -0.58273873923E+02 -0.12107339688E+03  0.15671585312E+03  0.00000000000E+00 0. -1.
         -2    1    3    3    0  502  0.11084174892E+03 -0.22486121414E+03 -0.25317878179E+03  0.35629756451E+03  0.00000000000E+00 0.  1.
         11    1    5    5    0    0  0.19402464567E+03 -0.10860752586E+03 -0.68261446575E+03  0.71791619752E+03  0.00000000000E+00 0.  1.
        -11    1    5    5    0    0  0.28762029989E+02  0.83261105478E+01 -0.34402185737E+02  0.45607991289E+02  0.00000000000E+00 0. -1.
          3    1    6    6  503    0 -0.75468222517E+02  0.50569032335E+02 -0.89397004328E+02  0.12745392903E+03  0.00000000000E+00 0. -1.
         -3    1    6    6    0  503 -0.33881531227E+03  0.33284747104E+03 -0.23625412808E+03  0.53047079830E+03  0.00000000000E+00 0.  1.
<mgrwt>
<rscale>  0 0.13169975E+04</rscale>
<asrwt>0</asrwt>
<pdfrwt beam="1">  1        1 0.25779863E+00 0.13169975E+04</pdfrwt>
<pdfrwt beam="2">  1       -2 0.39810953E-01 0.13169975E+04</pdfrwt>
<totfact> 0.25461249E+01</totfact>
</mgrwt>
</event>
<event>
12    4  0.4280696E-008  0.2309629E+04  0.7818608E-02  0.8474134E-01
          1   -1    0    0  501    0  0.00000000000E+00  0.00000000000E+00  0.18814981504E+04  0.18814981504E+04  0.00000000000E+00 0. -1.
         -2   -1    0    0    0  501 -0.00000000000E+00 -0.00000000000E+00 -0.70879502744E+03  0.70879502744E+03  0.00000000000E+00 0.  1.
        -24    2    1    2    0    0  0.37913673274E+03 -0.14932806246E+03 -0.51055148119E+03  0.65795241091E+03  0.78708498476E+02 0.  0.
        254    2    1    2    0    0 -0.37913673274E+03  0.14932806246E+03  0.16832546042E+04  0.19323407669E+04  0.85705965065E+03 0.  0.
         23    2    4    4    0    0  0.18502978979E+02 -0.18040796880E+03  0.40313233370E+02  0.20774540399E+03  0.92970966727E+02 0.  0.
         23    2    4    4    0    0 -0.39763971172E+03  0.32973603126E+03  0.16429413708E+04  0.17245953629E+04  0.90164446343E+02 0.  0.
          3    1    3    3  502    0 -0.20234628880E+01 -0.66365443115E+01 -0.16168744405E+02  0.17594499654E+02  0.00000000000E+00 0. -1.
         -4    1    3    3    0  502  0.38116019563E+03 -0.14269151815E+03 -0.49438273678E+03  0.64035791126E+03  0.00000000000E+00 0.  1.
         11    1    5    5    0    0  0.18507206903E+02  0.17769022997E+01 -0.64070961492E+01  0.19665324056E+02  0.00000000000E+00 0. -1.
        -11    1    5    5    0    0 -0.42279240182E-02 -0.18218487110E+03  0.46720329519E+02  0.18808007993E+03  0.00000000000E+00 0.  1.
          2    1    6    6  503    0 -0.11223965332E+02  0.75340479937E+01  0.11865169690E+03  0.11941928008E+03  0.00000000000E+00 0. -1.
         -2    1    6    6    0  503 -0.38641574638E+03  0.32220198327E+03  0.15242896739E+04  0.16051760829E+04  0.00000000000E+00 0.  1.
<mgrwt>
<rscale>  0 0.23096290E+04</rscale>
<asrwt>0</asrwt>
<pdfrwt beam="1">  1        1 0.28946125E+00 0.23096290E+04</pdfrwt>
<pdfrwt beam="2">  1       -2 0.10904539E+00 0.23096290E+04</pdfrwt>
<totfact> 0.19092061E+00</totfact>
</mgrwt>
</event>
<event>
12    4  0.4280696E-008  0.1420554E+04  0.7818608E-02  0.8939073E-01
          1   -1    0    0  501    0  0.00000000000E+00  0.00000000000E+00  0.18382607113E+04  0.18382607113E+04  0.00000000000E+00 0. -1.
         -2   -1    0    0    0  501 -0.00000000000E+00 -0.00000000000E+00 -0.27444076568E+03  0.27444076568E+03  0.00000000000E+00 0.  1.
        -24    2    1    2    0    0 -0.32570436206E+03  0.89321647076E+02  0.82574449899E+03  0.89587685834E+03  0.81729306876E+02 0.  0.
        254    2    1    2    0    0  0.32570436206E+03 -0.89321647076E+02  0.73807544662E+03  0.12168246186E+04  0.90655672711E+03 0.  0.
         23    2    4    4    0    0 -0.59502216487E+02 -0.41367955146E+03  0.19409346753E+03  0.46964623511E+03  0.90686421002E+02 0.  0.
         23    2    4    4    0    0  0.38520657854E+03  0.32435790438E+03  0.54398197909E+03  0.74717838351E+03  0.93632178854E+02 0.  0.
          1    1    3    3  502    0 -0.18113671619E+03  0.67978136873E+02  0.56176449099E+03  0.59414718747E+03  0.00000000000E+00 0. -1.
         -2    1    3    3    0  502 -0.14456764587E+03  0.21343510204E+02  0.26398000800E+03  0.30172967087E+03  0.00000000000E+00 0.  1.
         11    1    5    5    0    0 -0.35923438908E+02 -0.39617358332E+03  0.17481055072E+03  0.43451436136E+03  0.00000000000E+00 0. -1.
        -11    1    5    5    0    0 -0.23578777579E+02 -0.17505968136E+02  0.19282916811E+02  0.35131873751E+02  0.00000000000E+00 0.  1.
          3    1    6    6  503    0  0.17293609891E+03  0.20671081266E+03  0.28811595100E+03  0.39452129929E+03  0.00000000000E+00 0. -1.
         -3    1    6    6    0  503  0.21227047963E+03  0.11764709173E+03  0.25586602809E+03  0.35265708421E+03  0.00000000000E+00 0.  1.
<mgrwt>
<rscale>  0 0.14205544E+04</rscale>
<asrwt>0</asrwt>
<pdfrwt beam="1">  1        1 0.28280933E+00 0.14205544E+04</pdfrwt>
<pdfrwt beam="2">  1       -2 0.42221657E-01 0.14205544E+04</pdfrwt>
<totfact> 0.17440603E+01</totfact>
</mgrwt>
</event>
<event>
12    4  0.4280696E-008  0.2139073E+04  0.7818608E-02  0.8544224E-01
         -2   -1    0    0    0  501 -0.00000000000E+00  0.00000000000E+00  0.40755806525E+03  0.40755806525E+03  0.00000000000E+00 0.  1.
          1   -1    0    0  501    0  0.00000000000E+00 -0.00000000000E+00 -0.28067368681E+04  0.28067368681E+04  0.00000000000E+00 0. -1.
        -24    2    1    2    0    0  0.87155888218E+03 -0.62867705800E+02 -0.11195622085E+04  0.14228748589E+04  0.87098174573E+02 0.  0.
        254    2    1    2    0    0 -0.87155888218E+03  0.62867705800E+02 -0.12796165944E+04  0.17914200744E+04  0.89899945543E+03 0.  0.
         23    2    4    4    0    0 -0.35996469727E+03  0.46053050629E+03 -0.71584857147E+03  0.92760611600E+03  0.79693153172E+02 0.  0.
         23    2    4    4    0    0 -0.51159418492E+03 -0.39766280049E+03 -0.56376802293E+03  0.86381395843E+03  0.92064424014E+02 0.  0.
          1    1    3    3  502    0  0.16554067054E+03 -0.56377586364E+01 -0.27001093822E+03  0.31676711428E+03  0.00000000000E+00 0. -1.
         -2    1    3    3    0  502  0.70601821164E+03 -0.57229947163E+02 -0.84955127023E+03  0.11061077446E+04  0.00000000000E+00 0.  1.
         11    1    5    5    0    0 -0.28340695688E+03  0.37018816861E+03 -0.61711458572E+03  0.77342691659E+03  0.00000000000E+00 0. -1.
        -11    1    5    5    0    0 -0.76557740384E+02  0.90342337677E+02 -0.98733985743E+02  0.15417919941E+03  0.00000000000E+00 0.  1.
          4    1    6    6  503    0 -0.20061353178E+03 -0.10270938258E+03 -0.17853963630E+03  0.28752636076E+03  0.00000000000E+00 0. -1.
         -4    1    6    6    0  503 -0.31098065314E+03 -0.29495341791E+03 -0.38522838663E+03  0.57628759767E+03  0.00000000000E+00 0.  1.
<mgrwt>
<rscale>  0 0.21390729E+04</rscale>
<asrwt>0</asrwt>
<pdfrwt beam="1">  1        1 0.43180568E+00 0.21390729E+04</pdfrwt>
<pdfrwt beam="2">  1       -2 0.62701240E-01 0.21390729E+04</pdfrwt>
<totfact> 0.15666674E+00</totfact>
</mgrwt>
</event>
<event>
12    4  0.4280696E-008  0.1081826E+04  0.7818608E-02  0.9223089E-01
         -2   -1    0    0    0  501 -0.00000000000E+00  0.00000000000E+00  0.15271765815E+03  0.15271765815E+03  0.00000000000E+00 0.  1.
          1   -1    0    0  501    0  0.00000000000E+00 -0.00000000000E+00 -0.19158679445E+04  0.19158679445E+04  0.00000000000E+00 0. -1.
        -24    2    1    2    0    0 -0.10198101942E+02 -0.14492207071E+03 -0.31755667174E+03  0.35809949887E+03  0.79288104187E+02 0.  0.
        254    2    1    2    0    0  0.10198101942E+02  0.14492207071E+03 -0.14455936147E+04  0.17104861038E+04  0.90272665008E+03 0.  0.
         23    2    4    4    0    0  0.40209051316E+03  0.18919076519E+03 -0.46901227418E+03  0.65319381991E+03  0.96019407627E+02 0.  0.
         23    2    4    4    0    0 -0.39189241121E+03 -0.44268694481E+02 -0.97658134048E+03  0.10572922839E+04  0.92824995331E+02 0.  0.
          1    1    3    3  502    0  0.27148649791E+02 -0.58798508606E+02 -0.18227588702E+03  0.19343942925E+03  0.00000000000E+00 0. -1.
         -2    1    3    3    0  502 -0.37346751732E+02 -0.86123562101E+02 -0.13528078472E+03  0.16466006962E+03  0.00000000000E+00 0.  1.
         11    1    5    5    0    0  0.79436610871E+02  0.68190018176E+02 -0.69799871903E+02  0.12582557706E+03  0.00000000000E+00 0.  1.
        -11    1    5    5    0    0  0.32265390229E+03  0.12100074701E+03 -0.39921240228E+03  0.52736824285E+03  0.00000000000E+00 0. -1.
          1    1    6    6  503    0 -0.90609103193E+02  0.28059920255E+01 -0.13919992239E+03  0.16611592810E+03  0.00000000000E+00 0. -1.
         -1    1    6    6    0  503 -0.30128330802E+03 -0.47074686506E+02 -0.83738141809E+03  0.89117635581E+03  0.00000000000E+00 0.  1.
<mgrwt>
<rscale>  0 0.10818260E+04</rscale>
<asrwt>0</asrwt>
<pdfrwt beam="1">  1        1 0.29474893E+00 0.10818260E+04</pdfrwt>
<pdfrwt beam="2">  1       -2 0.23495023E-01 0.10818260E+04</pdfrwt>
<totfact> 0.47886495E+01</totfact>
</mgrwt>
</event>
<event>
12    4  0.4280696E-008  0.1775478E+04  0.7818608E-02  0.8719450E-01
         -2   -1    0    0    0  501 -0.00000000000E+00  0.00000000000E+00  0.82835296836E+03  0.82835296836E+03  0.00000000000E+00 0.  1.
          1   -1    0    0  501    0  0.00000000000E+00 -0.00000000000E+00 -0.95138285174E+03  0.95138285174E+03  0.00000000000E+00 0. -1.
        -24    2    1    2    0    0  0.53861763198E+03  0.36170381489E+03  0.96581751090E+02  0.66018508630E+03  0.74684070244E+02 0.  0.
        254    2    1    2    0    0 -0.53861763198E+03 -0.36170381489E+03 -0.21961163447E+03  0.11195507338E+04  0.88556534054E+03 0.  0.
         23    2    4    4    0    0 -0.68853733208E+03 -0.43482207706E+03  0.12840833596E+02  0.81986009211E+03  0.94083937312E+02 0.  0.
         23    2    4    4    0    0  0.14991970011E+03  0.73118262175E+02 -0.23245246807E+03  0.29969064168E+03  0.89208374376E+02 0.  0.
          1    1    3    3  502    0  0.48187251779E+03  0.30061834470E+03  0.10022569827E+03  0.57673018228E+03  0.00000000000E+00 0. -1.
         -2    1    3    3    0  502  0.56745114190E+02  0.61085470191E+02 -0.36439471775E+01  0.83454904014E+02  0.00000000000E+00 0.  1.
         11    1    5    5    0    0 -0.27568613448E+03 -0.13961787478E+03  0.39982283651E+02  0.31160003002E+03  0.00000000000E+00 0.  1.
        -11    1    5    5    0    0 -0.41285119760E+03 -0.29520420229E+03 -0.27141450055E+02  0.50826006209E+03  0.00000000000E+00 0. -1.
          3    1    6    6  503    0  0.18309052117E+02  0.31929817505E+02 -0.10739121357E+03  0.11352359838E+03  0.00000000000E+00 0.  1.
         -3    1    6    6    0  503  0.13161064799E+03  0.41188444670E+02 -0.12506125449E+03  0.18616704331E+03  0.00000000000E+00 0. -1.
<mgrwt>
<rscale>  0 0.17754783E+04</rscale>
<asrwt>0</asrwt>
<pdfrwt beam="1">  1        1 0.14636659E+00 0.17754783E+04</pdfrwt>
<pdfrwt beam="2">  1       -2 0.12743892E+00 0.17754783E+04</pdfrwt>
<totfact> 0.62573558E+00</totfact>
</mgrwt>
</event>
<event>
12    4  0.4280696E-008  0.1675615E+04  0.7818608E-02  0.8775396E-01
         -2   -1    0    0    0  501 -0.00000000000E+00  0.00000000000E+00  0.23491118447E+04  0.23491118447E+04  0.00000000000E+00 0.  1.
          1   -1    0    0  501    0  0.00000000000E+00 -0.00000000000E+00 -0.29880278748E+03  0.29880278748E+03  0.00000000000E+00 0. -1.
        -24    2    1    2    0    0  0.42877162807E+02 -0.27138930884E+03  0.15346502637E+04  0.15610177102E+04  0.78321462685E+02 0.  0.
        254    2    1    2    0    0 -0.42877162807E+02  0.27138930884E+03  0.51565879348E+03  0.10868969220E+04  0.91648803576E+03 0.  0.
         23    2    4    4    0    0  0.37325504053E+03  0.24809747652E+02  0.16651817562E+02  0.38584435248E+03  0.93079173057E+02 0.  0.
         23    2    4    4    0    0 -0.41613220334E+03  0.24657956119E+03  0.49900697592E+03  0.70105256951E+03  0.92191390845E+02 0.  0.
          1    1    3    3  502    0  0.43062863244E+02 -0.90211289771E+02  0.68584459737E+03  0.69309111864E+03  0.00000000000E+00 0. -1.
         -2    1    3    3    0  502 -0.18570043786E+00 -0.18117801907E+03  0.84880566634E+03  0.86792659153E+03  0.00000000000E+00 0.  1.
         11    1    5    5    0    0  0.23848028547E+03 -0.98959415615E+01  0.47326925095E+02  0.24333231198E+03  0.00000000000E+00 0. -1.
        -11    1    5    5    0    0  0.13477475506E+03  0.34705689213E+02 -0.30675107533E+02  0.14251204050E+03  0.00000000000E+00 0.  1.
          1    1    6    6  503    0 -0.29926393721E+03  0.16305899671E+03  0.40531117512E+03  0.52955102606E+03  0.00000000000E+00 0. -1.
         -1    1    6    6    0  503 -0.11686826613E+03  0.83520564473E+02  0.93695800804E+02  0.17150154345E+03  0.00000000000E+00 0.  1.
<mgrwt>
<rscale>  0 0.16756147E+04</rscale>
<asrwt>0</asrwt>
<pdfrwt beam="1">  1        1 0.45969661E-01 0.16756147E+04</pdfrwt>
<pdfrwt beam="2">  1       -2 0.36140181E+00 0.16756147E+04</pdfrwt>
<totfact> 0.97253150E-01</totfact>
</mgrwt>
</event>
<event>
12    4  0.4280696E-008  0.2767790E+04  0.7818608E-02  0.8313339E-01
         -2   -1    0    0    0  501 -0.00000000000E+00  0.00000000000E+00  0.30242237528E+04  0.30242237528E+04  0.00000000000E+00 0.  1.
          3   -1    0    0  501    0  0.00000000000E+00 -0.00000000000E+00 -0.63327494883E+03  0.63327494883E+03  0.00000000000E+00 0. -1.
        -24    2    1    2    0    0  0.62668518617E+03 -0.97042964700E+03  0.15010299555E+04  0.18957691885E+04  0.79886584329E+02 0.  0.
        254    2    1    2    0    0 -0.62668518617E+03  0.97042964700E+03  0.88991884847E+03  0.17617295131E+04  0.98856830733E+03 0.  0.
         23    2    4    4    0    0 -0.50911472793E+03  0.12034416033E+02  0.14148904124E+03  0.53660352477E+03  0.92636713255E+02 0.  0.
         23    2    4    4    0    0 -0.11757045824E+03  0.95839523097E+03  0.74842980723E+03  0.12251259884E+04  0.91881878625E+02 0.  0.
          3    1    3    3  502    0  0.54213933255E+02 -0.48561733958E+02  0.96405663989E+02  0.12079505211E+03  0.00000000000E+00 0. -1.
         -4    1    3    3    0  502  0.57247125291E+03 -0.92186791305E+03  0.14046242915E+04  0.17749741364E+04  0.00000000000E+00 0.  1.
         11    1    5    5    0    0 -0.65891883372E+02  0.33404740115E+02  0.19928247994E+02  0.76516351354E+02  0.00000000000E+00 0. -1.
        -11    1    5    5    0    0 -0.44322284456E+03 -0.21370324082E+02  0.12156079324E+03  0.46008717342E+03  0.00000000000E+00 0.  1.
          1    1    6    6  503    0 -0.14730063667E+02  0.29105849839E+02  0.42584581281E+02  0.53643003583E+02  0.00000000000E+00 0. -1.
         -1    1    6    6    0  503 -0.10284039457E+03  0.92928938113E+03  0.70584522595E+03  0.11714829848E+04  0.00000000000E+00 0.  1.
<mgrwt>
<rscale>  0 0.27677898E+04</rscale>
<asrwt>0</asrwt>
<pdfrwt beam="1">  1        3 0.97426917E-01 0.27677898E+04</pdfrwt>
<pdfrwt beam="2">  1       -2 0.46526518E+00 0.27677898E+04</pdfrwt>
<totfact> 0.93417058E-03</totfact>
</mgrwt>
</event>
<event>
12    4  0.4280696E-008  0.2545617E+04  0.7818608E-02  0.8386912E-01
         -2   -1    0    0    0  501 -0.00000000000E+00  0.00000000000E+00  0.15079143324E+04  0.15079143324E+04  0.00000000000E+00 0.  1.
          1   -1    0    0  501    0  0.00000000000E+00 -0.00000000000E+00 -0.10743589094E+04  0.10743589094E+04  0.00000000000E+00 0. -1.
        -24    2    1    2    0    0  0.10585333860E+04  0.11964663531E+03 -0.13835871358E+03  0.10775105162E+04  0.84128071002E+02 0.  0.
        254    2    1    2    0    0 -0.10585333860E+04 -0.11964663531E+03  0.57191413655E+03  0.15047627256E+04  0.89577722361E+03 0.  0.
         23    2    4    4    0    0 -0.11980408856E+04 -0.35065460117E+02  0.52767321515E+03  0.13127673435E+04  0.91583437835E+02 0.  0.
         23    2    4    4    0    0  0.13950749958E+03 -0.84581175197E+02  0.44240921396E+02  0.19199538219E+03  0.91042023358E+02 0.  0.
          1    1    3    3  502    0  0.82186853140E+03  0.67745280592E+02 -0.13188241181E+03  0.83513488521E+03  0.00000000000E+00 0. -1.
         -2    1    3    3    0  502  0.23666485457E+03  0.51901354722E+02 -0.64763017657E+01  0.24237563099E+03  0.00000000000E+00 0.  1.
         11    1    5    5    0    0 -0.10329652981E+03  0.19873466762E+02  0.59461353243E+02  0.12083368852E+03  0.00000000000E+00 0. -1.
        -11    1    5    5    0    0 -0.10947443557E+04 -0.54938926880E+02  0.46821186191E+03  0.11919336549E+04  0.00000000000E+00 0.  1.
          1    1    6    6  503    0 -0.12200274796E+02 -0.15830161170E+02  0.80709417729E+01  0.21554136699E+02  0.00000000000E+00 0. -1.
         -1    1    6    6    0  503  0.15170777438E+03 -0.68751014028E+02  0.36169979624E+02  0.17044124549E+03  0.00000000000E+00 0.  1.
<mgrwt>
<rscale>  0 0.25456168E+04</rscale>
<asrwt>0</asrwt>
<pdfrwt beam="1">  1        1 0.16528599E+00 0.25456168E+04</pdfrwt>
<pdfrwt beam="2">  1       -2 0.23198682E+00 0.25456168E+04</pdfrwt>
<totfact> 0.85508207E-01</totfact>
</mgrwt>
</event>
<event>
12    4  0.4280696E-008  0.1419439E+04  0.7818608E-02  0.8939866E-01
          1   -1    0    0  501    0  0.00000000000E+00  0.00000000000E+00  0.16878815208E+03  0.16878815208E+03  0.00000000000E+00 0. -1.
         -2   -1    0    0    0  501 -0.00000000000E+00 -0.00000000000E+00 -0.29842257048E+04  0.29842257048E+04  0.00000000000E+00 0.  1.
        -24    2    1    2    0    0 -0.21067254860E+03  0.33888478219E+03 -0.56995438202E+03  0.70033122209E+03  0.79937505057E+02 0.  0.
        254    2    1    2    0    0  0.21067254860E+03 -0.33888478219E+03 -0.22454831707E+04  0.24526826348E+04  0.90234783694E+03 0.  0.
         23    2    4    4    0    0  0.91763410767E+01 -0.47396615723E+03 -0.52673082102E+03  0.71448366459E+03  0.91177989238E+02 0.  0.
         23    2    4    4    0    0  0.20149620752E+03  0.13508137504E+03 -0.17187523497E+04  0.17381989702E+04  0.91533168722E+02 0.  0.
          3    1    3    3  502    0 -0.14756893415E+03  0.20563019018E+03 -0.29798718004E+03  0.39096895645E+03  0.00000000000E+00 0. -1.
         -4    1    3    3    0  502 -0.63103614447E+02  0.13325459201E+03 -0.27196720197E+03  0.30936226563E+03  0.00000000000E+00 0.  1.
         11    1    5    5    0    0  0.16876551301E+02 -0.12759580627E+03 -0.90154161542E+02  0.15714095775E+03  0.00000000000E+00 0.  1.
        -11    1    5    5    0    0 -0.77002102245E+01 -0.34637035096E+03 -0.43657665948E+03  0.55734270684E+03  0.00000000000E+00 0. -1.
          3    1    6    6  503    0  0.75573141970E+02  0.10461089447E+03 -0.79530053262E+03  0.80570321844E+03  0.00000000000E+00 0. -1.
         -3    1    6    6    0  503  0.12592306555E+03  0.30470480572E+02 -0.92345181709E+03  0.93249575179E+03  0.00000000000E+00 0.  1.
<mgrwt>
<rscale>  0 0.14194392E+04</rscale>
<asrwt>0</asrwt>
<pdfrwt beam="1">  1        1 0.25967407E-01 0.14194392E+04</pdfrwt>
<pdfrwt beam="2">  1       -2 0.45911166E+00 0.14194392E+04</pdfrwt>
<totfact> 0.48159993E-01</totfact>
</mgrwt>
</event>
<event>
12    4  0.4280696E-008  0.2334931E+04  0.7818608E-02  0.8464274E-01
         -2   -1    0    0    0  501 -0.00000000000E+00  0.00000000000E+00  0.95887883308E+03  0.95887883308E+03  0.00000000000E+00 0.  1.
          1   -1    0    0  501    0  0.00000000000E+00 -0.00000000000E+00 -0.14214262152E+04  0.14214262152E+04  0.00000000000E+00 0. -1.
        -24    2    1    2    0    0 -0.62701585850E+02 -0.88961628598E+03 -0.63248820616E+03  0.10964838973E+04  0.82987836685E+02 0.  0.
        254    2    1    2    0    0  0.62701585850E+02  0.88961628598E+03  0.16994082407E+03  0.12838211509E+04  0.90772696264E+03 0.  0.
         23    2    4    4    0    0 -0.14533036018E+03 -0.52603977972E+01  0.30578836923E+03  0.35079021708E+03  0.91644226612E+02 0.  0.
         23    2    4    4    0    0  0.20803194603E+03  0.89487668378E+03 -0.13584754516E+03  0.93303093383E+03  0.89501945352E+02 0.  0.
          3    1    3    3  502    0 -0.76102296455E+01 -0.36208690131E+03 -0.30189308854E+03  0.47149154458E+03  0.00000000000E+00 0. -1.
         -4    1    3    3    0  502 -0.55091356204E+02 -0.52752938467E+03 -0.33059511762E+03  0.62499235276E+03  0.00000000000E+00 0.  1.
         11    1    5    5    0    0 -0.13816606826E+03 -0.31064852624E+02  0.27915142903E+03  0.31301822282E+03  0.00000000000E+00 0.  1.
        -11    1    5    5    0    0 -0.71642919190E+01  0.25804454826E+02  0.26636940197E+02  0.37771994264E+02  0.00000000000E+00 0. -1.
          4    1    6    6  503    0 -0.66626162304E+01  0.83136319080E+02 -0.14544162299E+02  0.84661506378E+02  0.00000000000E+00 0. -1.
         -4    1    6    6    0  503  0.21469456226E+03  0.81174036470E+03 -0.12130338286E+03  0.84836942746E+03  0.00000000000E+00 0.  1.
<mgrwt>
<rscale>  0 0.23349308E+04</rscale>
<asrwt>0</asrwt>
<pdfrwt beam="1">  1        1 0.21868095E+00 0.23349308E+04</pdfrwt>
<pdfrwt beam="2">  1       -2 0.14751982E+00 0.23349308E+04</pdfrwt>
<totfact> 0.18384473E+00</totfact>
</mgrwt>
</event>
<event>
12    4  0.4280696E-008  0.3172339E+04  0.7818608E-02  0.8196161E-01
         -2   -1    0    0    0  501 -0.00000000000E+00  0.00000000000E+00  0.27785707745E+04  0.27785707745E+04  0.00000000000E+00 0.  1.
          1   -1    0    0  501    0  0.00000000000E+00 -0.00000000000E+00 -0.90547746164E+03  0.90547746164E+03  0.00000000000E+00 0. -1.
        -24    2    1    2    0    0  0.51007687785E+03  0.12884880342E+04  0.33898237132E+03  0.14288961072E+04  0.80344268449E+02 0.  0.
        254    2    1    2    0    0 -0.51007687785E+03 -0.12884880342E+04  0.15341109415E+04  0.22551521290E+04  0.90101881681E+03 0.  0.
         23    2    4    4    0    0  0.16745797421E+03 -0.70907408588E+03  0.87686439923E+03  0.11439498492E+04  0.94349617746E+02 0.  0.
         23    2    4    4    0    0 -0.67753485207E+03 -0.57941394831E+03  0.65724654230E+03  0.11112022798E+04  0.89573935898E+02 0.  0.
          1    1    3    3  502    0  0.16570177721E+03  0.34431138349E+03  0.69542517298E+02  0.38838585130E+03  0.00000000000E+00 0. -1.
         -2    1    3    3    0  502  0.34437510064E+03  0.94417665069E+03  0.26943985403E+03  0.10405102559E+04  0.00000000000E+00 0.  1.
         11    1    5    5    0    0 -0.53766516656E+01 -0.40659315276E+01  0.19156588155E+02  0.20308004630E+02  0.00000000000E+00 0.  1.
        -11    1    5    5    0    0  0.17283462588E+03 -0.70500815435E+03  0.85770781108E+03  0.11236418445E+04  0.00000000000E+00 0. -1.
          3    1    6    6  503    0 -0.39695002487E+03 -0.37169131093E+03  0.35488330067E+03  0.64935807530E+03  0.00000000000E+00 0. -1.
         -3    1    6    6    0  503 -0.28058482720E+03 -0.20772263737E+03  0.30236324163E+03  0.46184420449E+03  0.00000000000E+00 0.  1.
<mgrwt>
<rscale>  0 0.31723387E+04</rscale>
<asrwt>0</asrwt>
<pdfrwt beam="1">  1        1 0.13930423E+00 0.31723387E+04</pdfrwt>
<pdfrwt beam="2">  1       -2 0.42747242E+00 0.31723387E+04</pdfrwt>
<totfact> 0.64770210E-02</totfact>
</mgrwt>
</event>
<event>
12    4  0.4280696E-008  0.1794764E+04  0.7818608E-02  0.8709089E-01
         -2   -1    0    0    0  501 -0.00000000000E+00  0.00000000000E+00  0.28790857606E+03  0.28790857606E+03  0.00000000000E+00 0.  1.
          1   -1    0    0  501    0  0.00000000000E+00 -0.00000000000E+00 -0.27970493159E+04  0.27970493159E+04  0.00000000000E+00 0. -1.
        -24    2    1    2    0    0  0.59533776730E+03  0.26915826055E+03 -0.11793956642E+04  0.13507360775E+04  0.81489827446E+02 0.  0.
        254    2    1    2    0    0 -0.59533776730E+03 -0.26915826055E+03 -0.13297450756E+04  0.17342218144E+04  0.90134904951E+03 0.  0.
         23    2    4    4    0    0  0.18012721347E+03  0.11259057517E+03 -0.39531990430E+03  0.45853169997E+03  0.94079979216E+02 0.  0.
         23    2    4    4    0    0 -0.77546498078E+03 -0.38174883572E+03 -0.93442517134E+03  0.12756901145E+04  0.84597620036E+02 0.  0.
          1    1    3    3  502    0  0.57680156346E+03  0.25282703661E+03 -0.10993135520E+04  0.12669300847E+04  0.00000000000E+00 0. -1.
         -2    1    3    3    0  502  0.18536203839E+02  0.16331223941E+02 -0.80082112198E+02  0.83805992758E+02  0.00000000000E+00 0.  1.
         11    1    5    5    0    0  0.16130876941E+03  0.82857526228E+02 -0.37813659617E+03  0.41937235735E+03  0.00000000000E+00 0.  1.
        -11    1    5    5    0    0  0.18818444064E+02  0.29733048943E+02 -0.17183308127E+02  0.39159342623E+02  0.00000000000E+00 0. -1.
          2    1    6    6  503    0 -0.15548468070E+03 -0.58365951127E+02 -0.22417438697E+03  0.27899144424E+03  0.00000000000E+00 0. -1.
         -2    1    6    6    0  503 -0.61998030008E+03 -0.32338288460E+03 -0.71025078437E+03  0.99669867023E+03  0.00000000000E+00 0.  1.
<mgrwt>
<rscale>  0 0.17947640E+04</rscale>
<asrwt>0</asrwt>
<pdfrwt beam="1">  1        1 0.43031526E+00 0.17947640E+04</pdfrwt>
<pdfrwt beam="2">  1       -2 0.44293629E-01 0.17947640E+04</pdfrwt>
<totfact> 0.33638620E+00</totfact>
</mgrwt>
</event>
<event>
12    4  0.4280696E-008  0.1553538E+04  0.7818608E-02  0.8849611E-01
         -2   -1    0    0    0  501 -0.00000000000E+00  0.00000000000E+00  0.35001158731E+03  0.35001158731E+03  0.00000000000E+00 0.  1.
          1   -1    0    0  501    0  0.00000000000E+00 -0.00000000000E+00 -0.17238580798E+04  0.17238580798E+04  0.00000000000E+00 0. -1.
        -24    2    1    2    0    0 -0.33704458236E+03  0.91036754813E+02  0.32606924823E+02  0.35927260088E+03  0.78274190972E+02 0.  0.
        254    2    1    2    0    0  0.33704458236E+03 -0.91036754813E+02 -0.14064534173E+04  0.17145970662E+04  0.91643065379E+03 0.  0.
         23    2    4    4    0    0 -0.18294717532E+03  0.26789669128E+03 -0.40864104180E+03  0.52980757038E+03  0.92033985209E+02 0.  0.
         23    2    4    4    0    0  0.51999175768E+03 -0.35893344609E+03 -0.99781237552E+03  0.11847894958E+04  0.94191113997E+02 0.  0.
          3    1    3    3  502    0 -0.99568883084E+02  0.10152878368E+02 -0.22120013872E+02  0.10250043137E+03  0.00000000000E+00 0. -1.
         -4    1    3    3    0  502 -0.23747569928E+03  0.80883876445E+02  0.54726938696E+02  0.25677216951E+03  0.00000000000E+00 0.  1.
         11    1    5    5    0    0 -0.14106148541E+03  0.24945876814E+03 -0.31675334997E+03  0.42715419275E+03  0.00000000000E+00 0. -1.
        -11    1    5    5    0    0 -0.41885689909E+02  0.18437923138E+02 -0.91887691827E+02  0.10265337763E+03  0.00000000000E+00 0.  1.
          1    1    6    6  503    0  0.44755795094E+03 -0.34465080928E+03 -0.87520239241E+03  0.10416676665E+04  0.00000000000E+00 0. -1.
         -1    1    6    6    0  503  0.72433806740E+02 -0.14282636810E+02 -0.12260998310E+03  0.14312182933E+03  0.00000000000E+00 0.  1.
<mgrwt>
<rscale>  0 0.15535383E+04</rscale>
<asrwt>0</asrwt>
<pdfrwt beam="1">  1        1 0.26520894E+00 0.15535383E+04</pdfrwt>
<pdfrwt beam="2">  1       -2 0.53847936E-01 0.15535383E+04</pdfrwt>
<totfact> 0.12608970E+01</totfact>
</mgrwt>
</event>
<event>
12    4  0.4280696E-008  0.1731534E+04  0.7818608E-02  0.8743581E-01
          1   -1    0    0  501    0  0.00000000000E+00  0.00000000000E+00  0.20826069322E+04  0.20826069322E+04  0.00000000000E+00 0. -1.
         -2   -1    0    0    0  501 -0.00000000000E+00 -0.00000000000E+00 -0.35991050579E+03  0.35991050579E+03  0.00000000000E+00 0.  1.
        -24    2    1    2    0    0 -0.27677717415E+02 -0.44426553815E+03  0.11954418147E+04  0.12779668343E+04  0.77331577067E+02 0.  0.
        254    2    1    2    0    0  0.27677717415E+02  0.44426553815E+03  0.52725461174E+03  0.11645506037E+04  0.93810594208E+03 0.  0.
         23    2    4    4    0    0  0.30355823675E+03  0.10679010140E+03 -0.13972601372E+03  0.36255040742E+03  0.91475188744E+02 0.  0.
         23    2    4    4    0    0 -0.27588051934E+03  0.33747543675E+03  0.66698062546E+03  0.80200019629E+03  0.91331422617E+02 0.  0.
          3    1    3    3  502    0 -0.54723926225E+02 -0.31657229549E+03  0.85118538350E+03  0.90979628679E+03  0.00000000000E+00 0. -1.
         -4    1    3    3    0  502  0.27046208810E+02 -0.12769324267E+03  0.34425643121E+03  0.36817054752E+03  0.00000000000E+00 0.  1.
         11    1    5    5    0    0  0.14564193069E+03  0.91756880601E+02 -0.45510831851E+02  0.17805092791E+03  0.00000000000E+00 0.  1.
        -11    1    5    5    0    0  0.15791630605E+03  0.15033220803E+02 -0.94215181865E+02  0.18449947951E+03  0.00000000000E+00 0. -1.
          1    1    6    6  503    0 -0.99517641381E+02  0.18045360948E+03  0.35859805805E+03  0.41359380237E+03  0.00000000000E+00 0. -1.
         -1    1    6    6    0  503 -0.17636287795E+03  0.15702182727E+03  0.30838256741E+03  0.38840639393E+03  0.00000000000E+00 0.  1.
<mgrwt>
<rscale>  0 0.17315336E+04</rscale>
<asrwt>0</asrwt>
<pdfrwt beam="1">  1        1 0.32040106E+00 0.17315336E+04</pdfrwt>
<pdfrwt beam="2">  1       -2 0.55370848E-01 0.17315336E+04</pdfrwt>
<totfact> 0.66930589E+00</totfact>
</mgrwt>
</event>
<event>
12    4  0.4280696E-008  0.2026589E+04  0.7818608E-02  0.8594290E-01
         -4   -1    0    0    0  501 -0.00000000000E+00  0.00000000000E+00  0.42699236626E+03  0.42699236626E+03  0.00000000000E+00 0.  1.
          3   -1    0    0  501    0  0.00000000000E+00 -0.00000000000E+00 -0.24046458089E+04  0.24046458089E+04  0.00000000000E+00 0. -1.
        -24    2    1    2    0    0  0.78664900785E+03  0.20480916670E+03 -0.68226890051E+03  0.10643658038E+04  0.81364951336E+02 0.  0.
        254    2    1    2    0    0 -0.78664900785E+03 -0.20480916670E+03 -0.12953845421E+04  0.17672723714E+04  0.88570145443E+03 0.  0.
         23    2    4    4    0    0 -0.47287172783E+03 -0.25828021745E+03 -0.13786475446E+03  0.56348790459E+03  0.90529478020E+02 0.  0.
         23    2    4    4    0    0 -0.31377728002E+03  0.53471050747E+02 -0.11575197877E+04  0.12037844668E+04  0.89048576281E+02 0.  0.
          1    1    3    3  502    0  0.60327135037E+03  0.14272799027E+03 -0.47698693481E+03  0.78219188015E+03  0.00000000000E+00 0. -1.
         -2    1    3    3    0  502  0.18337765748E+03  0.62081176433E+02 -0.20528196570E+03  0.28217392362E+03  0.00000000000E+00 0.  1.
         11    1    5    5    0    0 -0.39744395044E+03 -0.17722050909E+03 -0.10040767676E+03  0.44659881789E+03  0.00000000000E+00 0. -1.
        -11    1    5    5    0    0 -0.75427777388E+02 -0.81059708357E+02 -0.37457077693E+02  0.11688908670E+03  0.00000000000E+00 0.  1.
          4    1    6    6  503    0 -0.17773470875E+03  0.45480917195E+02 -0.80961640996E+03  0.83014268159E+03  0.00000000000E+00 0. -1.
         -4    1    6    6    0  503 -0.13604257127E+03  0.79901335512E+01 -0.34790337771E+03  0.37364178521E+03  0.00000000000E+00 0.  1.
<mgrwt>
<rscale>  0 0.20265887E+04</rscale>
<asrwt>0</asrwt>
<pdfrwt beam="1">  1        3 0.36994551E+00 0.20265887E+04</pdfrwt>
<pdfrwt beam="2">  1       -4 0.65691133E-01 0.20265887E+04</pdfrwt>
<totfact> 0.73882188E-02</totfact>
</mgrwt>
</event>
<event>
12    4  0.4280696E-008  0.1492129E+04  0.7818608E-02  0.8889704E-01
         -2   -1    0    0    0  501 -0.00000000000E+00  0.00000000000E+00  0.48174821283E+03  0.48174821283E+03  0.00000000000E+00 0.  1.
          1   -1    0    0  501    0  0.00000000000E+00 -0.00000000000E+00 -0.11554006768E+04  0.11554006768E+04  0.00000000000E+00 0. -1.
        -24    2    1    2    0    0 -0.51905183262E+02  0.45347674697E+03 -0.32183679933E+03  0.56421089082E+03  0.80123004370E+02 0.  0.
        254    2    1    2    0    0  0.51905183262E+02 -0.45347674697E+03 -0.35181566459E+03  0.10729379988E+04  0.90503391054E+03 0.  0.
         23    2    4    4    0    0  0.24995874278E+03 -0.11297419186E+03 -0.55089544263E+03  0.62229568192E+03  0.92323268499E+02 0.  0.
         23    2    4    4    0    0 -0.19805355952E+03 -0.34050255511E+03  0.19907977804E+03  0.45064231684E+03  0.90986467281E+02 0.  0.
          3    1    3    3  502    0  0.44562759739E+01  0.44977114706E+02 -0.62291167741E+02  0.76960956474E+02  0.00000000000E+00 0. -1.
         -4    1    3    3    0  502 -0.56361459236E+02  0.40849963226E+03 -0.25954563159E+03  0.48724993435E+03  0.00000000000E+00 0.  1.
         11    1    5    5    0    0  0.62355178194E+01 -0.31854303006E+02 -0.67016106163E+02  0.74462989382E+02  0.00000000000E+00 0. -1.
        -11    1    5    5    0    0  0.24372322497E+03 -0.81119888859E+02 -0.48387933647E+03  0.54783269254E+03  0.00000000000E+00 0.  1.
          4    1    6    6  503    0 -0.27360539883E+02 -0.23041881104E+02 -0.54995300862E+01  0.36190775879E+02  0.00000000000E+00 0. -1.
         -4    1    6    6    0  503 -0.17069301964E+03 -0.31746067400E+03  0.20457930812E+03  0.41445154096E+03  0.00000000000E+00 0.  1.
<mgrwt>
<rscale>  0 0.14921290E+04</rscale>
<asrwt>0</asrwt>
<pdfrwt beam="1">  1        1 0.17775395E+00 0.14921290E+04</pdfrwt>
<pdfrwt beam="2">  1       -2 0.74115109E-01 0.14921290E+04</pdfrwt>
<totfact> 0.16039723E+01</totfact>
</mgrwt>
</event>
<event>
12    4  0.4280696E-008  0.2196425E+04  0.7818608E-02  0.8519917E-01
         -2   -1    0    0    0  501 -0.00000000000E+00  0.00000000000E+00  0.55001639956E+03  0.55001639956E+03  0.00000000000E+00 0.  1.
          1   -1    0    0  501    0  0.00000000000E+00 -0.00000000000E+00 -0.21927913027E+04  0.21927913027E+04  0.00000000000E+00 0. -1.
        -24    2    1    2    0    0  0.48864347326E+03  0.76500221109E+03 -0.73212415852E+03  0.11689569639E+04  0.80335378737E+02 0.  0.
        254    2    1    2    0    0 -0.48864347326E+03 -0.76500221109E+03 -0.91065074462E+03  0.15738507383E+04  0.90759051391E+03 0.  0.
         23    2    4    4    0    0  0.21352579003E+03 -0.44578237281E+03 -0.29600680141E+03  0.58336621981E+03  0.91547435851E+02 0.  0.
         23    2    4    4    0    0 -0.70216926329E+03 -0.31921983828E+03 -0.61464394321E+03  0.99048451852E+03  0.91265683856E+02 0.  0.
          3    1    3    3  502    0  0.46344039022E+03  0.72816574540E+03 -0.71615622280E+03  0.11215534243E+04  0.00000000000E+00 0. -1.
         -4    1    3    3    0  502  0.25203083036E+02  0.36836465687E+02 -0.15967935720E+02  0.47403539636E+02  0.00000000000E+00 0.  1.
         11    1    5    5    0    0  0.17389869634E+03 -0.34431930867E+03 -0.18488454844E+03  0.42776025898E+03  0.00000000000E+00 0. -1.
        -11    1    5    5    0    0  0.39627093695E+02 -0.10146306414E+03 -0.11112225297E+03  0.15560596083E+03  0.00000000000E+00 0.  1.
          3    1    6    6  503    0 -0.15262338952E+01  0.33957386699E+01  0.66216265173E+00  0.37813873637E+01  0.00000000000E+00 0. -1.
         -3    1    6    6    0  503 -0.70064302940E+03 -0.32261557695E+03 -0.61530610586E+03  0.98670313116E+03  0.00000000000E+00 0.  1.
<mgrwt>
<rscale>  0 0.21964254E+04</rscale>
<asrwt>0</asrwt>
<pdfrwt beam="1">  1        1 0.33735251E+00 0.21964254E+04</pdfrwt>
<pdfrwt beam="2">  1       -2 0.84617908E-01 0.21964254E+04</pdfrwt>
<totfact> 0.21490094E+00</totfact>
</mgrwt>
</event>
<event>
12    4  0.4280696E-008  0.1465466E+04  0.7818608E-02  0.8907748E-01
         -4   -1    0    0    0  501 -0.00000000000E+00  0.00000000000E+00  0.45801788825E+03  0.45801788825E+03  0.00000000000E+00 0.  1.
          3   -1    0    0  501    0  0.00000000000E+00 -0.00000000000E+00 -0.11722194707E+04  0.11722194707E+04  0.00000000000E+00 0. -1.
        -24    2    1    2    0    0 -0.27103735493E+02  0.55998521602E+02 -0.72919668864E+03  0.73610703534E+03  0.79090516835E+02 0.  0.
        254    2    1    2    0    0  0.27103735493E+02 -0.55998521602E+02  0.14995106158E+02  0.89413032364E+03  0.89183728087E+03 0.  0.
         23    2    4    4    0    0  0.25458897598E+03 -0.38998971839E+03  0.56842425831E+02  0.47792881599E+03  0.90980023323E+02 0.  0.
         23    2    4    4    0    0 -0.22748524049E+03  0.33399119678E+03 -0.41847319673E+02  0.41620150765E+03  0.90403775553E+02 0.  0.
          1    1    3    3  502    0 -0.47663547702E+02  0.32823245474E+02 -0.28415643683E+03  0.28998975812E+03  0.00000000000E+00 0. -1.
         -2    1    3    3    0  502  0.20559812209E+02  0.23175276128E+02 -0.44504025181E+03  0.44611727722E+03  0.00000000000E+00 0.  1.
         11    1    5    5    0    0  0.11653106420E+03 -0.23420133225E+03  0.65230970494E+02  0.26960124715E+03  0.00000000000E+00 0.  1.
        -11    1    5    5    0    0  0.13805791178E+03 -0.15578838614E+03 -0.83885446634E+01  0.20832756885E+03  0.00000000000E+00 0. -1.
          3    1    6    6  503    0 -0.20324971178E+03  0.23057577796E+03 -0.22083785556E+02  0.30816120506E+03  0.00000000000E+00 0. -1.
         -3    1    6    6    0  503 -0.24235528713E+02  0.10341541882E+03 -0.19763534117E+02  0.10804030259E+03  0.00000000000E+00 0.  1.
<mgrwt>
<rscale>  0 0.14654658E+04</rscale>
<asrwt>0</asrwt>
<pdfrwt beam="1">  1        3 0.18034146E+00 0.14654658E+04</pdfrwt>
<pdfrwt beam="2">  1       -4 0.70464290E-01 0.14654658E+04</pdfrwt>
<totfact> 0.80914706E-01</totfact>
</mgrwt>
</event>
<event>
12    4  0.4280696E-008  0.1591203E+04  0.7818608E-02  0.8825971E-01
         -2   -1    0    0    0  501 -0.00000000000E+00  0.00000000000E+00  0.19472379093E+03  0.19472379093E+03  0.00000000000E+00 0.  1.
          1   -1    0    0  501    0  0.00000000000E+00 -0.00000000000E+00 -0.32506654722E+04  0.32506654722E+04  0.00000000000E+00 0. -1.
        -24    2    1    2    0    0 -0.43953918951E+03 -0.30354276528E+03 -0.85952348003E+03  0.10151695379E+04  0.80347174720E+02 0.  0.
        254    2    1    2    0    0  0.43953918951E+03  0.30354276528E+03 -0.21964182013E+04  0.24302197253E+04  0.89240242531E+03 0.  0.
         23    2    4    4    0    0  0.47522299767E+03 -0.67787392024E-01 -0.46935246885E+03  0.67395944009E+03  0.89959350609E+02 0.  0.
         23    2    4    4    0    0 -0.35683808162E+02  0.30361055267E+03 -0.17270657324E+04  0.17562602852E+04  0.90782395302E+02 0.  0.
          1    1    3    3  502    0 -0.18338962157E+02  0.29761390964E+01 -0.39883553855E+02  0.43998554579E+02  0.00000000000E+00 0. -1.
         -2    1    3    3    0  502 -0.42120022735E+03 -0.30651890437E+03 -0.81963992617E+03  0.97117098332E+03  0.00000000000E+00 0.  1.
         11    1    5    5    0    0  0.44806946750E+03 -0.73990880435E+01 -0.40621282885E+03  0.60483870290E+03  0.00000000000E+00 0. -1.
        -11    1    5    5    0    0  0.27153530173E+02  0.73313006515E+01 -0.63139639997E+02  0.69120737186E+02  0.00000000000E+00 0.  1.
          2    1    6    6  503    0 -0.37337182948E+02  0.30869737222E+03 -0.16523417621E+04  0.16813451257E+04  0.00000000000E+00 0. -1.
         -2    1    6    6    0  503  0.16533747853E+01 -0.50868195562E+01 -0.74723970307E+02  0.74915159479E+02  0.00000000000E+00 0.  1.
<mgrwt>
<rscale>  0 0.15912032E+04</rscale>
<asrwt>0</asrwt>
<pdfrwt beam="1">  1        1 0.50010234E+00 0.15912032E+04</pdfrwt>
<pdfrwt beam="2">  1       -2 0.29957509E-01 0.15912032E+04</pdfrwt>
<totfact> 0.33999387E+00</totfact>
</mgrwt>
</event>
<event>
12    4  0.4280696E-008  0.1414593E+04  0.7818608E-02  0.8943323E-01
         -2   -1    0    0    0  501 -0.00000000000E+00  0.00000000000E+00  0.12865128348E+03  0.12865128348E+03  0.00000000000E+00 0.  1.
          1   -1    0    0  501    0  0.00000000000E+00 -0.00000000000E+00 -0.38885586090E+04  0.38885586090E+04  0.00000000000E+00 0. -1.
        -24    2    1    2    0    0  0.23651251636E+03 -0.33926383875E+03 -0.11926370009E+04  0.12647568583E+04  0.78668749559E+02 0.  0.
        254    2    1    2    0    0 -0.23651251636E+03  0.33926383875E+03 -0.25672703246E+04  0.27524530341E+04  0.90226529507E+03 0.  0.
         23    2    4    4    0    0  0.19563226257E+03 -0.50262542570E+02 -0.16187508127E+03  0.27625361233E+03  0.96510160324E+02 0.  0.
         23    2    4    4    0    0 -0.43214477893E+03  0.38952638132E+03 -0.24053952433E+04  0.24761994218E+04  0.84601347830E+02 0.  0.
          1    1    3    3  502    0  0.22786875943E+03 -0.28880683489E+03 -0.10031725425E+04  0.10684983432E+04  0.00000000000E+00 0. -1.
         -2    1    3    3    0  502  0.86437569312E+01 -0.50457003859E+02 -0.18946445835E+03  0.19625851510E+03  0.00000000000E+00 0.  1.
         11    1    5    5    0    0  0.78374605640E+02 -0.69170284077E+02 -0.85486327325E+02  0.13503710293E+03  0.00000000000E+00 0. -1.
        -11    1    5    5    0    0  0.11725765693E+03  0.18907741508E+02 -0.76388753947E+02  0.14121650940E+03  0.00000000000E+00 0.  1.
          1    1    6    6  503    0 -0.21711721509E+03  0.24902012441E+03 -0.12944766062E+04  0.13359717780E+04  0.00000000000E+00 0. -1.
         -1    1    6    6    0  503 -0.21502756383E+03  0.14050625691E+03 -0.11109186371E+04  0.11402276438E+04  0.00000000000E+00 0.  1.
<mgrwt>
<rscale>  0 0.14145926E+04</rscale>
<asrwt>0</asrwt>
<pdfrwt beam="1">  1        1 0.59823977E+00 0.14145926E+04</pdfrwt>
<pdfrwt beam="2">  1       -2 0.19792506E-01 0.14145926E+04</pdfrwt>
<totfact> 0.22790981E+00</totfact>
</mgrwt>
</event>
<event>
12    4  0.4280696E-008  0.2358565E+04  0.7818608E-02  0.8455181E-01
         -2   -1    0    0    0  501 -0.00000000000E+00  0.00000000000E+00  0.12257583114E+04  0.12257583114E+04  0.00000000000E+00 0.  1.
          1   -1    0    0  501    0  0.00000000000E+00 -0.00000000000E+00 -0.11345690517E+04  0.11345690517E+04  0.00000000000E+00 0. -1.
        -24    2    1    2    0    0 -0.35324463268E+03 -0.93756659154E+03 -0.34292067537E+02  0.10056934394E+04  0.80190173990E+02 0.  0.
        254    2    1    2    0    0  0.35324463268E+03  0.93756659154E+03  0.12548132733E+03  0.13546339237E+04  0.90303633356E+03 0.  0.
         23    2    4    4    0    0  0.60268205625E+03  0.50944592984E+03 -0.10453595106E+03  0.80069382690E+03  0.86151163717E+02 0.  0.
         23    2    4    4    0    0 -0.24943742357E+03  0.42812066170E+03  0.23001727839E+03  0.55394009683E+03  0.91844179273E+02 0.  0.
          3    1    3    3  502    0 -0.29326620180E+03 -0.75699502732E+03  0.28918991609E+01  0.81182196298E+03  0.00000000000E+00 0. -1.
         -4    1    3    3    0  502 -0.59978430885E+02 -0.18057156422E+03 -0.37183966698E+02  0.19387147639E+03  0.00000000000E+00 0.  1.
         11    1    5    5    0    0  0.14076000172E+03  0.96222396376E+02 -0.54026918899E+02  0.17886038022E+03  0.00000000000E+00 0. -1.
        -11    1    5    5    0    0  0.46192205454E+03  0.41322353346E+03 -0.50509032163E+02  0.62183344668E+03  0.00000000000E+00 0.  1.
          3    1    6    6  503    0 -0.37345576195E+02  0.13252316183E+03  0.39384112524E+02  0.14320680431E+03  0.00000000000E+00 0. -1.
         -3    1    6    6    0  503 -0.21209184738E+03  0.29559749987E+03  0.19063316587E+03  0.41073329252E+03  0.00000000000E+00 0.  1.
<mgrwt>
<rscale>  0 0.23585652E+04</rscale>
<asrwt>0</asrwt>
<pdfrwt beam="1">  1        1 0.17454908E+00 0.23585652E+04</pdfrwt>
<pdfrwt beam="2">  1       -2 0.18857820E+00 0.23585652E+04</pdfrwt>
<totfact> 0.14929761E+00</totfact>
</mgrwt>
</event>
<event>
12    4  0.4280696E-008  0.1479473E+04  0.7818608E-02  0.8898219E-01
          1   -1    0    0  501    0  0.00000000000E+00  0.00000000000E+00  0.23469501729E+03  0.23469501729E+03  0.00000000000E+00 0. -1.
         -2   -1    0    0    0  501 -0.00000000000E+00 -0.00000000000E+00 -0.23315795258E+04  0.23315795258E+04  0.00000000000E+00 0.  1.
        -24    2    1    2    0    0  0.34783735465E+03  0.29060160742E+03 -0.54690970119E+03  0.71791360180E+03  0.10416140777E+03 0.  0.
        254    2    1    2    0    0 -0.34783735465E+03 -0.29060160742E+03 -0.15499748073E+04  0.18483609413E+04  0.89920862233E+03 0.  0.
         23    2    4    4    0    0 -0.31131025181E+03 -0.10755593705E+03 -0.15988282978E+04  0.16349785929E+04  0.91764486031E+02 0.  0.
         23    2    4    4    0    0 -0.36527102837E+02 -0.18304567036E+03  0.48853490468E+02  0.21338234842E+03  0.91134057332E+02 0.  0.
          1    1    3    3  502    0  0.21729042636E+03  0.21203834106E+03 -0.29381390853E+03  0.42249497075E+03  0.00000000000E+00 0. -1.
         -2    1    3    3    0  502  0.13054692829E+03  0.78563266362E+02 -0.25309579266E+03  0.29541863105E+03  0.00000000000E+00 0.  1.
         11    1    5    5    0    0 -0.30982964677E+03 -0.93395803704E+02 -0.14605391747E+04  0.14959585111E+04  0.00000000000E+00 0. -1.
        -11    1    5    5    0    0 -0.14806050383E+01 -0.14160133349E+02 -0.13828912309E+03  0.13902008176E+03  0.00000000000E+00 0.  1.
          2    1    6    6  503    0 -0.25571156113E+02 -0.17216974742E+03  0.69654947387E+02  0.18747831247E+03  0.00000000000E+00 0. -1.
         -2    1    6    6    0  503 -0.10955946724E+02 -0.10875922945E+02 -0.20801456919E+02  0.25904035949E+02  0.00000000000E+00 0.  1.
<mgrwt>
<rscale>  0 0.14794730E+04</rscale>
<asrwt>0</asrwt>
<pdfrwt beam="1">  1        1 0.36106926E-01 0.14794730E+04</pdfrwt>
<pdfrwt beam="2">  1       -2 0.35870454E+00 0.14794730E+04</pdfrwt>
<totfact> 0.14106553E+00</totfact>
</mgrwt>
</event>
<event>
12    4  0.4280696E-008  0.1513263E+04  0.7818608E-02  0.8875681E-01
         -2   -1    0    0    0  501 -0.00000000000E+00  0.00000000000E+00  0.17462675972E+04  0.17462675972E+04  0.00000000000E+00 0.  1.
          1   -1    0    0  501    0  0.00000000000E+00 -0.00000000000E+00 -0.32783708191E+03  0.32783708191E+03  0.00000000000E+00 0. -1.
        -24    2    1    2    0    0 -0.33181595919E+03 -0.28918036933E+03  0.17682663117E+03  0.48179018363E+03  0.84421601323E+02 0.  0.
        254    2    1    2    0    0  0.33181595919E+03  0.28918036933E+03  0.12416038841E+04  0.15923144955E+04  0.89451558436E+03 0.  0.
         23    2    4    4    0    0 -0.22403959044E+03 -0.11227562650E+03  0.56315218439E+03  0.62340012271E+03  0.93208239044E+02 0.  0.
         23    2    4    4    0    0  0.55585554963E+03  0.40145599582E+03  0.67845169970E+03  0.96891437274E+03  0.91411401002E+02 0.  0.
          3    1    3    3  502    0 -0.88741938863E+02 -0.85236816334E+02  0.10375601558E+02  0.12348319594E+03  0.00000000000E+00 0. -1.
         -4    1    3    3    0  502 -0.24307402033E+03 -0.20394355299E+03  0.16645102961E+03  0.35830698769E+03  0.00000000000E+00 0.  1.
         11    1    5    5    0    0  0.14297395056E+01 -0.10500943726E+02  0.29348616764E+01  0.10996698925E+02  0.00000000000E+00 0.  1.
        -11    1    5    5    0    0 -0.22546932995E+03 -0.10177468277E+03  0.56021732271E+03  0.61240342379E+03  0.00000000000E+00 0. -1.
          3    1    6    6  503    0  0.52447337056E+03  0.38674479249E+03  0.66681170968E+03  0.93235278040E+03  0.00000000000E+00 0. -1.
         -3    1    6    6    0  503  0.31382179077E+02  0.14711203337E+02  0.11639990019E+02  0.36561592347E+02  0.00000000000E+00 0.  1.
<mgrwt>
<rscale>  0 0.15132631E+04</rscale>
<asrwt>0</asrwt>
<pdfrwt beam="1">  1        1 0.50436475E-01 0.15132631E+04</pdfrwt>
<pdfrwt beam="2">  1       -2 0.26865655E+00 0.15132631E+04</pdfrwt>
<totfact> 0.32595781E+00</totfact>
</mgrwt>
</event>
<event>
12    4  0.4280696E-008  0.2416288E+04  0.7818608E-02  0.8433431E-01
         -2   -1    0    0    0  501 -0.00000000000E+00  0.00000000000E+00  0.84966801081E+03  0.84966801081E+03  0.00000000000E+00 0.  1.
          1   -1    0    0  501    0  0.00000000000E+00 -0.00000000000E+00 -0.17178613923E+04  0.17178613923E+04  0.00000000000E+00 0. -1.
        -24    2    1    2    0    0  0.80905301751E+03  0.76788890299E+02  0.32129028834E+03  0.87750024381E+03  0.79472697728E+02 0.  0.
        254    2    1    2    0    0 -0.80905301751E+03 -0.76788890299E+02 -0.11894836698E+04  0.16900291593E+04  0.88366500422E+03 0.  0.
         23    2    4    4    0    0 -0.74113776228E+03 -0.31865587214E+03 -0.50876043474E+03  0.95860903592E+03  0.96267109030E+02 0.  0.
         23    2    4    4    0    0 -0.67915255232E+02  0.24186698184E+03 -0.68072323509E+03  0.73142012337E+03  0.92082328855E+02 0.  0.
          3    1    3    3  502    0  0.76188250222E+03  0.86642083490E+02  0.31471505600E+03  0.82886510621E+03  0.00000000000E+00 0. -1.
         -4    1    3    3    0  502  0.47170515285E+02 -0.98531931908E+01  0.65752323431E+01  0.48635137593E+02  0.00000000000E+00 0.  1.
         11    1    5    5    0    0 -0.36954004894E+03 -0.10657410893E+03 -0.24177459803E+03  0.45428278056E+03  0.00000000000E+00 0. -1.
        -11    1    5    5    0    0 -0.37159771334E+03 -0.21208176321E+03 -0.26698583671E+03  0.50432625536E+03  0.00000000000E+00 0.  1.
          2    1    6    6  503    0  0.15636188554E+01 -0.80227072952E+01 -0.19200037914E+02  0.20867443355E+02  0.00000000000E+00 0. -1.
         -2    1    6    6    0  503 -0.69478874088E+02  0.24988968913E+03 -0.66152319717E+03  0.71055268002E+03  0.00000000000E+00 0.  1.
<mgrwt>
<rscale>  0 0.24162880E+04</rscale>
<asrwt>0</asrwt>
<pdfrwt beam="1">  1        1 0.26428637E+00 0.24162880E+04</pdfrwt>
<pdfrwt beam="2">  1       -2 0.13071816E+00 0.24162880E+04</pdfrwt>
<totfact> 0.15600010E+00</totfact>
</mgrwt>
</event>
<event>
12    4  0.4280696E-008  0.1799568E+04  0.7818608E-02  0.8706529E-01
          1   -1    0    0  501    0  0.00000000000E+00  0.00000000000E+00  0.58152189252E+03  0.58152189252E+03  0.00000000000E+00 0. -1.
         -2   -1    0    0    0  501 -0.00000000000E+00 -0.00000000000E+00 -0.13922279072E+04  0.13922279072E+04  0.00000000000E+00 0.  1.
        -24    2    1    2    0    0  0.55158568869E+03  0.19517413968E+03 -0.66887884574E+03  0.89212127108E+03  0.78369224020E+02 0.  0.
        254    2    1    2    0    0 -0.55158568869E+03 -0.19517413968E+03 -0.14182716891E+03  0.10816285286E+04  0.89859090320E+03 0.  0.
         23    2    4    4    0    0  0.16942655609E+02 -0.36235226481E+03 -0.27881112761E+03  0.46637722904E+03  0.90475728753E+02 0.  0.
         23    2    4    4    0    0 -0.56852834430E+03  0.16717812513E+03  0.13698395870E+03  0.61525129958E+03  0.92717597573E+02 0.  0.
          1    1    3    3  502    0  0.25929410845E+02  0.28866473099E+02 -0.49682076465E+02  0.63039006478E+02  0.00000000000E+00 0. -1.
         -2    1    3    3    0  502  0.52565627784E+03  0.16630766658E+03 -0.61919676928E+03  0.82908226460E+03  0.00000000000E+00 0.  1.
         11    1    5    5    0    0 -0.31331807725E+02 -0.17662456196E+03 -0.10743746530E+03  0.20909501910E+03  0.00000000000E+00 0.  1.
        -11    1    5    5    0    0  0.48274463334E+02 -0.18572770285E+03 -0.17137366231E+03  0.25728220994E+03  0.00000000000E+00 0. -1.
          4    1    6    6  503    0 -0.50395217567E+03  0.14720406994E+03  0.89353011678E+02  0.53256060150E+03  0.00000000000E+00 0. -1.
         -4    1    6    6    0  503 -0.64576168626E+02  0.19974055195E+02  0.47630947019E+02  0.82690698082E+02  0.00000000000E+00 0.  1.
<mgrwt>
<rscale>  0 0.17995677E+04</rscale>
<asrwt>0</asrwt>
<pdfrwt beam="1">  1        1 0.89464908E-01 0.17995677E+04</pdfrwt>
<pdfrwt beam="2">  1       -2 0.21418890E+00 0.17995677E+04</pdfrwt>
<totfact> 0.31830656E+00</totfact>
</mgrwt>
</event>
<event>
12    4  0.4280696E-008  0.1331969E+04  0.7818608E-02  0.9004591E-01
          1   -1    0    0  501    0  0.00000000000E+00  0.00000000000E+00  0.19895411202E+04  0.19895411202E+04  0.00000000000E+00 0. -1.
         -2   -1    0    0    0  501 -0.00000000000E+00 -0.00000000000E+00 -0.22293356214E+03  0.22293356214E+03  0.00000000000E+00 0.  1.
        -24    2    1    2    0    0 -0.80010810886E+02  0.41945137142E+02 -0.85892409196E+02  0.14980030578E+03  0.83075274698E+02 0.  0.
        254    2    1    2    0    0  0.80010810886E+02 -0.41945137142E+02  0.18524999673E+04  0.20626743766E+04  0.90261194912E+03 0.  0.
         23    2    4    4    0    0  0.22144727243E+03  0.36236856823E+03  0.12096670128E+04  0.12848992142E+04  0.85567721826E+02 0.  0.
         23    2    4    4    0    0 -0.14143646155E+03 -0.40431370537E+03  0.64283295447E+03  0.77777516241E+03  0.90698130655E+02 0.  0.
          1    1    3    3  502    0 -0.35981601863E+02 -0.23976404943E+02 -0.26087796121E+02  0.50498680904E+02  0.00000000000E+00 0. -1.
         -2    1    3    3    0  502 -0.44029209023E+02  0.65921542086E+02 -0.59804613075E+02  0.99301624877E+02  0.00000000000E+00 0.  1.
         11    1    5    5    0    0  0.37892287564E+02  0.13636377142E+03  0.36647443217E+03  0.39285418802E+03  0.00000000000E+00 0.  1.
        -11    1    5    5    0    0  0.18355498487E+03  0.22600479681E+03  0.84319258065E+03  0.89204502617E+03  0.00000000000E+00 0. -1.
          1    1    6    6  503    0 -0.10086757598E+03 -0.28385828687E+03  0.37262114304E+03  0.47916209277E+03  0.00000000000E+00 0. -1.
         -1    1    6    6    0  503 -0.40568885571E+02 -0.12045541850E+03  0.27021181143E+03  0.29861306964E+03  0.00000000000E+00 0.  1.
<mgrwt>
<rscale>  0 0.13319692E+04</rscale>
<asrwt>0</asrwt>
<pdfrwt beam="1">  1        1 0.30608324E+00 0.13319692E+04</pdfrwt>
<pdfrwt beam="2">  1       -2 0.34297473E-01 0.13319692E+04</pdfrwt>
<totfact> 0.20779802E+01</totfact>
</mgrwt>
</event>
<event>
12    4  0.4280696E-008  0.1523768E+04  0.7818608E-02  0.8868800E-01
          1   -1    0    0  501    0  0.00000000000E+00  0.00000000000E+00  0.15515830386E+04  0.15515830386E+04  0.00000000000E+00 0. -1.
         -2   -1    0    0    0  501 -0.00000000000E+00 -0.00000000000E+00 -0.37411289653E+03  0.37411289653E+03  0.00000000000E+00 0.  1.
        -24    2    1    2    0    0 -0.45296697253E+03 -0.20084620081E+03  0.45115579803E+03  0.67488279356E+03  0.80043465501E+02 0.  0.
        254    2    1    2    0    0  0.45296697253E+03  0.20084620081E+03  0.72631434408E+03  0.12508131416E+04  0.88965314264E+03 0.  0.
         23    2    4    4    0    0  0.42088735779E+02  0.36472828269E+03 -0.20553829701E+02  0.37877197258E+03  0.90816107767E+02 0.  0.
         23    2    4    4    0    0  0.41087823675E+03 -0.16388208187E+03  0.74686817378E+03  0.87204116902E+03  0.83459386947E+02 0.  0.
          3    1    3    3  502    0 -0.36449559644E+02 -0.10355138211E+02  0.10520046109E+02  0.39325191109E+02  0.00000000000E+00 0. -1.
         -4    1    3    3    0  502 -0.41651741288E+03 -0.19049106260E+03  0.44063575192E+03  0.63555760245E+03  0.00000000000E+00 0.  1.
         11    1    5    5    0    0 -0.14436884058E+02  0.12510562628E+03 -0.39124066833E+02  0.13187317375E+03  0.00000000000E+00 0.  1.
        -11    1    5    5    0    0  0.56525619838E+02  0.23962265640E+03  0.18570237132E+02  0.24689879884E+03  0.00000000000E+00 0. -1.
          4    1    6    6  503    0  0.38746655383E+03 -0.17108843474E+03  0.68343864848E+03  0.80404599935E+03  0.00000000000E+00 0. -1.
         -4    1    6    6    0  503  0.23411682922E+02  0.72063528625E+01  0.63429525299E+02  0.67995169670E+02  0.00000000000E+00 0.  1.
<mgrwt>
<rscale>  0 0.15237680E+04</rscale>
<asrwt>0</asrwt>
<pdfrwt beam="1">  1        1 0.23870508E+00 0.15237680E+04</pdfrwt>
<pdfrwt beam="2">  1       -2 0.57555831E-01 0.15237680E+04</pdfrwt>
<totfact> 0.14433265E+01</totfact>
</mgrwt>
</event>
<event>
12    4  0.4280696E-008  0.1419011E+04  0.7818608E-02  0.8940171E-01
         -2   -1    0    0    0  501 -0.00000000000E+00  0.00000000000E+00  0.27063901694E+03  0.27063901694E+03  0.00000000000E+00 0.  1.
          1   -1    0    0  501    0  0.00000000000E+00 -0.00000000000E+00 -0.18600341918E+04  0.18600341918E+04  0.00000000000E+00 0. -1.
        -24    2    1    2    0    0  0.38914069789E+03  0.11750186248E+03 -0.61283872953E+03  0.73965221462E+03  0.79227013951E+02 0.  0.
        254    2    1    2    0    0 -0.38914069789E+03 -0.11750186248E+03 -0.97655644529E+03  0.13910209941E+04  0.90334918206E+03 0.  0.
         23    2    4    4    0    0 -0.24977187743E+03 -0.42479836482E+03 -0.90444147860E+03  0.10338748867E+04  0.89684177633E+02 0.  0.
         23    2    4    4    0    0 -0.13936882045E+03  0.30729650234E+03 -0.72114966700E+02  0.35714610736E+03  0.92184408191E+02 0.  0.
          3    1    3    3  502    0  0.20079236531E+03  0.57819832890E+02 -0.38523885961E+03  0.43825755669E+03  0.00000000000E+00 0. -1.
         -4    1    3    3    0  502  0.18834833257E+03  0.59682029591E+02 -0.22759986992E+03  0.30139465793E+03  0.00000000000E+00 0.  1.
         11    1    5    5    0    0 -0.21158715212E+03 -0.30722653287E+03 -0.73362653085E+03  0.82302196338E+03  0.00000000000E+00 0. -1.
        -11    1    5    5    0    0 -0.38184725312E+02 -0.11757183195E+03 -0.17081494774E+03  0.21085292336E+03  0.00000000000E+00 0.  1.
          2    1    6    6  503    0 -0.13201486272E+03  0.27468628280E+03 -0.91879007472E+02  0.31831152972E+03  0.00000000000E+00 0.  1.
         -2    1    6    6    0  503 -0.73539577345E+01  0.32610219538E+02  0.19764040772E+02  0.38834577638E+02  0.00000000000E+00 0. -1.
<mgrwt>
<rscale>  0 0.14190107E+04</rscale>
<asrwt>0</asrwt>
<pdfrwt beam="1">  1        1 0.28615911E+00 0.14190107E+04</pdfrwt>
<pdfrwt beam="2">  1       -2 0.41636771E-01 0.14190107E+04</pdfrwt>
<totfact> 0.17331367E+01</totfact>
</mgrwt>
</event>
<event>
12    4  0.4280696E-008  0.1417682E+04  0.7818608E-02  0.8941118E-01
         -2   -1    0    0    0  501 -0.00000000000E+00  0.00000000000E+00  0.26584016685E+03  0.26584016685E+03  0.00000000000E+00 0.  1.
          1   -1    0    0  501    0  0.00000000000E+00 -0.00000000000E+00 -0.18900662605E+04  0.18900662605E+04  0.00000000000E+00 0. -1.
        -24    2    1    2    0    0  0.11189322077E+03 -0.21522411626E+03  0.29079219888E+02  0.25827045399E+03  0.83764630365E+02 0.  0.
        254    2    1    2    0    0 -0.11189322077E+03  0.21522411626E+03 -0.16533053135E+04  0.18976359733E+04  0.89931213408E+03 0.  0.
         23    2    4    4    0    0 -0.42809047993E+03  0.24185838607E+02 -0.13205514352E+04  0.13915861401E+04  0.93858822985E+02 0.  0.
         23    2    4    4    0    0  0.31619725916E+03  0.19103827766E+03 -0.33275387835E+03  0.50604983321E+03  0.94260065292E+02 0.  0.
          3    1    3    3  502    0 -0.99604754599E+01 -0.12708345650E+02 -0.95884465244E+01  0.18779015611E+02  0.00000000000E+00 0. -1.
         -4    1    3    3    0  502  0.12185369623E+03 -0.20251577061E+03  0.38667666412E+02  0.23949143838E+03  0.00000000000E+00 0.  1.
         11    1    5    5    0    0 -0.42984749366E+03  0.28723212332E+02 -0.12758489994E+04  0.13466196790E+04  0.00000000000E+00 0.  1.
        -11    1    5    5    0    0  0.17570137271E+01 -0.45373737249E+01 -0.44702435794E+02  0.44966461096E+02  0.00000000000E+00 0. -1.
          4    1    6    6  503    0  0.15290112898E+03  0.44012089443E+02 -0.16819634269E+03  0.23152932634E+03  0.00000000000E+00 0.  1.
         -4    1    6    6    0  503  0.16329613017E+03  0.14702618821E+03 -0.16455753566E+03  0.27452050687E+03  0.00000000000E+00 0. -1.
<mgrwt>
<rscale>  0 0.14176820E+04</rscale>
<asrwt>0</asrwt>
<pdfrwt beam="1">  1        1 0.29077942E+00 0.14176820E+04</pdfrwt>
<pdfrwt beam="2">  1       -2 0.40898488E-01 0.14176820E+04</pdfrwt>
<totfact> 0.17133596E+01</totfact>
</mgrwt>
</event>
<event>
12    4  0.4280696E-008  0.2266212E+04  0.7818608E-02  0.8491364E-01
          1   -1    0    0  501    0  0.00000000000E+00  0.00000000000E+00  0.19443753474E+04  0.19443753474E+04  0.00000000000E+00 0. -1.
         -2   -1    0    0    0  501 -0.00000000000E+00 -0.00000000000E+00 -0.66033005903E+03  0.66033005903E+03  0.00000000000E+00 0.  1.
        -24    2    1    2    0    0 -0.76729978049E+02  0.94840914351E+03  0.43899625463E+03  0.10506923040E+04  0.76610789393E+02 0.  0.
        254    2    1    2    0    0  0.76729978049E+02 -0.94840914351E+03  0.84504903375E+03  0.15540131025E+04  0.89189767359E+03 0.  0.
         23    2    4    4    0    0 -0.25392694514E+03 -0.58038594399E+03  0.83339791343E+03  0.10508151584E+04  0.91288978007E+02 0.  0.
         23    2    4    4    0    0  0.33065692319E+03 -0.36802319951E+03  0.11651120319E+02  0.50319794409E+03  0.91089769418E+02 0.  0.
          1    1    3    3  502    0 -0.66460420275E+02  0.81452501558E+03  0.34657991026E+03  0.88768554267E+03  0.00000000000E+00 0. -1.
         -2    1    3    3    0  502 -0.10269557775E+02  0.13388412793E+03  0.92416344365E+02  0.16300676131E+03  0.00000000000E+00 0.  1.
         11    1    5    5    0    0 -0.10046857453E+03 -0.13521769211E+03  0.19816177436E+03  0.26008815341E+03  0.00000000000E+00 0.  1.
        -11    1    5    5    0    0 -0.15345837061E+03 -0.44516825189E+03  0.63523613907E+03  0.79072700496E+03  0.00000000000E+00 0. -1.
          3    1    6    6  503    0  0.18741887422E+03 -0.24674232972E+03 -0.28850675156E+02  0.31119121637E+03  0.00000000000E+00 0. -1.
         -3    1    6    6    0  503  0.14323804897E+03 -0.12128086979E+03  0.40501795475E+02  0.19200672771E+03  0.00000000000E+00 0.  1.
<mgrwt>
<rscale>  0 0.22662122E+04</rscale>
<asrwt>0</asrwt>
<pdfrwt beam="1">  1        1 0.29913467E+00 0.22662122E+04</pdfrwt>
<pdfrwt beam="2">  1       -2 0.10158924E+00 0.22662122E+04</pdfrwt>
<totfact> 0.20593420E+00</totfact>
</mgrwt>
</event>
<event>
12    4  0.4280696E-008  0.1689794E+04  0.7818608E-02  0.8767207E-01
         -2   -1    0    0    0  501 -0.00000000000E+00  0.00000000000E+00  0.89632737877E+03  0.89632737877E+03  0.00000000000E+00 0.  1.
          1   -1    0    0  501    0  0.00000000000E+00 -0.00000000000E+00 -0.79641736020E+03  0.79641736020E+03  0.00000000000E+00 0. -1.
        -24    2    1    2    0    0 -0.48313058283E+03 -0.35360245105E+03  0.20395797422E+02  0.60456592940E+03  0.81450113485E+02 0.  0.
        254    2    1    2    0    0  0.48313058283E+03  0.35360245105E+03  0.79514221147E+02  0.10881788096E+04  0.90518548197E+03 0.  0.
         23    2    4    4    0    0 -0.88975891789E+00  0.53960360232E+03 -0.39335154854E+02  0.54864952678E+03  0.91083530455E+02 0.  0.
         23    2    4    4    0    0  0.48402034175E+03 -0.18600115127E+03  0.11884937600E+03  0.53952928278E+03  0.89969735469E+02 0.  0.
          1    1    3    3  502    0 -0.76014445269E+02 -0.32115186688E+02 -0.17790533655E+02  0.84416137043E+02  0.00000000000E+00 0. -1.
         -2    1    3    3    0  502 -0.40711613756E+03 -0.32148726436E+03  0.38186331077E+02  0.52014979236E+03  0.00000000000E+00 0.  1.
         11    1    5    5    0    0 -0.21543739487E+02  0.45601835614E+03 -0.59026965724E+02  0.46032711904E+03  0.00000000000E+00 0.  1.
        -11    1    5    5    0    0  0.20653980569E+02  0.83585246183E+02  0.19691810870E+02  0.88322407736E+02  0.00000000000E+00 0. -1.
          1    1    6    6  503    0  0.14171494785E+03 -0.99660662069E+02  0.39414525032E+02  0.17767633154E+03  0.00000000000E+00 0. -1.
         -1    1    6    6    0  503  0.34230539391E+03 -0.86340489204E+02  0.79434850968E+02  0.36185295124E+03  0.00000000000E+00 0.  1.
<mgrwt>
<rscale>  0 0.16897937E+04</rscale>
<asrwt>0</asrwt>
<pdfrwt beam="1">  1        1 0.12252575E+00 0.16897937E+04</pdfrwt>
<pdfrwt beam="2">  1       -2 0.13789652E+00 0.16897937E+04</pdfrwt>
<totfact> 0.69383728E+00</totfact>
</mgrwt>
</event>
<event>
12    4  0.4280696E-008  0.1989512E+04  0.7818608E-02  0.8611540E-01
          1   -1    0    0  501    0  0.00000000000E+00  0.00000000000E+00  0.19113797636E+04  0.19113797636E+04  0.00000000000E+00 0. -1.
         -2   -1    0    0    0  501 -0.00000000000E+00 -0.00000000000E+00 -0.51770976694E+03  0.51770976694E+03  0.00000000000E+00 0.  1.
        -24    2    1    2    0    0 -0.72137847383E+03  0.23001550898E+03  0.28090870376E+03  0.81150658284E+03  0.79619076016E+02 0.  0.
        254    2    1    2    0    0  0.72137847383E+03 -0.23001550898E+03  0.11127612929E+04  0.16175829477E+04  0.89724180733E+03 0.  0.
         23    2    4    4    0    0  0.63907698743E+03 -0.53083166849E+03  0.89933850980E+03  0.12277553507E+04  0.91497485238E+02 0.  0.
         23    2    4    4    0    0  0.82301486395E+02  0.30081615952E+03  0.21342278308E+03  0.38982759699E+03  0.95668043496E+02 0.  0.
          1    1    3    3  502    0 -0.37566205484E+03  0.10553046981E+03  0.10476414691E+03  0.40402250678E+03  0.00000000000E+00 0. -1.
         -2    1    3    3    0  502 -0.34571641899E+03  0.12448503916E+03  0.17614455685E+03  0.40748407606E+03  0.00000000000E+00 0.  1.
         11    1    5    5    0    0  0.62517538725E+03 -0.50228729162E+03  0.87989149783E+03  0.11905233455E+04  0.00000000000E+00 0.  1.
        -11    1    5    5    0    0  0.13901600181E+02 -0.28544376871E+02  0.19447011972E+02  0.37232005226E+02  0.00000000000E+00 0. -1.
          1    1    6    6  503    0 -0.40305961837E+01  0.12280027603E+03  0.11729421917E+03  0.16986490912E+03  0.00000000000E+00 0. -1.
         -1    1    6    6    0  503  0.86332082579E+02  0.17801588349E+03  0.96128563913E+02  0.21996268787E+03  0.00000000000E+00 0.  1.
<mgrwt>
<rscale>  0 0.19895125E+04</rscale>
<asrwt>0</asrwt>
<pdfrwt beam="1">  1        1 0.29405842E+00 0.19895125E+04</pdfrwt>
<pdfrwt beam="2">  1       -2 0.79647657E-01 0.19895125E+04</pdfrwt>
<totfact> 0.38959145E+00</totfact>
</mgrwt>
</event>
<event>
12    4  0.4280696E-008  0.2209510E+04  0.7818608E-02  0.8514480E-01
          1   -1    0    0  501    0  0.00000000000E+00  0.00000000000E+00  0.74993865102E+03  0.74993865102E+03  0.00000000000E+00 0. -1.
         -2   -1    0    0    0  501 -0.00000000000E+00 -0.00000000000E+00 -0.16274443861E+04  0.16274443861E+04  0.00000000000E+00 0.  1.
        -24    2    1    2    0    0  0.95695372728E+03 -0.10882011503E+03 -0.39852194006E+03  0.10452360049E+04  0.78078906919E+02 0.  0.
        254    2    1    2    0    0 -0.95695372728E+03  0.10882011503E+03 -0.47898379507E+03  0.13321470322E+04  0.78586766442E+03 0.  0.
         23    2    4    4    0    0 -0.18200698648E+03  0.36017244341E+03 -0.24405633963E+03  0.48060503817E+03  0.92557947675E+02 0.  0.
         23    2    4    4    0    0 -0.77494674079E+03 -0.25135232839E+03 -0.23492745544E+03  0.85154199407E+03  0.78818870144E+02 0.  0.
          1    1    3    3  502    0  0.93547888151E+03 -0.11466099831E+03 -0.37970579216E+03  0.10160926980E+04  0.00000000000E+00 0. -1.
         -2    1    3    3    0  502  0.21474845769E+02  0.58408832774E+01 -0.18816147905E+02  0.29143306954E+02  0.00000000000E+00 0.  1.
         11    1    5    5    0    0 -0.17198052538E+03  0.30772120640E+03 -0.24117945145E+03  0.42712664373E+03  0.00000000000E+00 0. -1.
        -11    1    5    5    0    0 -0.10026461104E+02  0.52451237013E+02 -0.28768881731E+01  0.53478394441E+02  0.00000000000E+00 0.  1.
          2    1    6    6  503    0 -0.50055536257E+03 -0.14143086183E+03 -0.18313040796E+03  0.55144818977E+03  0.00000000000E+00 0.  1.
         -2    1    6    6    0  503 -0.27439137822E+03 -0.10992146656E+03 -0.51797047476E+02  0.30009380430E+03  0.00000000000E+00 0. -1.
<mgrwt>
<rscale>  0 0.22095099E+04</rscale>
<asrwt>0</asrwt>
<pdfrwt beam="1">  1        1 0.11537518E+00 0.22095099E+04</pdfrwt>
<pdfrwt beam="2">  1       -2 0.25037605E+00 0.22095099E+04</pdfrwt>
<totfact> 0.12497491E+00</totfact>
</mgrwt>
</event>
<event>
12    4  0.4280696E-008  0.2004951E+04  0.7818608E-02  0.8604310E-01
          1   -1    0    0  501    0  0.00000000000E+00  0.00000000000E+00  0.53091608090E+03  0.53091608090E+03  0.00000000000E+00 0. -1.
         -2   -1    0    0    0  501 -0.00000000000E+00 -0.00000000000E+00 -0.18928729047E+04  0.18928729047E+04  0.00000000000E+00 0.  1.
        -24    2    1    2    0    0  0.25487198477E+03 -0.50128460431E+03 -0.12079665649E+04  0.13348557147E+04  0.80066060480E+02 0.  0.
        254    2    1    2    0    0 -0.25487198477E+03  0.50128460431E+03 -0.15399025889E+03  0.10889332709E+04  0.91968292658E+03 0.  0.
         23    2    4    4    0    0 -0.48028626263E+03  0.41867434448E+03  0.17937769861E+03  0.66835385213E+03  0.92506281399E+02 0.  0.
         23    2    4    4    0    0  0.22541427787E+03  0.82610259826E+02 -0.33336795751E+03  0.42057941874E+03  0.90093288777E+02 0.  0.
          1    1    3    3  502    0  0.19673977604E+03 -0.34913940068E+03 -0.93025997607E+03  0.10129108962E+04  0.00000000000E+00 0. -1.
         -2    1    3    3    0  502  0.58132208725E+02 -0.15214520363E+03 -0.27770658881E+03  0.32194481848E+03  0.00000000000E+00 0.  1.
         11    1    5    5    0    0 -0.17325649623E+03  0.16119921826E+03  0.11280796770E+03  0.26216147511E+03  0.00000000000E+00 0. -1.
        -11    1    5    5    0    0 -0.30702976640E+03  0.25747512622E+03  0.66569730917E+02  0.40619237702E+03  0.00000000000E+00 0.  1.
          4    1    6    6  503    0  0.15475139698E+03  0.29249491922E+02 -0.15262756281E+03  0.21931415954E+03  0.00000000000E+00 0.  1.
         -4    1    6    6    0  503  0.70662880885E+02  0.53360767904E+02 -0.18074039470E+03  0.20126525921E+03  0.00000000000E+00 0. -1.
<mgrwt>
<rscale>  0 0.20049505E+04</rscale>
<asrwt>0</asrwt>
<pdfrwt beam="1">  1        1 0.81679399E-01 0.20049505E+04</pdfrwt>
<pdfrwt beam="2">  1       -2 0.29121121E+00 0.20049505E+04</pdfrwt>
<totfact> 0.11914472E+00</totfact>
</mgrwt>
</event>
<event>
12    4  0.4280696E-008  0.1945894E+04  0.7818608E-02  0.8632343E-01
          1   -1    0    0  501    0  0.00000000000E+00  0.00000000000E+00  0.22554598455E+04  0.22554598455E+04  0.00000000000E+00 0. -1.
         -2   -1    0    0    0  501 -0.00000000000E+00 -0.00000000000E+00 -0.41970400561E+03  0.41970400561E+03  0.00000000000E+00 0.  1.
        -24    2    1    2    0    0 -0.21658030473E+03 -0.47174733419E+03  0.14166148587E+04  0.15108044070E+04  0.79244700543E+02 0.  0.
        254    2    1    2    0    0  0.21658030473E+03  0.47174733419E+03  0.41914098117E+03  0.11643594441E+04  0.95425425190E+03 0.  0.
         23    2    4    4    0    0 -0.11539627381E+03 -0.18746122931E+03 -0.96949112899E+02  0.25894205148E+03  0.95884529673E+02 0.  0.
         23    2    4    4    0    0  0.33197657854E+03  0.65920856350E+03  0.51609009407E+03  0.90541739263E+03  0.93098285638E+02 0.  0.
          3    1    3    3  502    0 -0.16168781920E+03 -0.28034370444E+03  0.94491542145E+03  0.99879962815E+03  0.00000000000E+00 0. -1.
         -4    1    3    3    0  502 -0.54892485530E+02 -0.19140362975E+03  0.47169943728E+03  0.51200477886E+03  0.00000000000E+00 0.  1.
         11    1    5    5    0    0 -0.40596632615E+02 -0.17109599013E+02 -0.50823133881E+02  0.67259318281E+02  0.00000000000E+00 0. -1.
        -11    1    5    5    0    0 -0.74799641193E+02 -0.17035163029E+03 -0.46125979018E+02  0.19168273320E+03  0.00000000000E+00 0.  1.
          2    1    6    6  503    0  0.24583524899E+02  0.12136624450E+03  0.72576126977E+02  0.14353191006E+03  0.00000000000E+00 0. -1.
         -2    1    6    6    0  503  0.30739305364E+03  0.53784231900E+03  0.44351396709E+03  0.76188548256E+03  0.00000000000E+00 0.  1.
<mgrwt>
<rscale>  0 0.19458937E+04</rscale>
<asrwt>0</asrwt>
<pdfrwt beam="1">  1        1 0.34699382E+00 0.19458937E+04</pdfrwt>
<pdfrwt beam="2">  1       -2 0.64569848E-01 0.19458937E+04</pdfrwt>
<totfact> 0.36200639E+00</totfact>
</mgrwt>
</event>
<event>
12    4  0.4280696E-008  0.1827884E+04  0.7818608E-02  0.8691610E-01
          1   -1    0    0  501    0  0.00000000000E+00  0.00000000000E+00  0.11940579485E+04  0.11940579485E+04  0.00000000000E+00 0. -1.
         -2   -1    0    0    0  501 -0.00000000000E+00 -0.00000000000E+00 -0.69953881010E+03  0.69953881010E+03  0.00000000000E+00 0.  1.
        -24    2    1    2    0    0 -0.40529633516E+03 -0.53173605985E+03  0.39448290019E+03  0.78026809351E+03  0.78696776128E+02 0.  0.
        254    2    1    2    0    0  0.40529633516E+03  0.53173605985E+03  0.10003623820E+03  0.11133286651E+04  0.88458188478E+03 0.  0.
         23    2    4    4    0    0  0.78840393016E+02  0.70069822854E+03  0.16230325651E+03  0.72912158420E+03  0.89900625211E+02 0.  0.
         23    2    4    4    0    0  0.32645594215E+03 -0.16896216870E+03 -0.62267018310E+02  0.38420708087E+03  0.92823503540E+02 0.  0.
          3    1    3    3  502    0 -0.16954115313E+03 -0.20273326021E+03  0.19873952176E+03  0.33066958570E+03  0.00000000000E+00 0. -1.
         -4    1    3    3    0  502 -0.23575518204E+03 -0.32900279964E+03  0.19574337843E+03  0.44959850781E+03  0.00000000000E+00 0.  1.
         11    1    5    5    0    0  0.91427355453E+01  0.13284216245E+03 -0.43452749276E+01  0.13322729132E+03  0.00000000000E+00 0.  1.
        -11    1    5    5    0    0  0.69697657471E+02  0.56785606609E+03  0.16664853143E+03  0.59589429288E+03  0.00000000000E+00 0. -1.
          3    1    6    6  503    0  0.15065809332E+03 -0.34630751864E+02 -0.50584443764E+02  0.16265280818E+03  0.00000000000E+00 0. -1.
         -3    1    6    6    0  503  0.17579784882E+03 -0.13433141683E+03 -0.11682574545E+02  0.22155427269E+03  0.00000000000E+00 0.  1.
<mgrwt>
<rscale>  0 0.18278839E+04</rscale>
<asrwt>0</asrwt>
<pdfrwt beam="1">  1        1 0.18370122E+00 0.18278839E+04</pdfrwt>
<pdfrwt beam="2">  1       -2 0.10762136E+00 0.18278839E+04</pdfrwt>
<totfact> 0.61735197E+00</totfact>
</mgrwt>
</event>
<event>
12    4  0.4280696E-008  0.1805407E+04  0.7818608E-02  0.8703430E-01
         -2   -1    0    0    0  501 -0.00000000000E+00  0.00000000000E+00  0.64821428577E+03  0.64821428577E+03  0.00000000000E+00 0.  1.
          1   -1    0    0  501    0  0.00000000000E+00 -0.00000000000E+00 -0.12571047683E+04  0.12571047683E+04  0.00000000000E+00 0. -1.
        -24    2    1    2    0    0  0.27115479667E+03 -0.43572538590E+03  0.23553673895E+03  0.57045618440E+03  0.81001032342E+02 0.  0.
        254    2    1    2    0    0 -0.27115479667E+03  0.43572538590E+03 -0.84442722146E+03  0.13348628696E+04  0.89745195567E+03 0.  0.
         23    2    4    4    0    0  0.14980480782E+03  0.55700190475E+03 -0.43025056897E+03  0.72535400887E+03  0.91270388164E+02 0.  0.
         23    2    4    4    0    0 -0.42095960449E+03 -0.12127651885E+03 -0.41417665250E+03  0.60950886077E+03  0.89687062878E+02 0.  0.
          3    1    3    3  502    0  0.34461680902E+02 -0.11984313720E+03  0.62211668204E+02  0.13935665268E+03  0.00000000000E+00 0. -1.
         -4    1    3    3    0  502  0.23669311577E+03 -0.31588224870E+03  0.17332507075E+03  0.43109953172E+03  0.00000000000E+00 0.  1.
         11    1    5    5    0    0  0.14415577612E+03  0.39646545737E+03 -0.33416001939E+03  0.53817159460E+03  0.00000000000E+00 0. -1.
        -11    1    5    5    0    0  0.56490317018E+01  0.16053644737E+03 -0.96090549579E+02  0.18718241427E+03  0.00000000000E+00 0.  1.
          2    1    6    6  503    0 -0.35831041894E+03 -0.13484903718E+03 -0.34793257180E+03  0.51732745304E+03  0.00000000000E+00 0. -1.
         -2    1    6    6    0  503 -0.62649185559E+02  0.13572518331E+02 -0.66244080694E+02  0.92181407735E+02  0.00000000000E+00 0.  1.
<mgrwt>
<rscale>  0 0.18054066E+04</rscale>
<asrwt>0</asrwt>
<pdfrwt beam="1">  1        1 0.19340073E+00 0.18054066E+04</pdfrwt>
<pdfrwt beam="2">  1       -2 0.99725276E-01 0.18054066E+04</pdfrwt>
<totfact> 0.66806027E+00</totfact>
</mgrwt>
</event>
<event>
12    4  0.4280696E-008  0.1842895E+04  0.7818608E-02  0.8683815E-01
          1   -1    0    0  501    0  0.00000000000E+00  0.00000000000E+00  0.15463661733E+04  0.15463661733E+04  0.00000000000E+00 0. -1.
         -2   -1    0    0    0  501 -0.00000000000E+00 -0.00000000000E+00 -0.54907128113E+03  0.54907128113E+03  0.00000000000E+00 0.  1.
        -24    2    1    2    0    0 -0.36234184149E+03 -0.55233098547E+03  0.67946347174E+03  0.95105701865E+03  0.80484257402E+02 0.  0.
        254    2    1    2    0    0  0.36234184149E+03  0.55233098547E+03  0.31783142040E+03  0.11443804358E+04  0.87876540803E+03 0.  0.
         23    2    4    4    0    0 -0.24798994680E+03  0.29101266306E+03 -0.18955854098E+02  0.39436991708E+03  0.94767733512E+02 0.  0.
         23    2    4    4    0    0  0.61033178829E+03  0.26131832241E+03  0.33678727450E+03  0.75001051868E+03  0.91093097680E+02 0.  0.
          3    1    3    3  502    0 -0.31214294980E+03 -0.49334457875E+03  0.56195848710E+03  0.81032057589E+03  0.00000000000E+00 0. -1.
         -2    1    3    3    0  502 -0.50198891690E+02 -0.58986406720E+02  0.11750498464E+03  0.14073644275E+03  0.00000000000E+00 0.  1.
         11    1    5    5    0    0 -0.12096308031E+03  0.20958084822E+03 -0.25614677676E+02  0.24333579772E+03  0.00000000000E+00 0. -1.
        -11    1    5    5    0    0 -0.12702686649E+03  0.81431814838E+02  0.66588235781E+01  0.15103411936E+03  0.00000000000E+00 0.  1.
          3    1    6    6  503    0 -0.13850711410E+01  0.71619318282E+01  0.10441173998E+01  0.73689803041E+01  0.00000000000E+00 0. -1.
         -3    1    6    6    0  503  0.61171685943E+03  0.25415639058E+03  0.33574315710E+03  0.74264153838E+03  0.00000000000E+00 0.  1.
<mgrwt>
<rscale>  0 0.18428947E+04</rscale>
<asrwt>0</asrwt>
<pdfrwt beam="1">  1        1 0.23790249E+00 0.18428947E+04</pdfrwt>
<pdfrwt beam="2">  1       -2 0.84472506E-01 0.18428947E+04</pdfrwt>
<totfact> 0.61267238E+00</totfact>
</mgrwt>
</event>
<event>
12    4  0.4280696E-008  0.1302483E+04  0.7818608E-02  0.9027598E-01
          1   -1    0    0  501    0  0.00000000000E+00  0.00000000000E+00  0.72239068874E+03  0.72239068874E+03  0.00000000000E+00 0. -1.
         -2   -1    0    0    0  501 -0.00000000000E+00 -0.00000000000E+00 -0.58710024085E+03  0.58710024085E+03  0.00000000000E+00 0.  1.
        -24    2    1    2    0    0 -0.22022001691E+02 -0.13025067432E+03 -0.27296836313E+03  0.31356951036E+03  0.79774079970E+02 0.  0.
        254    2    1    2    0    0  0.22022001691E+02  0.13025067432E+03  0.40825881103E+03  0.99592141923E+03  0.89874023488E+03 0.  0.
         23    2    4    4    0    0 -0.19039236917E+03 -0.31373200208E+03  0.53591494596E+02  0.38247393543E+03  0.93473202713E+02 0.  0.
         23    2    4    4    0    0  0.21241437086E+03  0.44398267640E+03  0.35466731643E+03  0.61344748380E+03  0.91040804845E+02 0.  0.
          3    1    3    3  502    0  0.29687042450E+02 -0.58684554528E+02 -0.12558876228E+03  0.14176647926E+03  0.00000000000E+00 0. -1.
         -4    1    3    3    0  502 -0.51709044142E+02 -0.71566119792E+02 -0.14737960085E+03  0.17180303110E+03  0.00000000000E+00 0.  1.
         11    1    5    5    0    0 -0.53751223990E+02 -0.73418422692E+02  0.54429474246E+02  0.10602842325E+03  0.00000000000E+00 0. -1.
        -11    1    5    5    0    0 -0.13664114518E+03 -0.24031357939E+03 -0.83797964947E+00  0.27644551218E+03  0.00000000000E+00 0.  1.
          3    1    6    6  503    0  0.20214398349E+03  0.38640591432E+03  0.34049096864E+03  0.55326830779E+03  0.00000000000E+00 0.  1.
         -3    1    6    6    0  503  0.10270387366E+02  0.57576762078E+02  0.14176347791E+02  0.60179176006E+02  0.00000000000E+00 0. -1.
<mgrwt>
<rscale>  0 0.13024834E+04</rscale>
<asrwt>0</asrwt>
<pdfrwt beam="1">  1        1 0.11113703E+00 0.13024834E+04</pdfrwt>
<pdfrwt beam="2">  1       -2 0.90323114E-01 0.13024834E+04</pdfrwt>
<totfact> 0.23412383E+01</totfact>
</mgrwt>
</event>
<event>
12    4  0.4280696E-008  0.1531389E+04  0.7818608E-02  0.8863844E-01
          1   -1    0    0  501    0  0.00000000000E+00  0.00000000000E+00  0.54679936073E+03  0.54679936073E+03  0.00000000000E+00 0. -1.
         -2   -1    0    0    0  501 -0.00000000000E+00 -0.00000000000E+00 -0.10722180674E+04  0.10722180674E+04  0.00000000000E+00 0.  1.
        -24    2    1    2    0    0 -0.25051438476E+02  0.86268156702E+02 -0.69029140355E+03  0.70060248365E+03  0.79195005222E+02 0.  0.
        254    2    1    2    0    0  0.25051438476E+02 -0.86268156702E+02  0.16487269685E+03  0.91841494450E+03  0.89901792790E+03 0.  0.
         23    2    4    4    0    0  0.12861431818E+03 -0.29190174075E+03 -0.26297747430E+03  0.42384267338E+03  0.93472940990E+02 0.  0.
         23    2    4    4    0    0 -0.10356287970E+03  0.20563358405E+03  0.42785017115E+03  0.49457227112E+03  0.92387885939E+02 0.  0.
          3    1    3    3  502    0  0.13111209896E+02  0.75765521355E+00 -0.20834051386E+02  0.24627942738E+02  0.00000000000E+00 0. -1.
         -4    1    3    3    0  502 -0.38162648372E+02  0.85510501489E+02 -0.66945735216E+03  0.67597454091E+03  0.00000000000E+00 0.  1.
         11    1    5    5    0    0 -0.51084910120E+00 -0.13301556900E+02 -0.45902364116E+02  0.47793508076E+02  0.00000000000E+00 0.  1.
        -11    1    5    5    0    0  0.12912516728E+03 -0.27860018385E+03 -0.21707511019E+03  0.37604916531E+03  0.00000000000E+00 0. -1.
          2    1    6    6  503    0 -0.10489893200E+03  0.21450116634E+03  0.41669356576E+03  0.48025833053E+03  0.00000000000E+00 0. -1.
         -2    1    6    6    0  503  0.13360523014E+01 -0.88675822912E+01  0.11156605384E+02  0.14313940587E+02  0.00000000000E+00 0.  1.
<mgrwt>
<rscale>  0 0.15313891E+04</rscale>
<asrwt>0</asrwt>
<pdfrwt beam="1">  1        1 0.84122979E-01 0.15313891E+04</pdfrwt>
<pdfrwt beam="2">  1       -2 0.16495662E+00 0.15313891E+04</pdfrwt>
<totfact> 0.76428247E+00</totfact>
</mgrwt>
</event>
<event>
12    4  0.4280696E-008  0.2515256E+04  0.7818608E-02  0.8397571E-01
          1   -1    0    0  501    0  0.00000000000E+00  0.00000000000E+00  0.33596130131E+04  0.33596130131E+04  0.00000000000E+00 0. -1.
         -2   -1    0    0    0  501 -0.00000000000E+00 -0.00000000000E+00 -0.47077682630E+03  0.47077682630E+03  0.00000000000E+00 0.  1.
        -24    2    1    2    0    0 -0.41274411178E+03 -0.93909632838E+03  0.18460705209E+04  0.21132786564E+04  0.75569145429E+02 0.  0.
        254    2    1    2    0    0  0.41274411178E+03  0.93909632838E+03  0.10427656659E+04  0.17171111830E+04  0.89936142065E+03 0.  0.
         23    2    4    4    0    0  0.39241534330E+03  0.10617066566E+04  0.10703048599E+04  0.15604612593E+04  0.90972647283E+02 0.  0.
         23    2    4    4    0    0  0.20328768473E+02 -0.12261032820E+03 -0.27539193976E+02  0.15664992364E+03  0.91292058595E+02 0.  0.
          3    1    3    3  502    0 -0.33250628849E+03 -0.80757589628E+03  0.16036984087E+04  0.18260853885E+04  0.00000000000E+00 0. -1.
         -4    1    3    3    0  502 -0.80237823282E+02 -0.13152043210E+03  0.24237211216E+03  0.28719326784E+03  0.00000000000E+00 0.  1.
         11    1    5    5    0    0  0.28531364718E+03  0.83376292894E+03  0.87396961247E+03  0.12411234356E+04  0.00000000000E+00 0. -1.
        -11    1    5    5    0    0  0.10710169612E+03  0.22794372764E+03  0.19633524741E+03  0.31933782372E+03  0.00000000000E+00 0.  1.
          3    1    6    6  503    0  0.24814888574E+02 -0.13609106207E+03 -0.17916541817E+02  0.13949035214E+03  0.00000000000E+00 0. -1.
         -3    1    6    6    0  503 -0.44861201010E+01  0.13480733873E+02 -0.96226521591E+01  0.17159571495E+02  0.00000000000E+00 0.  1.
<mgrwt>
<rscale>  0 0.25152558E+04</rscale>
<asrwt>0</asrwt>
<pdfrwt beam="1">  1        1 0.51686352E+00 0.25152558E+04</pdfrwt>
<pdfrwt beam="2">  1       -2 0.72427206E-01 0.25152558E+04</pdfrwt>
<totfact> 0.43286738E-01</totfact>
</mgrwt>
</event>
<event>
12    4  0.4280696E-008  0.1196269E+04  0.7818608E-02  0.9116129E-01
          1   -1    0    0  501    0  0.00000000000E+00  0.00000000000E+00  0.16772241498E+04  0.16772241498E+04  0.00000000000E+00 0. -1.
         -2   -1    0    0    0  501 -0.00000000000E+00 -0.00000000000E+00 -0.21330772742E+03  0.21330772742E+03  0.00000000000E+00 0.  1.
        -24    2    1    2    0    0  0.13217216388E+02 -0.10128852632E+03  0.81205537393E+03  0.82593989321E+03  0.11094465509E+03 0.  0.
        254    2    1    2    0    0 -0.13217216388E+02  0.10128852632E+03  0.65186104848E+03  0.10645919840E+04  0.83546346753E+03 0.  0.
         23    2    4    4    0    0 -0.44527987959E+02  0.39647416097E+03  0.84808592061E+02  0.41789828566E+03  0.90950414173E+02 0.  0.
         23    2    4    4    0    0  0.31310771571E+02 -0.29518563465E+03  0.56705245642E+03  0.64669369838E+03  0.92462575498E+02 0.  0.
          3    1    3    3  502    0 -0.34186233428E+01 -0.12320720371E+03  0.67065717168E+03  0.68188909946E+03  0.00000000000E+00 0. -1.
         -4    1    3    3    0  502  0.16635839731E+02  0.21918677383E+02  0.14139820225E+03  0.14405079375E+03  0.00000000000E+00 0.  1.
         11    1    5    5    0    0 -0.45932085819E+02  0.40078531725E+03  0.79954136915E+02  0.41125574895E+03  0.00000000000E+00 0. -1.
        -11    1    5    5    0    0  0.14040978599E+01 -0.43111562761E+01  0.48544551457E+01  0.66425367141E+01  0.00000000000E+00 0.  1.
          4    1    6    6  503    0  0.31100886621E+01 -0.10854917128E+03  0.30487157711E+03  0.32363447556E+03  0.00000000000E+00 0.  1.
         -4    1    6    6    0  503  0.28200682909E+02 -0.18663646337E+03  0.26218087931E+03  0.32305922282E+03  0.00000000000E+00 0. -1.
<mgrwt>
<rscale>  0 0.11962690E+04</rscale>
<asrwt>0</asrwt>
<pdfrwt beam="1">  1        1 0.25803448E+00 0.11962690E+04</pdfrwt>
<pdfrwt beam="2">  1       -2 0.32816575E-01 0.11962690E+04</pdfrwt>
<totfact> 0.37186450E+01</totfact>
</mgrwt>
</event>
<event>
12    4  0.4280696E-008  0.2554788E+04  0.7818608E-02  0.8383723E-01
         -2   -1    0    0    0  501 -0.00000000000E+00  0.00000000000E+00  0.11156121023E+04  0.11156121023E+04  0.00000000000E+00 0.  1.
          1   -1    0    0  501    0  0.00000000000E+00 -0.00000000000E+00 -0.14626373458E+04  0.14626373458E+04  0.00000000000E+00 0. -1.
        -24    2    1    2    0    0 -0.94957439964E+03  0.28951748861E+03  0.37052530283E+03  0.10625293937E+04  0.78535316004E+02 0.  0.
        254    2    1    2    0    0  0.94957439964E+03 -0.28951748861E+03 -0.71755054640E+03  0.15157200544E+04  0.89275785064E+03 0.  0.
         23    2    4    4    0    0 -0.66978448004E+02  0.16124973721E+03 -0.21621901281E+03  0.29270317969E+03  0.91852597433E+02 0.  0.
         23    2    4    4    0    0  0.10165528476E+04 -0.45076722582E+03 -0.50133153358E+03  0.12230168747E+04  0.88691517193E+02 0.  0.
          1    1    3    3  502    0 -0.21103320652E+03  0.49054411628E+02  0.11225209761E+03  0.24401205497E+03  0.00000000000E+00 0. -1.
         -2    1    3    3    0  502 -0.73854119312E+03  0.24046307699E+03  0.25827320523E+03  0.81851733877E+03  0.00000000000E+00 0.  1.
         11    1    5    5    0    0  0.14239779217E+02  0.84018510614E+02 -0.93524512414E+02  0.12652555418E+03  0.00000000000E+00 0. -1.
        -11    1    5    5    0    0 -0.81218227221E+02  0.77231226592E+02 -0.12269450040E+03  0.16617762551E+03  0.00000000000E+00 0.  1.
          3    1    6    6  503    0  0.15646198472E+03 -0.98599466219E+02 -0.10475473079E+03  0.21254590334E+03  0.00000000000E+00 0. -1.
         -3    1    6    6    0  503  0.86009086292E+03 -0.35216775960E+03 -0.39657680279E+03  0.10104709713E+04  0.00000000000E+00 0.  1.
<mgrwt>
<rscale>  0 0.25547884E+04</rscale>
<asrwt>0</asrwt>
<pdfrwt beam="1">  1        1 0.22502113E+00 0.25547884E+04</pdfrwt>
<pdfrwt beam="2">  1       -2 0.17163263E+00 0.25547884E+04</pdfrwt>
<totfact> 0.11189515E+00</totfact>
</mgrwt>
</event>
<event>
12    4  0.4280696E-008  0.2069522E+04  0.7818608E-02  0.8574789E-01
          1   -1    0    0  501    0  0.00000000000E+00  0.00000000000E+00  0.13829399767E+04  0.13829399767E+04  0.00000000000E+00 0. -1.
         -2   -1    0    0    0  501 -0.00000000000E+00 -0.00000000000E+00 -0.77424218554E+03  0.77424218554E+03  0.00000000000E+00 0.  1.
        -24    2    1    2    0    0  0.77061328633E+03 -0.31824508383E+03  0.23678991690E+03  0.87007050759E+03  0.76344305391E+02 0.  0.
        254    2    1    2    0    0 -0.77061328633E+03  0.31824508383E+03  0.37190787424E+03  0.12871116546E+04  0.90731261102E+03 0.  0.
         23    2    4    4    0    0 -0.34929193152E+02  0.24348188894E+03 -0.21520515887E+03  0.33931263522E+03  0.91193888172E+02 0.  0.
         23    2    4    4    0    0 -0.73568409318E+03  0.74763194898E+02  0.58711303311E+03  0.94779901942E+03  0.82466037150E+02 0.  0.
          3    1    3    3  502    0  0.73249546743E+03 -0.31521972943E+03  0.21440252063E+03  0.82576118127E+03  0.00000000000E+00 0. -1.
         -4    1    3    3    0  502  0.38117818903E+02 -0.30253543988E+01  0.22387396272E+02  0.44309326321E+02  0.00000000000E+00 0.  1.
         11    1    5    5    0    0 -0.37452996393E+02  0.29165923610E+02 -0.30946114200E+02  0.56666039415E+02  0.00000000000E+00 0.  1.
        -11    1    5    5    0    0  0.25238032411E+01  0.21431596533E+03 -0.18425904467E+03  0.28264659580E+03  0.00000000000E+00 0. -1.
          2    1    6    6  503    0 -0.31962121543E+03  0.63466674369E+02  0.22371329904E+03  0.39526368449E+03  0.00000000000E+00 0.  1.
         -2    1    6    6    0  503 -0.41606287776E+03  0.11296520529E+02  0.36339973407E+03  0.55253533493E+03  0.00000000000E+00 0. -1.
<mgrwt>
<rscale>  0 0.20695221E+04</rscale>
<asrwt>0</asrwt>
<pdfrwt beam="1">  1        1 0.21276000E+00 0.20695221E+04</pdfrwt>
<pdfrwt beam="2">  1       -2 0.11911418E+00 0.20695221E+04</pdfrwt>
<totfact> 0.34571570E+00</totfact>
</mgrwt>
</event>
<event>
12    4  0.4280696E-008  0.1043459E+04  0.7818608E-02  0.9262124E-01
          1   -1    0    0  501    0  0.00000000000E+00  0.00000000000E+00  0.48140534603E+03  0.48140534603E+03  0.00000000000E+00 0. -1.
         -2   -1    0    0    0  501 -0.00000000000E+00 -0.00000000000E+00 -0.56543081775E+03  0.56543081775E+03  0.00000000000E+00 0.  1.
        -24    2    1    2    0    0 -0.78039910866E+02  0.76097421716E+02 -0.33574729155E+02  0.13885519388E+03  0.79198845627E+02 0.  0.
        254    2    1    2    0    0  0.78039910866E+02 -0.76097421716E+02 -0.50450742566E+02  0.90798096990E+03  0.90000173277E+03 0.  0.
         23    2    4    4    0    0  0.45103257908E+03 -0.13661796583E+03 -0.15664186478E+03  0.50509233144E+03  0.92123468803E+02 0.  0.
         23    2    4    4    0    0 -0.37299266821E+03  0.60520544115E+02  0.10619112222E+03  0.40288863845E+03  0.90864920398E+02 0.  0.
          3    1    3    3  502    0 -0.84126967688E+02  0.31679033197E+02 -0.21709482793E+02  0.92478156771E+02  0.00000000000E+00 0. -1.
         -4    1    3    3    0  502  0.60870568223E+01  0.44418388519E+02 -0.11865246361E+02  0.46377037104E+02  0.00000000000E+00 0.  1.
         11    1    5    5    0    0  0.45267836628E+03 -0.12890316435E+03 -0.15908911355E+03  0.49683304552E+03  0.00000000000E+00 0.  1.
        -11    1    5    5    0    0 -0.16457872014E+01 -0.77148014830E+01  0.24472487604E+01  0.82592859213E+01  0.00000000000E+00 0. -1.
          3    1    6    6  503    0 -0.61800039453E+02  0.41545779746E+02  0.31565430107E+01  0.74533619628E+02  0.00000000000E+00 0. -1.
         -3    1    6    6    0  503 -0.31119262876E+03  0.18974764369E+02  0.10303457921E+03  0.32835501883E+03  0.00000000000E+00 0.  1.
<mgrwt>
<rscale>  0 0.10434585E+04</rscale>
<asrwt>0</asrwt>
<pdfrwt beam="1">  1        1 0.74062361E-01 0.10434585E+04</pdfrwt>
<pdfrwt beam="2">  1       -2 0.86989356E-01 0.10434585E+04</pdfrwt>
<totfact> 0.46691436E+01</totfact>
</mgrwt>
</event>
<event>
12    4  0.4280696E-008  0.2017392E+04  0.7818608E-02  0.8598532E-01
         -2   -1    0    0    0  501 -0.00000000000E+00  0.00000000000E+00  0.17754683171E+04  0.17754683171E+04  0.00000000000E+00 0.  1.
          1   -1    0    0  501    0  0.00000000000E+00 -0.00000000000E+00 -0.57306973228E+03  0.57306973228E+03  0.00000000000E+00 0. -1.
        -24    2    1    2    0    0 -0.37576671825E+03 -0.12188572294E+03 -0.32931264113E+03  0.52065950744E+03  0.81134154812E+02 0.  0.
        254    2    1    2    0    0  0.37576671825E+03  0.12188572294E+03  0.15317112260E+04  0.18278785420E+04  0.91593882353E+03 0.  0.
         23    2    4    4    0    0  0.42103425002E+03  0.35005920488E+02  0.16139271211E+04  0.16708390659E+04  0.91908529246E+02 0.  0.
         23    2    4    4    0    0 -0.45267531772E+02  0.86879802453E+02 -0.82215895135E+02  0.15703947607E+03  0.91130094513E+02 0.  0.
          1    1    3    3  502    0 -0.20096232171E+03 -0.66531725319E+02 -0.22820507033E+03  0.31127139179E+03  0.00000000000E+00 0. -1.
         -2    1    3    3    0  502 -0.17480439654E+03 -0.55353997623E+02 -0.10110757079E+03  0.20938811564E+03  0.00000000000E+00 0.  1.
         11    1    5    5    0    0  0.60495254280E+02 -0.21082472321E+02  0.17455974185E+03  0.18594421180E+03  0.00000000000E+00 0. -1.
        -11    1    5    5    0    0  0.36053899574E+03  0.56088392809E+02  0.14393673792E+04  0.14848948541E+04  0.00000000000E+00 0.  1.
          4    1    6    6  503    0  0.37376741910E+01  0.41831261485E+02 -0.80098304527E+02  0.90440936715E+02  0.00000000000E+00 0. -1.
         -4    1    6    6    0  503 -0.49005205963E+02  0.45048540968E+02 -0.21175906080E+01  0.66598539360E+02  0.00000000000E+00 0.  1.
<mgrwt>
<rscale>  0 0.20173915E+04</rscale>
<asrwt>0</asrwt>
<pdfrwt beam="1">  1        1 0.88164575E-01 0.20173915E+04</pdfrwt>
<pdfrwt beam="2">  1       -2 0.27314897E+00 0.20173915E+04</pdfrwt>
<totfact> 0.13763854E+00</totfact>
</mgrwt>
</event>
<event>
12    4  0.4280696E-008  0.1313238E+04  0.7818608E-02  0.9019133E-01
         -2   -1    0    0    0  501 -0.00000000000E+00  0.00000000000E+00  0.19351245579E+04  0.19351245579E+04  0.00000000000E+00 0.  1.
          1   -1    0    0  501    0  0.00000000000E+00 -0.00000000000E+00 -0.22280147804E+03  0.22280147804E+03  0.00000000000E+00 0. -1.
        -24    2    1    2    0    0 -0.41842791059E+02  0.48261270121E+02 -0.91140213196E+02  0.13851693299E+03  0.82464737350E+02 0.  0.
        254    2    1    2    0    0  0.41842791059E+02 -0.48261270121E+02  0.18034632930E+04  0.20194091029E+04  0.90634061275E+03 0.  0.
         23    2    4    4    0    0  0.43875882879E+03  0.15664126217E+02  0.61284777004E+03  0.75948902398E+03  0.92122275297E+02 0.  0.
         23    2    4    4    0    0 -0.39691603773E+03 -0.63925396338E+02  0.11906155230E+04  0.12599200790E+04  0.90578609221E+02 0.  0.
          3    1    3    3  502    0 -0.35314837522E+02  0.71213068205E+02 -0.61724495154E+02  0.10063971450E+03  0.00000000000E+00 0. -1.
         -4    1    3    3    0  502 -0.65279535364E+01 -0.22951798084E+02 -0.29415718042E+02  0.37877218491E+02  0.00000000000E+00 0.  1.
         11    1    5    5    0    0  0.33212284632E+03  0.51244812257E+02  0.45119137864E+03  0.56258801622E+03  0.00000000000E+00 0.  1.
        -11    1    5    5    0    0  0.10663598247E+03 -0.35580686040E+02  0.16165639140E+03  0.19690100776E+03  0.00000000000E+00 0. -1.
          1    1    6    6  503    0 -0.20149305246E+03  0.81387369396E+01  0.52131359228E+03  0.55895755717E+03  0.00000000000E+00 0. -1.
         -1    1    6    6    0  503 -0.19542298527E+03 -0.72064133278E+02  0.66930193073E+03  0.70096252179E+03  0.00000000000E+00 0.  1.
<mgrwt>
<rscale>  0 0.13132382E+04</rscale>
<asrwt>0</asrwt>
<pdfrwt beam="1">  1        1 0.34277152E-01 0.13132382E+04</pdfrwt>
<pdfrwt beam="2">  1       -2 0.29771146E+00 0.13132382E+04</pdfrwt>
<totfact> 0.36525775E+00</totfact>
</mgrwt>
</event>
<event>
12    4  0.4280696E-008  0.1500589E+04  0.7818608E-02  0.8884061E-01
         -2   -1    0    0    0  501 -0.00000000000E+00  0.00000000000E+00  0.67446926159E+03  0.67446926159E+03  0.00000000000E+00 0.  1.
          1   -1    0    0  501    0  0.00000000000E+00 -0.00000000000E+00 -0.83464418628E+03  0.83464418628E+03  0.00000000000E+00 0. -1.
        -24    2    1    2    0    0  0.18563316702E+03 -0.16704577454E+03  0.35458820695E+03  0.44490094342E+03  0.99197225067E+02 0.  0.
        254    2    1    2    0    0 -0.18563316702E+03  0.16704577454E+03 -0.51476313164E+03  0.10642125045E+04  0.89733115930E+03 0.  0.
         23    2    4    4    0    0 -0.37841309434E+03  0.39074950947E+03 -0.51795387473E+03  0.75646224584E+03  0.89873599686E+02 0.  0.
         23    2    4    4    0    0  0.19277992732E+03 -0.22370373493E+03  0.31907430924E+01  0.30775025861E+03  0.86559687118E+02 0.  0.
          1    1    3    3  502    0  0.86419138415E+01 -0.16312529637E+02 -0.26795859921E+01  0.18653725608E+02  0.00000000000E+00 0. -1.
         -2    1    3    3    0  502  0.17699125318E+03 -0.15073324490E+03  0.35726779294E+03  0.42624721781E+03  0.00000000000E+00 0.  1.
         11    1    5    5    0    0 -0.13982776342E+03  0.12517159110E+03 -0.23611947324E+03  0.30161587538E+03  0.00000000000E+00 0. -1.
        -11    1    5    5    0    0 -0.23858533092E+03  0.26557791837E+03 -0.28183440149E+03  0.45484637046E+03  0.00000000000E+00 0.  1.
          1    1    6    6  503    0  0.10368418823E+03 -0.56021077504E+02  0.10691958127E+01  0.11785548436E+03  0.00000000000E+00 0. -1.
         -1    1    6    6    0  503  0.89095739089E+02 -0.16768265743E+03  0.21215472797E+01  0.18989477425E+03  0.00000000000E+00 0.  1.
<mgrwt>
<rscale>  0 0.15005890E+04</rscale>
<asrwt>0</asrwt>
<pdfrwt beam="1">  1        1 0.12840680E+00 0.15005890E+04</pdfrwt>
<pdfrwt beam="2">  1       -2 0.10376450E+00 0.15005890E+04</pdfrwt>
<totfact> 0.13227915E+01</totfact>
</mgrwt>
</event>
<event>
12    4  0.4280696E-008  0.2092967E+04  0.7818608E-02  0.8564348E-01
          1   -1    0    0  501    0  0.00000000000E+00  0.00000000000E+00  0.10421817738E+04  0.10421817738E+04  0.00000000000E+00 0. -1.
         -2   -1    0    0    0  501 -0.00000000000E+00 -0.00000000000E+00 -0.10508028561E+04  0.10508028561E+04  0.00000000000E+00 0.  1.
        -24    2    1    2    0    0  0.52180029851E+03 -0.36691659025E+02  0.71162675945E+03  0.88668047228E+03  0.78535251895E+02 0.  0.
        254    2    1    2    0    0 -0.52180029851E+03  0.36691659025E+02 -0.72024784176E+03  0.12063041577E+04  0.81411973195E+03 0.  0.
         23    2    4    4    0    0 -0.63441291146E+03  0.35523238395E+02 -0.20934800543E+03  0.67520672709E+03  0.91301118473E+02 0.  0.
         23    2    4    4    0    0  0.11261261296E+03  0.11684206301E+01 -0.51089983633E+03  0.53109743061E+03  0.91448740993E+02 0.  0.
          1    1    3    3  502    0  0.49081897469E+03 -0.19096662324E+02  0.68123165122E+03  0.83984790948E+03  0.00000000000E+00 0. -1.
         -2    1    3    3    0  502  0.30981323813E+02 -0.17594996701E+02  0.30395108234E+02  0.46832562803E+02  0.00000000000E+00 0.  1.
         11    1    5    5    0    0 -0.57852571395E+03  0.24540962330E+02 -0.21565894052E+03  0.61790212749E+03  0.00000000000E+00 0.  1.
        -11    1    5    5    0    0 -0.55887197513E+02  0.10982276065E+02  0.63109350903E+01  0.57304599598E+02  0.00000000000E+00 0. -1.
          4    1    6    6  503    0  0.82550343649E+02  0.15467200866E+02 -0.18116169147E+03  0.19968312897E+03  0.00000000000E+00 0. -1.
         -4    1    6    6    0  503  0.30062269310E+02 -0.14298780235E+02 -0.32973814486E+03  0.33141430164E+03  0.00000000000E+00 0.  1.
<mgrwt>
<rscale>  0 0.20929669E+04</rscale>
<asrwt>0</asrwt>
<pdfrwt beam="1">  1        1 0.16033566E+00 0.20929669E+04</pdfrwt>
<pdfrwt beam="2">  1       -2 0.16166198E+00 0.20929669E+04</pdfrwt>
<totfact> 0.27723773E+00</totfact>
</mgrwt>
</event>
<event>
12    4  0.4280696E-008  0.1354952E+04  0.7818608E-02  0.8987088E-01
         -2   -1    0    0    0  501 -0.00000000000E+00  0.00000000000E+00  0.11851526512E+03  0.11851526512E+03  0.00000000000E+00 0.  1.
          1   -1    0    0  501    0  0.00000000000E+00 -0.00000000000E+00 -0.38726987314E+04  0.38726987314E+04  0.00000000000E+00 0. -1.
        -24    2    1    2    0    0  0.19479263136E+03  0.14120453135E+03 -0.21716187794E+03  0.33391941149E+03  0.80374145295E+02 0.  0.
        254    2    1    2    0    0 -0.19479263136E+03 -0.14120453135E+03 -0.35370215883E+04  0.36572945850E+04  0.89855388061E+03 0.  0.
         23    2    4    4    0    0 -0.21014254755E+03  0.20655665543E+03 -0.29694808350E+04  0.29855281308E+04  0.93467900431E+02 0.  0.
         23    2    4    4    0    0  0.15349916187E+02 -0.34776118678E+03 -0.56754075336E+03  0.67176645421E+03  0.89410286410E+02 0.  0.
          3    1    3    3  502    0  0.93783922977E+01  0.15874473393E+02  0.44449087657E+01  0.18966031781E+02  0.00000000000E+00 0. -1.
         -4    1    3    3    0  502  0.18541423906E+03  0.12533005796E+03 -0.22160678671E+03  0.31495337971E+03  0.00000000000E+00 0.  1.
         11    1    5    5    0    0 -0.20672697909E+03  0.19244181901E+03 -0.25139201222E+04  0.25297360096E+04  0.00000000000E+00 0. -1.
        -11    1    5    5    0    0 -0.34155684553E+01  0.14114836420E+02 -0.45556071281E+03  0.45579212123E+03  0.00000000000E+00 0.  1.
          3    1    6    6  503    0  0.38467085017E+02 -0.67510303927E+02 -0.13785131736E+03  0.15824140882E+03  0.00000000000E+00 0. -1.
         -3    1    6    6    0  503 -0.23117168829E+02 -0.28025088285E+03 -0.42968943600E+03  0.51352504539E+03  0.00000000000E+00 0.  1.
<mgrwt>
<rscale>  0 0.13549523E+04</rscale>
<asrwt>0</asrwt>
<pdfrwt beam="1">  1        1 0.59579979E+00 0.13549523E+04</pdfrwt>
<pdfrwt beam="2">  1       -2 0.18233118E-01 0.13549523E+04</pdfrwt>
<totfact> 0.27321570E+00</totfact>
</mgrwt>
</event>
<event>
12    4  0.4280696E-008  0.1366771E+04  0.7818608E-02  0.8978229E-01
         -2   -1    0    0    0  501 -0.00000000000E+00  0.00000000000E+00  0.12981886504E+03  0.12981886504E+03  0.00000000000E+00 0.  1.
          1   -1    0    0  501    0  0.00000000000E+00 -0.00000000000E+00 -0.35974419140E+04  0.35974419140E+04  0.00000000000E+00 0. -1.
        -24    2    1    2    0    0 -0.88570597641E+02 -0.30670554960E+03 -0.15542230109E+04  0.15883622472E+04  0.73296765400E+02 0.  0.
        254    2    1    2    0    0  0.88570597641E+02  0.30670554960E+03 -0.19134000381E+04  0.21388985318E+04  0.90104060892E+03 0.  0.
         23    2    4    4    0    0 -0.22332451373E+03  0.45563481242E+03 -0.15299439765E+04  0.16144983539E+04  0.91648473731E+02 0.  0.
         23    2    4    4    0    0  0.31189511137E+03 -0.14892926282E+03 -0.38345606155E+03  0.52440017794E+03  0.92187361765E+02 0.  0.
          1    1    3    3  502    0 -0.32076046305E+02 -0.69225009811E+02 -0.24600729500E+03  0.25756662036E+03  0.00000000000E+00 0. -1.
         -2    1    3    3    0  502 -0.56494551335E+02 -0.23748053979E+03 -0.13082157159E+04  0.13307956268E+04  0.00000000000E+00 0.  1.
         11    1    5    5    0    0 -0.11013349830E+03  0.32215171132E+03 -0.99125561553E+03  0.10480929386E+04  0.00000000000E+00 0. -1.
        -11    1    5    5    0    0 -0.11319101543E+03  0.13348310110E+03 -0.53868836100E+03  0.56640541534E+03  0.00000000000E+00 0.  1.
          3    1    6    6  503    0  0.28668930588E+03 -0.14263456379E+03 -0.30681644750E+03  0.44347684195E+03  0.00000000000E+00 0. -1.
         -3    1    6    6    0  503  0.25205805491E+02 -0.62946990313E+01 -0.76639614050E+02  0.80923335991E+02  0.00000000000E+00 0.  1.
<mgrwt>
<rscale>  0 0.13667711E+04</rscale>
<asrwt>0</asrwt>
<pdfrwt beam="1">  1        1 0.55345262E+00 0.13667711E+04</pdfrwt>
<pdfrwt beam="2">  1       -2 0.19972132E-01 0.13667711E+04</pdfrwt>
<totfact> 0.39108840E+00</totfact>
</mgrwt>
</event>
<event>
12    4  0.4280696E-008  0.2814963E+04  0.7818608E-02  0.8298638E-01
         -2   -1    0    0    0  501 -0.00000000000E+00  0.00000000000E+00  0.13345335314E+04  0.13345335314E+04  0.00000000000E+00 0.  1.
          1   -1    0    0  501    0  0.00000000000E+00 -0.00000000000E+00 -0.14844165413E+04  0.14844165413E+04  0.00000000000E+00 0. -1.
        -24    2    1    2    0    0  0.33774323986E+03  0.20340665782E+03 -0.12433978642E+04  0.13068783592E+04  0.80299641729E+02 0.  0.
        254    2    1    2    0    0 -0.33774323986E+03 -0.20340665782E+03  0.10935148543E+04  0.15120717136E+04  0.96702707604E+03 0.  0.
         23    2    4    4    0    0 -0.46245708005E+02 -0.46102198897E+03  0.99263434700E+03  0.10996714791E+04  0.96304077374E+02 0.  0.
         23    2    4    4    0    0 -0.29149753186E+03  0.25761533116E+03  0.10088050734E+03  0.41240023444E+03  0.92523546642E+02 0.  0.
          1    1    3    3  502    0  0.10435714980E+03  0.21738726797E+02 -0.33216952108E+03  0.34885466557E+03  0.00000000000E+00 0. -1.
         -2    1    3    3    0  502  0.23338609006E+03  0.18166793102E+03 -0.91122834313E+03  0.95802369361E+03  0.00000000000E+00 0.  1.
         11    1    5    5    0    0  0.51978964745E+01 -0.34118257863E+03  0.75712309840E+03  0.83046249537E+03  0.00000000000E+00 0.  1.
        -11    1    5    5    0    0 -0.51443604480E+02 -0.11983941034E+03  0.23551124860E+03  0.26920898375E+03  0.00000000000E+00 0. -1.
          4    1    6    6  503    0 -0.21550642099E+03  0.23539561311E+03  0.66073299525E+02  0.32591378165E+03  0.00000000000E+00 0. -1.
         -4    1    6    6    0  503 -0.75991110870E+02  0.22219718044E+02  0.34807207810E+02  0.86486452793E+02  0.00000000000E+00 0.  1.
<mgrwt>
<rscale>  0 0.28149626E+04</rscale>
<asrwt>0</asrwt>
<pdfrwt beam="1">  1        1 0.22837178E+00 0.28149626E+04</pdfrwt>
<pdfrwt beam="2">  1       -2 0.20531285E+00 0.28149626E+04</pdfrwt>
<totfact> 0.62528852E-01</totfact>
</mgrwt>
</event>
<event>
12    4  0.4280696E-008  0.1539548E+04  0.7818608E-02  0.8858572E-01
         -2   -1    0    0    0  501 -0.00000000000E+00  0.00000000000E+00  0.45520866179E+03  0.45520866179E+03  0.00000000000E+00 0.  1.
          1   -1    0    0  501    0  0.00000000000E+00 -0.00000000000E+00 -0.13017147603E+04  0.13017147603E+04  0.00000000000E+00 0. -1.
        -24    2    1    2    0    0  0.36527578130E+03  0.33384424018E+03 -0.26343322730E+03  0.57083818272E+03  0.10761409060E+03 0.  0.
        254    2    1    2    0    0 -0.36527578130E+03 -0.33384424018E+03 -0.58307287122E+03  0.11860852394E+04  0.90661229244E+03 0.  0.
         23    2    4    4    0    0 -0.43359497936E+03 -0.50845986718E+03 -0.67799600902E+03  0.95630272840E+03  0.91105858481E+02 0.  0.
         23    2    4    4    0    0  0.68319198061E+02  0.17461562699E+03  0.94923137794E+02  0.22978251097E+03  0.92905706204E+02 0.  0.
          1    1    3    3  502    0  0.20718827036E+03  0.24576088907E+03 -0.20238174293E+03  0.37984702690E+03  0.00000000000E+00 0. -1.
         -2    1    3    3    0  502  0.15808751094E+03  0.88083351110E+02 -0.61051484369E+02  0.19099115582E+03  0.00000000000E+00 0.  1.
         11    1    5    5    0    0 -0.11546539508E+03 -0.16104991152E+03 -0.14874880695E+03  0.24778123219E+03  0.00000000000E+00 0.  1.
        -11    1    5    5    0    0 -0.31812958428E+03 -0.34740995566E+03 -0.52924720207E+03  0.70852149621E+03  0.00000000000E+00 0. -1.
          1    1    6    6  503    0 -0.78619584196E+01 -0.79175222330E+01  0.23704147555E+01  0.11406858227E+02  0.00000000000E+00 0. -1.
         -1    1    6    6    0  503  0.76181156481E+02  0.18253314923E+03  0.92552723039E+02  0.21837565274E+03  0.00000000000E+00 0.  1.
<mgrwt>
<rscale>  0 0.15395478E+04</rscale>
<asrwt>0</asrwt>
<pdfrwt beam="1">  1        1 0.20026381E+00 0.15395478E+04</pdfrwt>
<pdfrwt beam="2">  1       -2 0.70032103E-01 0.15395478E+04</pdfrwt>
<totfact> 0.14168872E+01</totfact>
</mgrwt>
</event>
<event>
12    4  0.4280696E-008  0.2334522E+04  0.7818608E-02  0.8464432E-01
          1   -1    0    0  501    0  0.00000000000E+00  0.00000000000E+00  0.24679315732E+04  0.24679315732E+04  0.00000000000E+00 0. -1.
         -2   -1    0    0    0  501 -0.00000000000E+00 -0.00000000000E+00 -0.55208127750E+03  0.55208127750E+03  0.00000000000E+00 0.  1.
        -24    2    1    2    0    0  0.32205995538E+03  0.86891103667E+03  0.12438943772E+04  0.15543551245E+04  0.10008809543E+03 0.  0.
        254    2    1    2    0    0 -0.32205995538E+03 -0.86891103667E+03  0.67195591847E+03  0.14656577262E+04  0.91536812787E+03 0.  0.
         23    2    4    4    0    0 -0.65891538074E+02  0.92847575281E+01 -0.17970311819E+03  0.21243815371E+03  0.91699819807E+02 0.  0.
         23    2    4    4    0    0 -0.25616841731E+03 -0.87819579420E+03  0.85165903666E+03  0.12532195725E+04  0.91575494604E+02 0.  0.
          3    1    3    3  502    0  0.32714591421E+03  0.86639734146E+03  0.12328952943E+04  0.15419791209E+04  0.00000000000E+00 0. -1.
         -4    1    3    3    0  502 -0.50859588255E+01  0.25136952063E+01  0.10999082882E+02  0.12376003596E+02  0.00000000000E+00 0.  1.
         11    1    5    5    0    0 -0.77863038010E+02  0.22051101432E+02 -0.17714044533E+03  0.19475020189E+03  0.00000000000E+00 0. -1.
        -11    1    5    5    0    0  0.11971499936E+02 -0.12766343904E+02 -0.25626728523E+01  0.17687951819E+02  0.00000000000E+00 0.  1.
          1    1    6    6  503    0 -0.19825824223E+03 -0.77414163706E+03  0.71925138503E+03  0.10751391350E+04  0.00000000000E+00 0. -1.
         -1    1    6    6    0  503 -0.57910175076E+02 -0.10405415714E+03  0.13240765162E+03  0.17808043745E+03  0.00000000000E+00 0.  1.
<mgrwt>
<rscale>  0 0.23345225E+04</rscale>
<asrwt>0</asrwt>
<pdfrwt beam="1">  1        1 0.37968177E+00 0.23345225E+04</pdfrwt>
<pdfrwt beam="2">  1       -2 0.84935583E-01 0.23345225E+04</pdfrwt>
<totfact> 0.13630588E+00</totfact>
</mgrwt>
</event>
<event>
12    4  0.4280696E-008  0.1528223E+04  0.7818608E-02  0.8865899E-01
          1   -1    0    0  501    0  0.00000000000E+00  0.00000000000E+00  0.15935608888E+04  0.15935608888E+04  0.00000000000E+00 0. -1.
         -2   -1    0    0    0  501 -0.00000000000E+00 -0.00000000000E+00 -0.36639078771E+03  0.36639078771E+03  0.00000000000E+00 0.  1.
        -24    2    1    2    0    0 -0.36247388981E+03  0.31559002263E+03  0.28131675339E+03  0.56256564853E+03  0.79728351276E+02 0.  0.
        254    2    1    2    0    0  0.36247388981E+03 -0.31559002263E+03  0.94585334772E+03  0.13973860280E+04  0.90943101589E+03 0.  0.
         23    2    4    4    0    0 -0.17993341285E+03 -0.29707323625E+03  0.75490398332E+02  0.36754468886E+03  0.93604259023E+02 0.  0.
         23    2    4    4    0    0  0.54240730266E+03 -0.18516786378E+02  0.87036294938E+03  0.10298413391E+04  0.92157293615E+02 0.  0.
          1    1    3    3  502    0 -0.18621929386E+03  0.19549922761E+03  0.19219547635E+03  0.33141616516E+03  0.00000000000E+00 0. -1.
         -2    1    3    3    0  502 -0.17625459595E+03  0.12009079502E+03  0.89121277036E+02  0.23114948337E+03  0.00000000000E+00 0.  1.
         11    1    5    5    0    0 -0.68765034957E+02 -0.17117910086E+03  0.26914162827E+01  0.18449433142E+03  0.00000000000E+00 0.  1.
        -11    1    5    5    0    0 -0.11116837790E+03 -0.12589413539E+03  0.72798982049E+02  0.18305035743E+03  0.00000000000E+00 0. -1.
          4    1    6    6  503    0  0.41538238565E+03  0.22379984954E+02  0.63068139078E+03  0.75551466346E+03  0.00000000000E+00 0. -1.
         -4    1    6    6    0  503  0.12702491701E+03 -0.40896771332E+02  0.23968155861E+03  0.27432667567E+03  0.00000000000E+00 0.  1.
<mgrwt>
<rscale>  0 0.15282225E+04</rscale>
<asrwt>0</asrwt>
<pdfrwt beam="1">  1        1 0.24516321E+00 0.15282225E+04</pdfrwt>
<pdfrwt beam="2">  1       -2 0.56367814E-01 0.15282225E+04</pdfrwt>
<totfact> 0.14102713E+01</totfact>
</mgrwt>
</event>
<event>
12    4  0.4280696E-008  0.1567281E+04  0.7818608E-02  0.8840905E-01
         -2   -1    0    0    0  501 -0.00000000000E+00  0.00000000000E+00  0.67370303099E+03  0.67370303099E+03  0.00000000000E+00 0.  1.
          1   -1    0    0  501    0  0.00000000000E+00 -0.00000000000E+00 -0.91151798468E+03  0.91151798468E+03  0.00000000000E+00 0. -1.
        -24    2    1    2    0    0  0.21890042542E+03 -0.36584144318E+03 -0.39027958458E+03  0.58342718028E+03  0.79446603182E+02 0.  0.
        254    2    1    2    0    0 -0.21890042542E+03  0.36584144318E+03  0.15246463090E+03  0.10017938354E+04  0.89363754797E+03 0.  0.
         23    2    4    4    0    0  0.11647708825E+02  0.68617631195E+02  0.48089729656E+03  0.49424569555E+03  0.90402153191E+02 0.  0.
         23    2    4    4    0    0 -0.23054813424E+03  0.29722381198E+03 -0.32843266566E+03  0.50754813984E+03  0.90789106007E+02 0.  0.
          1    1    3    3  502    0  0.14507153006E+03 -0.22877090786E+03 -0.29677429541E+03  0.40181694780E+03  0.00000000000E+00 0. -1.
         -2    1    3    3    0  502  0.73828895356E+02 -0.13707053532E+03 -0.93505289169E+02  0.18161023249E+03  0.00000000000E+00 0.  1.
         11    1    5    5    0    0 -0.59596525735E+01  0.38525988754E+02  0.43431543735E+03  0.43606154197E+03  0.00000000000E+00 0. -1.
        -11    1    5    5    0    0  0.17607361398E+02  0.30091642441E+02  0.46581859213E+02  0.58184153581E+02  0.00000000000E+00 0.  1.
          3    1    6    6  503    0 -0.22000967468E+03  0.26339474669E+03 -0.32376377839E+03  0.47180931926E+03  0.00000000000E+00 0. -1.
         -3    1    6    6    0  503 -0.10538459560E+02  0.33829065287E+02 -0.46688872659E+01  0.35738820579E+02  0.00000000000E+00 0.  1.
<mgrwt>
<rscale>  0 0.15672810E+04</rscale>
<asrwt>0</asrwt>
<pdfrwt beam="1">  1        1 0.14023354E+00 0.15672810E+04</pdfrwt>
<pdfrwt beam="2">  1       -2 0.10364662E+00 0.15672810E+04</pdfrwt>
<totfact> 0.11385059E+01</totfact>
</mgrwt>
</event>
<event>
12    4  0.4280696E-008  0.1449404E+04  0.7818608E-02  0.8918814E-01
          1   -1    0    0  501    0  0.00000000000E+00  0.00000000000E+00  0.14861086296E+04  0.14861086296E+04  0.00000000000E+00 0. -1.
         -2   -1    0    0    0  501 -0.00000000000E+00 -0.00000000000E+00 -0.35340157532E+03  0.35340157532E+03  0.00000000000E+00 0.  1.
        -24    2    1    2    0    0  0.28861664420E+03 -0.76486018751E+02  0.75701652663E+03  0.81891091671E+03  0.91604527974E+02 0.  0.
        254    2    1    2    0    0 -0.28861664420E+03  0.76486018751E+02  0.37569052761E+03  0.10205992882E+04  0.90073850595E+03 0.  0.
         23    2    4    4    0    0 -0.54492519730E+03 -0.14907565326E+03  0.12617802122E+03  0.58793637726E+03  0.10286529838E+03 0.  0.
         23    2    4    4    0    0  0.25630855310E+03  0.22556167201E+03  0.24951250639E+03  0.43266291091E+03  0.91479841253E+02 0.  0.
          1    1    3    3  502    0  0.25146618080E+03 -0.39788889330E+02  0.67773476638E+03  0.72397707792E+03  0.00000000000E+00 0. -1.
         -2    1    3    3    0  502  0.37150463399E+02 -0.36697129421E+02  0.79281760253E+02  0.94933838790E+02  0.00000000000E+00 0.  1.
         11    1    5    5    0    0 -0.14169574177E+02 -0.19694594266E+02 -0.77349478912E+01  0.25465335155E+02  0.00000000000E+00 0.  1.
        -11    1    5    5    0    0 -0.53075562313E+03 -0.12938105900E+03  0.13391296911E+03  0.56247104210E+03  0.00000000000E+00 0. -1.
          4    1    6    6  503    0  0.25268541496E+03  0.18709371742E+03  0.22857481473E+03  0.38871637984E+03  0.00000000000E+00 0. -1.
         -4    1    6    6    0  503  0.36231381471E+01  0.38467954595E+02  0.20937691666E+02  0.43946531070E+02  0.00000000000E+00 0.  1.
<mgrwt>
<rscale>  0 0.14494042E+04</rscale>
<asrwt>0</asrwt>
<pdfrwt beam="1">  1        1 0.22863209E+00 0.14494042E+04</pdfrwt>
<pdfrwt beam="2">  1       -2 0.54369474E-01 0.14494042E+04</pdfrwt>
<totfact> 0.18151708E+01</totfact>
</mgrwt>
</event>
<event>
12    4  0.4280696E-008  0.1861828E+04  0.7818608E-02  0.8674094E-01
         -2   -1    0    0    0  501 -0.00000000000E+00  0.00000000000E+00  0.19413710891E+04  0.19413710891E+04  0.00000000000E+00 0.  1.
          1   -1    0    0  501    0  0.00000000000E+00 -0.00000000000E+00 -0.44638583012E+03  0.44638583012E+03  0.00000000000E+00 0. -1.
        -24    2    1    2    0    0 -0.54252224203E+03 -0.31949896008E+03  0.10141152429E+04  0.11965498336E+04  0.83016924439E+02 0.  0.
        254    2    1    2    0    0  0.54252224203E+03  0.31949896008E+03  0.48087001609E+03  0.11912070857E+04  0.88956639996E+03 0.  0.
         23    2    4    4    0    0  0.51792384949E+03 -0.17497346937E+03  0.10401982345E+03  0.56214011382E+03  0.79501918467E+02 0.  0.
         23    2    4    4    0    0  0.24598392543E+02  0.49447242945E+03  0.37685019264E+03  0.62906697183E+03  0.92742239344E+02 0.  0.
          3    1    3    3  502    0 -0.43267122706E+03 -0.25675712887E+03  0.74229563325E+03  0.89673375151E+03  0.00000000000E+00 0. -1.
         -4    1    3    3    0  502 -0.10985101498E+03 -0.62741831210E+02  0.27181960963E+03  0.29981608205E+03  0.00000000000E+00 0.  1.
         11    1    5    5    0    0  0.40158453965E+03 -0.16943674044E+03  0.86339066128E+02  0.44433476776E+03  0.00000000000E+00 0. -1.
        -11    1    5    5    0    0  0.11633930984E+03 -0.55367289256E+01  0.17680757325E+02  0.11780534606E+03  0.00000000000E+00 0.  1.
          2    1    6    6  503    0  0.54146388461E+02  0.42110509383E+03  0.31517183575E+03  0.52876707299E+03  0.00000000000E+00 0. -1.
         -2    1    6    6    0  503 -0.29547995918E+02  0.73367335617E+02  0.61678356888E+02  0.10029989884E+03  0.00000000000E+00 0.  1.
<mgrwt>
<rscale>  0 0.18618276E+04</rscale>
<asrwt>0</asrwt>
<pdfrwt beam="1">  1        1 0.68674744E-01 0.18618276E+04</pdfrwt>
<pdfrwt beam="2">  1       -2 0.29867247E+00 0.18618276E+04</pdfrwt>
<totfact> 0.13787210E+00</totfact>
</mgrwt>
</event>
<event>
12    4  0.4280696E-008  0.1642054E+04  0.7818608E-02  0.8795121E-01
          1   -1    0    0  501    0  0.00000000000E+00  0.00000000000E+00  0.12387296673E+04  0.12387296673E+04  0.00000000000E+00 0. -1.
         -2   -1    0    0    0  501 -0.00000000000E+00 -0.00000000000E+00 -0.54417493758E+03  0.54417493758E+03  0.00000000000E+00 0.  1.
        -24    2    1    2    0    0 -0.16637713536E+03  0.30866043240E+03 -0.24100958024E+03  0.43239892646E+03  0.77010389814E+02 0.  0.
        254    2    1    2    0    0  0.16637713536E+03 -0.30866043240E+03  0.93556430997E+03  0.13505056784E+04  0.90864316192E+03 0.  0.
         23    2    4    4    0    0 -0.22382668479E+03 -0.17559439751E+03  0.87376522271E+03  0.92378470119E+03  0.94766726622E+02 0.  0.
         23    2    4    4    0    0  0.39020382015E+03 -0.13306603489E+03  0.61799087256E+02  0.42672097724E+03  0.91137666944E+02 0.  0.
          3    1    3    3  502    0 -0.13029761928E+02  0.45322814018E+02 -0.59310842677E+01  0.47530094961E+02  0.00000000000E+00 0. -1.
         -2    1    3    3    0  502 -0.15334737343E+03  0.26333761838E+03 -0.23507849597E+03  0.38486883150E+03  0.00000000000E+00 0.  1.
         11    1    5    5    0    0 -0.18065558226E+03 -0.13729905563E+03  0.79088965062E+03  0.82279639616E+03  0.00000000000E+00 0. -1.
        -11    1    5    5    0    0 -0.43171102535E+02 -0.38295341875E+02  0.82875572092E+02  0.10098830503E+03  0.00000000000E+00 0.  1.
          4    1    6    6  503    0  0.31606853934E+03 -0.68475375932E+02  0.38610239985E+02  0.32569763478E+03  0.00000000000E+00 0. -1.
         -4    1    6    6    0  503  0.74135280811E+02 -0.64590658961E+02  0.23188847271E+02  0.10102334247E+03  0.00000000000E+00 0.  1.
<mgrwt>
<rscale>  0 0.16420544E+04</rscale>
<asrwt>0</asrwt>
<pdfrwt beam="1">  1        1 0.19057380E+00 0.16420544E+04</pdfrwt>
<pdfrwt beam="2">  1       -2 0.83719221E-01 0.16420544E+04</pdfrwt>
<totfact> 0.10475344E+01</totfact>
</mgrwt>
</event>
<event>
12    4  0.4280696E-008  0.1262087E+04  0.7818608E-02  0.9060183E-01
         -2   -1    0    0    0  501 -0.00000000000E+00  0.00000000000E+00  0.25529741543E+03  0.25529741543E+03  0.00000000000E+00 0.  1.
          1   -1    0    0  501    0  0.00000000000E+00 -0.00000000000E+00 -0.15598119020E+04  0.15598119020E+04  0.00000000000E+00 0. -1.
        -24    2    1    2    0    0  0.32076765351E+03  0.24415799726E+02 -0.33387407403E+03  0.47149530526E+03  0.85719932120E+02 0.  0.
        254    2    1    2    0    0 -0.32076765351E+03 -0.24415799726E+02 -0.97064041259E+03  0.13436140122E+04  0.87158922919E+03 0.  0.
         23    2    4    4    0    0  0.10682984316E+03 -0.35360543478E+03 -0.36619105517E+03  0.52815581240E+03  0.91669266330E+02 0.  0.
         23    2    4    4    0    0 -0.42759749668E+03  0.32918963505E+03 -0.60444935742E+03  0.81545819981E+03  0.91693047553E+02 0.  0.
          1    1    3    3  502    0  0.31111085285E+03  0.66668387993E+01 -0.32314761937E+03  0.44861876177E+03  0.00000000000E+00 0. -1.
         -2    1    3    3    0  502  0.96568006600E+01  0.17748960926E+02 -0.10726454652E+02  0.22876543497E+02  0.00000000000E+00 0.  1.
         11    1    5    5    0    0  0.22698987469E+02 -0.14323824985E+03 -0.20056901221E+03  0.24750832089E+03  0.00000000000E+00 0. -1.
        -11    1    5    5    0    0  0.84130855694E+02 -0.21036718493E+03 -0.16562204296E+03  0.28064749151E+03  0.00000000000E+00 0.  1.
          4    1    6    6  503    0 -0.11341488279E+03  0.89733143531E+02 -0.10524469531E+03  0.17886145079E+03  0.00000000000E+00 0. -1.
         -4    1    6    6    0  503 -0.31418261388E+03  0.23945649152E+03 -0.49920466211E+03  0.63659674903E+03  0.00000000000E+00 0.  1.
<mgrwt>
<rscale>  0 0.12620871E+04</rscale>
<asrwt>0</asrwt>
<pdfrwt beam="1">  1        1 0.23997106E+00 0.12620871E+04</pdfrwt>
<pdfrwt beam="2">  1       -2 0.39276526E-01 0.12620871E+04</pdfrwt>
<totfact> 0.31516889E+01</totfact>
</mgrwt>
</event>
<event>
12    4  0.4280696E-008  0.2355815E+04  0.7818608E-02  0.8456233E-01
         -2   -1    0    0    0  501 -0.00000000000E+00  0.00000000000E+00  0.47449757562E+03  0.47449757562E+03  0.00000000000E+00 0.  1.
          1   -1    0    0  501    0  0.00000000000E+00 -0.00000000000E+00 -0.29240749848E+04  0.29240749848E+04  0.00000000000E+00 0. -1.
        -24    2    1    2    0    0  0.79639626300E+03 -0.32236398312E+03 -0.29528729604E+03  0.91185669936E+03  0.78246454436E+02 0.  0.
        254    2    1    2    0    0 -0.79639626300E+03  0.32236398312E+03 -0.21542901132E+04  0.24867158611E+04  0.89700854889E+03 0.  0.
         23    2    4    4    0    0 -0.79212466339E+03  0.56873000708E+03 -0.17115533545E+04  0.19719254784E+04  0.90332186124E+02 0.  0.
         23    2    4    4    0    0 -0.42715996122E+01 -0.24636602397E+03 -0.44273675867E+03  0.51479038267E+03  0.90988110679E+02 0.  0.
          1    1    3    3  502    0  0.20237098535E+03 -0.60336380205E+02 -0.10152171870E+03  0.23430995253E+03  0.00000000000E+00 0. -1.
         -2    1    3    3    0  502  0.59402527766E+03 -0.26202760291E+03 -0.19376557735E+03  0.67754674684E+03  0.00000000000E+00 0.  1.
         11    1    5    5    0    0 -0.56036881078E+03  0.37185718651E+03 -0.12447534560E+04  0.14148152309E+04  0.00000000000E+00 0. -1.
        -11    1    5    5    0    0 -0.23175585261E+03  0.19687282057E+03 -0.46679989849E+03  0.55711024755E+03  0.00000000000E+00 0.  1.
          2    1    6    6  503    0  0.28771294618E+02 -0.14840178715E+03 -0.19796820218E+03  0.24908289162E+03  0.00000000000E+00 0. -1.
         -2    1    6    6    0  503 -0.33042894230E+02 -0.97964236813E+02 -0.24476855649E+03  0.26570749105E+03  0.00000000000E+00 0.  1.
<mgrwt>
<rscale>  0 0.23558154E+04</rscale>
<asrwt>0</asrwt>
<pdfrwt beam="1">  1        1 0.44985768E+00 0.23558154E+04</pdfrwt>
<pdfrwt beam="2">  1       -2 0.72999628E-01 0.23558154E+04</pdfrwt>
<totfact> 0.91012380E-01</totfact>
</mgrwt>
</event>
<event>
12    4  0.4280696E-008  0.1161475E+04  0.7818608E-02  0.9147262E-01
          1   -1    0    0  501    0  0.00000000000E+00  0.00000000000E+00  0.18567819006E+04  0.18567819006E+04  0.00000000000E+00 0. -1.
         -2   -1    0    0    0  501 -0.00000000000E+00 -0.00000000000E+00 -0.18163486032E+03  0.18163486032E+03  0.00000000000E+00 0.  1.
        -24    2    1    2    0    0  0.18684090421E+03  0.91678217956E+02  0.47001906466E+03  0.51989046985E+03  0.77805914710E+02 0.  0.
        254    2    1    2    0    0 -0.18684090421E+03 -0.91678217956E+02  0.12051279756E+04  0.15185262910E+04  0.90015234260E+03 0.  0.
         23    2    4    4    0    0  0.12470849582E+03  0.13236614491E+03  0.10882318865E+04  0.11068934935E+04  0.88834462756E+02 0.  0.
         23    2    4    4    0    0 -0.31154940003E+03 -0.22404436287E+03  0.11689608905E+03  0.41163279756E+03  0.92292790593E+02 0.  0.
          1    1    3    3  502    0  0.72734321294E+02  0.37984369252E+02  0.10226707182E+03  0.13111692408E+03  0.00000000000E+00 0. -1.
         -2    1    3    3    0  502  0.11410658292E+03  0.53693848705E+02  0.36775199284E+03  0.38877354577E+03  0.00000000000E+00 0.  1.
         11    1    5    5    0    0  0.13675798161E+02 -0.88866586892E+01  0.37238247909E+02  0.40653256516E+02  0.00000000000E+00 0.  1.
        -11    1    5    5    0    0  0.11103269766E+03  0.14125280360E+03  0.10509936386E+04  0.10662402370E+04  0.00000000000E+00 0. -1.
          1    1    6    6  503    0 -0.29505738990E+03 -0.17673678114E+03  0.10974888681E+03  0.36102572110E+03  0.00000000000E+00 0. -1.
         -1    1    6    6    0  503 -0.16492010133E+02 -0.47307581732E+02  0.71472022448E+01  0.50607076457E+02  0.00000000000E+00 0.  1.
<mgrwt>
<rscale>  0 0.11614755E+04</rscale>
<asrwt>0</asrwt>
<pdfrwt beam="1">  1        1 0.28565874E+00 0.11614755E+04</pdfrwt>
<pdfrwt beam="2">  1       -2 0.27943826E-01 0.11614755E+04</pdfrwt>
<totfact> 0.38041672E+01</totfact>
</mgrwt>
</event>
<event>
12    4  0.4280696E-008  0.1422119E+04  0.7818608E-02  0.8937961E-01
         -2   -1    0    0    0  501 -0.00000000000E+00  0.00000000000E+00  0.45667824576E+03  0.45667824576E+03  0.00000000000E+00 0.  1.
          1   -1    0    0  501    0  0.00000000000E+00 -0.00000000000E+00 -0.11071377199E+04  0.11071377199E+04  0.00000000000E+00 0. -1.
        -24    2    1    2    0    0  0.68011305766E+01 -0.80178930014E+02  0.25620127502E+03  0.28162470833E+03  0.84843778919E+02 0.  0.
        254    2    1    2    0    0 -0.68011305766E+01  0.80178930014E+02 -0.90666074917E+03  0.12821912573E+04  0.90305359205E+03 0.  0.
         23    2    4    4    0    0 -0.10564292614E+03 -0.27380797092E+03 -0.87244549612E+01  0.30777590056E+03  0.92296565838E+02 0.  0.
         23    2    4    4    0    0  0.98841795566E+02  0.35398690093E+03 -0.89793629421E+03  0.97441535678E+03  0.90107005768E+02 0.  0.
          1    1    3    3  502    0  0.34329646532E+02 -0.26825716196E+01  0.67305871594E+02  0.75602917752E+02  0.00000000000E+00 0. -1.
         -4    1    3    3    0  502 -0.27528515955E+02 -0.77496358394E+02  0.18889540343E+03  0.20602179057E+03  0.00000000000E+00 0.  1.
         11    1    5    5    0    0 -0.83268931485E+02 -0.10633225778E+03 -0.27320079278E+02  0.13779205611E+03  0.00000000000E+00 0. -1.
        -11    1    5    5    0    0 -0.22373994657E+02 -0.16747571314E+03  0.18595624317E+02  0.16998384445E+03  0.00000000000E+00 0.  1.
          4    1    6    6  503    0  0.16049317643E+02  0.70881163542E+01 -0.83363182156E+02  0.85189448463E+02  0.00000000000E+00 0. -1.
         -4    1    6    6    0  503  0.82792477923E+02  0.34689878458E+03 -0.81457311206E+03  0.88922590832E+03  0.00000000000E+00 0.  1.
<mgrwt>
<rscale>  0 0.14221191E+04</rscale>
<asrwt>0</asrwt>
<pdfrwt beam="1">  1        1 0.17032888E+00 0.14221191E+04</pdfrwt>
<pdfrwt beam="2">  1       -2 0.70258193E-01 0.14221191E+04</pdfrwt>
<totfact> 0.19710619E+01</totfact>
</mgrwt>
</event>
<event>
12    4  0.4280696E-008  0.1522525E+04  0.7818608E-02  0.8869611E-01
          1   -1    0    0  501    0  0.00000000000E+00  0.00000000000E+00  0.11405021586E+04  0.11405021586E+04  0.00000000000E+00 0. -1.
         -2   -1    0    0    0  501 -0.00000000000E+00 -0.00000000000E+00 -0.50812750648E+03  0.50812750648E+03  0.00000000000E+00 0.  1.
        -24    2    1    2    0    0 -0.33953821794E+03 -0.33838562464E+03  0.90381634254E+02  0.49456473521E+03  0.81451857535E+02 0.  0.
        254    2    1    2    0    0  0.33953821794E+03  0.33838562464E+03  0.54199301790E+03  0.11540649299E+04  0.89906529160E+03 0.  0.
         23    2    4    4    0    0 -0.25796032122E+03  0.30100253925E+03  0.15322542740E+03  0.43529088858E+03  0.94096068551E+02 0.  0.
         23    2    4    4    0    0  0.59749853917E+03  0.37383085397E+02  0.38876759050E+03  0.71877404132E+03  0.84225196170E+02 0.  0.
          1    1    3    3  502    0 -0.15240910330E+03 -0.19687025832E+03  0.20742954658E+02  0.24983335155E+03  0.00000000000E+00 0. -1.
         -4    1    3    3    0  502 -0.18712911464E+03 -0.14151536632E+03  0.69638679596E+02  0.24473138366E+03  0.00000000000E+00 0.  1.
         11    1    5    5    0    0 -0.11106954875E+03  0.19948750637E+03  0.74722042654E+02  0.24023965850E+03  0.00000000000E+00 0.  1.
        -11    1    5    5    0    0 -0.14689077247E+03  0.10151503287E+03  0.78503384745E+02  0.19505123008E+03  0.00000000000E+00 0. -1.
          3    1    6    6  503    0  0.25332628792E+02 -0.13776560436E+02  0.29383032325E+02  0.41169142420E+02  0.00000000000E+00 0. -1.
         -3    1    6    6    0  503  0.57216591038E+03  0.51159645833E+02  0.35938455817E+03  0.67760489890E+03  0.00000000000E+00 0.  1.
<mgrwt>
<rscale>  0 0.15225249E+04</rscale>
<asrwt>0</asrwt>
<pdfrwt beam="1">  1        1 0.17546187E+00 0.15225249E+04</pdfrwt>
<pdfrwt beam="2">  1       -2 0.78173463E-01 0.15225249E+04</pdfrwt>
<totfact> 0.14575862E+01</totfact>
</mgrwt>
</event>
<event>
12    4  0.4280696E-008  0.1329589E+04  0.7818608E-02  0.9006425E-01
          3   -1    0    0  501    0  0.00000000000E+00  0.00000000000E+00  0.78178195423E+03  0.78178195423E+03  0.00000000000E+00 0. -1.
         -2   -1    0    0    0  501 -0.00000000000E+00 -0.00000000000E+00 -0.56531295919E+03  0.56531295919E+03  0.00000000000E+00 0.  1.
        -24    2    1    2    0    0  0.28109868885E+03  0.10302714967E+03 -0.12823515521E+03  0.33506678996E+03  0.78704715597E+02 0.  0.
        254    2    1    2    0    0 -0.28109868885E+03 -0.10302714967E+03  0.34470415025E+03  0.10120281235E+04  0.90318818916E+03 0.  0.
         23    2    4    4    0    0 -0.47346482323E+02 -0.43537225653E+03  0.38958078477E+03  0.59324813729E+03  0.91539463557E+02 0.  0.
         23    2    4    4    0    0 -0.23375220653E+03  0.33234510686E+03 -0.44876634519E+02  0.41877998617E+03  0.90936243485E+02 0.  0.
          1    1    3    3  502    0  0.26971830976E+03  0.77229380661E+02 -0.12323798906E+03  0.30643098050E+03  0.00000000000E+00 0. -1.
         -2    1    3    3    0  502  0.11380379088E+02  0.25797769009E+02 -0.49971661459E+01  0.28635809461E+02  0.00000000000E+00 0.  1.
         11    1    5    5    0    0 -0.54462793975E+02 -0.30984921789E+03  0.22807398256E+03  0.38857492878E+03  0.00000000000E+00 0.  1.
        -11    1    5    5    0    0  0.71163116523E+01 -0.12552303864E+03  0.16150680221E+03  0.20467320851E+03  0.00000000000E+00 0. -1.
          4    1    6    6  503    0 -0.93099751929E+02  0.63533076092E+02 -0.54604837551E+01  0.11284428408E+03  0.00000000000E+00 0. -1.
         -4    1    6    6    0  503 -0.14065245460E+03  0.26881203077E+03 -0.39416150764E+02  0.30593570209E+03  0.00000000000E+00 0.  1.
<mgrwt>
<rscale>  0 0.13295886E+04</rscale>
<asrwt>0</asrwt>
<pdfrwt beam="1">  1        3 0.12027415E+00 0.13295886E+04</pdfrwt>
<pdfrwt beam="2">  1       -2 0.86971225E-01 0.13295886E+04</pdfrwt>
<totfact> 0.26089816E+00</totfact>
</mgrwt>
</event>
<event>
12    4  0.4280696E-008  0.2493212E+04  0.7818608E-02  0.8405408E-01
          1   -1    0    0  501    0  0.00000000000E+00  0.00000000000E+00  0.13774068621E+04  0.13774068621E+04  0.00000000000E+00 0. -1.
         -2   -1    0    0    0  501 -0.00000000000E+00 -0.00000000000E+00 -0.11282265753E+04  0.11282265753E+04  0.00000000000E+00 0.  1.
        -24    2    1    2    0    0  0.81992817728E+03  0.24777675259E+03  0.77324278258E+03  0.11565325128E+04  0.77379049274E+02 0.  0.
        254    2    1    2    0    0 -0.81992817728E+03 -0.24777675259E+03 -0.52406249574E+03  0.13491009246E+04  0.90097517741E+03 0.  0.
         23    2    4    4    0    0 -0.17417641871E+03  0.15903441251E+03 -0.52254363836E+03  0.58032379610E+03  0.89969356646E+02 0.  0.
         23    2    4    4    0    0 -0.64575175856E+03 -0.40681116511E+03 -0.15188573874E+01  0.76877712850E+03  0.92332597931E+02 0.  0.
          3    1    3    3  502    0  0.58827013222E+03  0.21237175969E+03  0.57499140831E+03  0.84957556015E+03  0.00000000000E+00 0. -1.
         -4    1    3    3    0  502  0.23165804505E+03  0.35404992906E+02  0.19825137426E+03  0.30695695261E+03  0.00000000000E+00 0.  1.
         11    1    5    5    0    0 -0.84208472529E+02  0.10142951504E+03 -0.37981652719E+03  0.40204428574E+03  0.00000000000E+00 0. -1.
        -11    1    5    5    0    0 -0.89967946185E+02  0.57604897474E+02 -0.14272711116E+03  0.17827951036E+03  0.00000000000E+00 0.  1.
          2    1    6    6  503    0 -0.17432020981E+03 -0.74048896142E+02  0.25485241646E+02  0.19110277892E+03  0.00000000000E+00 0. -1.
         -2    1    6    6    0  503 -0.47143154875E+03 -0.33276226896E+03 -0.27004099034E+02  0.57767434959E+03  0.00000000000E+00 0.  1.
<mgrwt>
<rscale>  0 0.24932124E+04</rscale>
<asrwt>0</asrwt>
<pdfrwt beam="1">  1        1 0.21190875E+00 0.24932124E+04</pdfrwt>
<pdfrwt beam="2">  1       -2 0.17357332E+00 0.24932124E+04</pdfrwt>
<totfact> 0.12505153E+00</totfact>
</mgrwt>
</event>
<event>
12    4  0.4280696E-008  0.1506318E+04  0.7818608E-02  0.8880262E-01
          1   -1    0    0  501    0  0.00000000000E+00  0.00000000000E+00  0.41702678401E+04  0.41702678401E+04  0.00000000000E+00 0. -1.
         -2   -1    0    0    0  501 -0.00000000000E+00 -0.00000000000E+00 -0.13602208020E+03  0.13602208020E+03  0.00000000000E+00 0.  1.
        -24    2    1    2    0    0 -0.36965059009E+03  0.65249888769E+02  0.45780416026E+03  0.59731174662E+03  0.79357209885E+02 0.  0.
        254    2    1    2    0    0  0.36965059009E+03 -0.65249888769E+02  0.35764415996E+04  0.37089781736E+04  0.90812194690E+03 0.  0.
         23    2    4    4    0    0  0.29331933153E+03 -0.46766792002E+03  0.21855715336E+04  0.22562248572E+04  0.95279399877E+02 0.  0.
         23    2    4    4    0    0  0.76331258558E+02  0.40241803125E+03  0.13908700660E+04  0.14527533165E+04  0.90586561126E+02 0.  0.
          1    1    3    3  502    0 -0.48258307830E+02  0.37289107512E+02  0.76999825595E+02  0.98225836496E+02  0.00000000000E+00 0. -1.
         -2    1    3    3    0  502 -0.32139228226E+03  0.27960781256E+02  0.38080433466E+03  0.49908591012E+03  0.00000000000E+00 0.  1.
         11    1    5    5    0    0  0.21855932921E+03 -0.33605371006E+03  0.14028786572E+04  0.14590300899E+04  0.00000000000E+00 0. -1.
        -11    1    5    5    0    0  0.74760002315E+02 -0.13161420996E+03  0.78269287636E+03  0.79719476724E+03  0.00000000000E+00 0.  1.
          1    1    6    6  503    0  0.97351352458E+01  0.27435146173E+03  0.94844436762E+03  0.98737541791E+03  0.00000000000E+00 0. -1.
         -1    1    6    6    0  503  0.66596123312E+02  0.12806656952E+03  0.44242569839E+03  0.46537789856E+03  0.00000000000E+00 0.  1.
<mgrwt>
<rscale>  0 0.15063180E+04</rscale>
<asrwt>0</asrwt>
<pdfrwt beam="1">  1        1 0.64157957E+00 0.15063180E+04</pdfrwt>
<pdfrwt beam="2">  1       -2 0.20926477E-01 0.15063180E+04</pdfrwt>
<totfact> 0.11548053E+00</totfact>
</mgrwt>
</event>
<event>
12    4  0.4280696E-008  0.1667797E+04  0.7818608E-02  0.8779947E-01
         -2   -1    0    0    0  501 -0.00000000000E+00  0.00000000000E+00  0.86625723272E+03  0.86625723272E+03  0.00000000000E+00 0.  1.
          1   -1    0    0  501    0  0.00000000000E+00 -0.00000000000E+00 -0.80274827338E+03  0.80274827338E+03  0.00000000000E+00 0. -1.
        -24    2    1    2    0    0  0.24269597782E+03  0.42990346714E+03 -0.23369097006E+03  0.55218946627E+03  0.81138205903E+02 0.  0.
        254    2    1    2    0    0 -0.24269597782E+03 -0.42990346714E+03  0.29719992941E+03  0.11168160398E+04  0.95667755283E+03 0.  0.
         23    2    4    4    0    0  0.31260772908E+03 -0.26446711560E+03 -0.69758924298E+02  0.42510315347E+03  0.90442998936E+02 0.  0.
         23    2    4    4    0    0 -0.55530370690E+03 -0.16543635154E+03  0.36695885370E+03  0.69171288637E+03  0.89869480596E+02 0.  0.
          1    1    3    3  502    0  0.19970796730E+03  0.36755042780E+03 -0.16410817697E+03  0.44934183305E+03  0.00000000000E+00 0. -1.
         -2    1    3    3    0  502  0.42988010523E+02  0.62353039335E+02 -0.69582793096E+02  0.10284763322E+03  0.00000000000E+00 0.  1.
         11    1    5    5    0    0  0.33400000723E+02  0.18433088516E+01 -0.39364910847E+01  0.33681653729E+02  0.00000000000E+00 0. -1.
        -11    1    5    5    0    0  0.27920772836E+03 -0.26631042445E+03 -0.65822433214E+02  0.39142149974E+03  0.00000000000E+00 0.  1.
          1    1    6    6  503    0 -0.58477467346E+02 -0.34456974986E+02  0.73358219950E+02  0.99941611688E+02  0.00000000000E+00 0. -1.
         -1    1    6    6    0  503 -0.49682623956E+03 -0.13097937655E+03  0.29360063375E+03  0.59177127468E+03  0.00000000000E+00 0.  1.
<mgrwt>
<rscale>  0 0.16677967E+04</rscale>
<asrwt>0</asrwt>
<pdfrwt beam="1">  1        1 0.12349973E+00 0.16677967E+04</pdfrwt>
<pdfrwt beam="2">  1       -2 0.13327034E+00 0.16677967E+04</pdfrwt>
<totfact> 0.74914015E+00</totfact>
</mgrwt>
</event>
<event>
12    4  0.4280696E-008  0.2230208E+04  0.7818608E-02  0.8505959E-01
          1   -1    0    0  501    0  0.00000000000E+00  0.00000000000E+00  0.13000732385E+04  0.13000732385E+04  0.00000000000E+00 0. -1.
         -2   -1    0    0    0  501 -0.00000000000E+00 -0.00000000000E+00 -0.95645163782E+03  0.95645163782E+03  0.00000000000E+00 0.  1.
        -24    2    1    2    0    0 -0.67498309759E+03 -0.14680588380E+03  0.77233997964E+03  0.10392049740E+04  0.79270324307E+02 0.  0.
        254    2    1    2    0    0  0.67498309759E+03  0.14680588380E+03 -0.42871837894E+03  0.12173199023E+04  0.90604312624E+03 0.  0.
         23    2    4    4    0    0 -0.73655913015E+02  0.72527950157E+02  0.19318112576E+03  0.23662022179E+03  0.89357064264E+02 0.  0.
         23    2    4    4    0    0  0.74863901060E+03  0.74277933644E+02 -0.62189950469E+03  0.98069968053E+03  0.95054141603E+02 0.  0.
          3    1    3    3  502    0 -0.61640401375E+03 -0.11381391792E+03  0.71484477875E+03  0.95074211739E+03  0.00000000000E+00 0. -1.
         -4    1    3    3    0  502 -0.58579083838E+02 -0.32991965882E+02  0.57495200893E+02  0.88462856623E+02  0.00000000000E+00 0.  1.
         11    1    5    5    0    0 -0.39076295619E+02  0.67928045999E+02  0.59312195326E+02  0.98280785645E+02  0.00000000000E+00 0. -1.
        -11    1    5    5    0    0 -0.34579617397E+02  0.45999041582E+01  0.13386893043E+03  0.13833943614E+03  0.00000000000E+00 0.  1.
          2    1    6    6  503    0  0.38494704482E+03 -0.79395497208E+00 -0.28102081845E+03  0.47661048884E+03  0.00000000000E+00 0. -1.
         -2    1    6    6    0  503  0.36369196579E+03  0.75071888616E+02 -0.34087868625E+03  0.50408919169E+03  0.00000000000E+00 0.  1.
<mgrwt>
<rscale>  0 0.22302082E+04</rscale>
<asrwt>0</asrwt>
<pdfrwt beam="1">  1        1 0.20001127E+00 0.22302082E+04</pdfrwt>
<pdfrwt beam="2">  1       -2 0.14714640E+00 0.22302082E+04</pdfrwt>
<totfact> 0.22752383E+00</totfact>
</mgrwt>
</event>
<event>
12    4  0.4280696E-008  0.1421349E+04  0.7818608E-02  0.8938509E-01
         -2   -1    0    0    0  501 -0.00000000000E+00  0.00000000000E+00  0.11048143246E+04  0.11048143246E+04  0.00000000000E+00 0.  1.
          1   -1    0    0  501    0  0.00000000000E+00 -0.00000000000E+00 -0.45714277921E+03  0.45714277921E+03  0.00000000000E+00 0. -1.
        -24    2    1    2    0    0 -0.29223308881E+03  0.29917942164E+03  0.15234512234E+03  0.45316345558E+03  0.85085701783E+02 0.  0.
        254    2    1    2    0    0  0.29223308881E+03 -0.29917942164E+03  0.49532642307E+03  0.11087936483E+04  0.89953687223E+03 0.  0.
         23    2    4    4    0    0  0.55948329624E+03 -0.13439713699E+03  0.92063297685E+02  0.58943790930E+03  0.88753867193E+02 0.  0.
         23    2    4    4    0    0 -0.26725020743E+03 -0.16478228465E+03  0.40326312539E+03  0.51935573896E+03  0.92376190602E+02 0.  0.
          1    1    3    3  502    0 -0.12941392078E+03  0.10283455817E+03  0.98668395872E+02  0.19250548457E+03  0.00000000000E+00 0. -1.
         -2    1    3    3    0  502 -0.16281916803E+03  0.19634486347E+03  0.53676726471E+02  0.26065797101E+03  0.00000000000E+00 0.  1.
         11    1    5    5    0    0  0.20964948383E+03 -0.83648496336E+02  0.65071447681E+02  0.23491332510E+03  0.00000000000E+00 0. -1.
        -11    1    5    5    0    0  0.34983381241E+03 -0.50748640654E+02  0.26991850004E+02  0.35452458420E+03  0.00000000000E+00 0.  1.
          4    1    6    6  503    0 -0.21400955396E+03 -0.17023129804E+03  0.34523596166E+03  0.44041645432E+03  0.00000000000E+00 0.  1.
         -4    1    6    6    0  503 -0.53240653466E+02  0.54490133876E+01  0.58027163730E+02  0.78939284637E+02  0.00000000000E+00 0. -1.
<mgrwt>
<rscale>  0 0.14213485E+04</rscale>
<asrwt>0</asrwt>
<pdfrwt beam="1">  1        1 0.70329659E-01 0.14213485E+04</pdfrwt>
<pdfrwt beam="2">  1       -2 0.16997143E+00 0.14213485E+04</pdfrwt>
<totfact> 0.90856616E+00</totfact>
</mgrwt>
</event>
<event>
12    4  0.4280696E-008  0.1696759E+04  0.7818608E-02  0.8763215E-01
          1   -1    0    0  501    0  0.00000000000E+00  0.00000000000E+00  0.11890727402E+04  0.11890727402E+04  0.00000000000E+00 0. -1.
         -2   -1    0    0    0  501 -0.00000000000E+00 -0.00000000000E+00 -0.60530174574E+03  0.60530174574E+03  0.00000000000E+00 0.  1.
        -24    2    1    2    0    0 -0.13017930985E+03  0.25673940362E+03  0.80501299556E+03  0.85862570446E+03  0.79563831404E+02 0.  0.
        254    2    1    2    0    0  0.13017930985E+03 -0.25673940362E+03 -0.22124200110E+03  0.93574878147E+03  0.86244767081E+03 0.  0.
         23    2    4    4    0    0 -0.27871539366E+03  0.86488925604E+02  0.80245014430E+02  0.31647700068E+03  0.92497701090E+02 0.  0.
         23    2    4    4    0    0  0.40889470351E+03 -0.34322832923E+03 -0.30148701553E+03  0.61927178078E+03  0.87192622429E+02 0.  0.
          3    1    3    3  502    0 -0.13934595230E+03  0.25088659399E+03  0.76177465871E+03  0.81404054452E+03  0.00000000000E+00 0. -1.
         -4    1    3    3    0  502  0.91666424468E+01  0.58528096349E+01  0.43238336844E+02  0.44585159946E+02  0.00000000000E+00 0.  1.
         11    1    5    5    0    0 -0.22684369475E+03  0.62617836360E+02  0.24369506397E+02  0.23658598462E+03  0.00000000000E+00 0.  1.
        -11    1    5    5    0    0 -0.51871698909E+02  0.23871089244E+02  0.55875508033E+02  0.79891016061E+02  0.00000000000E+00 0. -1.
          4    1    6    6  503    0  0.84120333584E+02 -0.29554315346E+02 -0.56764011274E+02  0.10569693020E+03  0.00000000000E+00 0. -1.
         -4    1    6    6    0  503  0.32477436992E+03 -0.31367401388E+03 -0.24472300425E+03  0.51357485058E+03  0.00000000000E+00 0.  1.
<mgrwt>
<rscale>  0 0.16967590E+04</rscale>
<asrwt>0</asrwt>
<pdfrwt beam="1">  1        1 0.18293427E+00 0.16967590E+04</pdfrwt>
<pdfrwt beam="2">  1       -2 0.93123346E-01 0.16967590E+04</pdfrwt>
<totfact> 0.88731949E+00</totfact>
</mgrwt>
</event>
<event>
12    4  0.4280696E-008  0.1824471E+04  0.7818608E-02  0.8693393E-01
         -2   -1    0    0    0  501 -0.00000000000E+00  0.00000000000E+00  0.10389161826E+04  0.10389161826E+04  0.00000000000E+00 0.  1.
          1   -1    0    0  501    0  0.00000000000E+00 -0.00000000000E+00 -0.80100174763E+03  0.80100174763E+03  0.00000000000E+00 0. -1.
        -24    2    1    2    0    0  0.29988706861E+02  0.85676820363E+02  0.78228670257E+03  0.79158113383E+03  0.79927256480E+02 0.  0.
        254    2    1    2    0    0 -0.29988706861E+02 -0.85676820363E+02 -0.54437226760E+03  0.10483367964E+04  0.89130748502E+03 0.  0.
         23    2    4    4    0    0  0.12893248034E+03  0.16582886657E+03  0.15897955028E+03  0.27871442051E+03  0.91018862445E+02 0.  0.
         23    2    4    4    0    0 -0.15892118720E+03 -0.25150568693E+03 -0.70335181788E+03  0.76962237588E+03  0.95413664869E+02 0.  0.
          3    1    3    3  502    0  0.30705082604E+02 -0.35001353504E+01  0.16265886833E+03  0.16556859754E+03  0.00000000000E+00 0. -1.
         -4    1    3    3    0  502 -0.71637574208E+00  0.89176955713E+02  0.61962783424E+03  0.62601253629E+03  0.00000000000E+00 0.  1.
         11    1    5    5    0    0 -0.84349710924E+01 -0.16176934052E+01 -0.20476292293E+01  0.88294085160E+01  0.00000000000E+00 0. -1.
        -11    1    5    5    0    0  0.13736745143E+03  0.16744655997E+03  0.16102717951E+03  0.26988501200E+03  0.00000000000E+00 0.  1.
          2    1    6    6  503    0 -0.52513465881E+02 -0.17004117366E+03 -0.42167481606E+03  0.45769128824E+03  0.00000000000E+00 0. -1.
         -2    1    6    6    0  503 -0.10640772132E+03 -0.81464513274E+02 -0.28167700182E+03  0.31193108764E+03  0.00000000000E+00 0.  1.
<mgrwt>
<rscale>  0 0.18244711E+04</rscale>
<asrwt>0</asrwt>
<pdfrwt beam="1">  1        1 0.12323104E+00 0.18244711E+04</pdfrwt>
<pdfrwt beam="2">  1       -2 0.15983326E+00 0.18244711E+04</pdfrwt>
<totfact> 0.45960544E+00</totfact>
</mgrwt>
</event>
<event>
12    4  0.4280696E-008  0.1483544E+04  0.7818608E-02  0.8895470E-01
         -4   -1    0    0    0  501 -0.00000000000E+00  0.00000000000E+00  0.43216195064E+03  0.43216195064E+03  0.00000000000E+00 0.  1.
          3   -1    0    0  501    0  0.00000000000E+00 -0.00000000000E+00 -0.12731937225E+04  0.12731937225E+04  0.00000000000E+00 0. -1.
        -24    2    1    2    0    0  0.24447925755E+03 -0.30624570539E+03 -0.54863775104E+03  0.67894738296E+03  0.80060149387E+02 0.  0.
        254    2    1    2    0    0 -0.24447925755E+03  0.30624570539E+03 -0.29239402086E+03  0.10264082902E+04  0.90247613562E+03 0.  0.
         23    2    4    4    0    0 -0.54609640634E+03  0.28535297357E+03 -0.33669142225E+03  0.70753594610E+03  0.87168782619E+02 0.  0.
         23    2    4    4    0    0  0.30161714879E+03  0.20892731829E+02  0.44297401389E+02  0.31887234413E+03  0.91147689993E+02 0.  0.
          1    1    3    3  502    0  0.23692370871E+03 -0.29997870289E+03 -0.50027900518E+03  0.62960237369E+03  0.00000000000E+00 0. -1.
         -2    1    3    3    0  502  0.75555488381E+01 -0.62670025073E+01 -0.48358745858E+02  0.49345009267E+02  0.00000000000E+00 0.  1.
         11    1    5    5    0    0 -0.39210019232E+03  0.23719572435E+03 -0.27713583299E+03  0.53554518240E+03  0.00000000000E+00 0. -1.
        -11    1    5    5    0    0 -0.15399621402E+03  0.48157249219E+02 -0.59555589259E+02  0.17199076370E+03  0.00000000000E+00 0.  1.
          1    1    6    6  503    0  0.14932831883E+03  0.14941815100E+02  0.67777200187E+02  0.16466922453E+03  0.00000000000E+00 0. -1.
         -1    1    6    6    0  503  0.15228882997E+03  0.59509167285E+01 -0.23479798798E+02  0.15420311960E+03  0.00000000000E+00 0.  1.
<mgrwt>
<rscale>  0 0.14835442E+04</rscale>
<asrwt>0</asrwt>
<pdfrwt beam="1">  1        3 0.19587596E+00 0.14835442E+04</pdfrwt>
<pdfrwt beam="2">  1       -4 0.66486454E-01 0.14835442E+04</pdfrwt>
<totfact> 0.72773156E-01</totfact>
</mgrwt>
</event>
<event>
12    4  0.4280696E-008  0.1737260E+04  0.7818608E-02  0.8740394E-01
         -2   -1    0    0    0  501 -0.00000000000E+00  0.00000000000E+00  0.17188738252E+04  0.17188738252E+04  0.00000000000E+00 0.  1.
          1   -1    0    0  501    0  0.00000000000E+00 -0.00000000000E+00 -0.43896065475E+03  0.43896065475E+03  0.00000000000E+00 0. -1.
        -24    2    1    2    0    0 -0.52542222504E+02 -0.62535063149E+03  0.45370766026E+03  0.77852372464E+03  0.80152675572E+02 0.  0.
        254    2    1    2    0    0  0.52542222504E+02  0.62535063149E+03  0.82620551017E+03  0.13793107553E+04  0.90887761396E+03 0.  0.
         23    2    4    4    0    0  0.37101641710E+03 -0.15214437302E+02  0.31303527693E+03  0.49423502334E+03  0.91610658936E+02 0.  0.
         23    2    4    4    0    0 -0.31847419459E+03  0.64056506879E+03  0.51317023324E+03  0.88507573195E+03  0.90917231723E+02 0.  0.
          3    1    3    3  502    0  0.43085274264E+01 -0.15392834505E+03  0.75662527397E+02  0.17157306569E+03  0.00000000000E+00 0. -1.
         -4    1    3    3    0  502 -0.56850749930E+02 -0.47142228644E+03  0.37804513286E+03  0.60695065895E+03  0.00000000000E+00 0.  1.
         11    1    5    5    0    0  0.35238972352E+03 -0.36354250062E+02  0.29148091457E+03  0.45876058276E+03  0.00000000000E+00 0. -1.
        -11    1    5    5    0    0  0.18626693580E+02  0.21139812759E+02  0.21554362364E+02  0.35474440576E+02  0.00000000000E+00 0.  1.
          1    1    6    6  503    0 -0.30462284633E+03  0.60372246512E+03  0.45576982527E+03  0.81547656436E+03  0.00000000000E+00 0. -1.
         -1    1    6    6    0  503 -0.13851348266E+02  0.36842603674E+02  0.57400407966E+02  0.69599167588E+02  0.00000000000E+00 0.  1.
<mgrwt>
<rscale>  0 0.17372599E+04</rscale>
<asrwt>0</asrwt>
<pdfrwt beam="1">  1        1 0.67532409E-01 0.17372599E+04</pdfrwt>
<pdfrwt beam="2">  1       -2 0.26444212E+00 0.17372599E+04</pdfrwt>
<totfact> 0.23041128E+00</totfact>
</mgrwt>
</event>
<event>
12    4  0.4280696E-008  0.1587838E+04  0.7818608E-02  0.8828054E-01
         -2   -1    0    0    0  501 -0.00000000000E+00  0.00000000000E+00  0.19437981487E+04  0.19437981487E+04  0.00000000000E+00 0.  1.
          1   -1    0    0  501    0  0.00000000000E+00 -0.00000000000E+00 -0.32426597312E+03  0.32426597312E+03  0.00000000000E+00 0. -1.
        -24    2    1    2    0    0 -0.50974057653E+02  0.51488824613E+03  0.35784477884E+03  0.63422812727E+03  0.80524351110E+02 0.  0.
        254    2    1    2    0    0  0.50974057653E+02 -0.51488824613E+03  0.12616873968E+04  0.16338359946E+04  0.89992039065E+03 0.  0.
         23    2    4    4    0    0  0.41387338534E+03 -0.80763496133E+02  0.75227183958E+03  0.86732669443E+03  0.92351247175E+02 0.  0.
         23    2    4    4    0    0 -0.36289932769E+03 -0.43412474999E+03  0.50941555720E+03  0.76650930016E+03  0.88724724431E+02 0.  0.
          3    1    3    3  502    0 -0.25946495082E+02  0.42834481690E+03  0.32510736662E+03  0.53837468608E+03  0.00000000000E+00 0. -1.
         -4    1    3    3    0  502 -0.25027562571E+02  0.86543429222E+02  0.32737412224E+02  0.95853441195E+02  0.00000000000E+00 0.  1.
         11    1    5    5    0    0  0.25694858744E+03 -0.55427312115E+02  0.55404437894E+03  0.61323726024E+03  0.00000000000E+00 0. -1.
        -11    1    5    5    0    0  0.15692479790E+03 -0.25336184018E+02  0.19822746064E+03  0.25408943419E+03  0.00000000000E+00 0.  1.
          1    1    6    6  503    0 -0.21211607999E+03 -0.29690866473E+03  0.28256629845E+03  0.46151023781E+03  0.00000000000E+00 0. -1.
         -1    1    6    6    0  503 -0.15078324770E+03 -0.13721608526E+03  0.22684925875E+03  0.30499906235E+03  0.00000000000E+00 0.  1.
<mgrwt>
<rscale>  0 0.15878383E+04</rscale>
<asrwt>0</asrwt>
<pdfrwt beam="1">  1        1 0.49887074E-01 0.15878383E+04</pdfrwt>
<pdfrwt beam="2">  1       -2 0.29904586E+00 0.15878383E+04</pdfrwt>
<totfact> 0.21468904E+00</totfact>
</mgrwt>
</event>
<event>
12    4  0.4280696E-008  0.2636051E+04  0.7818608E-02  0.8356058E-01
          1   -1    0    0  501    0  0.00000000000E+00  0.00000000000E+00  0.43129417818E+04  0.43129417818E+04  0.00000000000E+00 0. -1.
         -2   -1    0    0    0  501 -0.00000000000E+00 -0.00000000000E+00 -0.40278559127E+03  0.40278559127E+03  0.00000000000E+00 0.  1.
        -24    2    1    2    0    0  0.70421731702E+03  0.17976077077E+03  0.10551173447E+03  0.73843910701E+03  0.76965085235E+02 0.  0.
        254    2    1    2    0    0 -0.70421731702E+03 -0.17976077077E+03  0.38046444561E+04  0.39772882661E+04  0.90292112063E+03 0.  0.
         23    2    4    4    0    0 -0.83727153154E+03 -0.26208139325E+03  0.23288996506E+04  0.24906370651E+04  0.98940048686E+02 0.  0.
         23    2    4    4    0    0  0.13305421452E+03  0.82320622476E+02  0.14757448054E+04  0.14866512010E+04  0.88481374513E+02 0.  0.
          1    1    3    3  502    0  0.57619060573E+03  0.14567166323E+03  0.11601063812E+03  0.60553638681E+03  0.00000000000E+00 0. -1.
         -2    1    3    3    0  502  0.12802671129E+03  0.34089107540E+02 -0.10498903643E+02  0.13290272019E+03  0.00000000000E+00 0.  1.
         11    1    5    5    0    0 -0.48415051317E+03 -0.16555498473E+03  0.14877364782E+04  0.15732673011E+04  0.00000000000E+00 0.  1.
        -11    1    5    5    0    0 -0.35312101837E+03 -0.96526408519E+02  0.84116317246E+03  0.91736976398E+03  0.00000000000E+00 0. -1.
          2    1    6    6  503    0  0.19622571721E+02  0.23044829448E+01  0.56895142013E+03  0.56929436536E+03  0.00000000000E+00 0. -1.
         -2    1    6    6    0  503  0.11343164280E+03  0.80016139531E+02  0.90679338530E+03  0.91735683559E+03  0.00000000000E+00 0.  1.
<mgrwt>
<rscale>  0 0.26360507E+04</rscale>
<asrwt>0</asrwt>
<pdfrwt beam="1">  1        1 0.66352947E+00 0.26360507E+04</pdfrwt>
<pdfrwt beam="2">  1       -2 0.61967017E-01 0.26360507E+04</pdfrwt>
<totfact> 0.92562448E-02</totfact>
</mgrwt>
</event>
<event>
12    4  0.4280696E-008  0.1919826E+04  0.7818608E-02  0.8645050E-01
         -2   -1    0    0    0  501 -0.00000000000E+00  0.00000000000E+00  0.78763817907E+03  0.78763817907E+03  0.00000000000E+00 0.  1.
          1   -1    0    0  501    0  0.00000000000E+00 -0.00000000000E+00 -0.11698682927E+04  0.11698682927E+04  0.00000000000E+00 0. -1.
        -24    2    1    2    0    0  0.15661540228E+03 -0.25529305855E+03  0.54759183479E+03  0.62936958047E+03  0.80909340120E+02 0.  0.
        254    2    1    2    0    0 -0.15661540228E+03  0.25529305855E+03 -0.92982194838E+03  0.13281368912E+04  0.89981987988E+03 0.  0.
         23    2    4    4    0    0 -0.27096520250E+02 -0.32356889647E+03 -0.24315182647E+03  0.41592398017E+03  0.91863455148E+02 0.  0.
         23    2    4    4    0    0 -0.12951888203E+03  0.57886195501E+03 -0.68667012190E+03  0.91221291108E+03  0.93596127379E+02 0.  0.
          3    1    3    3  502    0  0.62341792520E+02 -0.16664885441E+03  0.27375450324E+03  0.32649635191E+03  0.00000000000E+00 0. -1.
         -4    1    3    3    0  502  0.94273609761E+02 -0.88644204142E+02  0.27383733156E+03  0.30287322856E+03  0.00000000000E+00 0.  1.
         11    1    5    5    0    0  0.10352288596E+02 -0.13662799864E+02  0.41940795159E+01  0.17647444072E+02  0.00000000000E+00 0.  1.
        -11    1    5    5    0    0 -0.37448808846E+02 -0.30990609660E+03 -0.24734590599E+03  0.39827653610E+03  0.00000000000E+00 0. -1.
          2    1    6    6  503    0 -0.66551768256E+02  0.17135237690E+03 -0.16297672387E+03  0.24566682204E+03  0.00000000000E+00 0. -1.
         -2    1    6    6    0  503 -0.62967113776E+02  0.40750957811E+03 -0.52369339803E+03  0.66654608904E+03  0.00000000000E+00 0.  1.
<mgrwt>
<rscale>  0 0.19198260E+04</rscale>
<asrwt>0</asrwt>
<pdfrwt beam="1">  1        1 0.17997974E+00 0.19198260E+04</pdfrwt>
<pdfrwt beam="2">  1       -2 0.12117511E+00 0.19198260E+04</pdfrwt>
<totfact> 0.47744945E+00</totfact>
</mgrwt>
</event>
<event>
12    4  0.4280696E-008  0.1749342E+04  0.7818608E-02  0.8733713E-01
         -2   -1    0    0    0  501 -0.00000000000E+00  0.00000000000E+00  0.15542451760E+04  0.15542451760E+04  0.00000000000E+00 0.  1.
          1   -1    0    0  501    0  0.00000000000E+00 -0.00000000000E+00 -0.49223204639E+03  0.49223204639E+03  0.00000000000E+00 0. -1.
        -24    2    1    2    0    0  0.26204386143E+03 -0.28123580055E+03 -0.20593728516E+03  0.44294400976E+03  0.77644507452E+02 0.  0.
        254    2    1    2    0    0 -0.26204386143E+03  0.28123580055E+03  0.12679504148E+04  0.16035332126E+04  0.90324966032E+03 0.  0.
         23    2    4    4    0    0  0.30807994102E+03  0.24218428036E+03  0.49615461884E+03  0.63891655341E+03  0.92078665869E+02 0.  0.
         23    2    4    4    0    0 -0.57012380245E+03  0.39051520185E+02  0.77179579591E+03  0.96461665921E+03  0.90831587494E+02 0.  0.
          3    1    3    3  502    0  0.21946614345E+03 -0.26916244651E+03 -0.17458674325E+03  0.38870855619E+03  0.00000000000E+00 0. -1.
         -4    1    3    3    0  502  0.42577717986E+02 -0.12073354037E+02 -0.31350541903E+02  0.54235453572E+02  0.00000000000E+00 0.  1.
         11    1    5    5    0    0  0.23465578019E+03  0.21439269529E+03  0.43818482064E+03  0.54132568756E+03  0.00000000000E+00 0.  1.
        -11    1    5    5    0    0  0.73424160827E+02  0.27791585073E+02  0.57969798207E+02  0.97590865854E+02  0.00000000000E+00 0. -1.
          2    1    6    6  503    0 -0.53555371374E+03  0.58431967904E+02  0.72604568602E+03  0.90408761377E+03  0.00000000000E+00 0. -1.
         -2    1    6    6    0  503 -0.34570088710E+02 -0.19380447719E+02  0.45750109883E+02  0.60529045437E+02  0.00000000000E+00 0.  1.
<mgrwt>
<rscale>  0 0.17493419E+04</rscale>
<asrwt>0</asrwt>
<pdfrwt beam="1">  1        1 0.75728008E-01 0.17493419E+04</pdfrwt>
<pdfrwt beam="2">  1       -2 0.23911464E+00 0.17493419E+04</pdfrwt>
<totfact> 0.28163761E+00</totfact>
</mgrwt>
</event>
<event>
12    4  0.4280696E-008  0.3287368E+04  0.7818608E-02  0.8166117E-01
         -2   -1    0    0    0  501 -0.00000000000E+00  0.00000000000E+00  0.10183492928E+04  0.10183492928E+04  0.00000000000E+00 0.  1.
          1   -1    0    0  501    0  0.00000000000E+00 -0.00000000000E+00 -0.26530169046E+04  0.26530169046E+04  0.00000000000E+00 0. -1.
        -24    2    1    2    0    0 -0.14026598430E+04  0.58344472754E+03 -0.82765154311E+03  0.17320341822E+04  0.84100809362E+02 0.  0.
        254    2    1    2    0    0  0.14026598430E+04 -0.58344472754E+03 -0.80701606871E+03  0.19393320153E+04  0.89547269366E+03 0.  0.
         23    2    4    4    0    0  0.11802132186E+04 -0.53187785135E+03 -0.99067709541E+03  0.16326788042E+04  0.91660680210E+02 0.  0.
         23    2    4    4    0    0  0.22244662445E+03 -0.51566876186E+02  0.18366102670E+03  0.30665321109E+03  0.90350294374E+02 0.  0.
          3    1    3    3  502    0 -0.42451470160E+03  0.16854105858E+03 -0.29240173450E+03  0.54232609622E+03  0.00000000000E+00 0. -1.
         -4    1    3    3    0  502 -0.97814514140E+03  0.41490366896E+03 -0.53524980861E+03  0.11897080860E+04  0.00000000000E+00 0.  1.
         11    1    5    5    0    0  0.20146380308E+03 -0.54325467050E+02 -0.15319965560E+03  0.25886107239E+03  0.00000000000E+00 0. -1.
        -11    1    5    5    0    0  0.97874941547E+03 -0.47755238430E+03 -0.83747743981E+03  0.13738177318E+04  0.00000000000E+00 0.  1.
          3    1    6    6  503    0  0.71889503826E+02 -0.30835667018E+02  0.11690205038E+03  0.14065926384E+03  0.00000000000E+00 0. -1.
         -3    1    6    6    0  503  0.15055712063E+03 -0.20731209168E+02  0.66758976323E+02  0.16599394725E+03  0.00000000000E+00 0.  1.
<mgrwt>
<rscale>  0 0.32873685E+04</rscale>
<asrwt>0</asrwt>
<pdfrwt beam="1">  1        1 0.40815644E+00 0.32873685E+04</pdfrwt>
<pdfrwt beam="2">  1       -2 0.15666913E+00 0.32873685E+04</pdfrwt>
<totfact> 0.20638446E-01</totfact>
</mgrwt>
</event>
<event>
12    4  0.4280696E-008  0.4143698E+04  0.7818608E-02  0.7976169E-01
         -2   -1    0    0    0  501 -0.00000000000E+00  0.00000000000E+00  0.15358400845E+04  0.15358400845E+04  0.00000000000E+00 0.  1.
          1   -1    0    0  501    0  0.00000000000E+00 -0.00000000000E+00 -0.27949248911E+04  0.27949248911E+04  0.00000000000E+00 0. -1.
        -24    2    1    2    0    0 -0.19163072872E+04 -0.46089478739E+03 -0.65629232464E+03  0.20788351188E+04  0.78601601804E+02 0.  0.
        254    2    1    2    0    0  0.19163072872E+04  0.46089478739E+03 -0.60279248195E+03  0.22519298567E+04  0.90728809040E+03 0.  0.
         23    2    4    4    0    0  0.12492377314E+04 -0.82742148728E+02 -0.58847727304E+03  0.13863620862E+04  0.90846906628E+02 0.  0.
         23    2    4    4    0    0  0.66706955585E+03  0.54363693611E+03 -0.14315208901E+02  0.86556777049E+03  0.92085446510E+02 0.  0.
          1    1    3    3  502    0 -0.73656743484E+03 -0.20456176293E+03 -0.22552208410E+03  0.79701776100E+03  0.00000000000E+00 0. -1.
         -2    1    3    3    0  502 -0.11797398524E+04 -0.25633302446E+03 -0.43077024053E+03  0.12818173578E+04  0.00000000000E+00 0.  1.
         11    1    5    5    0    0  0.60084192867E+03  0.52174820204E+01 -0.28887544778E+03  0.66669878483E+03  0.00000000000E+00 0. -1.
        -11    1    5    5    0    0  0.64839580271E+03 -0.87959630748E+02 -0.29960182526E+03  0.71966330136E+03  0.00000000000E+00 0.  1.
          4    1    6    6  503    0  0.12754323052E+03  0.11621292028E+03  0.32811034485E+02  0.17563963811E+03  0.00000000000E+00 0. -1.
         -4    1    6    6    0  503  0.53952632533E+03  0.42742401583E+03 -0.47126243386E+02  0.68992813238E+03  0.00000000000E+00 0.  1.
<mgrwt>
<rscale>  0 0.41436977E+04</rscale>
<asrwt>0</asrwt>
<pdfrwt beam="1">  1        1 0.42998844E+00 0.41436977E+04</pdfrwt>
<pdfrwt beam="2">  1       -2 0.23628309E+00 0.41436977E+04</pdfrwt>
<totfact> 0.44687998E-02</totfact>
</mgrwt>
</event>
<event>
12    4  0.4280696E-008  0.1060017E+04  0.7818608E-02  0.9245063E-01
         -2   -1    0    0    0  501 -0.00000000000E+00  0.00000000000E+00  0.23516268469E+03  0.23516268469E+03  0.00000000000E+00 0.  1.
          1   -1    0    0  501    0  0.00000000000E+00 -0.00000000000E+00 -0.11945307480E+04  0.11945307480E+04  0.00000000000E+00 0. -1.
        -24    2    1    2    0    0  0.19141159019E+02 -0.35229508171E+02 -0.26783257312E+03  0.28205906337E+03  0.78838605953E+02 0.  0.
        254    2    1    2    0    0 -0.19141159019E+02  0.35229508171E+02 -0.69153549018E+03  0.11476343693E+04  0.91500590666E+03 0.  0.
         23    2    4    4    0    0 -0.10826526632E+03  0.40584291551E+03 -0.61200394106E+03  0.74795322348E+03  0.91953035151E+02 0.  0.
         23    2    4    4    0    0  0.89124107304E+02 -0.37061340734E+03 -0.79531549124E+02  0.39968114583E+03  0.90124063513E+02 0.  0.
          1    1    3    3  502    0 -0.14815705929E+02 -0.47037153479E+02 -0.19047649292E+03  0.19675693966E+03  0.00000000000E+00 0. -1.
         -2    1    3    3    0  502  0.33956864948E+02  0.11807645308E+02 -0.77356080203E+02  0.85302123709E+02  0.00000000000E+00 0.  1.
         11    1    5    5    0    0 -0.60446986127E+02  0.30890910351E+03 -0.51011662473E+03  0.59941441690E+03  0.00000000000E+00 0. -1.
        -11    1    5    5    0    0 -0.47818280197E+02  0.96933812001E+02 -0.10188731633E+03  0.14853880658E+03  0.00000000000E+00 0.  1.
          2    1    6    6  503    0  0.10554336356E+03 -0.29404853330E+03 -0.52227266933E+02  0.31675168340E+03  0.00000000000E+00 0. -1.
         -2    1    6    6    0  503 -0.16419256255E+02 -0.76564874048E+02 -0.27304282191E+02  0.82929462436E+02  0.00000000000E+00 0.  1.
<mgrwt>
<rscale>  0 0.10600171E+04</rscale>
<asrwt>0</asrwt>
<pdfrwt beam="1">  1        1 0.18377396E+00 0.10600171E+04</pdfrwt>
<pdfrwt beam="2">  1       -2 0.36178874E-01 0.10600171E+04</pdfrwt>
<totfact> 0.67889837E+01</totfact>
</mgrwt>
</event>
<event>
12    4  0.4280696E-008  0.1460330E+04  0.7818608E-02  0.8911270E-01
         -2   -1    0    0    0  501 -0.00000000000E+00  0.00000000000E+00  0.32835443324E+03  0.32835443324E+03  0.00000000000E+00 0.  1.
          1   -1    0    0  501    0  0.00000000000E+00 -0.00000000000E+00 -0.16236741240E+04  0.16236741240E+04  0.00000000000E+00 0. -1.
        -24    2    1    2    0    0  0.24589143205E+03 -0.35395328351E+03 -0.22295991011E+03  0.49174096253E+03  0.79702756872E+02 0.  0.
        254    2    1    2    0    0 -0.24589143205E+03  0.35395328351E+03 -0.10723597807E+04  0.14602875947E+04  0.89260228369E+03 0.  0.
         23    2    4    4    0    0  0.21388511820E+03  0.37675619956E+03 -0.23916106343E+03  0.50413336610E+03  0.96230758378E+02 0.  0.
         23    2    4    4    0    0 -0.45977655025E+03 -0.22802916054E+02 -0.83319871725E+03  0.95615422864E+03  0.89979760873E+02 0.  0.
          3    1    3    3  502    0  0.22367518228E+03 -0.33237168068E+03 -0.18107291690E+03  0.43964636075E+03  0.00000000000E+00 0. -1.
         -4    1    3    3    0  502  0.22216249768E+02 -0.21581602829E+02 -0.41886993212E+02  0.52094601781E+02  0.00000000000E+00 0.  1.
         11    1    5    5    0    0  0.52600373475E+01  0.30510261757E+02 -0.47643800185E+02  0.56819677590E+02  0.00000000000E+00 0.  1.
        -11    1    5    5    0    0  0.20862508085E+03  0.34624593781E+03 -0.19151726325E+03  0.44731368851E+03  0.00000000000E+00 0. -1.
          1    1    6    6  503    0 -0.30641193602E+03 -0.49172148036E+02 -0.60495489184E+03  0.67990925559E+03  0.00000000000E+00 0. -1.
         -1    1    6    6    0  503 -0.15336461423E+03  0.26369231981E+02 -0.22824382542E+03  0.27624497305E+03  0.00000000000E+00 0.  1.
<mgrwt>
<rscale>  0 0.14603295E+04</rscale>
<asrwt>0</asrwt>
<pdfrwt beam="1">  1        1 0.24979602E+00 0.14603295E+04</pdfrwt>
<pdfrwt beam="2">  1       -2 0.50516066E-01 0.14603295E+04</pdfrwt>
<totfact> 0.16963954E+01</totfact>
</mgrwt>
</event>
<event>
12    4  0.4280696E-008  0.1728187E+04  0.7818608E-02  0.8745450E-01
         -2   -1    0    0    0  501 -0.00000000000E+00  0.00000000000E+00  0.10710561951E+04  0.10710561951E+04  0.00000000000E+00 0.  1.
          1   -1    0    0  501    0  0.00000000000E+00 -0.00000000000E+00 -0.69712280784E+03  0.69712280784E+03  0.00000000000E+00 0. -1.
        -24    2    1    2    0    0  0.39136069975E+03  0.15949682674E+03  0.59709445795E+03  0.73602651856E+03  0.81306883206E+02 0.  0.
        254    2    1    2    0    0 -0.39136069975E+03 -0.15949682674E+03 -0.22316107064E+03  0.10321524844E+04  0.91484176370E+03 0.  0.
         23    2    4    4    0    0 -0.50226652343E+03 -0.16533161420E+03  0.20940406797E+03  0.57588200821E+03  0.90464470823E+02 0.  0.
         23    2    4    4    0    0  0.11090582368E+03  0.58347874579E+01 -0.43256513862E+03  0.45627047622E+03  0.93466581495E+02 0.  0.
          3    1    3    3  502    0  0.23009873134E+03  0.11062486691E+03  0.29520560396E+03  0.39029429403E+03  0.00000000000E+00 0. -1.
         -4    1    3    3    0  502  0.16126196841E+03  0.48871959832E+02  0.30188885399E+03  0.34573222453E+03  0.00000000000E+00 0.  1.
         11    1    5    5    0    0 -0.27111804346E+03 -0.10082407431E+03  0.67303635748E+02  0.29698529734E+03  0.00000000000E+00 0.  1.
        -11    1    5    5    0    0 -0.23114847997E+03 -0.64507539886E+02  0.14210043222E+03  0.27889671087E+03  0.00000000000E+00 0. -1.
          3    1    6    6  503    0 -0.19504266153E+01  0.74050539198E+01 -0.17371284289E+03  0.17388154236E+03  0.00000000000E+00 0. -1.
         -3    1    6    6    0  503  0.11285625029E+03 -0.15702664619E+01 -0.25885229572E+03  0.28238893386E+03  0.00000000000E+00 0.  1.
<mgrwt>
<rscale>  0 0.17281871E+04</rscale>
<asrwt>0</asrwt>
<pdfrwt beam="1">  1        1 0.10724966E+00 0.17281871E+04</pdfrwt>
<pdfrwt beam="2">  1       -2 0.16477788E+00 0.17281871E+04</pdfrwt>
<totfact> 0.52927741E+00</totfact>
</mgrwt>
</event>
<event>
12    4  0.4280696E-008  0.1697583E+04  0.7818608E-02  0.8762744E-01
          1   -1    0    0  501    0  0.00000000000E+00  0.00000000000E+00  0.39164845284E+03  0.39164845284E+03  0.00000000000E+00 0. -1.
         -2   -1    0    0    0  501 -0.00000000000E+00 -0.00000000000E+00 -0.18395257425E+04  0.18395257425E+04  0.00000000000E+00 0.  1.
        -24    2    1    2    0    0 -0.57413768765E+03 -0.19006589071E+03 -0.47442930817E+03  0.77298757820E+03  0.81654763519E+02 0.  0.
        254    2    1    2    0    0  0.57413768765E+03  0.19006589071E+03 -0.97344798152E+03  0.14581866172E+04  0.90163635163E+03 0.  0.
         23    2    4    4    0    0  0.43299000880E+01  0.44425338253E+03 -0.39045573487E+03  0.59845831812E+03  0.91196829490E+02 0.  0.
         23    2    4    4    0    0  0.56980778757E+03 -0.25418749182E+03 -0.58299224666E+03  0.85972829906E+03  0.99802769321E+02 0.  0.
          1    1    3    3  502    0 -0.82904220601E+02 -0.48449018847E+02 -0.48536981625E+02  0.10759301002E+03  0.00000000000E+00 0. -1.
         -2    1    3    3    0  502 -0.49123346705E+03 -0.14161687186E+03 -0.42589232654E+03  0.66539456817E+03  0.00000000000E+00 0.  1.
         11    1    5    5    0    0 -0.38083085816E+02  0.10843201367E+03 -0.10509735669E+03  0.15573463776E+03  0.00000000000E+00 0.  1.
        -11    1    5    5    0    0  0.42412985904E+02  0.33582136886E+03 -0.28535837817E+03  0.44272368036E+03  0.00000000000E+00 0. -1.
          3    1    6    6  503    0  0.42806297149E+03 -0.14257824487E+03 -0.40500662974E+03  0.60629764440E+03  0.00000000000E+00 0. -1.
         -3    1    6    6    0  503  0.14174481608E+03 -0.11160924695E+03 -0.17798561692E+03  0.25343065466E+03  0.00000000000E+00 0.  1.
<mgrwt>
<rscale>  0 0.16975835E+04</rscale>
<asrwt>0</asrwt>
<pdfrwt beam="1">  1        1 0.60253607E-01 0.16975835E+04</pdfrwt>
<pdfrwt beam="2">  1       -2 0.28300396E+00 0.16975835E+04</pdfrwt>
<totfact> 0.20763200E+00</totfact>
</mgrwt>
</event>
<event>
12    4  0.4280696E-008  0.1095948E+04  0.7818608E-02  0.9209150E-01
         -2   -1    0    0    0  501 -0.00000000000E+00  0.00000000000E+00  0.18755433033E+03  0.18755433033E+03  0.00000000000E+00 0.  1.
          1   -1    0    0  501    0  0.00000000000E+00 -0.00000000000E+00 -0.16010056731E+04  0.16010056731E+04  0.00000000000E+00 0. -1.
        -24    2    1    2    0    0  0.24244365433E+02 -0.15307805096E+03 -0.31829649815E+03  0.36303831092E+03  0.80395743158E+02 0.  0.
        254    2    1    2    0    0 -0.24244365433E+02  0.15307805096E+03 -0.10951548446E+04  0.14255216925E+04  0.89929265714E+03 0.  0.
         23    2    4    4    0    0  0.22261895939E+03 -0.44121590114E+02  0.35806642274E+02  0.24741345328E+03  0.91789898360E+02 0.  0.
         23    2    4    4    0    0 -0.24686332482E+03  0.19719964108E+03 -0.11309614869E+04  0.11781082392E+04  0.95057555803E+02 0.  0.
          3    1    3    3  502    0  0.80372301280E+01  0.14987770313E+01 -0.67452360920E+02  0.67946040315E+02  0.00000000000E+00 0. -1.
         -4    1    3    3    0  502  0.16207135305E+02 -0.15457682799E+03 -0.25084413723E+03  0.29509227060E+03  0.00000000000E+00 0.  1.
         11    1    5    5    0    0  0.72577852570E+02 -0.37014509682E+02  0.51504049370E+02  0.96386128215E+02  0.00000000000E+00 0. -1.
        -11    1    5    5    0    0  0.15004110682E+03 -0.71070804317E+01 -0.15697407096E+02  0.15102732507E+03  0.00000000000E+00 0.  1.
          1    1    6    6  503    0 -0.68817381448E+01 -0.10360889302E+02 -0.35136503872E+02  0.37273049934E+02  0.00000000000E+00 0. -1.
         -1    1    6    6    0  503 -0.23998158668E+03  0.20756053038E+03 -0.10958249830E+04  0.11408351893E+04  0.00000000000E+00 0.  1.
<mgrwt>
<rscale>  0 0.10959481E+04</rscale>
<asrwt>0</asrwt>
<pdfrwt beam="1">  1        1 0.24630857E+00 0.10959481E+04</pdfrwt>
<pdfrwt beam="2">  1       -2 0.28854512E-01 0.10959481E+04</pdfrwt>
<totfact> 0.53746340E+01</totfact>
</mgrwt>
</event>
<event>
12    4  0.4280696E-008  0.1341631E+04  0.7818608E-02  0.8997187E-01
          1   -1    0    0  501    0  0.00000000000E+00  0.00000000000E+00  0.11588708757E+04  0.11588708757E+04  0.00000000000E+00 0. -1.
         -2   -1    0    0    0  501 -0.00000000000E+00 -0.00000000000E+00 -0.38830360448E+03  0.38830360448E+03  0.00000000000E+00 0.  1.
        -24    2    1    2    0    0 -0.10051397922E+03  0.18466589038E+03 -0.12056355172E+03  0.25515447816E+03  0.79772718584E+02 0.  0.
        254    2    1    2    0    0  0.10051397922E+03 -0.18466589038E+03  0.89113082296E+03  0.12920200020E+04  0.91159036356E+03 0.  0.
         23    2    4    4    0    0  0.28785560424E+02  0.31975229943E+03  0.10282005307E+03  0.34889874375E+03  0.89934579514E+02 0.  0.
         23    2    4    4    0    0  0.71728418799E+02 -0.50441818982E+03  0.78831076989E+03  0.94312125829E+03  0.91984572723E+02 0.  0.
          1    1    3    3  502    0 -0.68417543195E+02  0.54031403170E+02 -0.26889670003E+02  0.91232708489E+02  0.00000000000E+00 0. -1.
         -2    1    3    3    0  502 -0.32096436028E+02  0.13063448721E+03 -0.93673881722E+02  0.16392176967E+03  0.00000000000E+00 0.  1.
         11    1    5    5    0    0 -0.61398987092E+01  0.27631017844E+03  0.96773534062E+02  0.29283123119E+03  0.00000000000E+00 0. -1.
        -11    1    5    5    0    0  0.34925459133E+02  0.43442120999E+02  0.60465190044E+01  0.56067512559E+02  0.00000000000E+00 0.  1.
          2    1    6    6  503    0  0.49765132080E+02 -0.41561273940E+03  0.70216594759E+03  0.81746408819E+03  0.00000000000E+00 0. -1.
         -2    1    6    6    0  503  0.21963286719E+02 -0.88805450420E+02  0.86144822307E+02  0.12565717010E+03  0.00000000000E+00 0.  1.
<mgrwt>
<rscale>  0 0.13416315E+04</rscale>
<asrwt>0</asrwt>
<pdfrwt beam="1">  1        1 0.17828783E+00 0.13416315E+04</pdfrwt>
<pdfrwt beam="2">  1       -2 0.59739017E-01 0.13416315E+04</pdfrwt>
<totfact> 0.25724716E+01</totfact>
</mgrwt>
</event>
<event>
12    4  0.4280696E-008  0.1186569E+04  0.7818608E-02  0.9124695E-01
         -2   -1    0    0    0  501 -0.00000000000E+00  0.00000000000E+00  0.24979211175E+03  0.24979211175E+03  0.00000000000E+00 0.  1.
          1   -1    0    0  501    0  0.00000000000E+00 -0.00000000000E+00 -0.14091176307E+04  0.14091176307E+04  0.00000000000E+00 0. -1.
        -24    2    1    2    0    0  0.85436739313E+02  0.22368744425E+03 -0.30143669892E+03  0.39270069460E+03  0.77551550198E+02 0.  0.
        254    2    1    2    0    0 -0.85436739313E+02 -0.22368744425E+03 -0.85788882005E+03  0.12662090479E+04  0.89998700891E+03 0.  0.
         23    2    4    4    0    0  0.37897271988E+03 -0.11793127828E+03 -0.57572215996E+03  0.70542962399E+03  0.92988387026E+02 0.  0.
         23    2    4    4    0    0 -0.46440945920E+03 -0.10575616598E+03 -0.28216666009E+03  0.56077942389E+03  0.89414907911E+02 0.  0.
          1    1    3    3  502    0  0.37129775484E+02  0.16651601535E+03 -0.24682395176E+03  0.30004710756E+03  0.00000000000E+00 0. -1.
         -2    1    3    3    0  502  0.48306963829E+02  0.57171428906E+02 -0.54612747164E+02  0.92653587035E+02  0.00000000000E+00 0.  1.
         11    1    5    5    0    0  0.35801363507E+03 -0.11684279651E+03 -0.49470781585E+03  0.62174096299E+03  0.00000000000E+00 0.  1.
        -11    1    5    5    0    0  0.20959084809E+02 -0.10884817662E+01 -0.81014344107E+02  0.83688660998E+02  0.00000000000E+00 0. -1.
          1    1    6    6  503    0 -0.27261518254E+03 -0.19466038638E+02 -0.14155342896E+03  0.30779106170E+03  0.00000000000E+00 0.  1.
         -1    1    6    6    0  503 -0.19179427666E+03 -0.86290127339E+02 -0.14061323113E+03  0.25298836219E+03  0.00000000000E+00 0. -1.
<mgrwt>
<rscale>  0 0.11865690E+04</rscale>
<asrwt>0</asrwt>
<pdfrwt beam="1">  1        1 0.21678733E+00 0.11865690E+04</pdfrwt>
<pdfrwt beam="2">  1       -2 0.38429556E-01 0.11865690E+04</pdfrwt>
<totfact> 0.42072504E+01</totfact>
</mgrwt>
</event>
<event>
12    4  0.4280696E-008  0.1379455E+04  0.7818608E-02  0.8968826E-01
         -2   -1    0    0    0  501 -0.00000000000E+00  0.00000000000E+00  0.16988645332E+04  0.16988645332E+04  0.00000000000E+00 0.  1.
          1   -1    0    0  501    0  0.00000000000E+00 -0.00000000000E+00 -0.28002481712E+03  0.28002481712E+03  0.00000000000E+00 0. -1.
        -24    2    1    2    0    0 -0.16487529509E+03 -0.77046430789E+02 -0.10700198905E+03  0.22644083771E+03  0.81890242955E+02 0.  0.
        254    2    1    2    0    0  0.16487529509E+03  0.77046430789E+02  0.15258417052E+04  0.17524485126E+04  0.84247425174E+03 0.  0.
         23    2    4    4    0    0 -0.23862922455E+03  0.25919992477E+03  0.41110088017E+03  0.54952755392E+03  0.94064292020E+02 0.  0.
         23    2    4    4    0    0  0.40350451964E+03 -0.18215349398E+03  0.11147408250E+04  0.12029209587E+04  0.91520125091E+02 0.  0.
          3    1    3    3  502    0 -0.89409092493E+02 -0.33398819188E+02 -0.10114091604E+03  0.13906455998E+03  0.00000000000E+00 0. -1.
         -4    1    3    3    0  502 -0.75466202600E+02 -0.43647611601E+02 -0.58610730094E+01  0.87376277731E+02  0.00000000000E+00 0.  1.
         11    1    5    5    0    0 -0.17879147972E+03  0.12808431945E+03  0.26360928911E+03  0.34331012717E+03  0.00000000000E+00 0. -1.
        -11    1    5    5    0    0 -0.59837744829E+02  0.13111560532E+03  0.14749159106E+03  0.20621742675E+03  0.00000000000E+00 0.  1.
          4    1    6    6  503    0  0.40270759529E+03 -0.17421413181E+03  0.11101492360E+04  0.11937149145E+04  0.00000000000E+00 0. -1.
         -4    1    6    6    0  503  0.79692435839E+00 -0.79393621694E+01  0.45915890111E+01  0.92060441959E+01  0.00000000000E+00 0.  1.
<mgrwt>
<rscale>  0 0.13794553E+04</rscale>
<asrwt>0</asrwt>
<pdfrwt beam="1">  1        1 0.43080742E-01 0.13794553E+04</pdfrwt>
<pdfrwt beam="2">  1       -2 0.26136377E+00 0.13794553E+04</pdfrwt>
<totfact> 0.44846264E+00</totfact>
</mgrwt>
</event>
<event>
12    4  0.4280696E-008  0.1338341E+04  0.7818608E-02  0.8999701E-01
         -2   -1    0    0    0  501 -0.00000000000E+00  0.00000000000E+00  0.31642004129E+03  0.31642004129E+03  0.00000000000E+00 0.  1.
          1   -1    0    0  501    0  0.00000000000E+00 -0.00000000000E+00 -0.14151738181E+04  0.14151738181E+04  0.00000000000E+00 0. -1.
        -24    2    1    2    0    0 -0.27025407114E+03 -0.16092613821E+03 -0.51658380084E+03  0.60991612544E+03  0.78767835105E+02 0.  0.
        254    2    1    2    0    0  0.27025407114E+03  0.16092613821E+03 -0.58216997593E+03  0.11216777339E+04  0.90570667049E+03 0.  0.
         23    2    4    4    0    0 -0.41552395308E+02  0.47185681000E+03 -0.17030043673E+03  0.51271070236E+03  0.97440109122E+02 0.  0.
         23    2    4    4    0    0  0.31180646645E+03 -0.31093067179E+03 -0.41186953921E+03  0.60896703156E+03  0.85458604123E+02 0.  0.
          1    1    3    3  502    0 -0.14704062510E+03 -0.12295177713E+03 -0.35245350946E+03  0.40120015112E+03  0.00000000000E+00 0. -1.
         -2    1    3    3    0  502 -0.12321344604E+03 -0.37974361081E+02 -0.16413029138E+03  0.20871597432E+03  0.00000000000E+00 0.  1.
         11    1    5    5    0    0 -0.63502693242E+02  0.20866937471E+03 -0.57799100324E+02  0.22564626296E+03  0.00000000000E+00 0. -1.
        -11    1    5    5    0    0  0.21950297934E+02  0.26318743530E+03 -0.11250133640E+03  0.28706443940E+03  0.00000000000E+00 0.  1.
          4    1    6    6  503    0  0.12522543731E+03 -0.91338000035E+02 -0.10053307138E+03  0.18474560574E+03  0.00000000000E+00 0. -1.
         -4    1    6    6    0  503  0.18658102915E+03 -0.21959267176E+03 -0.31133646783E+03  0.42422142582E+03  0.00000000000E+00 0.  1.
<mgrwt>
<rscale>  0 0.13383413E+04</rscale>
<asrwt>0</asrwt>
<pdfrwt beam="1">  1        1 0.21771905E+00 0.13383413E+04</pdfrwt>
<pdfrwt beam="2">  1       -2 0.48680007E-01 0.13383413E+04</pdfrwt>
<totfact> 0.25748672E+01</totfact>
</mgrwt>
</event>
<event>
12    4  0.4280696E-008  0.1613877E+04  0.7818608E-02  0.8812068E-01
          1   -1    0    0  501    0  0.00000000000E+00  0.00000000000E+00  0.41177441350E+03  0.41177441350E+03  0.00000000000E+00 0. -1.
         -2   -1    0    0    0  501 -0.00000000000E+00 -0.00000000000E+00 -0.15813267265E+04  0.15813267265E+04  0.00000000000E+00 0.  1.
        -24    2    1    2    0    0  0.47557563550E+03  0.54908071355E+02 -0.69610934575E+03  0.84857080602E+03  0.79480250410E+02 0.  0.
        254    2    1    2    0    0 -0.47557563550E+03 -0.54908071355E+02 -0.47344296728E+03  0.11445303340E+04  0.92553463512E+03 0.  0.
         23    2    4    4    0    0 -0.36937106296E+03  0.51837650323E+02  0.21067556259E+03  0.43813896813E+03  0.91975206341E+02 0.  0.
         23    2    4    4    0    0 -0.10620457254E+03 -0.10674572168E+03 -0.68411852987E+03  0.70639136587E+03  0.91085336564E+02 0.  0.
          3    1    3    3  502    0  0.89860422310E+02 -0.13505787097E+02 -0.98507695192E+02  0.13401890835E+03  0.00000000000E+00 0. -1.
         -4    1    3    3    0  502  0.38571521319E+03  0.68413858452E+02 -0.59760165056E+03  0.71455189767E+03  0.00000000000E+00 0.  1.
         11    1    5    5    0    0 -0.35213943769E+03  0.39730703273E+02  0.21774437961E+03  0.41592466530E+03  0.00000000000E+00 0. -1.
        -11    1    5    5    0    0 -0.17231625273E+02  0.12106947050E+02 -0.70688170115E+01  0.22214302834E+02  0.00000000000E+00 0.  1.
          3    1    6    6  503    0 -0.10219396898E+03 -0.46571378579E+02 -0.50692152178E+03  0.51921279822E+03  0.00000000000E+00 0. -1.
         -3    1    6    6    0  503 -0.40106035590E+01 -0.60174343099E+02 -0.17719700810E+03  0.18717856765E+03  0.00000000000E+00 0.  1.
<mgrwt>
<rscale>  0 0.16138772E+04</rscale>
<asrwt>0</asrwt>
<pdfrwt beam="1">  1        1 0.63349910E-01 0.16138772E+04</pdfrwt>
<pdfrwt beam="2">  1       -2 0.24328103E+00 0.16138772E+04</pdfrwt>
<totfact> 0.34189891E+00</totfact>
</mgrwt>
</event>
<event>
12    4  0.4280696E-008  0.2154329E+04  0.7818608E-02  0.8537682E-01
         -2   -1    0    0    0  501 -0.00000000000E+00  0.00000000000E+00  0.68544812835E+03  0.68544812835E+03  0.00000000000E+00 0.  1.
          1   -1    0    0  501    0  0.00000000000E+00 -0.00000000000E+00 -0.16927364204E+04  0.16927364204E+04  0.00000000000E+00 0. -1.
        -24    2    1    2    0    0 -0.20410794263E+03 -0.86199609234E+03 -0.34510662614E+03  0.95406445539E+03  0.80268836923E+02 0.  0.
        254    2    1    2    0    0  0.20410794263E+03  0.86199609234E+03 -0.66218166589E+03  0.14241200933E+04  0.89718234834E+03 0.  0.
         23    2    4    4    0    0 -0.17163657522E+03  0.85843380889E+02  0.12876215309E+03  0.25025574777E+03  0.96021076976E+02 0.  0.
         23    2    4    4    0    0  0.37574451785E+03  0.77615271145E+03 -0.79094381898E+03  0.11738643456E+04  0.93639750370E+02 0.  0.
          3    1    3    3  502    0 -0.10767643633E+03 -0.55754695725E+03 -0.18804066947E+03  0.59817398627E+03  0.00000000000E+00 0. -1.
         -4    1    3    3    0  502 -0.96431506296E+02 -0.30444913509E+03 -0.15706595667E+03  0.35589046911E+03  0.00000000000E+00 0.  1.
         11    1    5    5    0    0 -0.70503064182E+02  0.83643465246E+02  0.90946925445E+02  0.14226121954E+03  0.00000000000E+00 0. -1.
        -11    1    5    5    0    0 -0.10113351104E+03  0.21999156426E+01  0.37815227648E+02  0.10799452822E+03  0.00000000000E+00 0.  1.
          2    1    6    6  503    0  0.23763166289E+03  0.58620258023E+03 -0.57677306093E+03  0.85601953020E+03  0.00000000000E+00 0. -1.
         -2    1    6    6    0  503  0.13811285496E+03  0.18995013122E+03 -0.21417075806E+03  0.31784481538E+03  0.00000000000E+00 0.  1.
<mgrwt>
<rscale>  0 0.21543287E+04</rscale>
<asrwt>0</asrwt>
<pdfrwt beam="1">  1        1 0.26042098E+00 0.21543287E+04</pdfrwt>
<pdfrwt beam="2">  1       -2 0.10545356E+00 0.21543287E+04</pdfrwt>
<totfact> 0.28189047E+00</totfact>
</mgrwt>
</event>
<event>
12    4  0.4280696E-008  0.2876286E+04  0.7818608E-02  0.8279968E-01
         -2   -1    0    0    0  501 -0.00000000000E+00  0.00000000000E+00  0.37155599383E+04  0.37155599383E+04  0.00000000000E+00 0.  1.
          1   -1    0    0  501    0  0.00000000000E+00 -0.00000000000E+00 -0.55664717860E+03  0.55664717860E+03  0.00000000000E+00 0. -1.
        -24    2    1    2    0    0 -0.46852466289E+03 -0.10379712022E+04  0.49938580387E+03  0.12461188491E+04  0.80786314014E+02 0.  0.
        254    2    1    2    0    0  0.46852466289E+03  0.10379712022E+04  0.26595269558E+04  0.30260882678E+04  0.88725813569E+03 0.  0.
         23    2    4    4    0    0  0.32126832997E+03  0.80515782739E+03  0.25817272333E+04  0.27249322054E+04  0.91910553143E+02 0.  0.
         23    2    4    4    0    0  0.14725633292E+03  0.23281337485E+03  0.77799722486E+02  0.30115606241E+03  0.93571801385E+02 0.  0.
          1    1    3    3  502    0 -0.44316499758E+03 -0.93041757137E+03  0.46282007345E+03  0.11297231929E+04  0.00000000000E+00 0. -1.
         -2    1    3    3    0  502 -0.25359665311E+02 -0.10755363087E+03  0.36565730423E+02  0.11639565619E+03  0.00000000000E+00 0.  1.
         11    1    5    5    0    0  0.13248149065E+03  0.29289954652E+03  0.10913165817E+04  0.11376789403E+04  0.00000000000E+00 0.  1.
        -11    1    5    5    0    0  0.18878683932E+03  0.51225828087E+03  0.14904106516E+04  0.15872532650E+04  0.00000000000E+00 0. -1.
          1    1    6    6  503    0  0.55212741890E+02  0.71091193601E+02 -0.18102881240E+02  0.91815679401E+02  0.00000000000E+00 0. -1.
         -1    1    6    6    0  503  0.92043591028E+02  0.16172218124E+03  0.95902603727E+02  0.20934038301E+03  0.00000000000E+00 0.  1.
<mgrwt>
<rscale>  0 0.28762865E+04</rscale>
<asrwt>0</asrwt>
<pdfrwt beam="1">  1        1 0.85638030E-01 0.28762865E+04</pdfrwt>
<pdfrwt beam="2">  1       -2 0.57162459E+00 0.28762865E+04</pdfrwt>
<totfact> 0.19052331E-02</totfact>
</mgrwt>
</event>
<event>
12    4  0.4280696E-008  0.1724260E+04  0.7818608E-02  0.8747648E-01
         -2   -1    0    0    0  501 -0.00000000000E+00  0.00000000000E+00  0.40070908147E+03  0.40070908147E+03  0.00000000000E+00 0.  1.
          1   -1    0    0  501    0  0.00000000000E+00 -0.00000000000E+00 -0.18548816990E+04  0.18548816990E+04  0.00000000000E+00 0. -1.
        -24    2    1    2    0    0 -0.24040381237E+03  0.54890531252E+03 -0.29608874285E+03  0.67312388800E+03  0.79600187490E+02 0.  0.
        254    2    1    2    0    0  0.24040381237E+03 -0.54890531252E+03 -0.11580838747E+04  0.15824668925E+04  0.89663379918E+03 0.  0.
         23    2    4    4    0    0  0.22934568195E+03 -0.26378110207E+03  0.25108227682E+02  0.36219029711E+03  0.91495773563E+02 0.  0.
         23    2    4    4    0    0  0.11058130416E+02 -0.28512421045E+03 -0.11831921024E+04  0.12202765954E+04  0.87825511308E+02 0.  0.
          1    1    3    3  502    0  0.13102893600E+01  0.43266514924E+02 -0.12724596359E+02  0.45117884750E+02  0.00000000000E+00 0. -1.
         -2    1    3    3    0  502 -0.24171410173E+03  0.50563879760E+03 -0.28336414649E+03  0.62800600325E+03  0.00000000000E+00 0.  1.
         11    1    5    5    0    0 -0.89556259297E+00 -0.12286498625E+02  0.17164535446E+02  0.21127739062E+02  0.00000000000E+00 0.  1.
        -11    1    5    5    0    0  0.23024124455E+03 -0.25149460345E+03  0.79436922363E+01  0.34106255804E+03  0.00000000000E+00 0. -1.
          4    1    6    6  503    0  0.32349369909E+02 -0.21749015428E+03 -0.99889925536E+03  0.10228138498E+04  0.00000000000E+00 0. -1.
         -4    1    6    6    0  503 -0.21291239492E+02 -0.67634056167E+02 -0.18429284704E+03  0.19746274561E+03  0.00000000000E+00 0.  1.
<mgrwt>
<rscale>  0 0.17242598E+04</rscale>
<asrwt>0</asrwt>
<pdfrwt beam="1">  1        1 0.28536641E+00 0.17242598E+04</pdfrwt>
<pdfrwt beam="2">  1       -2 0.61647552E-01 0.17242598E+04</pdfrwt>
<totfact> 0.76224595E+00</totfact>
</mgrwt>
</event>
<event>
12    4  0.4280696E-008  0.2732613E+04  0.7818608E-02  0.8324500E-01
          1   -1    0    0  501    0  0.00000000000E+00  0.00000000000E+00  0.21045374613E+04  0.21045374613E+04  0.00000000000E+00 0. -1.
         -2   -1    0    0    0  501 -0.00000000000E+00 -0.00000000000E+00 -0.88703241444E+03  0.88703241444E+03  0.00000000000E+00 0.  1.
        -24    2    1    2    0    0  0.50336678695E+03 -0.92354224040E+03 -0.12848307388E+03  0.10624284135E+04  0.77057391530E+02 0.  0.
        254    2    1    2    0    0 -0.50336678695E+03  0.92354224040E+03  0.13459881208E+04  0.19291414622E+04  0.89643425195E+03 0.  0.
         23    2    4    4    0    0  0.15651833108E+03 -0.10957187417E+02  0.40945940074E+03  0.44791572516E+03  0.91397199448E+02 0.  0.
         23    2    4    4    0    0 -0.65988511804E+03  0.93449942782E+03  0.93652872003E+03  0.14812257371E+04  0.90587477897E+02 0.  0.
          1    1    3    3  502    0  0.64815984397E+02 -0.16846855207E+03 -0.52431529002E+01  0.18058309866E+03  0.00000000000E+00 0. -1.
         -2    1    3    3    0  502  0.43855080255E+03 -0.75507368834E+03 -0.12323992098E+03  0.88184531487E+03  0.00000000000E+00 0.  1.
         11    1    5    5    0    0 -0.17921530169E+01  0.16214794116E+02  0.15642121162E+02  0.22601046770E+02  0.00000000000E+00 0. -1.
        -11    1    5    5    0    0  0.15831048410E+03 -0.27171981533E+02  0.39381727958E+03  0.42531467839E+03  0.00000000000E+00 0.  1.
          3    1    6    6  503    0 -0.50577274065E+02  0.49817122239E+02  0.82926350400E+02  0.10916311607E+03  0.00000000000E+00 0. -1.
         -3    1    6    6    0  503 -0.60930784397E+03  0.88468230558E+03  0.85360236962E+03  0.13720626210E+04  0.00000000000E+00 0.  1.
<mgrwt>
<rscale>  0 0.27326126E+04</rscale>
<asrwt>0</asrwt>
<pdfrwt beam="1">  1        1 0.32377499E+00 0.27326126E+04</pdfrwt>
<pdfrwt beam="2">  1       -2 0.13646653E+00 0.27326126E+04</pdfrwt>
<totfact> 0.74322553E-01</totfact>
</mgrwt>
</event>
<event>
12    4  0.4280696E-008  0.1942342E+04  0.7818608E-02  0.8634063E-01
         -2   -1    0    0    0  501 -0.00000000000E+00  0.00000000000E+00  0.42761964530E+03  0.42761964530E+03  0.00000000000E+00 0.  1.
          1   -1    0    0  501    0  0.00000000000E+00 -0.00000000000E+00 -0.22056350235E+04  0.22056350235E+04  0.00000000000E+00 0. -1.
        -24    2    1    2    0    0 -0.59359809608E+03 -0.47631210574E+03 -0.74305245325E+03  0.10666866037E+04  0.80383086354E+02 0.  0.
        254    2    1    2    0    0  0.59359809608E+03  0.47631210574E+03 -0.10349629250E+04  0.15665680651E+04  0.89652402350E+03 0.  0.
         23    2    4    4    0    0  0.26764749372E+02 -0.22348441374E+03 -0.96928663272E+02  0.26316502245E+03  0.95911564905E+02 0.  0.
         23    2    4    4    0    0  0.56683334671E+03  0.69979651947E+03 -0.93803426171E+03  0.13034030426E+04  0.89084251149E+02 0.  0.
          3    1    3    3  502    0 -0.36639271228E+01 -0.17632060467E+02 -0.18925176238E+02  0.26124245710E+02  0.00000000000E+00 0. -1.
         -4    1    3    3    0  502 -0.58993416896E+03 -0.45868004527E+03 -0.72412727701E+03  0.10405623580E+04  0.00000000000E+00 0.  1.
         11    1    5    5    0    0 -0.31359468537E+02 -0.11170010729E+03 -0.65818986674E+02  0.13338841495E+03  0.00000000000E+00 0. -1.
        -11    1    5    5    0    0  0.58124217909E+02 -0.11178430644E+03 -0.31109676597E+02  0.12977660749E+03  0.00000000000E+00 0.  1.
          3    1    6    6  503    0  0.47456505453E+03  0.55147832860E+03 -0.71468737207E+03  0.10198619405E+04  0.00000000000E+00 0. -1.
         -3    1    6    6    0  503  0.92268292183E+02  0.14831819088E+03 -0.22334688964E+03  0.28354110213E+03  0.00000000000E+00 0.  1.
<mgrwt>
<rscale>  0 0.19423417E+04</rscale>
<asrwt>0</asrwt>
<pdfrwt beam="1">  1        1 0.33932846E+00 0.19423417E+04</pdfrwt>
<pdfrwt beam="2">  1       -2 0.65787639E-01 0.19423417E+04</pdfrwt>
<totfact> 0.37616202E+00</totfact>
</mgrwt>
</event>
<event>
12    4  0.4280696E-008  0.1677121E+04  0.7818608E-02  0.8774522E-01
          1   -1    0    0  501    0  0.00000000000E+00  0.00000000000E+00  0.10347603611E+04  0.10347603611E+04  0.00000000000E+00 0. -1.
         -2   -1    0    0    0  501 -0.00000000000E+00 -0.00000000000E+00 -0.67956209255E+03  0.67956209255E+03  0.00000000000E+00 0.  1.
        -24    2    1    2    0    0  0.30296949919E+03 -0.38590256142E+03 -0.21342733092E+03  0.54085412765E+03  0.79124316494E+02 0.  0.
        254    2    1    2    0    0 -0.30296949919E+03  0.38590256142E+03  0.56862559944E+03  0.11734683260E+04  0.90165488707E+03 0.  0.
         23    2    4    4    0    0 -0.50589472230E+03  0.52052637370E+03  0.54477563911E+03  0.91221875885E+03  0.92116183498E+02 0.  0.
         23    2    4    4    0    0  0.20292522310E+03 -0.13462381227E+03  0.23849960328E+02  0.26124956713E+03  0.91543971489E+02 0.  0.
          1    1    3    3  502    0  0.50320245592E+02 -0.84044692498E+02 -0.12045139501E+02  0.98695100380E+02  0.00000000000E+00 0. -1.
         -2    1    3    3    0  502  0.25264925360E+03 -0.30185786892E+03 -0.20138219142E+03  0.44215902727E+03  0.00000000000E+00 0.  1.
         11    1    5    5    0    0 -0.52972751946E+02  0.21445793652E+02  0.52690441601E+02  0.77732343013E+02  0.00000000000E+00 0.  1.
        -11    1    5    5    0    0 -0.45292197035E+03  0.49908058004E+03  0.49208519751E+03  0.83448641583E+03  0.00000000000E+00 0. -1.
          4    1    6    6  503    0  0.17030700161E+03 -0.14145768011E+03  0.38725166067E+02  0.22475406236E+03  0.00000000000E+00 0. -1.
         -4    1    6    6    0  503  0.32618221489E+02  0.68338678355E+01 -0.14875205738E+02  0.36495504771E+02  0.00000000000E+00 0.  1.
<mgrwt>
<rscale>  0 0.16771212E+04</rscale>
<asrwt>0</asrwt>
<pdfrwt beam="1">  1        1 0.15919390E+00 0.16771212E+04</pdfrwt>
<pdfrwt beam="2">  1       -2 0.10454801E+00 0.16771212E+04</pdfrwt>
<totfact> 0.88275767E+00</totfact>
</mgrwt>
</event>
<event>
12    4  0.4280696E-008  0.1692434E+04  0.7818608E-02  0.8765691E-01
          3   -1    0    0  501    0  0.00000000000E+00  0.00000000000E+00  0.11979256998E+04  0.11979256998E+04  0.00000000000E+00 0. -1.
         -4   -1    0    0    0  501 -0.00000000000E+00 -0.00000000000E+00 -0.59776948911E+03  0.59776948911E+03  0.00000000000E+00 0.  1.
        -24    2    1    2    0    0  0.56975229077E+03 -0.26964698798E+03  0.25111618785E+03  0.68330735753E+03  0.80761587935E+02 0.  0.
        254    2    1    2    0    0 -0.56975229077E+03  0.26964698798E+03  0.34904002288E+03  0.11123878314E+04  0.84749665424E+03 0.  0.
         23    2    4    4    0    0 -0.69874401113E+03 -0.28385416513E+02  0.15160243218E+03  0.72185747910E+03  0.95110450184E+02 0.  0.
         23    2    4    4    0    0  0.12899172036E+03  0.29803240449E+03  0.19743759070E+03  0.39053035231E+03  0.89834157236E+02 0.  0.
          3    1    3    3  502    0  0.46539779098E+03 -0.23639488018E+03  0.23556206766E+03  0.57268414588E+03  0.00000000000E+00 0. -1.
         -4    1    3    3    0  502  0.10435449980E+03 -0.33252107802E+02  0.15554120189E+02  0.11062321165E+03  0.00000000000E+00 0.  1.
         11    1    5    5    0    0 -0.24030518631E+03 -0.22949317318E+02  0.84087823405E+01  0.24154494686E+03  0.00000000000E+00 0. -1.
        -11    1    5    5    0    0 -0.45843882482E+03 -0.54360991948E+01  0.14319364984E+03  0.48031253225E+03  0.00000000000E+00 0.  1.
          1    1    6    6  503    0  0.42342482240E+02  0.95515896650E+02  0.11489835257E+03  0.15529907836E+03  0.00000000000E+00 0. -1.
         -1    1    6    6    0  503  0.86649238116E+02  0.20251650784E+03  0.82539238132E+02  0.23523127395E+03  0.00000000000E+00 0.  1.
<mgrwt>
<rscale>  0 0.16924343E+04</rscale>
<asrwt>0</asrwt>
<pdfrwt beam="1">  1        3 0.18429626E+00 0.16924343E+04</pdfrwt>
<pdfrwt beam="2">  1       -4 0.91964537E-01 0.16924343E+04</pdfrwt>
<totfact> 0.40822882E-01</totfact>
</mgrwt>
</event>
<event>
12    4  0.4280696E-008  0.1771653E+04  0.7818608E-02  0.8721521E-01
          1   -1    0    0  501    0  0.00000000000E+00  0.00000000000E+00  0.23494523809E+04  0.23494523809E+04  0.00000000000E+00 0. -1.
         -2   -1    0    0    0  501 -0.00000000000E+00 -0.00000000000E+00 -0.33398785662E+03  0.33398785662E+03  0.00000000000E+00 0.  1.
        -24    2    1    2    0    0 -0.61713372899E+03  0.17565916998E+03  0.85477943281E+03  0.10716973567E+04  0.78594924348E+02 0.  0.
        254    2    1    2    0    0  0.61713372899E+03 -0.17565916998E+03  0.11606850914E+04  0.16117428808E+04  0.91586846699E+03 0.  0.
         23    2    4    4    0    0  0.58920264768E+03  0.12759543181E+03  0.27216650921E+03  0.66794544956E+03  0.92930945381E+02 0.  0.
         23    2    4    4    0    0  0.27931081316E+02 -0.30325460180E+03  0.88851858222E+03  0.94379743122E+03  0.92438203238E+02 0.  0.
          3    1    3    3  502    0 -0.47408166713E+03  0.13889709763E+03  0.70932008012E+03  0.86439620944E+03  0.00000000000E+00 0. -1.
         -4    1    3    3    0  502 -0.14305206186E+03  0.36762072356E+02  0.14545935269E+03  0.20730114725E+03  0.00000000000E+00 0.  1.
         11    1    5    5    0    0  0.52090335797E+03  0.98792399884E+02  0.26704602334E+03  0.59364452765E+03  0.00000000000E+00 0. -1.
        -11    1    5    5    0    0  0.68299289705E+02  0.28803031929E+02  0.51204858697E+01  0.74300921919E+02  0.00000000000E+00 0.  1.
          1    1    6    6  503    0  0.60449024017E+02 -0.17625230826E+03  0.55467415964E+03  0.58513450081E+03  0.00000000000E+00 0. -1.
         -1    1    6    6    0  503 -0.32517942701E+02 -0.12700229353E+03  0.33384442258E+03  0.35866293040E+03  0.00000000000E+00 0.  1.
<mgrwt>
<rscale>  0 0.17716530E+04</rscale>
<asrwt>0</asrwt>
<pdfrwt beam="1">  1        1 0.36145420E+00 0.17716530E+04</pdfrwt>
<pdfrwt beam="2">  1       -2 0.51382749E-01 0.17716530E+04</pdfrwt>
<totfact> 0.51206583E+00</totfact>
</mgrwt>
</event>
<event>
12    4  0.4280696E-008  0.1477322E+04  0.7818608E-02  0.8899675E-01
          1   -1    0    0  501    0  0.00000000000E+00  0.00000000000E+00  0.18308584283E+04  0.18308584283E+04  0.00000000000E+00 0. -1.
         -2   -1    0    0    0  501 -0.00000000000E+00 -0.00000000000E+00 -0.29801308729E+03  0.29801308729E+03  0.00000000000E+00 0.  1.
        -24    2    1    2    0    0  0.25770873119E+03 -0.29273561243E+02 -0.62896350931E+02  0.27834846321E+03  0.79064432550E+02 0.  0.
        254    2    1    2    0    0 -0.25770873119E+03  0.29273561243E+02  0.15957416919E+04  0.18505230524E+04  0.90042950221E+03 0.  0.
         23    2    4    4    0    0  0.19167161347E+03 -0.26530158204E+03  0.33056693723E+03  0.47240614148E+03  0.82280773435E+02 0.  0.
         23    2    4    4    0    0 -0.44938034466E+03  0.29457514328E+03  0.12651747547E+04  0.13781169109E+04  0.99105251767E+02 0.  0.
          3    1    3    3  502    0  0.16367889894E+03 -0.54103311947E+02 -0.26033162964E+02  0.17434355708E+03  0.00000000000E+00 0. -1.
         -4    1    3    3    0  502  0.94029832253E+02  0.24829750703E+02 -0.36863187967E+02  0.10400490614E+03  0.00000000000E+00 0.  1.
         11    1    5    5    0    0  0.72076699403E+02 -0.41345385988E+02  0.70687017150E+02  0.10909237340E+03  0.00000000000E+00 0. -1.
        -11    1    5    5    0    0  0.11959491407E+03 -0.22395619605E+03  0.25987992008E+03  0.36331376809E+03  0.00000000000E+00 0.  1.
          1    1    6    6  503    0 -0.39145709323E+03  0.21485269619E+03  0.10711712804E+04  0.11605206801E+04  0.00000000000E+00 0. -1.
         -1    1    6    6    0  503 -0.57923251431E+02  0.79722447097E+02  0.19400347429E+03  0.21759623081E+03  0.00000000000E+00 0.  1.
<mgrwt>
<rscale>  0 0.14773216E+04</rscale>
<asrwt>0</asrwt>
<pdfrwt beam="1">  1        1 0.28167052E+00 0.14773216E+04</pdfrwt>
<pdfrwt beam="2">  1       -2 0.45848168E-01 0.14773216E+04</pdfrwt>
<totfact> 0.14900808E+01</totfact>
</mgrwt>
</event>
<event>
12    4  0.4280696E-008  0.1292198E+04  0.7818608E-02  0.9035776E-01
          1   -1    0    0  501    0  0.00000000000E+00  0.00000000000E+00  0.34144875026E+03  0.34144875026E+03  0.00000000000E+00 0. -1.
         -2   -1    0    0    0  501 -0.00000000000E+00 -0.00000000000E+00 -0.12225658936E+04  0.12225658936E+04  0.00000000000E+00 0.  1.
        -24    2    1    2    0    0  0.19598358286E+03 -0.24774919203E+03 -0.34192587312E+03  0.47221151423E+03  0.79253924565E+02 0.  0.
        254    2    1    2    0    0 -0.19598358286E+03  0.24774919203E+03 -0.53919127024E+03  0.10918031297E+04  0.89527516503E+03 0.  0.
         23    2    4    4    0    0 -0.40782221285E+03 -0.14477949104E+03 -0.44275504215E+03  0.62662805437E+03  0.96698670406E+02 0.  0.
         23    2    4    4    0    0  0.21183862999E+03  0.39252868307E+03 -0.96436228097E+02  0.46517507529E+03  0.90186098667E+02 0.  0.
          3    1    3    3  502    0  0.72358380185E+02 -0.77122312245E+02 -0.64605292101E+02  0.12392509833E+03  0.00000000000E+00 0. -1.
         -4    1    3    3    0  502  0.12362520267E+03 -0.17062687978E+03 -0.27732058102E+03  0.34828641590E+03  0.00000000000E+00 0.  1.
         11    1    5    5    0    0 -0.60440281663E+02  0.13049730380E+02 -0.64781052669E+02  0.89553938470E+02  0.00000000000E+00 0. -1.
        -11    1    5    5    0    0 -0.34738193118E+03 -0.15782922142E+03 -0.37797398948E+03  0.53707411590E+03  0.00000000000E+00 0.  1.
          3    1    6    6  503    0  0.87810481262E+02  0.90804288684E+02 -0.49156417841E+02  0.13554502159E+03  0.00000000000E+00 0. -1.
         -3    1    6    6    0  503  0.12402814873E+03  0.30172439439E+03 -0.47279810256E+02  0.32963005370E+03  0.00000000000E+00 0.  1.
<mgrwt>
<rscale>  0 0.12921975E+04</rscale>
<asrwt>0</asrwt>
<pdfrwt beam="1">  1        1 0.52530577E-01 0.12921975E+04</pdfrwt>
<pdfrwt beam="2">  1       -2 0.18808706E+00 0.12921975E+04</pdfrwt>
<totfact> 0.10131906E+01</totfact>
</mgrwt>
</event>
<event>
12    4  0.4280696E-008  0.1426987E+04  0.7818608E-02  0.8934512E-01
         -2   -1    0    0    0  501 -0.00000000000E+00  0.00000000000E+00  0.31915491899E+03  0.31915491899E+03  0.00000000000E+00 0.  1.
          1   -1    0    0  501    0  0.00000000000E+00 -0.00000000000E+00 -0.15950661684E+04  0.15950661684E+04  0.00000000000E+00 0. -1.
        -24    2    1    2    0    0  0.14745462050E+03 -0.38362364324E+03 -0.47510007744E+03  0.63356261049E+03  0.82289325357E+02 0.  0.
        254    2    1    2    0    0 -0.14745462050E+03  0.38362364324E+03 -0.80081117197E+03  0.12806584769E+04  0.91097619977E+03 0.  0.
         23    2    4    4    0    0  0.37841376707E+03  0.17449693967E+03 -0.35563690225E+03  0.55483749601E+03  0.87868536354E+02 0.  0.
         23    2    4    4    0    0 -0.52586838757E+03  0.20912670357E+03 -0.44517426972E+03  0.72582098089E+03  0.91457239632E+02 0.  0.
          3    1    3    3  502    0  0.13274278444E+03 -0.36720586051E+03 -0.46981998483E+03  0.61089410617E+03  0.00000000000E+00 0. -1.
         -4    1    3    3    0  502  0.14711836060E+02 -0.16417782727E+02 -0.52800926145E+01  0.22668504316E+02  0.00000000000E+00 0.  1.
         11    1    5    5    0    0  0.35629432960E+03  0.13580517679E+03 -0.31757365424E+03  0.49622748938E+03  0.00000000000E+00 0. -1.
        -11    1    5    5    0    0  0.22119437467E+02  0.38691762880E+02 -0.38063248012E+02  0.58610006636E+02  0.00000000000E+00 0.  1.
          3    1    6    6  503    0 -0.41408343736E+03  0.20326396377E+03 -0.35453620631E+03  0.58178797998E+03  0.00000000000E+00 0. -1.
         -3    1    6    6    0  503 -0.11178495021E+03  0.58627398001E+01 -0.90638063414E+02  0.14403300090E+03  0.00000000000E+00 0.  1.
<mgrwt>
<rscale>  0 0.14269873E+04</rscale>
<asrwt>0</asrwt>
<pdfrwt beam="1">  1        1 0.24539479E+00 0.14269873E+04</pdfrwt>
<pdfrwt beam="2">  1       -2 0.49100757E-01 0.14269873E+04</pdfrwt>
<totfact> 0.18858064E+01</totfact>
</mgrwt>
</event>
<event>
12    4  0.4280696E-008  0.1380443E+04  0.7818608E-02  0.8968097E-01
         -2   -1    0    0    0  501 -0.00000000000E+00  0.00000000000E+00  0.47152661017E+03  0.47152661017E+03  0.00000000000E+00 0.  1.
          1   -1    0    0  501    0  0.00000000000E+00 -0.00000000000E+00 -0.10103480979E+04  0.10103480979E+04  0.00000000000E+00 0. -1.
        -24    2    1    2    0    0  0.30428651389E+03 -0.19457993842E+03 -0.30200389971E+03  0.47758846873E+03  0.80204457806E+02 0.  0.
        254    2    1    2    0    0 -0.30428651389E+03  0.19457993842E+03 -0.23681758797E+03  0.10042862393E+04  0.90667339516E+03 0.  0.
         23    2    4    4    0    0 -0.38704558183E+03 -0.18978423389E+03  0.12998934145E+03  0.45795433980E+03  0.83681602543E+02 0.  0.
         23    2    4    4    0    0  0.82759067937E+02  0.38436417232E+03 -0.36680692942E+03  0.54633189950E+03  0.96676474122E+02 0.  0.
          3    1    3    3  502    0  0.10458406143E+03 -0.54704640757E+02 -0.14762764637E+03  0.18900885058E+03  0.00000000000E+00 0. -1.
         -4    1    3    3    0  502  0.19970245246E+03 -0.13987529767E+03 -0.15437625335E+03  0.28857961815E+03  0.00000000000E+00 0.  1.
         11    1    5    5    0    0 -0.30029936345E+03 -0.16535091806E+03  0.70552025282E+02  0.34999746008E+03  0.00000000000E+00 0. -1.
        -11    1    5    5    0    0 -0.86746218376E+02 -0.24433315837E+02  0.59437316170E+02  0.10795687972E+03  0.00000000000E+00 0.  1.
          3    1    6    6  503    0  0.87281023939E+02  0.37647762573E+03 -0.37153129748E+03  0.53608663929E+03  0.00000000000E+00 0. -1.
         -3    1    6    6    0  503 -0.45219560023E+01  0.78865465840E+01  0.47243680603E+01  0.10245260205E+02  0.00000000000E+00 0.  1.
<mgrwt>
<rscale>  0 0.13804434E+04</rscale>
<asrwt>0</asrwt>
<pdfrwt beam="1">  1        1 0.15543817E+00 0.13804434E+04</pdfrwt>
<pdfrwt beam="2">  1       -2 0.72542556E-01 0.13804434E+04</pdfrwt>
<totfact> 0.21857475E+01</totfact>
</mgrwt>
</event>
<event>
12    4  0.4280696E-008  0.2227666E+04  0.7818608E-02  0.8507001E-01
          1   -1    0    0  501    0  0.00000000000E+00  0.00000000000E+00  0.10397220911E+04  0.10397220911E+04  0.00000000000E+00 0. -1.
         -2   -1    0    0    0  501 -0.00000000000E+00 -0.00000000000E+00 -0.11932260838E+04  0.11932260838E+04  0.00000000000E+00 0.  1.
        -24    2    1    2    0    0  0.82207196762E+03 -0.38912445244E+03 -0.27599511690E+03  0.95379823079E+03  0.79609051468E+02 0.  0.
        254    2    1    2    0    0 -0.82207196762E+03  0.38912445244E+03  0.12249112414E+03  0.12791499441E+04  0.89106696977E+03 0.  0.
         23    2    4    4    0    0 -0.24134215593E+03  0.17170507009E+02 -0.35209412024E+03  0.43704424355E+03  0.92176671509E+02 0.  0.
         23    2    4    4    0    0 -0.58072981169E+03  0.37195394543E+03  0.47458524438E+03  0.84210570058E+03  0.91181166156E+02 0.  0.
          3    1    3    3  502    0  0.72419233604E+03 -0.34345163913E+03 -0.21538024992E+03  0.82994109433E+03  0.00000000000E+00 0. -1.
         -4    1    3    3    0  502  0.97879631582E+02 -0.45672813303E+02 -0.60614866978E+02  0.12385713646E+03  0.00000000000E+00 0.  1.
         11    1    5    5    0    0 -0.13345422817E+03  0.55278784196E+02 -0.19239561544E+03  0.24058646645E+03  0.00000000000E+00 0.  1.
        -11    1    5    5    0    0 -0.10788792776E+03 -0.38108277186E+02 -0.15969850480E+03  0.19645777710E+03  0.00000000000E+00 0. -1.
          1    1    6    6  503    0 -0.58383897949E+03  0.36907829608E+03  0.47425623418E+03  0.83785781506E+03  0.00000000000E+00 0. -1.
         -1    1    6    6    0  503  0.31091678018E+01  0.28756493511E+01  0.32901019546E+00  0.42478855115E+01  0.00000000000E+00 0.  1.
<mgrwt>
<rscale>  0 0.22276656E+04</rscale>
<asrwt>0</asrwt>
<pdfrwt beam="1">  1        1 0.15995725E+00 0.22276656E+04</pdfrwt>
<pdfrwt beam="2">  1       -2 0.18357324E+00 0.22276656E+04</pdfrwt>
<totfact> 0.19258721E+00</totfact>
</mgrwt>
</event>
<event>
12    4  0.4280696E-008  0.1916571E+04  0.7818608E-02  0.8646652E-01
          1   -1    0    0  501    0  0.00000000000E+00  0.00000000000E+00  0.82477665355E+03  0.82477665355E+03  0.00000000000E+00 0. -1.
         -2   -1    0    0    0  501 -0.00000000000E+00 -0.00000000000E+00 -0.11134053236E+04  0.11134053236E+04  0.00000000000E+00 0.  1.
        -24    2    1    2    0    0  0.25427406114E+03 -0.19522365783E+03  0.56272891516E+03  0.65254368470E+03  0.79886505356E+02 0.  0.
        254    2    1    2    0    0 -0.25427406114E+03  0.19522365783E+03 -0.85135758520E+03  0.12856382924E+04  0.90845390985E+03 0.  0.
         23    2    4    4    0    0  0.30110795631E+03  0.23168487367E+03 -0.43513978608E+03  0.58469262372E+03  0.90415423243E+02 0.  0.
         23    2    4    4    0    0 -0.55538201744E+03 -0.36461215838E+02 -0.41621779911E+03  0.70094566871E+03  0.91153544186E+02 0.  0.
          1    1    3    3  502    0  0.49452963319E+02 -0.73125224305E+02  0.19794605776E+03  0.21673840406E+03  0.00000000000E+00 0. -1.
         -2    1    3    3    0  502  0.20482109782E+03 -0.12209843352E+03  0.36478285740E+03  0.43580528064E+03  0.00000000000E+00 0.  1.
         11    1    5    5    0    0  0.97520531741E+01  0.16036153319E+02 -0.55005490798E+00  0.18776669427E+02  0.00000000000E+00 0.  1.
        -11    1    5    5    0    0  0.29135590313E+03  0.21564872035E+03 -0.43458973118E+03  0.56591595429E+03  0.00000000000E+00 0. -1.
          3    1    6    6  503    0 -0.50672549451E+03 -0.82662492084E+01 -0.36175482637E+03  0.62266010958E+03  0.00000000000E+00 0. -1.
         -3    1    6    6    0  503 -0.48656522933E+02 -0.28194966629E+02 -0.54462972742E+02  0.78285559123E+02  0.00000000000E+00 0.  1.
<mgrwt>
<rscale>  0 0.19165706E+04</rscale>
<asrwt>0</asrwt>
<pdfrwt beam="1">  1        1 0.12688872E+00 0.19165706E+04</pdfrwt>
<pdfrwt beam="2">  1       -2 0.17129313E+00 0.19165706E+04</pdfrwt>
<totfact> 0.35931829E+00</totfact>
</mgrwt>
</event>
<event>
12    4  0.4280696E-008  0.2938788E+04  0.7818608E-02  0.8261430E-01
          1   -1    0    0  501    0  0.00000000000E+00  0.00000000000E+00  0.24849068363E+04  0.24849068363E+04  0.00000000000E+00 0. -1.
         -2   -1    0    0    0  501 -0.00000000000E+00 -0.00000000000E+00 -0.86889327402E+03  0.86889327402E+03  0.00000000000E+00 0.  1.
        -24    2    1    2    0    0 -0.78303110492E+03 -0.64901802718E+03  0.17113358377E+04  0.19922789943E+04  0.78378126794E+02 0.  0.
        254    2    1    2    0    0  0.78303110492E+03  0.64901802718E+03 -0.95322275410E+02  0.13615211161E+04  0.90016182012E+03 0.  0.
         23    2    4    4    0    0  0.29310519650E+02  0.41153782358E+03  0.25262290421E+03  0.49306566128E+03  0.95251917593E+02 0.  0.
         23    2    4    4    0    0  0.75372058527E+03  0.23748020360E+03 -0.34794517962E+03  0.86845545477E+03  0.93045478896E+02 0.  0.
          3    1    3    3  502    0 -0.63680087262E+03 -0.56535078507E+03  0.14231763280E+04  0.16584835610E+04  0.00000000000E+00 0. -1.
         -4    1    3    3    0  502 -0.14623023230E+03 -0.83667242104E+02  0.28815950969E+03  0.33379543326E+03  0.00000000000E+00 0.  1.
         11    1    5    5    0    0  0.23659782676E+02  0.27647123195E+02  0.63577010165E+01  0.36940074438E+02  0.00000000000E+00 0. -1.
        -11    1    5    5    0    0  0.56507369741E+01  0.38389070038E+03  0.24626520320E+03  0.45612558684E+03  0.00000000000E+00 0.  1.
          4    1    6    6  503    0  0.49025049592E+03  0.15758288767E+03 -0.27431845956E+03  0.58346253735E+03  0.00000000000E+00 0. -1.
         -4    1    6    6    0  503  0.26347008934E+03  0.79897315926E+02 -0.73626720063E+02  0.28499291742E+03  0.00000000000E+00 0.  1.
<mgrwt>
<rscale>  0 0.29387881E+04</rscale>
<asrwt>0</asrwt>
<pdfrwt beam="1">  1        1 0.38229336E+00 0.29387881E+04</pdfrwt>
<pdfrwt beam="2">  1       -2 0.13367589E+00 0.29387881E+04</pdfrwt>
<totfact> 0.42241906E-01</totfact>
</mgrwt>
</event>
<event>
12    4  0.4280696E-008  0.1392567E+04  0.7818608E-02  0.8959217E-01
         -2   -1    0    0    0  501 -0.00000000000E+00  0.00000000000E+00  0.26422538963E+03  0.26422538963E+03  0.00000000000E+00 0.  1.
          1   -1    0    0  501    0  0.00000000000E+00 -0.00000000000E+00 -0.18348371448E+04  0.18348371448E+04  0.00000000000E+00 0. -1.
        -24    2    1    2    0    0  0.20608075176E+03 -0.21022957241E+03 -0.72452625783E+02  0.31346130554E+03  0.79642060036E+02 0.  0.
        254    2    1    2    0    0 -0.20608075176E+03  0.21022957241E+03 -0.14981591294E+04  0.17856012289E+04  0.92586458098E+03 0.  0.
         23    2    4    4    0    0  0.18369988054E+03 -0.91629139058E+02 -0.23297282505E+02  0.22791740428E+03  0.96239464696E+02 0.  0.
         23    2    4    4    0    0 -0.38978063231E+03  0.30185871147E+03 -0.14748618469E+04  0.15576838247E+04  0.90076673281E+02 0.  0.
          1    1    3    3  502    0  0.52175018596E+02 -0.78915919378E+02 -0.57251240508E+02  0.11057874767E+03  0.00000000000E+00 0. -1.
         -2    1    3    3    0  502  0.15390573317E+03 -0.13131365303E+03 -0.15201385275E+02  0.20288255787E+03  0.00000000000E+00 0.  1.
         11    1    5    5    0    0  0.18786331310E+03 -0.82268915181E+02 -0.39394721460E+02  0.20883664164E+03  0.00000000000E+00 0.  1.
        -11    1    5    5    0    0 -0.41634325603E+01 -0.93602238772E+01  0.16097438955E+02  0.19080762632E+02  0.00000000000E+00 0. -1.
          4    1    6    6  503    0 -0.20302870001E+03  0.21317686506E+03 -0.85766779989E+03  0.90678502623E+03  0.00000000000E+00 0. -1.
         -4    1    6    6    0  503 -0.18675193229E+03  0.88681846408E+02 -0.61719404704E+03  0.65089879843E+03  0.00000000000E+00 0.  1.
<mgrwt>
<rscale>  0 0.13925668E+04</rscale>
<asrwt>0</asrwt>
<pdfrwt beam="1">  1        1 0.28228264E+00 0.13925668E+04</pdfrwt>
<pdfrwt beam="2">  1       -2 0.40650060E-01 0.13925668E+04</pdfrwt>
<totfact> 0.18938836E+01</totfact>
</mgrwt>
</event>
<event>
12    4  0.4280696E-008  0.1359624E+04  0.7818608E-02  0.8983575E-01
          1   -1    0    0  501    0  0.00000000000E+00  0.00000000000E+00  0.70163642214E+03  0.70163642214E+03  0.00000000000E+00 0. -1.
         -2   -1    0    0    0  501 -0.00000000000E+00 -0.00000000000E+00 -0.65866663186E+03  0.65866663186E+03  0.00000000000E+00 0.  1.
        -24    2    1    2    0    0  0.30702483264E+03  0.17388985953E+03  0.63113218258E+02  0.36682579888E+03  0.77948427195E+02 0.  0.
        254    2    1    2    0    0 -0.30702483264E+03 -0.17388985953E+03 -0.20143427977E+02  0.99347725512E+03  0.92848767771E+03 0.  0.
         23    2    4    4    0    0 -0.60026493838E+03 -0.96058881606E+02  0.15147474983E+03  0.63307258313E+03  0.91054877354E+02 0.  0.
         23    2    4    4    0    0  0.29324010574E+03 -0.77830977922E+02 -0.17161817780E+03  0.36040467200E+03  0.91604082370E+02 0.  0.
          1    1    3    3  502    0  0.13425296518E+03  0.11372684284E+03  0.52312659654E+02  0.18355998421E+03  0.00000000000E+00 0. -1.
         -2    1    3    3    0  502  0.17277186746E+03  0.60163016690E+02  0.10800558604E+02  0.18326581467E+03  0.00000000000E+00 0.  1.
         11    1    5    5    0    0 -0.43553579543E+03 -0.10682650677E+03  0.12781805814E+03  0.46630546602E+03  0.00000000000E+00 0.  1.
        -11    1    5    5    0    0 -0.16472914294E+03  0.10767625161E+02  0.23656691684E+02  0.16676711711E+03  0.00000000000E+00 0. -1.
          3    1    6    6  503    0  0.13151766015E+03 -0.62570948761E+01 -0.33102870733E+02  0.13576393564E+03  0.00000000000E+00 0. -1.
         -3    1    6    6    0  503  0.16172244559E+03 -0.71573883046E+02 -0.13851530707E+03  0.22464073636E+03  0.00000000000E+00 0.  1.
<mgrwt>
<rscale>  0 0.13596242E+04</rscale>
<asrwt>0</asrwt>
<pdfrwt beam="1">  1        1 0.10794406E+00 0.13596242E+04</pdfrwt>
<pdfrwt beam="2">  1       -2 0.10133333E+00 0.13596242E+04</pdfrwt>
<totfact> 0.18610206E+01</totfact>
</mgrwt>
</event>
<event>
12    4  0.4280696E-008  0.2497948E+04  0.7818608E-02  0.8403717E-01
          1   -1    0    0  501    0  0.00000000000E+00  0.00000000000E+00  0.92848551561E+03  0.92848551561E+03  0.00000000000E+00 0. -1.
         -2   -1    0    0    0  501 -0.00000000000E+00 -0.00000000000E+00 -0.16800868405E+04  0.16800868405E+04  0.00000000000E+00 0.  1.
        -24    2    1    2    0    0 -0.71783726504E+03  0.55064589264E+03 -0.94355636144E+03  0.13096479611E+04  0.79861985640E+02 0.  0.
        254    2    1    2    0    0  0.71783726504E+03 -0.55064589264E+03  0.19195503657E+03  0.12989243949E+04  0.91206173559E+03 0.  0.
         23    2    4    4    0    0  0.26258768616E+03 -0.69839248999E+03 -0.52844557739E+02  0.75339917270E+03  0.90074431186E+02 0.  0.
         23    2    4    4    0    0  0.45524957889E+03  0.14774659735E+03  0.24479959431E+03  0.54552522224E+03  0.92680583834E+02 0.  0.
          3    1    3    3  502    0 -0.66780268532E+02  0.75644359658E+02 -0.83153046225E+02  0.13075206503E+03  0.00000000000E+00 0. -1.
         -4    1    3    3    0  502 -0.65105699651E+03  0.47500153298E+03 -0.86040331521E+03  0.11788958961E+04  0.00000000000E+00 0.  1.
         11    1    5    5    0    0  0.14314531894E+03 -0.26533978655E+03 -0.38644999094E+01  0.30151404448E+03  0.00000000000E+00 0.  1.
        -11    1    5    5    0    0  0.11944236722E+03 -0.43305270343E+03 -0.48980057830E+02  0.45188512822E+03  0.00000000000E+00 0. -1.
          4    1    6    6  503    0  0.57379468054E+02 -0.39252184346E+01  0.54147135111E+02  0.78991916894E+02  0.00000000000E+00 0.  1.
         -4    1    6    6    0  503  0.39787011083E+03  0.15167181578E+03  0.19065245920E+03  0.46653330534E+03  0.00000000000E+00 0. -1.
<mgrwt>
<rscale>  0 0.24979482E+04</rscale>
<asrwt>0</asrwt>
<pdfrwt beam="1">  1        1 0.14284393E+00 0.24979482E+04</pdfrwt>
<pdfrwt beam="2">  1       -2 0.25847489E+00 0.24979482E+04</pdfrwt>
<totfact> 0.76616437E-01</totfact>
</mgrwt>
</event>
<event>
12    4  0.4280696E-008  0.1687022E+04  0.7818608E-02  0.8768801E-01
          1   -1    0    0  501    0  0.00000000000E+00  0.00000000000E+00  0.81244931389E+03  0.81244931389E+03  0.00000000000E+00 0. -1.
         -2   -1    0    0    0  501 -0.00000000000E+00 -0.00000000000E+00 -0.87576001871E+03  0.87576001871E+03  0.00000000000E+00 0.  1.
        -24    2    1    2    0    0  0.50486958302E+03 -0.23443579620E+03  0.19599558590E+03  0.59554186173E+03  0.80015004703E+02 0.  0.
        254    2    1    2    0    0 -0.50486958302E+03  0.23443579620E+03 -0.25930629071E+03  0.10926674709E+04  0.90378593213E+03 0.  0.
         23    2    4    4    0    0 -0.62488784914E+03  0.78639324323E+02  0.12746983321E+03  0.64923217309E+03  0.92654675367E+02 0.  0.
         23    2    4    4    0    0  0.12001826612E+03  0.15579647188E+03 -0.38677612392E+03  0.44343529779E+03  0.91444892898E+02 0.  0.
          1    1    3    3  502    0  0.32888272065E+03 -0.17102737884E+03  0.93769447154E+02  0.38237013151E+03  0.00000000000E+00 0. -1.
         -2    1    3    3    0  502  0.17598686237E+03 -0.63408417363E+02  0.10222613874E+03  0.21317173021E+03  0.00000000000E+00 0.  1.
         11    1    5    5    0    0 -0.33504183113E+03 -0.29361978792E+01  0.79099867059E+02  0.34426507060E+03  0.00000000000E+00 0. -1.
        -11    1    5    5    0    0 -0.28984601801E+03  0.81575522202E+02  0.48369966152E+02  0.30496710249E+03  0.00000000000E+00 0.  1.
          1    1    6    6  503    0  0.89941163315E+02  0.16189016837E+03 -0.31559762858E+03  0.36592308295E+03  0.00000000000E+00 0. -1.
         -1    1    6    6    0  503  0.30077102802E+02 -0.60936964847E+01 -0.71178495342E+02  0.77512214837E+02  0.00000000000E+00 0.  1.
<mgrwt>
<rscale>  0 0.16870218E+04</rscale>
<asrwt>0</asrwt>
<pdfrwt beam="1">  1        1 0.12499220E+00 0.16870218E+04</pdfrwt>
<pdfrwt beam="2">  1       -2 0.13473231E+00 0.16870218E+04</pdfrwt>
<totfact> 0.71344288E+00</totfact>
</mgrwt>
</event>
<event>
12    4  0.4280696E-008  0.1837014E+04  0.7818608E-02  0.8686860E-01
         -2   -1    0    0    0  501 -0.00000000000E+00  0.00000000000E+00  0.96923143874E+03  0.96923143874E+03  0.00000000000E+00 0.  1.
          1   -1    0    0  501    0  0.00000000000E+00 -0.00000000000E+00 -0.87043752118E+03  0.87043752118E+03  0.00000000000E+00 0. -1.
        -24    2    1    2    0    0 -0.29834798292E+03 -0.22716636922E+03  0.63138921782E+03  0.73852632714E+03  0.78439233048E+02 0.  0.
        254    2    1    2    0    0  0.29834798292E+03  0.22716636922E+03 -0.53259530025E+03  0.11011426328E+04  0.88782952511E+03 0.  0.
         23    2    4    4    0    0  0.42875740276E+03 -0.27201853124E+02 -0.64523139179E+03  0.78057115483E+03  0.91623837320E+02 0.  0.
         23    2    4    4    0    0 -0.13040941984E+03  0.25436822234E+03  0.11263609153E+03  0.32057147795E+03  0.91484283005E+02 0.  0.
          3    1    3    3  502    0 -0.56691046626E+02 -0.63172680378E+02  0.92182824654E+02  0.12530896007E+03  0.00000000000E+00 0. -1.
         -4    1    3    3    0  502 -0.24165693629E+03 -0.16399368884E+03  0.53920639316E+03  0.61321736706E+03  0.00000000000E+00 0.  1.
         11    1    5    5    0    0  0.20769258063E+03 -0.57873151506E+02 -0.33555067442E+03  0.39884804728E+03  0.00000000000E+00 0.  1.
        -11    1    5    5    0    0  0.22106482213E+03  0.30671298382E+02 -0.30968071737E+03  0.38172310755E+03  0.00000000000E+00 0. -1.
          2    1    6    6  503    0 -0.90425527944E+02  0.78607086758E+02  0.41730155633E+02  0.12687496239E+03  0.00000000000E+00 0. -1.
         -2    1    6    6    0  503 -0.39983891899E+02  0.17576113559E+03  0.70905935901E+02  0.19369651556E+03  0.00000000000E+00 0.  1.
<mgrwt>
<rscale>  0 0.18370143E+04</rscale>
<asrwt>0</asrwt>
<pdfrwt beam="1">  1        1 0.13391346E+00 0.18370143E+04</pdfrwt>
<pdfrwt beam="2">  1       -2 0.14911253E+00 0.18370143E+04</pdfrwt>
<totfact> 0.48284615E+00</totfact>
</mgrwt>
</event>
<event>
12    4  0.4280696E-008  0.2127322E+04  0.7818608E-02  0.8549302E-01
          1   -1    0    0  501    0  0.00000000000E+00  0.00000000000E+00  0.22480540212E+04  0.22480540212E+04  0.00000000000E+00 0. -1.
         -2   -1    0    0    0  501 -0.00000000000E+00 -0.00000000000E+00 -0.50326853675E+03  0.50326853675E+03  0.00000000000E+00 0.  1.
        -24    2    1    2    0    0  0.48111372607E+02  0.52742685542E+03 -0.17860808159E+03  0.56457308093E+03  0.79675121013E+02 0.  0.
        254    2    1    2    0    0 -0.48111372607E+02 -0.52742685542E+03  0.19233935660E+04  0.21867494770E+04  0.89550916988E+03 0.  0.
         23    2    4    4    0    0 -0.40294337495E+01 -0.47062962109E+02 -0.77007299184E+02  0.12695732569E+03  0.89201343487E+02 0.  0.
         23    2    4    4    0    0 -0.44081938858E+02 -0.48036389331E+03  0.20004008652E+04  0.20597921513E+04  0.91909726036E+02 0.  0.
          1    1    3    3  502    0 -0.98565561344E+01  0.15768798960E+02 -0.16128644931E+02  0.24615846659E+02  0.00000000000E+00 0. -1.
         -2    1    3    3    0  502  0.57967928742E+02  0.51165805646E+03 -0.16247943666E+03  0.53995723427E+03  0.00000000000E+00 0.  1.
         11    1    5    5    0    0 -0.36112465944E+02 -0.12603240112E+02 -0.18789290174E+01  0.38294676289E+02  0.00000000000E+00 0. -1.
        -11    1    5    5    0    0  0.32083032194E+02 -0.34459721996E+02 -0.75128370167E+02  0.88662649400E+02  0.00000000000E+00 0.  1.
          1    1    6    6  503    0  0.21529680162E+02 -0.36908899580E+02  0.16609580795E+03  0.17150396909E+03  0.00000000000E+00 0. -1.
         -1    1    6    6    0  503 -0.65611619020E+02 -0.44345499373E+03  0.18343050573E+04  0.18882881822E+04  0.00000000000E+00 0.  1.
<mgrwt>
<rscale>  0 0.21273221E+04</rscale>
<asrwt>0</asrwt>
<pdfrwt beam="1">  1        1 0.34585446E+00 0.21273221E+04</pdfrwt>
<pdfrwt beam="2">  1       -2 0.77425930E-01 0.21273221E+04</pdfrwt>
<totfact> 0.24219321E+00</totfact>
</mgrwt>
</event>
<event>
12    4  0.4280696E-008  0.1530988E+04  0.7818608E-02  0.8864104E-01
         -2   -1    0    0    0  501 -0.00000000000E+00  0.00000000000E+00  0.64379219565E+03  0.64379219565E+03  0.00000000000E+00 0.  1.
          1   -1    0    0  501    0  0.00000000000E+00 -0.00000000000E+00 -0.91020183913E+03  0.91020183913E+03  0.00000000000E+00 0. -1.
        -24    2    1    2    0    0  0.21926290119E+03 -0.36487655923E+03 -0.34792900514E+03  0.55538607724E+03  0.78663707425E+02 0.  0.
        254    2    1    2    0    0 -0.21926290119E+03  0.36487655923E+03  0.81519361663E+02  0.99860795753E+03  0.89964510959E+03 0.  0.
         23    2    4    4    0    0  0.55062819005E+02  0.29437851155E+03  0.43556096972E+03  0.53624497111E+03  0.90303314455E+02 0.  0.
         23    2    4    4    0    0 -0.27432572019E+03  0.70498047680E+02 -0.35404160805E+03  0.46236298643E+03  0.90606266331E+02 0.  0.
          1    1    3    3  502    0  0.13805168355E+03 -0.25610655008E+03 -0.19169350700E+03  0.34841818689E+03  0.00000000000E+00 0. -1.
         -2    1    3    3    0  502  0.81211217641E+02 -0.10877000914E+03 -0.15623549814E+03  0.20696789036E+03  0.00000000000E+00 0.  1.
         11    1    5    5    0    0  0.74057821712E+02  0.22833076627E+03  0.29959087227E+03  0.38389346247E+03  0.00000000000E+00 0. -1.
        -11    1    5    5    0    0 -0.18995002707E+02  0.66047745280E+02  0.13597009745E+03  0.15235150864E+03  0.00000000000E+00 0.  1.
          1    1    6    6  503    0 -0.19063117346E+03  0.78540786981E+01 -0.25390418195E+03  0.31759921987E+03  0.00000000000E+00 0. -1.
         -1    1    6    6    0  503 -0.83694546730E+02  0.62643968982E+02 -0.10013742610E+03  0.14476376656E+03  0.00000000000E+00 0.  1.
<mgrwt>
<rscale>  0 0.15309877E+04</rscale>
<asrwt>0</asrwt>
<pdfrwt beam="1">  1        1 0.14003105E+00 0.15309877E+04</pdfrwt>
<pdfrwt beam="2">  1       -2 0.99044954E-01 0.15309877E+04</pdfrwt>
<totfact> 0.12755283E+01</totfact>
</mgrwt>
</event>
<event>
12    4  0.4280696E-008  0.2142311E+04  0.7818608E-02  0.8542831E-01
         -2   -1    0    0    0  501 -0.00000000000E+00  0.00000000000E+00  0.14963151467E+04  0.14963151467E+04  0.00000000000E+00 0.  1.
          1   -1    0    0  501    0  0.00000000000E+00 -0.00000000000E+00 -0.76679990274E+03  0.76679990274E+03  0.00000000000E+00 0. -1.
        -24    2    1    2    0    0  0.57010311729E+03 -0.20086974874E+02 -0.40606982660E+03  0.70593753730E+03  0.89632871133E+02 0.  0.
        254    2    1    2    0    0 -0.57010311729E+03  0.20086974874E+02  0.11355850705E+04  0.15571775121E+04  0.89990405093E+03 0.  0.
         23    2    4    4    0    0 -0.50368543086E+03  0.33503408174E+03  0.35365920266E+03  0.70666827784E+03  0.91424143895E+02 0.  0.
         23    2    4    4    0    0 -0.66417686426E+02 -0.31494710686E+03  0.78192586785E+03  0.85050923425E+03  0.91405172379E+02 0.  0.
          3    1    3    3  502    0  0.10173057901E+03  0.83604419466E+01 -0.11495725463E+03  0.15373411491E+03  0.00000000000E+00 0. -1.
         -4    1    3    3    0  502  0.46837253828E+03 -0.28447416821E+02 -0.29111257197E+03  0.55220342239E+03  0.00000000000E+00 0.  1.
         11    1    5    5    0    0 -0.21818687835E+02  0.42594756578E+02  0.33602711816E+02  0.58476582220E+02  0.00000000000E+00 0. -1.
        -11    1    5    5    0    0 -0.48186674303E+03  0.29243932516E+03  0.32005649085E+03  0.64819169562E+03  0.00000000000E+00 0.  1.
          4    1    6    6  503    0 -0.78541376330E+02 -0.31130408634E+03  0.76233540416E+03  0.82718453225E+03  0.00000000000E+00 0.  1.
         -4    1    6    6    0  503  0.12123689904E+02 -0.36430205176E+01  0.19590463696E+02  0.23324701996E+02  0.00000000000E+00 0. -1.
<mgrwt>
<rscale>  0 0.21423112E+04</rscale>
<asrwt>0</asrwt>
<pdfrwt beam="1">  1        1 0.11796922E+00 0.21423112E+04</pdfrwt>
<pdfrwt beam="2">  1       -2 0.23020233E+00 0.21423112E+04</pdfrwt>
<totfact> 0.16186353E+00</totfact>
</mgrwt>
</event>
<event>
12    4  0.4280696E-008  0.4550138E+04  0.7818608E-02  0.7901917E-01
          1   -1    0    0  501    0  0.00000000000E+00  0.00000000000E+00  0.22473648261E+04  0.22473648261E+04  0.00000000000E+00 0. -1.
         -2   -1    0    0    0  501 -0.00000000000E+00 -0.00000000000E+00 -0.23031150552E+04  0.23031150552E+04  0.00000000000E+00 0.  1.
        -24    2    1    2    0    0 -0.14866974244E+04 -0.13363526028E+04 -0.90464600774E+03  0.21957987807E+04  0.83906943573E+02 0.  0.
        254    2    1    2    0    0  0.14866974244E+04  0.13363526028E+04  0.84889577862E+03  0.23546811006E+04  0.90983049619E+03 0.  0.
         23    2    4    4    0    0  0.71806906106E+03  0.41393461782E+03  0.79018888929E+03  0.11490368257E+04  0.94456877927E+02 0.  0.
         23    2    4    4    0    0  0.76862836338E+03  0.92241798502E+03  0.58706889333E+02  0.12056442749E+04  0.92125559710E+02 0.  0.
          3    1    3    3  502    0 -0.14830143163E+03 -0.13772714335E+03 -0.11979650574E+03  0.23518776207E+03  0.00000000000E+00 0. -1.
         -4    1    3    3    0  502 -0.13383959928E+04 -0.11986254595E+04 -0.78484950200E+03  0.19606110187E+04  0.00000000000E+00 0.  1.
         11    1    5    5    0    0  0.26436330741E+03  0.20082032097E+03  0.34177379310E+03  0.47647254409E+03  0.00000000000E+00 0. -1.
        -11    1    5    5    0    0  0.45370575364E+03  0.21311429685E+03  0.44841509618E+03  0.67256428161E+03  0.00000000000E+00 0.  1.
          4    1    6    6  503    0  0.35884537261E+03  0.39261938026E+03 -0.12794150779E+02  0.53205607739E+03  0.00000000000E+00 0. -1.
         -4    1    6    6    0  503  0.40978299077E+03  0.52979860476E+03  0.71501040112E+02  0.67358819754E+03  0.00000000000E+00 0.  1.
<mgrwt>
<rscale>  0 0.45501384E+04</rscale>
<asrwt>0</asrwt>
<pdfrwt beam="1">  1        1 0.34574844E+00 0.45501384E+04</pdfrwt>
<pdfrwt beam="2">  1       -2 0.35432539E+00 0.45501384E+04</pdfrwt>
<totfact> 0.19432648E-02</totfact>
</mgrwt>
</event>
<event>
12    4  0.4280696E-008  0.2032784E+04  0.7818608E-02  0.8591445E-01
          1   -1    0    0  501    0  0.00000000000E+00  0.00000000000E+00  0.16204331345E+04  0.16204331345E+04  0.00000000000E+00 0. -1.
         -2   -1    0    0    0  501 -0.00000000000E+00 -0.00000000000E+00 -0.63751653660E+03  0.63751653660E+03  0.00000000000E+00 0.  1.
        -24    2    1    2    0    0  0.16881432307E+03  0.79546899557E+03  0.24384457332E+03  0.85265963764E+03  0.79366763404E+02 0.  0.
        254    2    1    2    0    0 -0.16881432307E+03 -0.79546899557E+03  0.73907202454E+03  0.14052900334E+04  0.87598140503E+03 0.  0.
         23    2    4    4    0    0  0.21165917293E+03 -0.46470046468E+03  0.72633692406E+03  0.89260297331E+03  0.91807479762E+02 0.  0.
         23    2    4    4    0    0 -0.38047349600E+03 -0.33076853089E+03  0.12735100485E+02  0.51268706011E+03  0.92292668342E+02 0.  0.
          3    1    3    3  502    0  0.39365447618E+02  0.14651135359E+03  0.14924194531E+02  0.15243997763E+03  0.00000000000E+00 0. -1.
         -4    1    3    3    0  502  0.12944887545E+03  0.64895764198E+03  0.22892037878E+03  0.70021966001E+03  0.00000000000E+00 0.  1.
         11    1    5    5    0    0  0.16456145248E+03 -0.28589415414E+03  0.51724553512E+03  0.61348095538E+03  0.00000000000E+00 0. -1.
        -11    1    5    5    0    0  0.47097720455E+02 -0.17880631055E+03  0.20909138894E+03  0.27912201793E+03  0.00000000000E+00 0.  1.
          4    1    6    6  503    0 -0.22111549893E+03 -0.24579608363E+03  0.25771068248E+02  0.33162015402E+03  0.00000000000E+00 0. -1.
         -4    1    6    6    0  503 -0.15935799707E+03 -0.84972447262E+02 -0.13035967763E+02  0.18106690608E+03  0.00000000000E+00 0.  1.
<mgrwt>
<rscale>  0 0.20327842E+04</rscale>
<asrwt>0</asrwt>
<pdfrwt beam="1">  1        1 0.24929740E+00 0.20327842E+04</pdfrwt>
<pdfrwt beam="2">  1       -2 0.98079468E-01 0.20327842E+04</pdfrwt>
<totfact> 0.37940268E+00</totfact>
</mgrwt>
</event>
<event>
12    4  0.4280696E-008  0.1633946E+04  0.7818608E-02  0.8799961E-01
         -2   -1    0    0    0  501 -0.00000000000E+00  0.00000000000E+00  0.46407016611E+03  0.46407016611E+03  0.00000000000E+00 0.  1.
          1   -1    0    0  501    0  0.00000000000E+00 -0.00000000000E+00 -0.14382412183E+04  0.14382412183E+04  0.00000000000E+00 0. -1.
        -24    2    1    2    0    0  0.44234981168E+03  0.33885821849E+03 -0.21711531410E+03  0.60364302731E+03  0.82143756142E+02 0.  0.
        254    2    1    2    0    0 -0.44234981168E+03 -0.33885821849E+03 -0.75705573809E+03  0.12986683571E+04  0.89605126139E+03 0.  0.
         23    2    4    4    0    0  0.19952949549E+03  0.28719504729E+02  0.21403732719E+02  0.22124931692E+03  0.88635833283E+02 0.  0.
         23    2    4    4    0    0 -0.64187930717E+03 -0.36757772322E+03 -0.77845947081E+03  0.10774190402E+04  0.87807817890E+02 0.  0.
          1    1    3    3  502    0  0.25103247079E+02  0.28582161116E+02 -0.37792122951E+02  0.53622360122E+02  0.00000000000E+00 0. -1.
         -2    1    3    3    0  502  0.41724656460E+03  0.31027605738E+03 -0.17932319115E+03  0.55002066719E+03  0.00000000000E+00 0.  1.
         11    1    5    5    0    0  0.13480659114E+03  0.14578087128E+02  0.55772977337E+02  0.14661501506E+03  0.00000000000E+00 0. -1.
        -11    1    5    5    0    0  0.64722904350E+02  0.14141417601E+02 -0.34369244618E+02  0.74634301865E+02  0.00000000000E+00 0.  1.
          2    1    6    6  503    0 -0.25196149902E+03 -0.11471910088E+03 -0.24252349894E+03  0.36805260036E+03  0.00000000000E+00 0.  1.
         -2    1    6    6    0  503 -0.38991780814E+03 -0.25285862235E+03 -0.53593597187E+03  0.70936643982E+03  0.00000000000E+00 0. -1.
<mgrwt>
<rscale>  0 0.16339459E+04</rscale>
<asrwt>0</asrwt>
<pdfrwt beam="1">  1        1 0.22126788E+00 0.16339459E+04</pdfrwt>
<pdfrwt beam="2">  1       -2 0.71395410E-01 0.16339459E+04</pdfrwt>
<totfact> 0.10795233E+01</totfact>
</mgrwt>
</event>
<event>
12    4  0.4280696E-008  0.1564330E+04  0.7818608E-02  0.8842766E-01
         -2   -1    0    0    0  501 -0.00000000000E+00  0.00000000000E+00  0.57904486698E+03  0.57904486698E+03  0.00000000000E+00 0.  1.
          1   -1    0    0  501    0  0.00000000000E+00 -0.00000000000E+00 -0.10565362832E+04  0.10565362832E+04  0.00000000000E+00 0. -1.
        -24    2    1    2    0    0 -0.25637969412E+03 -0.22087712695E+03 -0.57058408583E+03  0.66804952446E+03  0.78782709785E+02 0.  0.
        254    2    1    2    0    0  0.25637969412E+03  0.22087712695E+03  0.93092669608E+02  0.96753162573E+03  0.90162849826E+03 0.  0.
         23    2    4    4    0    0 -0.18358449650E+03  0.14836063052E+03 -0.28151704953E+03  0.37782923294E+03  0.88254949135E+02 0.  0.
         23    2    4    4    0    0  0.43996419062E+03  0.72516496435E+02  0.37460971913E+03  0.58970239279E+03  0.92678687474E+02 0.  0.
          3    1    3    3  502    0 -0.13898931380E+03 -0.74164783140E+02 -0.29632585695E+03  0.33560014587E+03  0.00000000000E+00 0. -1.
         -4    1    3    3    0  502 -0.11739038032E+03 -0.14671234381E+03 -0.27425822888E+03  0.33244937860E+03  0.00000000000E+00 0.  1.
         11    1    5    5    0    0  0.29786699682E+01 -0.45915578051E+01  0.17568903544E+01  0.57481772393E+01  0.00000000000E+00 0. -1.
        -11    1    5    5    0    0 -0.18656316646E+03  0.15295218832E+03 -0.28327393988E+03  0.37208105570E+03  0.00000000000E+00 0.  1.
          2    1    6    6  503    0  0.38287892857E+02 -0.19609723130E+02  0.41951760068E+02  0.60087054791E+02  0.00000000000E+00 0. -1.
         -2    1    6    6    0  503  0.40167629776E+03  0.92126219565E+02  0.33265795907E+03  0.52961533800E+03  0.00000000000E+00 0.  1.
<mgrwt>
<rscale>  0 0.15643298E+04</rscale>
<asrwt>0</asrwt>
<pdfrwt beam="1">  1        1 0.16254404E+00 0.15643298E+04</pdfrwt>
<pdfrwt beam="2">  1       -2 0.89083827E-01 0.15643298E+04</pdfrwt>
<totfact> 0.12490539E+01</totfact>
</mgrwt>
</event>
<event>
12    4  0.4280696E-008  0.1746314E+04  0.7818608E-02  0.8735382E-01
         -2   -1    0    0    0  501 -0.00000000000E+00  0.00000000000E+00  0.62118495853E+03  0.62118495853E+03  0.00000000000E+00 0.  1.
          1   -1    0    0  501    0  0.00000000000E+00 -0.00000000000E+00 -0.12273367873E+04  0.12273367873E+04  0.00000000000E+00 0. -1.
        -24    2    1    2    0    0 -0.43883111144E+03  0.50721029680E+01 -0.71849659154E+03  0.84571881164E+03  0.80028030773E+02 0.  0.
        254    2    1    2    0    0  0.43883111144E+03 -0.50721029680E+01  0.11234476272E+03  0.10028029342E+04  0.89464736550E+03 0.  0.
         23    2    4    4    0    0  0.34234318294E+03  0.24938765927E+03  0.40424200812E+03  0.59339015026E+03  0.96473881372E+02 0.  0.
         23    2    4    4    0    0  0.96487928498E+02 -0.25445976224E+03 -0.29189724540E+03  0.40941278398E+03  0.91406426843E+02 0.  0.
          3    1    3    3  502    0 -0.40051895410E+03  0.23584479167E+02 -0.62088256563E+03  0.73923394170E+03  0.00000000000E+00 0. -1.
         -4    1    3    3    0  502 -0.38312157339E+02 -0.18512376199E+02 -0.97614025909E+02  0.10648486994E+03  0.00000000000E+00 0.  1.
         11    1    5    5    0    0  0.20023208302E+03  0.14366755909E+03  0.16856761447E+03  0.29857711776E+03  0.00000000000E+00 0. -1.
        -11    1    5    5    0    0  0.14211109992E+03  0.10572010018E+03  0.23567439365E+03  0.29481303249E+03  0.00000000000E+00 0.  1.
          4    1    6    6  503    0  0.16593482548E+02 -0.16562188943E+03 -0.15167890130E+03  0.22519423399E+03  0.00000000000E+00 0. -1.
         -4    1    6    6    0  503  0.79894445950E+02 -0.88837872811E+02 -0.14021834410E+03  0.18421854999E+03  0.00000000000E+00 0.  1.
<mgrwt>
<rscale>  0 0.17463140E+04</rscale>
<asrwt>0</asrwt>
<pdfrwt beam="1">  1        1 0.18882104E+00 0.17463140E+04</pdfrwt>
<pdfrwt beam="2">  1       -2 0.95566917E-01 0.17463140E+04</pdfrwt>
<totfact> 0.77997467E+00</totfact>
</mgrwt>
</event>
<event>
12    4  0.4280696E-008  0.1177314E+04  0.7818608E-02  0.9132949E-01
         -4   -1    0    0    0  501 -0.00000000000E+00  0.00000000000E+00  0.94213973233E+03  0.94213973233E+03  0.00000000000E+00 0.  1.
          3   -1    0    0  501    0  0.00000000000E+00 -0.00000000000E+00 -0.36779765673E+03  0.36779765673E+03  0.00000000000E+00 0. -1.
        -24    2    1    2    0    0 -0.46492188927E+02  0.22553599886E+03  0.19287301143E+03  0.31105348663E+03  0.80785287003E+02 0.  0.
        254    2    1    2    0    0  0.46492188927E+02 -0.22553599886E+03  0.38146906417E+03  0.99888390243E+03  0.89399238990E+03 0.  0.
         23    2    4    4    0    0  0.16342973836E+02  0.33326058066E+03  0.22028589771E+03  0.40938747102E+03  0.87991575078E+02 0.  0.
         23    2    4    4    0    0  0.30149215090E+02 -0.55879657951E+03  0.16118316646E+03  0.58949643141E+03  0.91451829128E+02 0.  0.
          3    1    3    3  502    0 -0.52262183305E+02  0.19627077179E+03  0.12914644702E+03  0.24069141331E+03  0.00000000000E+00 0. -1.
         -4    1    3    3    0  502  0.57699943786E+01  0.29265227062E+02  0.63726564411E+02  0.70362073319E+02  0.00000000000E+00 0.  1.
         11    1    5    5    0    0  0.29660760712E+02  0.18288683211E+03  0.75034477385E+02  0.19989378900E+03  0.00000000000E+00 0.  1.
        -11    1    5    5    0    0 -0.13317786875E+02  0.15037374855E+03  0.14525142032E+03  0.20949368202E+03  0.00000000000E+00 0. -1.
          3    1    6    6  503    0 -0.23901171773E+02 -0.51282779933E+02  0.13329584885E+02  0.58128025625E+02  0.00000000000E+00 0.  1.
         -3    1    6    6    0  503  0.54050386863E+02 -0.50751379958E+03  0.14785358157E+03  0.53136840579E+03  0.00000000000E+00 0. -1.
<mgrwt>
<rscale>  0 0.11773135E+04</rscale>
<asrwt>0</asrwt>
<pdfrwt beam="1">  1        3 0.56584255E-01 0.11773135E+04</pdfrwt>
<pdfrwt beam="2">  1       -4 0.14494457E+00 0.11773135E+04</pdfrwt>
<totfact> 0.22628173E+00</totfact>
</mgrwt>
</event>
<event>
12    4  0.4280696E-008  0.1250196E+04  0.7818608E-02  0.9070020E-01
          1   -1    0    0  501    0  0.00000000000E+00  0.00000000000E+00  0.89502506596E+03  0.89502506596E+03  0.00000000000E+00 0. -1.
         -2   -1    0    0    0  501 -0.00000000000E+00 -0.00000000000E+00 -0.43657750402E+03  0.43657750402E+03  0.00000000000E+00 0.  1.
        -24    2    1    2    0    0 -0.23083163232E+03 -0.12211978067E+03 -0.33651625051E+02  0.27535599420E+03  0.80573000217E+02 0.  0.
        254    2    1    2    0    0  0.23083163232E+03  0.12211978067E+03  0.49209918700E+03  0.10562465758E+04  0.89738438570E+03 0.  0.
         23    2    4    4    0    0  0.26862782729E+03  0.48190472622E+03  0.25831192935E+03  0.61597893201E+03  0.91169715809E+02 0.  0.
         23    2    4    4    0    0 -0.37796194970E+02 -0.35978494555E+03  0.23378725765E+03  0.44026764378E+03  0.91133730948E+02 0.  0.
          3    1    3    3  502    0 -0.19808582629E+03 -0.68977531856E+02 -0.15377042273E+02  0.21031487799E+03  0.00000000000E+00 0. -1.
         -4    1    3    3    0  502 -0.32745806031E+02 -0.53142248813E+02 -0.18274582778E+02  0.65041116205E+02  0.00000000000E+00 0.  1.
         11    1    5    5    0    0  0.21473871124E+03  0.30559570676E+03  0.19279288414E+03  0.42032195549E+03  0.00000000000E+00 0. -1.
        -11    1    5    5    0    0  0.53889116050E+02  0.17630901946E+03  0.65519045207E+02  0.19565697651E+03  0.00000000000E+00 0.  1.
          4    1    6    6  503    0  0.19148935573E+02 -0.17938159579E+02  0.12297437135E+02  0.28977340505E+02  0.00000000000E+00 0.  1.
         -4    1    6    6    0  503 -0.56945130543E+02 -0.34184678598E+03  0.22148982051E+03  0.41129030327E+03  0.00000000000E+00 0. -1.
<mgrwt>
<rscale>  0 0.12501965E+04</rscale>
<asrwt>0</asrwt>
<pdfrwt beam="1">  1        1 0.13769616E+00 0.12501965E+04</pdfrwt>
<pdfrwt beam="2">  1       -2 0.67165770E-01 0.12501965E+04</pdfrwt>
<totfact> 0.32294843E+01</totfact>
</mgrwt>
</event>
<event>
12    4  0.4280696E-008  0.1494542E+04  0.7818608E-02  0.8888090E-01
         -2   -1    0    0    0  501 -0.00000000000E+00  0.00000000000E+00  0.51263145371E+03  0.51263145371E+03  0.00000000000E+00 0.  1.
          1   -1    0    0  501    0  0.00000000000E+00 -0.00000000000E+00 -0.10893089156E+04  0.10893089156E+04  0.00000000000E+00 0. -1.
        -24    2    1    2    0    0  0.66353522130E+01  0.37645611093E+03  0.11367012351E+03  0.40108611675E+03  0.78650776944E+02 0.  0.
        254    2    1    2    0    0 -0.66353522130E+01 -0.37645611093E+03 -0.69034758543E+03  0.12008542526E+04  0.90758355865E+03 0.  0.
         23    2    4    4    0    0 -0.23901721576E+03 -0.33516462241E+03 -0.81585081962E+03  0.91854593986E+03  0.93002850583E+02 0.  0.
         23    2    4    4    0    0  0.23238186355E+03 -0.41291488517E+02  0.12550323419E+03  0.28230831274E+03  0.90777773266E+02 0.  0.
          1    1    3    3  502    0  0.82780755916E+01  0.24732290879E+02 -0.10455856825E+02  0.28098713308E+02  0.00000000000E+00 0. -1.
         -2    1    3    3    0  502 -0.16427233786E+01  0.35172382005E+03  0.12412598033E+03  0.37298740344E+03  0.00000000000E+00 0.  1.
         11    1    5    5    0    0 -0.62687071186E+02 -0.35799712623E+02 -0.10624314562E+03  0.12844802182E+03  0.00000000000E+00 0.  1.
        -11    1    5    5    0    0 -0.17633014458E+03 -0.29936490979E+03 -0.70960767400E+03  0.79009791804E+03  0.00000000000E+00 0. -1.
          1    1    6    6  503    0  0.48613026008E+02  0.55881991516E+01  0.68671375481E+02  0.84322073491E+02  0.00000000000E+00 0. -1.
         -1    1    6    6    0  503  0.18376883754E+03 -0.46879687668E+02  0.56831858707E+02  0.19798623925E+03  0.00000000000E+00 0.  1.
<mgrwt>
<rscale>  0 0.14945421E+04</rscale>
<asrwt>0</asrwt>
<pdfrwt beam="1">  1        1 0.16758599E+00 0.14945421E+04</pdfrwt>
<pdfrwt beam="2">  1       -2 0.78866378E-01 0.14945421E+04</pdfrwt>
<totfact> 0.15646070E+01</totfact>
</mgrwt>
</event>
<event>
12    4  0.4280696E-008  0.1133442E+04  0.7818608E-02  0.9173197E-01
          1   -1    0    0  501    0  0.00000000000E+00  0.00000000000E+00  0.13340393115E+04  0.13340393115E+04  0.00000000000E+00 0. -1.
         -2   -1    0    0    0  501 -0.00000000000E+00 -0.00000000000E+00 -0.24075184529E+03  0.24075184529E+03  0.00000000000E+00 0.  1.
        -24    2    1    2    0    0 -0.36175628754E+02 -0.48777150809E+02 -0.51975524283E+02  0.11470591970E+03  0.82268501465E+02 0.  0.
        254    2    1    2    0    0  0.36175628754E+02  0.48777150809E+02  0.11452629905E+04  0.14600852371E+04  0.90362254046E+03 0.  0.
         23    2    4    4    0    0  0.33088385831E+03 -0.19130246141E+03  0.20973424323E+03  0.44572558454E+03  0.92747423153E+02 0.  0.
         23    2    4    4    0    0 -0.29470822955E+03  0.24007961222E+03  0.93552874730E+03  0.10143596526E+04  0.96022429582E+02 0.  0.
          3    1    3    3  502    0  0.17685808572E+02 -0.42009859164E+02 -0.36106994551E+02  0.58149214503E+02  0.00000000000E+00 0. -1.
         -4    1    3    3    0  502 -0.53861437326E+02 -0.67672916443E+01 -0.15868529733E+02  0.56556705198E+02  0.00000000000E+00 0.  1.
         11    1    5    5    0    0  0.11532986735E+03 -0.20508350862E+02  0.47352182290E+02  0.12634793202E+03  0.00000000000E+00 0.  1.
        -11    1    5    5    0    0  0.21555399096E+03 -0.17079411055E+03  0.16238206094E+03  0.31937765253E+03  0.00000000000E+00 0. -1.
          1    1    6    6  503    0 -0.22738115195E+03  0.18380674197E+03  0.81039712347E+03  0.86152806361E+03  0.00000000000E+00 0. -1.
         -1    1    6    6    0  503 -0.67327077603E+02  0.56272870249E+02  0.12513162383E+03  0.15283158897E+03  0.00000000000E+00 0.  1.
<mgrwt>
<rscale>  0 0.11334415E+04</rscale>
<asrwt>0</asrwt>
<pdfrwt beam="1">  1        1 0.20523681E+00 0.11334415E+04</pdfrwt>
<pdfrwt beam="2">  1       -2 0.37038746E-01 0.11334415E+04</pdfrwt>
<totfact> 0.51237238E+01</totfact>
</mgrwt>
</event>
<event>
12    4  0.4280696E-008  0.1953546E+04  0.7818608E-02  0.8628653E-01
         -4   -1    0    0    0  501 -0.00000000000E+00  0.00000000000E+00  0.13344782565E+04  0.13344782565E+04  0.00000000000E+00 0.  1.
          3   -1    0    0  501    0  0.00000000000E+00 -0.00000000000E+00 -0.71495013126E+03  0.71495013126E+03  0.00000000000E+00 0. -1.
        -24    2    1    2    0    0 -0.89806435946E+02  0.29763956572E+03 -0.49165666071E+03  0.59099190278E+03  0.10435827762E+03 0.  0.
        254    2    1    2    0    0  0.89806435946E+02 -0.29763956572E+03  0.11111847859E+04  0.14584364849E+04  0.89199262616E+03 0.  0.
         23    2    4    4    0    0 -0.29542250696E+03  0.33211499100E+02  0.79314253176E+03  0.85219129545E+03  0.93688137291E+02 0.  0.
         23    2    4    4    0    0  0.38522894290E+03 -0.33085106482E+03  0.31804225416E+03  0.60624518949E+03  0.92296201483E+02 0.  0.
          3    1    3    3  502    0 -0.11161010526E+03  0.25031824727E+03 -0.38878800941E+03  0.47568072987E+03  0.00000000000E+00 0. -1.
         -4    1    3    3    0  502  0.21803669316E+02  0.47321318448E+02 -0.10286865131E+03  0.11531117291E+03  0.00000000000E+00 0.  1.
         11    1    5    5    0    0 -0.18548922024E+03 -0.11544108476E+02  0.39141362397E+03  0.43329452142E+03  0.00000000000E+00 0. -1.
        -11    1    5    5    0    0 -0.10993328671E+03  0.44755607575E+02  0.40172890779E+03  0.41889677403E+03  0.00000000000E+00 0.  1.
          1    1    6    6  503    0  0.88199810735E+01  0.31067236701E+01 -0.24277337693E+01  0.96611432737E+01  0.00000000000E+00 0. -1.
         -1    1    6    6    0  503  0.37640896183E+03 -0.33395778849E+03  0.32046998793E+03  0.59658404622E+03  0.00000000000E+00 0.  1.
<mgrwt>
<rscale>  0 0.19535459E+04</rscale>
<asrwt>0</asrwt>
<pdfrwt beam="1">  1        3 0.10999233E+00 0.19535459E+04</pdfrwt>
<pdfrwt beam="2">  1       -4 0.20530435E+00 0.19535459E+04</pdfrwt>
<totfact> 0.18071209E-01</totfact>
</mgrwt>
</event>
<event>
12    4  0.4280696E-008  0.2181445E+04  0.7818608E-02  0.8526191E-01
         -2   -1    0    0    0  501 -0.00000000000E+00  0.00000000000E+00  0.18285677585E+04  0.18285677585E+04  0.00000000000E+00 0.  1.
          1   -1    0    0  501    0  0.00000000000E+00 -0.00000000000E+00 -0.65060503876E+03  0.65060503876E+03  0.00000000000E+00 0. -1.
        -24    2    1    2    0    0  0.56138924263E+03  0.55971445471E+03  0.97537197654E+03  0.12594381554E+04  0.79973883638E+02 0.  0.
        254    2    1    2    0    0 -0.56138924263E+03 -0.55971445471E+03  0.20259074318E+03  0.12197346419E+04  0.90458356982E+03 0.  0.
         23    2    4    4    0    0  0.16586564652E+03 -0.32994466286E+03 -0.10138276224E+03  0.39357016628E+03  0.90797125857E+02 0.  0.
         23    2    4    4    0    0 -0.72725488915E+03 -0.22976979185E+03  0.30397350542E+03  0.82616447558E+03  0.91945732199E+02 0.  0.
          3    1    3    3  502    0  0.76199764863E+02  0.11307717571E+03  0.14475976252E+03  0.19886739470E+03  0.00000000000E+00 0. -1.
         -4    1    3    3    0  502  0.48518947777E+03  0.44663727900E+03  0.83061221402E+03  0.10605707607E+04  0.00000000000E+00 0.  1.
         11    1    5    5    0    0 -0.82309365527E+01 -0.23736591223E+02 -0.19846053612E+02  0.32016244680E+02  0.00000000000E+00 0. -1.
        -11    1    5    5    0    0  0.17409658308E+03 -0.30620807163E+03 -0.81536708624E+02  0.36155392160E+03  0.00000000000E+00 0.  1.
          2    1    6    6  503    0 -0.81222378282E+02 -0.44732219067E+02  0.12118031095E+02  0.93514131735E+02  0.00000000000E+00 0. -1.
         -2    1    6    6    0  503 -0.64603251087E+03 -0.18503757278E+03  0.29185547432E+03  0.73265034385E+03  0.00000000000E+00 0.  1.
<mgrwt>
<rscale>  0 0.21814448E+04</rscale>
<asrwt>0</asrwt>
<pdfrwt beam="1">  1        1 0.10009308E+00 0.21814448E+04</pdfrwt>
<pdfrwt beam="2">  1       -2 0.28131812E+00 0.21814448E+04</pdfrwt>
<totfact> 0.10061634E+00</totfact>
</mgrwt>
</event>
<event>
12    4  0.4280696E-008  0.1599186E+04  0.7818608E-02  0.8821048E-01
          1   -1    0    0  501    0  0.00000000000E+00  0.00000000000E+00  0.79619538890E+03  0.79619538890E+03  0.00000000000E+00 0. -1.
         -2   -1    0    0    0  501 -0.00000000000E+00 -0.00000000000E+00 -0.80300519662E+03  0.80300519662E+03  0.00000000000E+00 0.  1.
        -24    2    1    2    0    0  0.36210875171E+03 -0.25669754289E+03  0.30001234987E+03  0.54174001649E+03  0.80364536947E+02 0.  0.
        254    2    1    2    0    0 -0.36210875171E+03  0.25669754289E+03 -0.30682215760E+03  0.10574605690E+04  0.90943204367E+03 0.  0.
         23    2    4    4    0    0  0.11084742836E+03 -0.17374274497E+03 -0.34322834131E+03  0.41051999214E+03  0.90814513520E+02 0.  0.
         23    2    4    4    0    0 -0.47295618007E+03  0.43044028786E+03  0.36406183714E+02  0.64694057688E+03  0.90776153951E+02 0.  0.
          3    1    3    3  502    0  0.35307588257E+03 -0.25652734142E+03  0.30399531510E+03  0.53186653152E+03  0.00000000000E+00 0. -1.
         -4    1    3    3    0  502  0.90328691460E+01 -0.17020147238E+00 -0.39829652263E+01  0.98734849746E+01  0.00000000000E+00 0.  1.
         11    1    5    5    0    0  0.91317489241E+01  0.28643392851E+01  0.18539219840E+01  0.97483488179E+01  0.00000000000E+00 0. -1.
        -11    1    5    5    0    0  0.10171567943E+03 -0.17660708425E+03 -0.34508226330E+03  0.40077164332E+03  0.00000000000E+00 0.  1.
          2    1    6    6  503    0 -0.21879348287E+03  0.24673822825E+03 -0.10003360700E+02  0.32992485304E+03  0.00000000000E+00 0. -1.
         -2    1    6    6    0  503 -0.25416269720E+03  0.18370205961E+03  0.46409544414E+02  0.31701572385E+03  0.00000000000E+00 0.  1.
<mgrwt>
<rscale>  0 0.15991861E+04</rscale>
<asrwt>0</asrwt>
<pdfrwt beam="1">  1        1 0.12249160E+00 0.15991861E+04</pdfrwt>
<pdfrwt beam="2">  1       -2 0.12353926E+00 0.15991861E+04</pdfrwt>
<totfact> 0.92467103E+00</totfact>
</mgrwt>
</event>
<event>
12    4  0.4280696E-008  0.1833519E+04  0.7818608E-02  0.8688675E-01
         -2   -1    0    0    0  501 -0.00000000000E+00  0.00000000000E+00  0.23311942543E+03  0.23311942543E+03  0.00000000000E+00 0.  1.
          1   -1    0    0  501    0  0.00000000000E+00 -0.00000000000E+00 -0.36052252447E+04  0.36052252447E+04  0.00000000000E+00 0. -1.
        -24    2    1    2    0    0  0.23708955048E+03 -0.23433985615E+03 -0.25593818498E+04  0.25822326241E+04  0.79769975668E+02 0.  0.
        254    2    1    2    0    0 -0.23708955048E+03  0.23433985615E+03 -0.81272396947E+03  0.12561120460E+04  0.89787003423E+03 0.  0.
         23    2    4    4    0    0  0.25104191405E+03  0.34741952114E+03 -0.46748784137E+03  0.64094000513E+03  0.92395032721E+02 0.  0.
         23    2    4    4    0    0 -0.48813146453E+03 -0.11307966499E+03 -0.34523612810E+03  0.61517204084E+03  0.90494852821E+02 0.  0.
          3    1    3    3  502    0  0.18493910721E+03 -0.14645480734E+03 -0.19676468374E+04  0.19817380151E+04  0.00000000000E+00 0. -1.
         -4    1    3    3    0  502  0.52150443269E+02 -0.87885048803E+02 -0.59173501240E+03  0.60049460900E+03  0.00000000000E+00 0.  1.
         11    1    5    5    0    0  0.16591936467E+03  0.28809436466E+03 -0.38276216598E+03  0.50698567457E+03  0.00000000000E+00 0. -1.
        -11    1    5    5    0    0  0.85122549380E+02  0.59325156485E+02 -0.84725675391E+02  0.13395433056E+03  0.00000000000E+00 0.  1.
          1    1    6    6  503    0 -0.48844297416E+03 -0.11631598566E+03 -0.34799641052E+03  0.61090707088E+03  0.00000000000E+00 0. -1.
         -1    1    6    6    0  503  0.31150962616E+00  0.32363206661E+01  0.27602824182E+01  0.42649699565E+01  0.00000000000E+00 0.  1.
<mgrwt>
<rscale>  0 0.18335191E+04</rscale>
<asrwt>0</asrwt>
<pdfrwt beam="1">  1        1 0.55464999E+00 0.18335191E+04</pdfrwt>
<pdfrwt beam="2">  1       -2 0.35864530E-01 0.18335191E+04</pdfrwt>
<totfact> 0.12535171E+00</totfact>
</mgrwt>
</event>
<event>
12    4  0.4280696E-008  0.2586995E+04  0.7818608E-02  0.8372632E-01
         -2   -1    0    0    0  501 -0.00000000000E+00  0.00000000000E+00  0.11077370376E+04  0.11077370376E+04  0.00000000000E+00 0.  1.
          1   -1    0    0  501    0  0.00000000000E+00 -0.00000000000E+00 -0.15104088203E+04  0.15104088203E+04  0.00000000000E+00 0. -1.
        -24    2    1    2    0    0 -0.68620501030E+03  0.25009766160E+03 -0.10605358977E+04  0.12901634946E+04  0.79745194789E+02 0.  0.
        254    2    1    2    0    0  0.68620501030E+03 -0.25009766160E+03  0.65786411501E+03  0.13279823633E+04  0.89293102021E+03 0.  0.
         23    2    4    4    0    0  0.74732878803E+03  0.95050019115E+02  0.29526783177E+03  0.81438522872E+03  0.92224642766E+02 0.  0.
         23    2    4    4    0    0 -0.61123777727E+02 -0.34514768072E+03  0.36259628324E+03  0.51359713456E+03  0.97174658714E+02 0.  0.
          1    1    3    3  502    0 -0.60879643337E+03  0.22485333150E+03 -0.98170622456E+03  0.11768344103E+04  0.00000000000E+00 0. -1.
         -2    1    3    3    0  502 -0.77408576935E+02  0.25244330102E+02 -0.78829673109E+02  0.11332908430E+03  0.00000000000E+00 0.  1.
         11    1    5    5    0    0  0.84838384618E+02 -0.14289643427E+02  0.50197048626E+02  0.99606671988E+02  0.00000000000E+00 0. -1.
        -11    1    5    5    0    0  0.66249040341E+03  0.10933966254E+03  0.24507078314E+03  0.71477855673E+03  0.00000000000E+00 0.  1.
          3    1    6    6  503    0  0.21446240582E+02 -0.24283890630E+02  0.30674444339E+02  0.44615805661E+02  0.00000000000E+00 0. -1.
         -3    1    6    6    0  503 -0.82570018309E+02 -0.32086379009E+03  0.33192183890E+03  0.46898132890E+03  0.00000000000E+00 0.  1.
<mgrwt>
<rscale>  0 0.25869950E+04</rscale>
<asrwt>0</asrwt>
<pdfrwt beam="1">  1        1 0.23237059E+00 0.25869950E+04</pdfrwt>
<pdfrwt beam="2">  1       -2 0.17042108E+00 0.25869950E+04</pdfrwt>
<totfact> 0.10544994E+00</totfact>
</mgrwt>
</event>
<event>
12    4  0.4280696E-008  0.2118634E+04  0.7818608E-02  0.8553079E-01
          1   -1    0    0  501    0  0.00000000000E+00  0.00000000000E+00  0.83279052562E+03  0.83279052562E+03  0.00000000000E+00 0. -1.
         -2   -1    0    0    0  501 -0.00000000000E+00 -0.00000000000E+00 -0.13474606864E+04  0.13474606864E+04  0.00000000000E+00 0.  1.
        -24    2    1    2    0    0  0.59825149903E+03 -0.47407520494E+03  0.10920081333E+03  0.77366888298E+03  0.63139265429E+02 0.  0.
        254    2    1    2    0    0 -0.59825149903E+03  0.47407520494E+03 -0.62387097413E+03  0.14065823291E+04  0.10032979119E+04 0.  0.
         23    2    4    4    0    0 -0.47603014220E+03 -0.14094971863E+03 -0.58357982839E+03  0.77168707518E+03  0.92000034920E+02 0.  0.
         23    2    4    4    0    0 -0.12222135682E+03  0.61502492357E+03 -0.40291145734E+02  0.63489525387E+03  0.90966423928E+02 0.  0.
          1    1    3    3  502    0  0.43750424311E+03 -0.37603595711E+03  0.67640931629E+02  0.58085135741E+03  0.00000000000E+00 0. -1.
         -2    1    3    3    0  502  0.16074725592E+03 -0.98039247831E+02  0.41559881697E+02  0.19281752557E+03  0.00000000000E+00 0.  1.
         11    1    5    5    0    0 -0.36652929476E+03 -0.68160363292E+02 -0.44776305179E+03  0.58265024637E+03  0.00000000000E+00 0. -1.
        -11    1    5    5    0    0 -0.10950084744E+03 -0.72789355341E+02 -0.13581677661E+03  0.18903682881E+03  0.00000000000E+00 0.  1.
          1    1    6    6  503    0 -0.57239243013E+02  0.33130122616E+03  0.23100342635E+02  0.33700216502E+03  0.00000000000E+00 0. -1.
         -1    1    6    6    0  503 -0.64982113812E+02  0.28372369741E+03 -0.63391488369E+02  0.29789308885E+03  0.00000000000E+00 0.  1.
<mgrwt>
<rscale>  0 0.21186340E+04</rscale>
<asrwt>0</asrwt>
<pdfrwt beam="1">  1        1 0.12812162E+00 0.21186340E+04</pdfrwt>
<pdfrwt beam="2">  1       -2 0.20730164E+00 0.21186340E+04</pdfrwt>
<totfact> 0.19859390E+00</totfact>
</mgrwt>
</event>
<event>
12    4  0.4280696E-008  0.2350558E+04  0.7818608E-02  0.8458249E-01
         -4   -1    0    0    0  501 -0.00000000000E+00  0.00000000000E+00  0.35640334348E+03  0.35640334348E+03  0.00000000000E+00 0.  1.
          1   -1    0    0  501    0  0.00000000000E+00 -0.00000000000E+00 -0.38756119692E+04  0.38756119692E+04  0.00000000000E+00 0. -1.
        -24    2    1    2    0    0  0.98817098451E+03 -0.12979573885E+03 -0.16912144591E+04  0.19648496263E+04  0.84254844264E+02 0.  0.
        254    2    1    2    0    0 -0.98817098451E+03  0.12979573885E+03 -0.18279941666E+04  0.22671656863E+04  0.89730081237E+03 0.  0.
         23    2    4    4    0    0 -0.11072067825E+03 -0.22521006630E+03 -0.89659882448E+03  0.93611429180E+03  0.97169299128E+02 0.  0.
         23    2    4    4    0    0 -0.87745030626E+03  0.35500580515E+03 -0.93139534210E+03  0.13310513946E+04  0.90842556189E+02 0.  0.
          3    1    3    3  502    0  0.94242933678E+03 -0.13835887655E+03 -0.15907610422E+04  0.18541404819E+04  0.00000000000E+00 0. -1.
         -4    1    3    3    0  502  0.45741647730E+02  0.85631377000E+01 -0.10045341694E+03  0.11070914434E+03  0.00000000000E+00 0.  1.
         11    1    5    5    0    0 -0.41793477427E+02 -0.10573246078E+02 -0.12286785760E+03  0.13021136171E+03  0.00000000000E+00 0.  1.
        -11    1    5    5    0    0 -0.68927200825E+02 -0.21463682023E+03 -0.77373096688E+03  0.80590293009E+03  0.00000000000E+00 0. -1.
          1    1    6    6  503    0 -0.38242987356E+03  0.14013347846E+03 -0.46119610181E+03  0.61529817512E+03  0.00000000000E+00 0. -1.
         -1    1    6    6    0  503 -0.49502043270E+03  0.21487232669E+03 -0.47019924029E+03  0.71575321943E+03  0.00000000000E+00 0.  1.
<mgrwt>
<rscale>  0 0.23505583E+04</rscale>
<asrwt>0</asrwt>
<pdfrwt beam="1">  1        1 0.59624799E+00 0.23505583E+04</pdfrwt>
<pdfrwt beam="2">  1       -4 0.54831284E-01 0.23505583E+04</pdfrwt>
<totfact> 0.17626452E-01</totfact>
</mgrwt>
</event>
<event>
12    4  0.4280696E-008  0.2053966E+04  0.7818608E-02  0.8581797E-01
          1   -1    0    0  501    0  0.00000000000E+00  0.00000000000E+00  0.23940808713E+04  0.23940808713E+04  0.00000000000E+00 0. -1.
         -2   -1    0    0    0  501 -0.00000000000E+00 -0.00000000000E+00 -0.44054245728E+03  0.44054245728E+03  0.00000000000E+00 0.  1.
        -24    2    1    2    0    0  0.74059290010E+03 -0.30293454943E+03  0.10893545529E+04  0.13541129113E+04  0.81738912702E+02 0.  0.
        254    2    1    2    0    0 -0.74059290010E+03  0.30293454943E+03  0.86418386121E+03  0.14805104173E+04  0.89713441849E+03 0.  0.
         23    2    4    4    0    0 -0.32325725948E+03  0.13940089300E+03 -0.12987664906E+03  0.38617558344E+03  0.91300451812E+02 0.  0.
         23    2    4    4    0    0 -0.41733564062E+03  0.16353365643E+03  0.99406051027E+03  0.10943348339E+04  0.92196186431E+02 0.  0.
          1    1    3    3  502    0  0.65929053958E+03 -0.26295985635E+03  0.10045760671E+04  0.12300345427E+04  0.00000000000E+00 0. -1.
         -2    1    3    3    0  502  0.81302360519E+02 -0.39974693078E+02  0.84778485755E+02  0.12407836862E+03  0.00000000000E+00 0.  1.
         11    1    5    5    0    0 -0.29070306490E+03  0.15284636693E+03 -0.11857647776E+03  0.34918571693E+03  0.00000000000E+00 0.  1.
        -11    1    5    5    0    0 -0.32554194572E+02 -0.13445473926E+02 -0.11300171301E+02  0.36989866515E+02  0.00000000000E+00 0. -1.
          1    1    6    6  503    0 -0.45880584520E+02  0.80791049690E+01  0.51956802829E+02  0.69784019182E+02  0.00000000000E+00 0. -1.
         -1    1    6    6    0  503 -0.37145505610E+03  0.15545455146E+03  0.94210370744E+03  0.10245508147E+04  0.00000000000E+00 0.  1.
<mgrwt>
<rscale>  0 0.20539662E+04</rscale>
<asrwt>0</asrwt>
<pdfrwt beam="1">  1        1 0.36832013E+00 0.20539662E+04</pdfrwt>
<pdfrwt beam="2">  1       -2 0.67775764E-01 0.20539662E+04</pdfrwt>
<totfact> 0.25950233E+00</totfact>
</mgrwt>
</event>
<event>
12    4  0.4280696E-008  0.1259317E+04  0.7818608E-02  0.9062464E-01
          1   -1    0    0  501    0  0.00000000000E+00  0.00000000000E+00  0.41660885077E+03  0.41660885077E+03  0.00000000000E+00 0. -1.
         -2   -1    0    0    0  501 -0.00000000000E+00 -0.00000000000E+00 -0.95166035220E+03  0.95166035220E+03  0.00000000000E+00 0.  1.
        -24    2    1    2    0    0  0.14580167803E+03  0.56246577213E+02 -0.40931222950E+03  0.44661798164E+03  0.86656295449E+02 0.  0.
        254    2    1    2    0    0 -0.14580167803E+03 -0.56246577213E+02 -0.12573927193E+03  0.92165122133E+03  0.89956033844E+03 0.  0.
         23    2    4    4    0    0  0.35627833544E+03 -0.12253162805E+03  0.14528162052E+02  0.38808731646E+03  0.91937182513E+02 0.  0.
         23    2    4    4    0    0 -0.50208001348E+03  0.66285050834E+02 -0.14026743399E+03  0.53356390486E+03  0.92398266440E+02 0.  0.
          1    1    3    3  502    0  0.15644589680E+02  0.37754845217E+02 -0.53691326607E+02  0.67475477593E+02  0.00000000000E+00 0. -1.
         -2    1    3    3    0  502  0.13015708835E+03  0.18491731996E+02 -0.35562090289E+03  0.37914250404E+03  0.00000000000E+00 0.  1.
         11    1    5    5    0    0  0.21958000528E+02  0.10274994289E+02  0.14705339231E+02  0.28354475780E+02  0.00000000000E+00 0. -1.
        -11    1    5    5    0    0  0.33432033492E+03 -0.13280662234E+03 -0.17717717888E+00  0.35973284068E+03  0.00000000000E+00 0.  1.
          4    1    6    6  503    0 -0.26431617572E+03  0.38715871248E+02 -0.26205133669E+02  0.26841883031E+03  0.00000000000E+00 0. -1.
         -4    1    6    6    0  503 -0.23776383775E+03  0.27569179586E+02 -0.11406230032E+03  0.26514507455E+03  0.00000000000E+00 0.  1.
<mgrwt>
<rscale>  0 0.12593175E+04</rscale>
<asrwt>0</asrwt>
<pdfrwt beam="1">  1        1 0.64093670E-01 0.12593175E+04</pdfrwt>
<pdfrwt beam="2">  1       -2 0.14640928E+00 0.12593175E+04</pdfrwt>
<totfact> 0.15615761E+01</totfact>
</mgrwt>
</event>
<event>
12    4  0.4280696E-008  0.2167814E+04  0.7818608E-02  0.8531945E-01
         -2   -1    0    0    0  501 -0.00000000000E+00  0.00000000000E+00  0.66872271904E+03  0.66872271904E+03  0.00000000000E+00 0.  1.
          1   -1    0    0  501    0  0.00000000000E+00 -0.00000000000E+00 -0.17568640250E+04  0.17568640250E+04  0.00000000000E+00 0. -1.
        -24    2    1    2    0    0  0.72165410722E+02  0.53020230079E+03  0.35905329302E+03  0.64794619361E+03  0.67769287445E+02 0.  0.
        254    2    1    2    0    0 -0.72165410722E+02 -0.53020230079E+03 -0.14471945990E+04  0.17776405504E+04  0.88278615357E+03 0.  0.
         23    2    4    4    0    0  0.33941477395E+03 -0.46725377878E+03 -0.65558902115E+03  0.87854547593E+03  0.92286001411E+02 0.  0.
         23    2    4    4    0    0 -0.41158018468E+03 -0.62948522011E+02 -0.79160557782E+03  0.89909507450E+03  0.91497526198E+02 0.  0.
          3    1    3    3  502    0  0.60375570940E+01  0.41327706731E+01  0.12632689221E+02  0.14598517941E+02  0.00000000000E+00 0. -1.
         -4    1    3    3    0  502  0.66127853628E+02  0.52606953012E+03  0.34642060380E+03  0.63334767567E+03  0.00000000000E+00 0.  1.
         11    1    5    5    0    0  0.33484930159E+03 -0.44956701755E+03 -0.65214359826E+03  0.85995687729E+03  0.00000000000E+00 0. -1.
        -11    1    5    5    0    0  0.45654723630E+01 -0.17686761225E+02 -0.34454228996E+01  0.18588598643E+02  0.00000000000E+00 0.  1.
          4    1    6    6  503    0 -0.55552746539E+02 -0.38970263185E+02 -0.99830666431E+02  0.12071019435E+03  0.00000000000E+00 0.  1.
         -4    1    6    6    0  503 -0.35602743814E+03 -0.23978258826E+02 -0.69177491139E+03  0.77838488014E+03  0.00000000000E+00 0. -1.
<mgrwt>
<rscale>  0 0.21678145E+04</rscale>
<asrwt>0</asrwt>
<pdfrwt beam="1">  1        1 0.27028677E+00 0.21678145E+04</pdfrwt>
<pdfrwt beam="2">  1       -2 0.10288042E+00 0.21678145E+04</pdfrwt>
<totfact> 0.27015138E+00</totfact>
</mgrwt>
</event>
<event>
12    4  0.4280696E-008  0.1068163E+04  0.7818608E-02  0.9236790E-01
         -2   -1    0    0    0  501 -0.00000000000E+00  0.00000000000E+00  0.24311037832E+03  0.24311037832E+03  0.00000000000E+00 0.  1.
          1   -1    0    0  501    0  0.00000000000E+00 -0.00000000000E+00 -0.11733068193E+04  0.11733068193E+04  0.00000000000E+00 0. -1.
        -24    2    1    2    0    0  0.76443519196E+02 -0.39160003186E+02 -0.27902364386E+03  0.30336639393E+03  0.82461249432E+02 0.  0.
        254    2    1    2    0    0 -0.76443519196E+02  0.39160003186E+02 -0.65117279707E+03  0.11130508036E+04  0.89859833205E+03 0.  0.
         23    2    4    4    0    0  0.19650552924E+03  0.27512000811E+03 -0.65265599105E+03  0.74073934863E+03  0.91812298043E+02 0.  0.
         23    2    4    4    0    0 -0.27294904843E+03 -0.23596000492E+03  0.14831939808E+01  0.37231145501E+03  0.91843958457E+02 0.  0.
          1    1    3    3  502    0  0.23544681294E+02 -0.54421027502E+02 -0.10204697036E+03  0.11802366039E+03  0.00000000000E+00 0. -1.
         -2    1    3    3    0  502  0.52898837902E+02  0.15261024316E+02 -0.17697667350E+03  0.18534273355E+03  0.00000000000E+00 0.  1.
         11    1    5    5    0    0  0.12970644381E+03  0.14074524553E+03 -0.44611677855E+03  0.48544120736E+03  0.00000000000E+00 0. -1.
        -11    1    5    5    0    0  0.66799085430E+02  0.13437476258E+03 -0.20653921250E+03  0.25529814127E+03  0.00000000000E+00 0.  1.
          2    1    6    6  503    0 -0.99938893170E+02 -0.34736243965E+02  0.13522661000E+02  0.10666419912E+03  0.00000000000E+00 0. -1.
         -2    1    6    6    0  503 -0.17301015526E+03 -0.20122376096E+03 -0.12039467020E+02  0.26564725589E+03  0.00000000000E+00 0.  1.
<mgrwt>
<rscale>  0 0.10681630E+04</rscale>
<asrwt>0</asrwt>
<pdfrwt beam="1">  1        1 0.18050874E+00 0.10681630E+04</pdfrwt>
<pdfrwt beam="2">  1       -2 0.37401597E-01 0.10681630E+04</pdfrwt>
<totfact> 0.65962910E+01</totfact>
</mgrwt>
</event>
<event>
12    4  0.4280696E-008  0.1605153E+04  0.7818608E-02  0.8817388E-01
          1   -1    0    0  501    0  0.00000000000E+00  0.00000000000E+00  0.22684115487E+04  0.22684115487E+04  0.00000000000E+00 0. -1.
         -2   -1    0    0    0  501 -0.00000000000E+00 -0.00000000000E+00 -0.28395611869E+03  0.28395611869E+03  0.00000000000E+00 0.  1.
        -24    2    1    2    0    0 -0.36226961524E+03 -0.21277782578E+03  0.12382150626E+04  0.13100238132E+04  0.80449815456E+02 0.  0.
        254    2    1    2    0    0  0.36226961524E+03  0.21277782578E+03  0.74624036749E+03  0.12423438542E+04  0.90001660469E+03 0.  0.
         23    2    4    4    0    0  0.65165220496E+02  0.14687184371E+03  0.87938989632E+03  0.89820821248E+03  0.87370239703E+02 0.  0.
         23    2    4    4    0    0  0.29710439474E+03  0.65905982073E+02 -0.13314952883E+03  0.34413564171E+03  0.89921760563E+02 0.  0.
          3    1    3    3  502    0 -0.30095974028E+03 -0.14015615590E+03  0.99336519534E+03  0.10473752549E+04  0.00000000000E+00 0. -1.
         -4    1    3    3    0  502 -0.61309874957E+02 -0.72621669883E+02  0.24484986721E+03  0.26264855830E+03  0.00000000000E+00 0.  1.
         11    1    5    5    0    0  0.29037639330E+02  0.13590850786E+03  0.57851805311E+03  0.59497684391E+03  0.00000000000E+00 0. -1.
        -11    1    5    5    0    0  0.36127581166E+02  0.10963335843E+02  0.30087184321E+03  0.30323136858E+03  0.00000000000E+00 0.  1.
          1    1    6    6  503    0  0.82446075290E+02 -0.19054880161E+02 -0.19592042743E+02  0.86857883508E+02  0.00000000000E+00 0. -1.
         -1    1    6    6    0  503  0.21465831945E+03  0.84960862234E+02 -0.11355748609E+03  0.25727775821E+03  0.00000000000E+00 0.  1.
<mgrwt>
<rscale>  0 0.16051534E+04</rscale>
<asrwt>0</asrwt>
<pdfrwt beam="1">  1        1 0.34898638E+00 0.16051534E+04</pdfrwt>
<pdfrwt beam="2">  1       -2 0.43685558E-01 0.16051534E+04</pdfrwt>
<totfact> 0.81951853E+00</totfact>
</mgrwt>
</event>
<event>
12    4  0.4280696E-008  0.1483825E+04  0.7818608E-02  0.8895281E-01
         -2   -1    0    0    0  501 -0.00000000000E+00  0.00000000000E+00  0.72027183541E+03  0.72027183541E+03  0.00000000000E+00 0.  1.
          1   -1    0    0  501    0  0.00000000000E+00 -0.00000000000E+00 -0.76420314352E+03  0.76420314352E+03  0.00000000000E+00 0. -1.
        -24    2    1    2    0    0  0.35966283149E+03 -0.18312773706E+03  0.21127872032E+03  0.46276879377E+03  0.81382666403E+02 0.  0.
        254    2    1    2    0    0 -0.35966283149E+03  0.18312773706E+03 -0.25521002843E+03  0.10217061852E+04  0.90324871976E+03 0.  0.
         23    2    4    4    0    0 -0.81523677876E+02  0.52532762553E+03 -0.11690756850E+03  0.55167335030E+03  0.89782412891E+02 0.  0.
         23    2    4    4    0    0 -0.27813915362E+03 -0.34219988847E+03 -0.13830245993E+03  0.47003283486E+03  0.85680470241E+02 0.  0.
          3    1    3    3  502    0  0.96522794631E+02 -0.91162418237E+02  0.61323649286E+02  0.14624577376E+03  0.00000000000E+00 0. -1.
         -4    1    3    3    0  502  0.26314003686E+03 -0.91965318822E+02  0.14995507103E+03  0.31652302001E+03  0.00000000000E+00 0.  1.
         11    1    5    5    0    0  0.10874969128E+02  0.91027500115E+01  0.77344293458E+00  0.14202930166E+02  0.00000000000E+00 0.  1.
        -11    1    5    5    0    0 -0.92398647004E+02  0.51622487552E+03 -0.11768101144E+03  0.53747042014E+03  0.00000000000E+00 0. -1.
          2    1    6    6  503    0 -0.41695673668E+01  0.51620734312E+01 -0.37486785044E+01  0.76213440196E+01  0.00000000000E+00 0.  1.
         -2    1    6    6    0  503 -0.27396958625E+03 -0.34736196190E+03 -0.13455378142E+03  0.46241149084E+03  0.00000000000E+00 0. -1.
<mgrwt>
<rscale>  0 0.14838248E+04</rscale>
<asrwt>0</asrwt>
<pdfrwt beam="1">  1        1 0.11756971E+00 0.14838248E+04</pdfrwt>
<pdfrwt beam="2">  1       -2 0.11081105E+00 0.14838248E+04</pdfrwt>
<totfact> 0.13021166E+01</totfact>
</mgrwt>
</event>
<event>
12    4  0.4280696E-008  0.2317319E+04  0.7818608E-02  0.8471124E-01
          1   -1    0    0  501    0  0.00000000000E+00  0.00000000000E+00  0.22310706020E+04  0.22310706020E+04  0.00000000000E+00 0. -1.
         -2   -1    0    0    0  501 -0.00000000000E+00 -0.00000000000E+00 -0.60172533024E+03  0.60172533024E+03  0.00000000000E+00 0.  1.
        -24    2    1    2    0    0 -0.93153911630E+03 -0.25285220109E+03  0.48286486713E+03  0.10823376490E+04  0.81221583807E+02 0.  0.
        254    2    1    2    0    0  0.93153911630E+03  0.25285220109E+03  0.11464804047E+04  0.17504582833E+04  0.90442662640E+03 0.  0.
         23    2    4    4    0    0 -0.41026336974E+02  0.23677078204E+03  0.17063735538E+02  0.25692568717E+03  0.89308869127E+02 0.  0.
         23    2    4    4    0    0  0.97256545327E+03  0.16081419056E+02  0.11294166691E+04  0.14935325961E+04  0.94421556330E+02 0.  0.
          3    1    3    3  502    0 -0.15767640087E+03 -0.72542525012E+02  0.10009919362E+03  0.20035996080E+03  0.00000000000E+00 0. -1.
         -4    1    3    3    0  502 -0.77386271543E+03 -0.18030967608E+03  0.38276567351E+03  0.88197768817E+03  0.00000000000E+00 0.  1.
         11    1    5    5    0    0 -0.67001577770E+02  0.20018390240E+03  0.19444079718E+02  0.21199263770E+03  0.00000000000E+00 0. -1.
        -11    1    5    5    0    0  0.25975240796E+02  0.36586879637E+02 -0.23803441792E+01  0.44933049467E+02  0.00000000000E+00 0.  1.
          2    1    6    6  503    0  0.10768328530E+03  0.15525478219E+02  0.16994138441E+03  0.20178405423E+03  0.00000000000E+00 0.  1.
         -2    1    6    6    0  503  0.86488216797E+03  0.55594083696E+00  0.95947528471E+03  0.12917485419E+04  0.00000000000E+00 0. -1.
<mgrwt>
<rscale>  0 0.23173189E+04</rscale>
<asrwt>0</asrwt>
<pdfrwt beam="1">  1        1 0.34324163E+00 0.23173189E+04</pdfrwt>
<pdfrwt beam="2">  1       -2 0.92573129E-01 0.23173189E+04</pdfrwt>
<totfact> 0.16287605E+00</totfact>
</mgrwt>
</event>
<event>
12    4  0.4280696E-008  0.1555137E+04  0.7818608E-02  0.8848593E-01
         -2   -1    0    0    0  501 -0.00000000000E+00  0.00000000000E+00  0.10251062017E+04  0.10251062017E+04  0.00000000000E+00 0.  1.
          1   -1    0    0  501    0  0.00000000000E+00 -0.00000000000E+00 -0.58980487587E+03  0.58980487587E+03  0.00000000000E+00 0. -1.
        -24    2    1    2    0    0 -0.23846001507E+03  0.93422679781E+02  0.60717563294E+03  0.66370752574E+03  0.79085109869E+02 0.  0.
        254    2    1    2    0    0  0.23846001507E+03 -0.93422679781E+02 -0.17187430714E+03  0.95120355180E+03  0.89980911510E+03 0.  0.
         23    2    4    4    0    0  0.49211284728E+03 -0.28706768861E+03 -0.13249524884E+01  0.57721098432E+03  0.92670667557E+02 0.  0.
         23    2    4    4    0    0 -0.25365283221E+03  0.19364500883E+03 -0.17054935465E+03  0.37399256748E+03  0.94579117282E+02 0.  0.
          3    1    3    3  502    0 -0.90640427725E+02  0.88046911430E+01  0.14588158592E+03  0.17197280841E+03  0.00000000000E+00 0. -1.
         -4    1    3    3    0  502 -0.14781958734E+03  0.84617988638E+02  0.46129404703E+03  0.49173471733E+03  0.00000000000E+00 0.  1.
         11    1    5    5    0    0  0.31145273375E+03 -0.15120456712E+03 -0.37677944247E+02  0.34826032499E+03  0.00000000000E+00 0.  1.
        -11    1    5    5    0    0  0.18066011353E+03 -0.13586312148E+03  0.36352991759E+02  0.22895065934E+03  0.00000000000E+00 0. -1.
          1    1    6    6  503    0 -0.66216512297E+02  0.30931946722E+02 -0.44153851413E+00  0.73086296835E+02  0.00000000000E+00 0. -1.
         -1    1    6    6    0  503 -0.18743631991E+03  0.16271306210E+03 -0.17010781614E+03  0.30090627064E+03  0.00000000000E+00 0.  1.
<mgrwt>
<rscale>  0 0.15551368E+04</rscale>
<asrwt>0</asrwt>
<pdfrwt beam="1">  1        1 0.90739212E-01 0.15551368E+04</pdfrwt>
<pdfrwt beam="2">  1       -2 0.15770865E+00 0.15551368E+04</pdfrwt>
<totfact> 0.77447824E+00</totfact>
</mgrwt>
</event>
<event>
12    4  0.4280696E-008  0.1843944E+04  0.7818608E-02  0.8683273E-01
          1   -1    0    0  501    0  0.00000000000E+00  0.00000000000E+00  0.89997834682E+03  0.89997834682E+03  0.00000000000E+00 0. -1.
         -2   -1    0    0    0  501 -0.00000000000E+00 -0.00000000000E+00 -0.94450329752E+03  0.94450329752E+03  0.00000000000E+00 0.  1.
        -24    2    1    2    0    0 -0.64899213954E+03  0.42878719668E+01  0.26645500163E+03  0.70616773460E+03  0.80407825916E+02 0.  0.
        254    2    1    2    0    0  0.64899213954E+03 -0.42878719668E+01 -0.31097995234E+03  0.11383139097E+04  0.88195285776E+03 0.  0.
         23    2    4    4    0    0  0.57553004558E+03 -0.37095131288E+03 -0.96044323674E+02  0.69761345101E+03  0.92737829540E+02 0.  0.
         23    2    4    4    0    0  0.73462093957E+02  0.36666344091E+03 -0.21493562866E+03  0.44070045873E+03  0.90447839672E+02 0.  0.
          1    1    3    3  502    0 -0.46277690501E+03 -0.18038706421E+02  0.15700257551E+03  0.48901704210E+03  0.00000000000E+00 0. -1.
         -2    1    3    3    0  502 -0.18621523452E+03  0.22326578387E+02  0.10945242612E+03  0.21715069250E+03  0.00000000000E+00 0.  1.
         11    1    5    5    0    0  0.37940240621E+03 -0.26421534876E+03 -0.10512527616E+03  0.47413843975E+03  0.00000000000E+00 0.  1.
        -11    1    5    5    0    0  0.19612763937E+03 -0.10673596412E+03  0.90809524825E+01  0.22347501126E+03  0.00000000000E+00 0. -1.
          2    1    6    6  503    0  0.81937172358E+02  0.32675925325E+03 -0.21549160732E+03  0.39990241638E+03  0.00000000000E+00 0.  1.
         -2    1    6    6    0  503 -0.84750784008E+01  0.39904187664E+02  0.55597866314E+00  0.40798042346E+02  0.00000000000E+00 0. -1.
<mgrwt>
<rscale>  0 0.18439442E+04</rscale>
<asrwt>0</asrwt>
<pdfrwt beam="1">  1        1 0.13845821E+00 0.18439442E+04</pdfrwt>
<pdfrwt beam="2">  1       -2 0.14530820E+00 0.18439442E+04</pdfrwt>
<totfact> 0.48840713E+00</totfact>
</mgrwt>
</event>
<event>
12    4  0.4280696E-008  0.2595578E+04  0.7818608E-02  0.8369705E-01
         -2   -1    0    0    0  501 -0.00000000000E+00  0.00000000000E+00  0.14081411666E+04  0.14081411666E+04  0.00000000000E+00 0.  1.
          1   -1    0    0  501    0  0.00000000000E+00 -0.00000000000E+00 -0.11960852460E+04  0.11960852460E+04  0.00000000000E+00 0. -1.
        -24    2    1    2    0    0  0.58085754141E+03  0.43639526101E+03  0.97867099595E+03  0.12216261709E+04  0.82080910360E+02 0.  0.
        254    2    1    2    0    0 -0.58085754141E+03 -0.43639526101E+03 -0.76661507540E+03  0.13826002417E+04  0.89221547134E+03 0.  0.
         23    2    4    4    0    0  0.39251916950E+02 -0.50949040573E+03 -0.37247409358E+03  0.63855161921E+03  0.88825860512E+02 0.  0.
         23    2    4    4    0    0 -0.62010945836E+03  0.73095144715E+02 -0.39414098182E+03  0.74404862250E+03  0.91556532042E+02 0.  0.
          1    1    3    3  502    0  0.17079808694E+03  0.17081767231E+03  0.29365045698E+03  0.38023841805E+03  0.00000000000E+00 0. -1.
         -2    1    3    3    0  502  0.41005945448E+03  0.26557758870E+03  0.68502053898E+03  0.84138775285E+03  0.00000000000E+00 0.  1.
         11    1    5    5    0    0  0.34140042491E+02 -0.38201601426E+03 -0.32400875525E+03  0.50207912836E+03  0.00000000000E+00 0.  1.
        -11    1    5    5    0    0  0.51118744592E+01 -0.12747439146E+03 -0.48465338327E+02  0.13647249085E+03  0.00000000000E+00 0. -1.
          2    1    6    6  503    0 -0.51798870300E+02 -0.18060773576E+02 -0.44148003177E+02  0.70415628173E+02  0.00000000000E+00 0. -1.
         -2    1    6    6    0  503 -0.56831058806E+03  0.91155918291E+02 -0.34999297865E+03  0.67363299433E+03  0.00000000000E+00 0.  1.
<mgrwt>
<rscale>  0 0.25955785E+04</rscale>
<asrwt>0</asrwt>
<pdfrwt beam="1">  1        1 0.18401311E+00 0.25955785E+04</pdfrwt>
<pdfrwt beam="2">  1       -2 0.21663710E+00 0.25955785E+04</pdfrwt>
<totfact> 0.86339886E-01</totfact>
</mgrwt>
</event>
<event>
12    4  0.4280696E-008  0.1502540E+04  0.7818608E-02  0.8882766E-01
          1   -1    0    0  501    0  0.00000000000E+00  0.00000000000E+00  0.15019495261E+04  0.15019495261E+04  0.00000000000E+00 0. -1.
         -2   -1    0    0    0  501 -0.00000000000E+00 -0.00000000000E+00 -0.37578259718E+03  0.37578259718E+03  0.00000000000E+00 0.  1.
        -24    2    1    2    0    0 -0.20267624750E+03  0.14153685937E+03 -0.14544494094E+03  0.29943300641E+03  0.85997387300E+02 0.  0.
        254    2    1    2    0    0  0.20267624750E+03 -0.14153685937E+03  0.12716118699E+04  0.15782991169E+04  0.90162132343E+03 0.  0.
         23    2    4    4    0    0  0.43456450379E+03 -0.76683383430E+02  0.22973917800E+03  0.50504930115E+03  0.86994582766E+02 0.  0.
         23    2    4    4    0    0 -0.23188825629E+03 -0.64853475938E+02  0.10418726919E+04  0.10732498157E+04  0.91587794726E+02 0.  0.
          3    1    3    3  502    0  0.41234591008E+01  0.92302368151E+01 -0.22928745801E+02  0.25058483007E+02  0.00000000000E+00 0. -1.
         -4    1    3    3    0  502 -0.20679970660E+03  0.13230662255E+03 -0.12251619514E+03  0.27437452340E+03  0.00000000000E+00 0.  1.
         11    1    5    5    0    0  0.35822796495E+03 -0.70237540709E+02  0.22384670204E+03  0.42821482110E+03  0.00000000000E+00 0. -1.
        -11    1    5    5    0    0  0.76336538841E+02 -0.64458427205E+01  0.58924759591E+01  0.76834480044E+02  0.00000000000E+00 0.  1.
          3    1    6    6  503    0 -0.23300166716E+03 -0.44492712602E+02  0.95632849191E+03  0.98530886671E+03  0.00000000000E+00 0. -1.
         -3    1    6    6    0  503  0.11134108663E+01 -0.20360763336E+02  0.85544199982E+02  0.87940949039E+02  0.00000000000E+00 0.  1.
<mgrwt>
<rscale>  0 0.15025398E+04</rscale>
<asrwt>0</asrwt>
<pdfrwt beam="1">  1        1 0.23106916E+00 0.15025398E+04</pdfrwt>
<pdfrwt beam="2">  1       -2 0.57812708E-01 0.15025398E+04</pdfrwt>
<totfact> 0.15501036E+01</totfact>
</mgrwt>
</event>
<event>
12    4  0.4280696E-008  0.1291076E+04  0.7818608E-02  0.9036672E-01
         -2   -1    0    0    0  501 -0.00000000000E+00  0.00000000000E+00  0.44320630527E+03  0.44320630527E+03  0.00000000000E+00 0.  1.
          1   -1    0    0  501    0  0.00000000000E+00 -0.00000000000E+00 -0.94023730767E+03  0.94023730767E+03  0.00000000000E+00 0. -1.
        -24    2    1    2    0    0 -0.18523995452E+03  0.29326814291E+03 -0.12515065666E+03  0.37720939567E+03  0.79398973038E+02 0.  0.
        254    2    1    2    0    0  0.18523995452E+03 -0.29326814291E+03 -0.37188034575E+03  0.10062342173E+04  0.86826969546E+03 0.  0.
         23    2    4    4    0    0  0.13305421598E+03 -0.44485119116E+03  0.11408383499E+03  0.48681487088E+03  0.91529178082E+02 0.  0.
         23    2    4    4    0    0  0.52185738545E+02  0.15158304825E+03 -0.48596418074E+03  0.51941934639E+03  0.89075813884E+02 0.  0.
          3    1    3    3  502    0 -0.95436643961E+02  0.13026761239E+03 -0.98639775813E+02  0.18922898621E+03  0.00000000000E+00 0. -1.
         -4    1    3    3    0  502 -0.89803310564E+02  0.16300053052E+03 -0.26510880846E+02  0.18798040946E+03  0.00000000000E+00 0.  1.
         11    1    5    5    0    0  0.10572688659E+03 -0.38473300523E+03  0.12858505968E+03  0.41920374216E+03  0.00000000000E+00 0. -1.
        -11    1    5    5    0    0  0.27327329385E+02 -0.60118185927E+02 -0.14501224686E+02  0.67611128728E+02  0.00000000000E+00 0.  1.
          3    1    6    6  503    0  0.17363446141E+02 -0.38013720038E+01 -0.10532167810E+03  0.10681102737E+03  0.00000000000E+00 0. -1.
         -3    1    6    6    0  503  0.34822292404E+02  0.15538442025E+03 -0.38064250264E+03  0.41260831902E+03  0.00000000000E+00 0.  1.
<mgrwt>
<rscale>  0 0.12910757E+04</rscale>
<asrwt>0</asrwt>
<pdfrwt beam="1">  1        1 0.14465189E+00 0.12910757E+04</pdfrwt>
<pdfrwt beam="2">  1       -2 0.68185586E-01 0.12910757E+04</pdfrwt>
<totfact> 0.28632672E+01</totfact>
</mgrwt>
</event>
<event>
12    4  0.4280696E-008  0.2096098E+04  0.7818608E-02  0.8562964E-01
         -2   -1    0    0    0  501 -0.00000000000E+00  0.00000000000E+00  0.12334227603E+04  0.12334227603E+04  0.00000000000E+00 0.  1.
          1   -1    0    0  501    0  0.00000000000E+00 -0.00000000000E+00 -0.89053525376E+03  0.89053525376E+03  0.00000000000E+00 0. -1.
        -24    2    1    2    0    0  0.40907270188E+03  0.23422359555E+03 -0.58041025930E+03  0.75195468898E+03  0.79740937057E+02 0.  0.
        254    2    1    2    0    0 -0.40907270188E+03 -0.23422359555E+03  0.92329776588E+03  0.13720033251E+04  0.89872865287E+03 0.  0.
         23    2    4    4    0    0 -0.60843970311E+03 -0.93637669398E+02  0.91884809501E+03  0.11096102240E+04  0.89365217257E+02 0.  0.
         23    2    4    4    0    0  0.19936700123E+03 -0.14058592615E+03  0.44496708697E+01  0.26239310111E+03  0.96533601017E+02 0.  0.
          3    1    3    3  502    0  0.33688798832E+03  0.16309981924E+03 -0.48625208606E+03  0.61362542232E+03  0.00000000000E+00 0. -1.
         -4    1    3    3    0  502  0.72184713555E+02  0.71123776317E+02 -0.94158173237E+02  0.13832926666E+03  0.00000000000E+00 0.  1.
         11    1    5    5    0    0 -0.50936286848E+01  0.68193947086E+01  0.47436450731E+01  0.97442991513E+01  0.00000000000E+00 0. -1.
        -11    1    5    5    0    0 -0.60334607443E+03 -0.10045706411E+03  0.91410444993E+03  0.10998659248E+04  0.00000000000E+00 0.  1.
          4    1    6    6  503    0  0.13061246185E+02 -0.52095993268E+02  0.15329862796E+02  0.55853320043E+02  0.00000000000E+00 0. -1.
         -4    1    6    6    0  503  0.18630575505E+03 -0.88489932886E+02 -0.10880191926E+02  0.20653978106E+03  0.00000000000E+00 0.  1.
<mgrwt>
<rscale>  0 0.20960978E+04</rscale>
<asrwt>0</asrwt>
<pdfrwt beam="1">  1        1 0.13700542E+00 0.20960978E+04</pdfrwt>
<pdfrwt beam="2">  1       -2 0.18975735E+00 0.20960978E+04</pdfrwt>
<totfact> 0.23234438E+00</totfact>
</mgrwt>
</event>
<event>
12    4  0.4280696E-008  0.1317960E+04  0.7818608E-02  0.9015443E-01
          1   -1    0    0  501    0  0.00000000000E+00  0.00000000000E+00  0.25046428867E+03  0.25046428867E+03  0.00000000000E+00 0. -1.
         -2   -1    0    0    0  501 -0.00000000000E+00 -0.00000000000E+00 -0.17337975863E+04  0.17337975863E+04  0.00000000000E+00 0.  1.
        -24    2    1    2    0    0 -0.64929535373E+02  0.13125552871E+03 -0.86753310230E+03  0.88336530729E+03  0.79225779628E+02 0.  0.
        254    2    1    2    0    0  0.64929535373E+02 -0.13125552871E+03 -0.61580019534E+03  0.11008965677E+04  0.90073276491E+03 0.  0.
         23    2    4    4    0    0  0.43877469743E+03 -0.48106194819E+02 -0.53509062163E+03  0.69971290052E+03  0.91862553407E+02 0.  0.
         23    2    4    4    0    0 -0.37384516206E+03 -0.83149333893E+02 -0.80709573711E+02  0.40118366716E+03  0.88092466120E+02 0.  0.
          1    1    3    3  502    0 -0.13388928179E+02 -0.92039649165E+01 -0.11060299768E+03  0.11178997926E+03  0.00000000000E+00 0. -1.
         -2    1    3    3    0  502 -0.51540607193E+02  0.14045949363E+03 -0.75693010463E+03  0.77157532803E+03  0.00000000000E+00 0.  1.
         11    1    5    5    0    0  0.43853326091E+02 -0.13306404923E+02 -0.20732619927E+02  0.50299265902E+02  0.00000000000E+00 0. -1.
        -11    1    5    5    0    0  0.39492137134E+03 -0.34799789896E+02 -0.51435800170E+03  0.64941363462E+03  0.00000000000E+00 0.  1.
          3    1    6    6  503    0 -0.83525272493E+01 -0.32700275938E+01  0.12729084956E+02  0.15572006798E+02  0.00000000000E+00 0. -1.
         -3    1    6    6    0  503 -0.36549263481E+03 -0.79879306300E+02 -0.93438658667E+02  0.38561166036E+03  0.00000000000E+00 0.  1.
<mgrwt>
<rscale>  0 0.13179596E+04</rscale>
<asrwt>0</asrwt>
<pdfrwt beam="1">  1        1 0.38532968E-01 0.13179596E+04</pdfrwt>
<pdfrwt beam="2">  1       -2 0.26673809E+00 0.13179596E+04</pdfrwt>
<totfact> 0.48334410E+00</totfact>
</mgrwt>
</event>
<event>
12    4  0.4280696E-008  0.2414706E+04  0.7818608E-02  0.8434018E-01
         -2   -1    0    0    0  501 -0.00000000000E+00  0.00000000000E+00  0.82077126228E+03  0.82077126228E+03  0.00000000000E+00 0.  1.
          1   -1    0    0  501    0  0.00000000000E+00 -0.00000000000E+00 -0.17760135179E+04  0.17760135179E+04  0.00000000000E+00 0. -1.
        -24    2    1    2    0    0 -0.82300868432E+03  0.14648235760E+03 -0.10706324494E+04  0.13606332348E+04  0.79174380448E+02 0.  0.
        254    2    1    2    0    0  0.82300868432E+03 -0.14648235760E+03  0.11539019375E+03  0.12361515453E+04  0.90330248017E+03 0.  0.
         23    2    4    4    0    0  0.58596461974E+03 -0.50674521605E+03 -0.86689542417E+01  0.77889615079E+03  0.80366742915E+02 0.  0.
         23    2    4    4    0    0  0.23704406458E+03  0.36026285844E+03  0.12405914799E+03  0.45725539456E+03  0.87821454804E+02 0.  0.
          1    1    3    3  502    0 -0.63329014782E+03  0.12956431674E+03 -0.87166722709E+03  0.10851944887E+04  0.00000000000E+00 0. -1.
         -2    1    3    3    0  502 -0.18971853650E+03  0.16918040862E+02 -0.19896522229E+03  0.27543874615E+03  0.00000000000E+00 0.  1.
         11    1    5    5    0    0  0.20055321535E+03 -0.17063228957E+03 -0.40995039940E+02  0.26649120760E+03  0.00000000000E+00 0.  1.
        -11    1    5    5    0    0  0.38541140439E+03 -0.33611292648E+03  0.32326085698E+02  0.51240494318E+03  0.00000000000E+00 0. -1.
          1    1    6    6  503    0  0.13696166354E+03  0.15869573066E+03  0.24092967317E+02  0.21100545795E+03  0.00000000000E+00 0. -1.
         -1    1    6    6    0  503  0.10008240104E+03  0.20156712778E+03  0.99966180675E+02  0.24624993661E+03  0.00000000000E+00 0.  1.
<mgrwt>
<rscale>  0 0.24147057E+04</rscale>
<asrwt>0</asrwt>
<pdfrwt beam="1">  1        1 0.27323284E+00 0.24147057E+04</pdfrwt>
<pdfrwt beam="2">  1       -2 0.12627250E+00 0.24147057E+04</pdfrwt>
<totfact> 0.15544587E+00</totfact>
</mgrwt>
</event>
<event>
12    4  0.4280696E-008  0.2198468E+04  0.7818608E-02  0.8519066E-01
         -2   -1    0    0    0  501 -0.00000000000E+00  0.00000000000E+00  0.36201284311E+03  0.36201284311E+03  0.00000000000E+00 0.  1.
          1   -1    0    0  501    0  0.00000000000E+00 -0.00000000000E+00 -0.33377705148E+04  0.33377705148E+04  0.00000000000E+00 0. -1.
        -24    2    1    2    0    0  0.87190253361E+03 -0.27758839409E+03 -0.11972214113E+04  0.15089897126E+04  0.80258958066E+02 0.  0.
        254    2    1    2    0    0 -0.87190253361E+03  0.27758839409E+03 -0.17785362603E+04  0.21907936453E+04  0.89393300769E+03 0.  0.
         23    2    4    4    0    0  0.17049528180E+03  0.57416595434E+02 -0.18482227865E+03  0.27163496071E+03  0.85211329307E+02 0.  0.
         23    2    4    4    0    0 -0.10423978154E+04  0.22017179866E+03 -0.15937139817E+04  0.19191586846E+04  0.90426625926E+02 0.  0.
          3    1    3    3  502    0  0.32713145135E+03 -0.12688360495E+03 -0.51259841071E+03  0.62118561343E+03  0.00000000000E+00 0. -1.
         -4    1    3    3    0  502  0.54477108226E+03 -0.15070478914E+03 -0.68462300061E+03  0.88780409917E+03  0.00000000000E+00 0.  1.
         11    1    5    5    0    0  0.14750269158E+03  0.30278910385E+02 -0.18161945515E+03  0.23592262063E+03  0.00000000000E+00 0. -1.
        -11    1    5    5    0    0  0.22992590225E+02  0.27137685050E+02 -0.32028235036E+01  0.35712340074E+02  0.00000000000E+00 0.  1.
          3    1    6    6  503    0 -0.83398542308E+03  0.20535179537E+03 -0.12417373794E+04  0.15098386553E+04  0.00000000000E+00 0. -1.
         -3    1    6    6    0  503 -0.20841239233E+03  0.14820003286E+02 -0.35197660234E+03  0.40932002928E+03  0.00000000000E+00 0.  1.
<mgrwt>
<rscale>  0 0.21984684E+04</rscale>
<asrwt>0</asrwt>
<pdfrwt beam="1">  1        1 0.51350315E+00 0.21984684E+04</pdfrwt>
<pdfrwt beam="2">  1       -2 0.55694284E-01 0.21984684E+04</pdfrwt>
<totfact> 0.81267392E-01</totfact>
</mgrwt>
</event>
<event>
12    4  0.4280696E-008  0.2773811E+04  0.7818608E-02  0.8311445E-01
          1   -1    0    0  501    0  0.00000000000E+00  0.00000000000E+00  0.12944537929E+04  0.12944537929E+04  0.00000000000E+00 0. -1.
         -2   -1    0    0    0  501 -0.00000000000E+00 -0.00000000000E+00 -0.14859602566E+04  0.14859602566E+04  0.00000000000E+00 0.  1.
        -24    2    1    2    0    0  0.27832317347E+02 -0.69400714481E+03  0.94014196570E+03  0.11713408638E+04  0.75841602680E+02 0.  0.
        254    2    1    2    0    0 -0.27832317347E+02  0.69400714481E+03 -0.11316484295E+04  0.16090731857E+04  0.90888271738E+03 0.  0.
         23    2    4    4    0    0 -0.43253343008E+03  0.33153025445E+03 -0.35465468191E+03  0.65652804519E+03  0.90838609403E+02 0.  0.
         23    2    4    4    0    0  0.40470111274E+03  0.36247689036E+03 -0.77699374755E+03  0.95254514047E+03  0.91926460870E+02 0.  0.
          1    1    3    3  502    0  0.49952495193E+02 -0.43188172351E+03  0.55703678707E+03  0.70661662663E+03  0.00000000000E+00 0. -1.
         -2    1    3    3    0  502 -0.22120177846E+02 -0.26212542130E+03  0.38310517864E+03  0.46472423722E+03  0.00000000000E+00 0.  1.
         11    1    5    5    0    0 -0.56854976886E+02  0.41025014153E+02 -0.12516333630E+02  0.71219370893E+02  0.00000000000E+00 0. -1.
        -11    1    5    5    0    0 -0.37567845320E+03  0.29050524030E+03 -0.34213834828E+03  0.58530867429E+03  0.00000000000E+00 0.  1.
          1    1    6    6  503    0  0.32580084250E+02  0.57052748470E+02 -0.13464033911E+03  0.14981488215E+03  0.00000000000E+00 0. -1.
         -1    1    6    6    0  503  0.37212102849E+03  0.30542414189E+03 -0.64235340844E+03  0.80273025832E+03  0.00000000000E+00 0.  1.
<mgrwt>
<rscale>  0 0.27738110E+04</rscale>
<asrwt>0</asrwt>
<pdfrwt beam="1">  1        1 0.19914674E+00 0.27738110E+04</pdfrwt>
<pdfrwt beam="2">  1       -2 0.22860927E+00 0.27738110E+04</pdfrwt>
<totfact> 0.60650834E-01</totfact>
</mgrwt>
</event>
<event>
12    4  0.4280696E-008  0.2509362E+04  0.7818608E-02  0.8399658E-01
         -2   -1    0    0    0  501 -0.00000000000E+00  0.00000000000E+00  0.10744691119E+04  0.10744691119E+04  0.00000000000E+00 0.  1.
          1   -1    0    0  501    0  0.00000000000E+00 -0.00000000000E+00 -0.14651188446E+04  0.14651188446E+04  0.00000000000E+00 0. -1.
        -24    2    1    2    0    0 -0.90872567080E+03 -0.46941814458E+03 -0.58300596617E+03  0.11803236047E+04  0.84451855931E+02 0.  0.
        254    2    1    2    0    0  0.90872567080E+03  0.46941814458E+03  0.19235623344E+03  0.13592643519E+04  0.87433570124E+03 0.  0.
         23    2    4    4    0    0  0.41538035296E+03 -0.14734577953E+02 -0.28693238108E+03  0.51329291556E+03  0.91550425661E+02 0.  0.
         23    2    4    4    0    0  0.49334531783E+03  0.48415272253E+03  0.47928861452E+03  0.84597143629E+03  0.90314083338E+02 0.  0.
          3    1    3    3  502    0 -0.82782580157E+03 -0.40906307646E+03 -0.50275942559E+03  0.10513777619E+04  0.00000000000E+00 0. -1.
         -4    1    3    3    0  502 -0.80899869225E+02 -0.60355068118E+02 -0.80246540587E+02  0.12894584276E+03  0.00000000000E+00 0.  1.
         11    1    5    5    0    0  0.32507853121E+03 -0.46597052920E+02 -0.23931767961E+03  0.40634995824E+03  0.00000000000E+00 0. -1.
        -11    1    5    5    0    0  0.90301821757E+02  0.31862474967E+02 -0.47614701473E+02  0.10694295732E+03  0.00000000000E+00 0.  1.
          4    1    6    6  503    0  0.31157102716E+03  0.29233922660E+03  0.24322809690E+03  0.49162855439E+03  0.00000000000E+00 0. -1.
         -4    1    6    6    0  503  0.18177429068E+03  0.19181349594E+03  0.23606051763E+03  0.35434288190E+03  0.00000000000E+00 0.  1.
<mgrwt>
<rscale>  0 0.25093624E+04</rscale>
<asrwt>0</asrwt>
<pdfrwt beam="1">  1        1 0.22540290E+00 0.25093624E+04</pdfrwt>
<pdfrwt beam="2">  1       -2 0.16530294E+00 0.25093624E+04</pdfrwt>
<totfact> 0.12419658E+00</totfact>
</mgrwt>
</event>
<event>
12    4  0.4421167E-008  0.2310811E+04  0.7818608E-02  0.8473671E-01
          1   -1    0    0  501    0  0.00000000000E+00  0.00000000000E+00  0.14196557776E+04  0.14196557776E+04  0.00000000000E+00 0. -1.
         -2   -1    0    0    0  501 -0.00000000000E+00 -0.00000000000E+00 -0.94034177176E+03  0.94034177176E+03  0.00000000000E+00 0.  1.
        -24    2    1    2    0    0  0.55222907491E+03 -0.66296436566E+03 -0.26713483411E+03  0.90672858529E+03  0.79479597864E+02 0.  0.
        254    2    1    2    0    0 -0.55222907491E+03  0.66296436566E+03  0.74644884000E+03  0.14532689641E+04  0.90018115399E+03 0.  0.
         23    2    4    4    0    0 -0.51964827195E+03  0.55283918000E+03  0.93900627596E+03  0.12106182236E+04  0.90543975189E+02 0.  0.
         23    2    4    4    0    0 -0.32580802958E+02  0.11012518566E+03 -0.19255743596E+03  0.24265074055E+03  0.92800595409E+02 0.  0.
          3    1    3    3  502    0 -0.73551702259E+00 -0.97012530357E+01 -0.76682749618E+01  0.12387805966E+02  0.00000000000E+00 0. -1.
         -2    1    3    3    0  502  0.55296459193E+03 -0.65326311262E+03 -0.25946655915E+03  0.89434077932E+03  0.00000000000E+00 0.  1.
         11    1    5    5    0    0 -0.45081856453E+03  0.46099003077E+03  0.84072029742E+03  0.10595092284E+04  0.00000000000E+00 0. -1.
        -11    1    5    5    0    0 -0.68829707423E+02  0.91849149228E+02  0.98285978539E+02  0.15110899515E+03  0.00000000000E+00 0.  1.
          2    1    6    6  503    0 -0.62983474103E+02  0.93663654376E+02 -0.14180700375E+03  0.18124299841E+03  0.00000000000E+00 0. -1.
         -2    1    6    6    0  503  0.30402671145E+02  0.16461531284E+02 -0.50750432211E+02  0.61407742139E+02  0.00000000000E+00 0.  1.
<mgrwt>
<rscale>  0 0.23108108E+04</rscale>
<asrwt>0</asrwt>
<pdfrwt beam="1">  1        1 0.21840858E+00 0.23108108E+04</pdfrwt>
<pdfrwt beam="2">  1       -2 0.14466797E+00 0.23108108E+04</pdfrwt>
<totfact> 0.19449679E+00</totfact>
</mgrwt>
</event>
<event>
12    4  0.4280696E-008  0.1660661E+04  0.7818608E-02  0.8784124E-01
         -2   -1    0    0    0  501 -0.00000000000E+00  0.00000000000E+00  0.19192768539E+04  0.19192768539E+04  0.00000000000E+00 0.  1.
          1   -1    0    0  501    0  0.00000000000E+00 -0.00000000000E+00 -0.35922333236E+03  0.35922333236E+03  0.00000000000E+00 0. -1.
        -24    2    1    2    0    0  0.20280935088E+03 -0.23040599462E+03 -0.12412577071E+03  0.34124350148E+03  0.82591556372E+02 0.  0.
        254    2    1    2    0    0 -0.20280935088E+03  0.23040599462E+03  0.16841792922E+04  0.19372566848E+04  0.90679932684E+03 0.  0.
         23    2    4    4    0    0  0.22689207058E+03  0.11654595797E+03  0.99479598271E+02  0.28892413464E+03  0.92292974240E+02 0.  0.
         23    2    4    4    0    0 -0.42970142147E+03  0.11386003664E+03  0.15846996940E+04  0.16483325501E+04  0.90109135020E+02 0.  0.
          1    1    3    3  502    0  0.19857744403E+03 -0.19973802657E+03 -0.12919898808E+03  0.30987200431E+03  0.00000000000E+00 0. -1.
         -2    1    3    3    0  502  0.42319068487E+01 -0.30667968049E+02  0.50732173659E+01  0.31371497163E+02  0.00000000000E+00 0.  1.
         11    1    5    5    0    0  0.12262867669E+03  0.93641838832E+02  0.96791995781E+02  0.18214081578E+03  0.00000000000E+00 0.  1.
        -11    1    5    5    0    0  0.10426339390E+03  0.22904119140E+02  0.26876024901E+01  0.10678331886E+03  0.00000000000E+00 0. -1.
          1    1    6    6  503    0  0.17622132415E+01 -0.54759019453E+01  0.25510474515E+02  0.26151007774E+02  0.00000000000E+00 0. -1.
         -1    1    6    6    0  503 -0.43146363471E+03  0.11933593859E+03  0.15591892194E+04  0.16221815424E+04  0.00000000000E+00 0.  1.
<mgrwt>
<rscale>  0 0.16606613E+04</rscale>
<asrwt>0</asrwt>
<pdfrwt beam="1">  1        1 0.55265129E-01 0.16606613E+04</pdfrwt>
<pdfrwt beam="2">  1       -2 0.29527336E+00 0.16606613E+04</pdfrwt>
<totfact> 0.19663307E+00</totfact>
</mgrwt>
</event>
<event>
12    4  0.4280696E-008  0.2327203E+04  0.7818608E-02  0.8467272E-01
         -2   -1    0    0    0  501 -0.00000000000E+00  0.00000000000E+00  0.17663921595E+04  0.17663921595E+04  0.00000000000E+00 0.  1.
          1   -1    0    0  501    0  0.00000000000E+00 -0.00000000000E+00 -0.76651603849E+03  0.76651603849E+03  0.00000000000E+00 0. -1.
        -24    2    1    2    0    0 -0.39598058642E+03  0.20664775237E+03  0.13842647831E+04  0.14565753985E+04  0.76934930119E+02 0.  0.
        254    2    1    2    0    0  0.39598058642E+03 -0.20664775237E+03 -0.38438866208E+03  0.10763327995E+04  0.90068514660E+03 0.  0.
         23    2    4    4    0    0 -0.58803837515E+02 -0.23154714068E+03  0.20350210380E+03  0.32662179384E+03  0.90535740433E+02 0.  0.
         23    2    4    4    0    0  0.45478442394E+03  0.24899388309E+02 -0.58789076589E+03  0.74971100564E+03  0.94879858575E+02 0.  0.
          3    1    3    3  502    0 -0.58606020601E+02  0.14944789458E+02  0.26958314692E+03  0.27628442859E+03  0.00000000000E+00 0. -1.
         -4    1    3    3    0  502 -0.33737456582E+03  0.19170296291E+03  0.11146816362E+04  0.11802909699E+04  0.00000000000E+00 0.  1.
         11    1    5    5    0    0 -0.72855965605E+02 -0.16094262551E+03  0.17652711431E+03  0.24974455452E+03  0.00000000000E+00 0.  1.
        -11    1    5    5    0    0  0.14052128089E+02 -0.70604515173E+02  0.26974989499E+02  0.76877239318E+02  0.00000000000E+00 0. -1.
          2    1    6    6  503    0  0.16501482054E+01  0.10759959830E+02 -0.73906625106E+01  0.13157568810E+02  0.00000000000E+00 0. -1.
         -2    1    6    6    0  503  0.45313427573E+03  0.14139428479E+02 -0.58050010338E+03  0.73655343683E+03  0.00000000000E+00 0.  1.
<mgrwt>
<rscale>  0 0.23272025E+04</rscale>
<asrwt>0</asrwt>
<pdfrwt beam="1">  1        1 0.11792554E+00 0.23272025E+04</pdfrwt>
<pdfrwt beam="2">  1       -2 0.27175264E+00 0.23272025E+04</pdfrwt>
<totfact> 0.88466531E-01</totfact>
</mgrwt>
</event>
<event>
12    4  0.4280696E-008  0.2039781E+04  0.7818608E-02  0.8588245E-01
          3   -1    0    0  501    0  0.00000000000E+00  0.00000000000E+00  0.11794060791E+04  0.11794060791E+04  0.00000000000E+00 0. -1.
         -4   -1    0    0    0  501 -0.00000000000E+00 -0.00000000000E+00 -0.88194919642E+03  0.88194919642E+03  0.00000000000E+00 0.  1.
        -24    2    1    2    0    0  0.28722686048E+03 -0.11046936482E+03 -0.63140755394E+03  0.70698342663E+03  0.80295183011E+02 0.  0.
        254    2    1    2    0    0 -0.28722686048E+03  0.11046936482E+03  0.92886443664E+03  0.13543718489E+04  0.93639265990E+03 0.  0.
         23    2    4    4    0    0 -0.44296378913E+03  0.27834222896E+03  0.96914653687E+03  0.11049164079E+04  0.88904125851E+02 0.  0.
         23    2    4    4    0    0  0.15573692865E+03 -0.16787286414E+03 -0.40282100229E+02  0.24945544102E+03  0.90388494837E+02 0.  0.
          1    1    3    3  502    0  0.26600844796E+03 -0.11159196636E+03 -0.53044164733E+03  0.60380593121E+03  0.00000000000E+00 0. -1.
         -2    1    3    3    0  502  0.21218412523E+02  0.11226015425E+01 -0.10096590661E+03  0.10317749542E+03  0.00000000000E+00 0.  1.
         11    1    5    5    0    0 -0.19255668504E+03  0.17197140167E+03  0.44989788794E+03  0.51871027513E+03  0.00000000000E+00 0.  1.
        -11    1    5    5    0    0 -0.25040710409E+03  0.10637082729E+03  0.51924864892E+03  0.58620613276E+03  0.00000000000E+00 0. -1.
          2    1    6    6  503    0  0.12069723598E+03 -0.75898723666E+02 -0.48719139980E+02  0.15067180767E+03  0.00000000000E+00 0. -1.
         -2    1    6    6    0  503  0.35039692666E+02 -0.91974140474E+02  0.84370397513E+01  0.98783633350E+02  0.00000000000E+00 0.  1.
<mgrwt>
<rscale>  0 0.20397806E+04</rscale>
<asrwt>0</asrwt>
<pdfrwt beam="1">  1        3 0.18144709E+00 0.20397806E+04</pdfrwt>
<pdfrwt beam="2">  1       -4 0.13568449E+00 0.20397806E+04</pdfrwt>
<totfact> 0.15954977E-01</totfact>
</mgrwt>
</event>
<event>
12    4  0.4280696E-008  0.3709800E+04  0.7818608E-02  0.8065793E-01
         -2   -1    0    0    0  501 -0.00000000000E+00  0.00000000000E+00  0.15466890752E+04  0.15466890752E+04  0.00000000000E+00 0.  1.
          1   -1    0    0  501    0  0.00000000000E+00 -0.00000000000E+00 -0.22245287460E+04  0.22245287460E+04  0.00000000000E+00 0. -1.
        -24    2    1    2    0    0 -0.14605131935E+03  0.52208441534E+03  0.13660750298E+04  0.14717308373E+04  0.76990556259E+02 0.  0.
        254    2    1    2    0    0  0.14605131935E+03 -0.52208441534E+03 -0.20439147007E+04  0.22994869839E+04  0.90341018404E+03 0.  0.
         23    2    4    4    0    0 -0.32071699183E+03  0.44311270266E+01 -0.81696891841E+03  0.88240378775E+03  0.91209688380E+02 0.  0.
         23    2    4    4    0    0  0.46676831118E+03 -0.52651554236E+03 -0.12269457823E+04  0.14170831961E+04  0.87393131142E+02 0.  0.
          1    1    3    3  502    0 -0.26789694736E+02  0.93243469885E+02  0.33297447585E+03  0.34681988695E+03  0.00000000000E+00 0. -1.
         -2    1    3    3    0  502 -0.11926162461E+03  0.42884094545E+03  0.10331005540E+04  0.11249109504E+04  0.00000000000E+00 0.  1.
         11    1    5    5    0    0 -0.12929379663E+03  0.41696553068E+02 -0.39064824609E+03  0.41359586622E+03  0.00000000000E+00 0. -1.
        -11    1    5    5    0    0 -0.19142319520E+03 -0.37265426041E+02 -0.42632067232E+03  0.46880792153E+03  0.00000000000E+00 0.  1.
          1    1    6    6  503    0  0.22033243192E+03 -0.30630214992E+03 -0.61235385203E+03  0.71926672917E+03  0.00000000000E+00 0. -1.
         -1    1    6    6    0  503  0.24643587926E+03 -0.22021339245E+03 -0.61459193027E+03  0.69781646696E+03  0.00000000000E+00 0.  1.
<mgrwt>
<rscale>  0 0.37098002E+04</rscale>
<asrwt>0</asrwt>
<pdfrwt beam="1">  1        1 0.34223519E+00 0.37098002E+04</pdfrwt>
<pdfrwt beam="2">  1       -2 0.23795217E+00 0.37098002E+04</pdfrwt>
<totfact> 0.11273443E-01</totfact>
</mgrwt>
</event>
<event>
12    4  0.4280696E-008  0.1886425E+04  0.7818608E-02  0.8661643E-01
          1   -1    0    0  501    0  0.00000000000E+00  0.00000000000E+00  0.59399234397E+03  0.59399234397E+03  0.00000000000E+00 0. -1.
         -2   -1    0    0    0  501 -0.00000000000E+00 -0.00000000000E+00 -0.14977463098E+04  0.14977463098E+04  0.00000000000E+00 0.  1.
        -24    2    1    2    0    0  0.20275764926E+03  0.69670991417E+03 -0.29867706521E+03  0.78863332455E+03  0.78861666662E+02 0.  0.
        254    2    1    2    0    0 -0.20275764926E+03 -0.69670991417E+03 -0.60507690059E+03  0.13031053292E+04  0.89746870391E+03 0.  0.
         23    2    4    4    0    0 -0.15911234269E+03 -0.89711244641E+03 -0.39991376104E+03  0.99881241740E+03  0.86992814582E+02 0.  0.
         23    2    4    4    0    0 -0.43645306569E+02  0.20040253224E+03 -0.20516313955E+03  0.30429291179E+03  0.91848650616E+02 0.  0.
          3    1    3    3  502    0  0.19056348342E+02  0.12518624623E+03 -0.79694530255E+02  0.14961937979E+03  0.00000000000E+00 0. -1.
         -4    1    3    3    0  502  0.18370130092E+03  0.57152366795E+03 -0.21898253496E+03  0.63901394476E+03  0.00000000000E+00 0.  1.
         11    1    5    5    0    0 -0.10365615454E+03 -0.39423992148E+03 -0.14830668379E+03  0.43377942151E+03  0.00000000000E+00 0. -1.
        -11    1    5    5    0    0 -0.55456188150E+02 -0.50287252493E+03 -0.25160707725E+03  0.56503299590E+03  0.00000000000E+00 0.  1.
          1    1    6    6  503    0 -0.71541799580E+02  0.16317431036E+03 -0.16040033543E+03  0.23973391969E+03  0.00000000000E+00 0. -1.
         -1    1    6    6    0  503  0.27896493011E+02  0.37228221883E+02 -0.44762804125E+02  0.64558992093E+02  0.00000000000E+00 0.  1.
<mgrwt>
<rscale>  0 0.18864250E+04</rscale>
<asrwt>0</asrwt>
<pdfrwt beam="1">  1        1 0.91383438E-01 0.18864250E+04</pdfrwt>
<pdfrwt beam="2">  1       -2 0.23042251E+00 0.18864250E+04</pdfrwt>
<totfact> 0.24206244E+00</totfact>
</mgrwt>
</event>
<event>
12    4  0.4280696E-008  0.1206356E+04  0.7818608E-02  0.9107311E-01
          1   -1    0    0  501    0  0.00000000000E+00  0.00000000000E+00  0.15838494903E+04  0.15838494903E+04  0.00000000000E+00 0. -1.
         -2   -1    0    0    0  501 -0.00000000000E+00 -0.00000000000E+00 -0.22970864321E+03  0.22970864321E+03  0.00000000000E+00 0.  1.
        -24    2    1    2    0    0 -0.78540338063E+02  0.20591756217E+03  0.46009282257E+03  0.51683665951E+03  0.82849864932E+02 0.  0.
        254    2    1    2    0    0  0.78540338063E+02 -0.20591756217E+03  0.89404802454E+03  0.12967214740E+04  0.91301373697E+03 0.  0.
         23    2    4    4    0    0 -0.33100742369E+03 -0.50828789328E+02  0.75018682944E+03  0.82670103337E+03  0.92221684797E+02 0.  0.
         23    2    4    4    0    0  0.40954776176E+03 -0.15508877285E+03  0.14386119510E+03  0.47002044065E+03  0.91876409123E+02 0.  0.
          1    1    3    3  502    0 -0.74704978934E+02  0.19872467338E+03  0.46201755865E+03  0.50846096624E+03  0.00000000000E+00 0. -1.
         -2    1    3    3    0  502 -0.38353591287E+01  0.71928887914E+01 -0.19247360791E+01  0.83756932719E+01  0.00000000000E+00 0.  1.
         11    1    5    5    0    0 -0.38289291333E+02  0.14259011142E+01  0.33941769237E+02  0.51187368791E+02  0.00000000000E+00 0. -1.
        -11    1    5    5    0    0 -0.29271813236E+03 -0.52254690442E+02  0.71624506020E+03  0.77551366458E+03  0.00000000000E+00 0.  1.
          4    1    6    6  503    0 -0.28771472998E+01 -0.22827588372E+01 -0.45370381983E+01  0.58372664927E+01  0.00000000000E+00 0. -1.
         -4    1    6    6    0  503  0.41242490906E+03 -0.15280601401E+03  0.14839823330E+03  0.46418317416E+03  0.00000000000E+00 0.  1.
<mgrwt>
<rscale>  0 0.12063564E+04</rscale>
<asrwt>0</asrwt>
<pdfrwt beam="1">  1        1 0.24366915E+00 0.12063564E+04</pdfrwt>
<pdfrwt beam="2">  1       -2 0.35339792E-01 0.12063564E+04</pdfrwt>
<totfact> 0.37376312E+01</totfact>
</mgrwt>
</event>
<event>
12    4  0.4280696E-008  0.1869735E+04  0.7818608E-02  0.8670070E-01
         -4   -1    0    0    0  501 -0.00000000000E+00  0.00000000000E+00  0.35931412331E+03  0.35931412331E+03  0.00000000000E+00 0.  1.
          3   -1    0    0  501    0  0.00000000000E+00 -0.00000000000E+00 -0.24323474951E+04  0.24323474951E+04  0.00000000000E+00 0. -1.
        -24    2    1    2    0    0  0.26818972443E+03 -0.18787954146E+03  0.15203200635E+03  0.36993486792E+03  0.80707032916E+02 0.  0.
        254    2    1    2    0    0 -0.26818972443E+03  0.18787954146E+03 -0.22250653782E+04  0.24217267505E+04  0.89812029631E+03 0.  0.
         23    2    4    4    0    0  0.11358010698E+03 -0.78675826236E+02 -0.17275193123E+04  0.17354486699E+04  0.91481064339E+02 0.  0.
         23    2    4    4    0    0 -0.38176983140E+03  0.26655536769E+03 -0.49754606587E+03  0.68627808062E+03  0.81397469617E+02 0.  0.
          1    1    3    3  502    0 -0.54010962073E+01 -0.10397409774E+01  0.21475458829E+00  0.55044546572E+01  0.00000000000E+00 0. -1.
         -2    1    3    3    0  502  0.27359082064E+03 -0.18683980048E+03  0.15181725176E+03  0.36443041326E+03  0.00000000000E+00 0.  1.
         11    1    5    5    0    0  0.11912203251E+03 -0.90370814994E+02 -0.16585034468E+04  0.16652299018E+04  0.00000000000E+00 0.  1.
        -11    1    5    5    0    0 -0.55419255301E+01  0.11694988758E+02 -0.69015865488E+02  0.70218768073E+02  0.00000000000E+00 0. -1.
          1    1    6    6  503    0 -0.18963319681E+02  0.41611627653E+02 -0.44753658558E+02  0.63984568480E+02  0.00000000000E+00 0. -1.
         -1    1    6    6    0  503 -0.36280651172E+03  0.22494374004E+03 -0.45279240731E+03  0.62229351214E+03  0.00000000000E+00 0.  1.
<mgrwt>
<rscale>  0 0.18697345E+04</rscale>
<asrwt>0</asrwt>
<pdfrwt beam="1">  1        3 0.37420731E+00 0.18697345E+04</pdfrwt>
<pdfrwt beam="2">  1       -4 0.55279096E-01 0.18697345E+04</pdfrwt>
<totfact> 0.10314820E-01</totfact>
</mgrwt>
</event>
<event>
12    4  0.4280696E-008  0.2714142E+04  0.7818608E-02  0.8330431E-01
         -2   -1    0    0    0  501 -0.00000000000E+00  0.00000000000E+00  0.15367796334E+04  0.15367796334E+04  0.00000000000E+00 0.  1.
          1   -1    0    0  501    0  0.00000000000E+00 -0.00000000000E+00 -0.11983770523E+04  0.11983770523E+04  0.00000000000E+00 0. -1.
        -24    2    1    2    0    0  0.84488581823E+03 -0.64174860656E+03  0.72284719808E+03  0.12862674561E+04  0.79388771025E+02 0.  0.
        254    2    1    2    0    0 -0.84488581823E+03  0.64174860656E+03 -0.38444461693E+03  0.14488892296E+04  0.90874034595E+03 0.  0.
         23    2    4    4    0    0  0.25896508560E+02  0.21904042482E+03 -0.41216433924E+03  0.47622650365E+03  0.90900513579E+02 0.  0.
         23    2    4    4    0    0 -0.87078232679E+03  0.42270818174E+03  0.27719722314E+02  0.97266272598E+03  0.91434828926E+02 0.  0.
          1    1    3    3  502    0  0.45638888078E+02 -0.60050367880E+02  0.51359635788E+02  0.91251120409E+02  0.00000000000E+00 0. -1.
         -2    1    3    3    0  502  0.79924693015E+03 -0.58169823868E+03  0.67148756229E+03  0.11950163357E+04  0.00000000000E+00 0.  1.
         11    1    5    5    0    0  0.58553793946E+02  0.16497528701E+03 -0.31385800612E+03  0.35937757319E+03  0.00000000000E+00 0. -1.
        -11    1    5    5    0    0 -0.32657285387E+02  0.54065137814E+02 -0.98306333129E+02  0.11684893046E+03  0.00000000000E+00 0.  1.
          2    1    6    6  503    0 -0.86317364743E+03  0.41037521708E+03  0.19407237285E+02  0.95595669633E+03  0.00000000000E+00 0. -1.
         -2    1    6    6    0  503 -0.76086793580E+01  0.12332964667E+02  0.83124850292E+01  0.16706029642E+02  0.00000000000E+00 0.  1.
<mgrwt>
<rscale>  0 0.27141418E+04</rscale>
<asrwt>0</asrwt>
<pdfrwt beam="1">  1        1 0.18436570E+00 0.27141418E+04</pdfrwt>
<pdfrwt beam="2">  1       -2 0.23642764E+00 0.27141418E+04</pdfrwt>
<totfact> 0.63927399E-01</totfact>
</mgrwt>
</event>
<event>
12    4  0.4280696E-008  0.1606502E+04  0.7818608E-02  0.8816564E-01
          1   -1    0    0  501    0  0.00000000000E+00  0.00000000000E+00  0.17556831335E+04  0.17556831335E+04  0.00000000000E+00 0. -1.
         -2   -1    0    0    0  501 -0.00000000000E+00 -0.00000000000E+00 -0.36749901658E+03  0.36749901658E+03  0.00000000000E+00 0.  1.
        -24    2    1    2    0    0  0.29192387235E+03 -0.84413961153E+02  0.10841525077E+04  0.11288070625E+04  0.80457817338E+02 0.  0.
        254    2    1    2    0    0 -0.29192387235E+03  0.84413961153E+02  0.30403160925E+03  0.99437508759E+03  0.89666121323E+03 0.  0.
         23    2    4    4    0    0 -0.21331837512E+03  0.26112793909E+03 -0.23022416184E+03  0.41874455833E+03  0.93012422277E+02 0.  0.
         23    2    4    4    0    0 -0.78605497231E+02 -0.17671397794E+03  0.53425577109E+03  0.57563052926E+03  0.92274715306E+02 0.  0.
          1    1    3    3  502    0  0.24066407313E+03 -0.79986640430E+02  0.98470128679E+03  0.10168351307E+04  0.00000000000E+00 0. -1.
         -2    1    3    3    0  502  0.51259799219E+02 -0.44273207226E+01  0.99451220912E+02  0.11197193187E+03  0.00000000000E+00 0.  1.
         11    1    5    5    0    0 -0.12321355371E+03  0.13247406052E+03 -0.17647415226E+03  0.25273322485E+03  0.00000000000E+00 0.  1.
        -11    1    5    5    0    0 -0.90104821407E+02  0.12865387857E+03 -0.53750009575E+02  0.16601133347E+03  0.00000000000E+00 0. -1.
          2    1    6    6  503    0  0.20492365229E+02 -0.44050875728E+02  0.11332435855E+03  0.12329974422E+03  0.00000000000E+00 0. -1.
         -2    1    6    6    0  503 -0.99097862460E+02 -0.13266310221E+03  0.42093141254E+03  0.45233078504E+03  0.00000000000E+00 0.  1.
<mgrwt>
<rscale>  0 0.16065016E+04</rscale>
<asrwt>0</asrwt>
<pdfrwt beam="1">  1        1 0.27010509E+00 0.16065016E+04</pdfrwt>
<pdfrwt beam="2">  1       -2 0.56538311E-01 0.16065016E+04</pdfrwt>
<totfact> 0.10790277E+01</totfact>
</mgrwt>
</event>
<event>
12    4  0.4280696E-008  0.1464625E+04  0.7818608E-02  0.8908324E-01
          1   -1    0    0  501    0  0.00000000000E+00  0.00000000000E+00  0.26974393273E+04  0.26974393273E+04  0.00000000000E+00 0. -1.
         -2   -1    0    0    0  501 -0.00000000000E+00 -0.00000000000E+00 -0.19881127791E+03  0.19881127791E+03  0.00000000000E+00 0.  1.
        -24    2    1    2    0    0  0.38022704546E+03  0.20923316499E+03  0.52270231977E+03  0.68405645519E+03  0.79777160689E+02 0.  0.
        254    2    1    2    0    0 -0.38022704546E+03 -0.20923316499E+03  0.19759257296E+04  0.22121941500E+04  0.89508063601E+03 0.  0.
         23    2    4    4    0    0  0.13115570709E+03 -0.20417240917E+03  0.11980418587E+03  0.28474494821E+03  0.88535023628E+02 0.  0.
         23    2    4    4    0    0 -0.51138275255E+03 -0.50607558271E+01  0.18561215437E+04  0.19274492018E+04  0.91297916452E+02 0.  0.
          1    1    3    3  502    0  0.20124872600E+02  0.12202302354E+01  0.53026371316E+02  0.56730023038E+02  0.00000000000E+00 0. -1.
         -2    1    3    3    0  502  0.36010217286E+03  0.20801293476E+03  0.46967594845E+03  0.62732643215E+03  0.00000000000E+00 0.  1.
         11    1    5    5    0    0 -0.94125914959E+01 -0.26370671251E+01 -0.27613035979E+01  0.10157548880E+02  0.00000000000E+00 0.  1.
        -11    1    5    5    0    0  0.14056829859E+03 -0.20153534204E+03  0.12256548947E+03  0.27458739933E+03  0.00000000000E+00 0. -1.
          2    1    6    6  503    0 -0.40424496769E+03 -0.57579814440E+00  0.13121149009E+04  0.13729748135E+04  0.00000000000E+00 0. -1.
         -2    1    6    6    0  503 -0.10713778486E+03 -0.44849576827E+01  0.54400664284E+03  0.55447438826E+03  0.00000000000E+00 0.  1.
<mgrwt>
<rscale>  0 0.14646247E+04</rscale>
<asrwt>0</asrwt>
<pdfrwt beam="1">  1        1 0.41499064E+00 0.14646247E+04</pdfrwt>
<pdfrwt beam="2">  1       -2 0.30586352E-01 0.14646247E+04</pdfrwt>
<totfact> 0.83374468E+00</totfact>
</mgrwt>
</event>
<event>
12    4  0.4280696E-008  0.1963284E+04  0.7818608E-02  0.8623981E-01
         -2   -1    0    0    0  501 -0.00000000000E+00  0.00000000000E+00  0.92431066047E+03  0.92431066047E+03  0.00000000000E+00 0.  1.
          1   -1    0    0  501    0  0.00000000000E+00 -0.00000000000E+00 -0.10425296867E+04  0.10425296867E+04  0.00000000000E+00 0. -1.
        -24    2    1    2    0    0  0.86355101478E+02 -0.66028310322E+03 -0.43976531139E+03  0.80199921213E+03  0.79863804100E+02 0.  0.
        254    2    1    2    0    0 -0.86355101478E+02  0.66028310322E+03  0.32154628517E+03  0.11648411350E+04  0.90001770896E+03 0.  0.
         23    2    4    4    0    0 -0.23948216051E+03  0.21111115960E+03  0.54058622504E+03  0.63439721495E+03  0.91141278909E+02 0.  0.
         23    2    4    4    0    0  0.15312705903E+03  0.44917194362E+03 -0.21903993987E+03  0.53044392009E+03  0.90492684602E+02 0.  0.
          1    1    3    3  502    0  0.44436265294E+02 -0.34943631651E+03 -0.28009245711E+03  0.45003567136E+03  0.00000000000E+00 0. -1.
         -2    1    3    3    0  502  0.41918836184E+02 -0.31084678671E+03 -0.15967285428E+03  0.35196354077E+03  0.00000000000E+00 0.  1.
         11    1    5    5    0    0 -0.16045315883E+03  0.88730968601E+02  0.25862381391E+03  0.31702472788E+03  0.00000000000E+00 0.  1.
        -11    1    5    5    0    0 -0.79029001674E+02  0.12238019100E+03  0.28196241113E+03  0.31737248707E+03  0.00000000000E+00 0. -1.
          4    1    6    6  503    0 -0.70577780439E+00  0.56814151375E+02 -0.52287098123E+02  0.77215843898E+02  0.00000000000E+00 0. -1.
         -4    1    6    6    0  503  0.15383283683E+03  0.39235779224E+03 -0.16675284175E+03  0.45322807620E+03  0.00000000000E+00 0.  1.
<mgrwt>
<rscale>  0 0.19632843E+04</rscale>
<asrwt>0</asrwt>
<pdfrwt beam="1">  1        1 0.16038918E+00 0.19632843E+04</pdfrwt>
<pdfrwt beam="2">  1       -2 0.14220164E+00 0.19632843E+04</pdfrwt>
<totfact> 0.39453739E+00</totfact>
</mgrwt>
</event>
<event>
12    4  0.4280696E-008  0.3552405E+04  0.7818608E-02  0.8101482E-01
          1   -1    0    0  501    0  0.00000000000E+00  0.00000000000E+00  0.14986930216E+04  0.14986930216E+04  0.00000000000E+00 0. -1.
         -2   -1    0    0    0  501 -0.00000000000E+00 -0.00000000000E+00 -0.21050976847E+04  0.21050976847E+04  0.00000000000E+00 0.  1.
        -24    2    1    2    0    0 -0.59680353910E+03  0.12955200714E+04  0.58023936121E+03  0.15419350027E+04  0.79618569362E+02 0.  0.
        254    2    1    2    0    0  0.59680353910E+03 -0.12955200714E+04 -0.11866440244E+04  0.20618557036E+04  0.89920975430E+03 0.  0.
         23    2    4    4    0    0  0.22606308189E+03 -0.91843038434E+03 -0.25040304952E+03  0.98272662140E+03  0.91820680226E+02 0.  0.
         23    2    4    4    0    0  0.37074045721E+03 -0.37708968704E+03 -0.93624097489E+03  0.10791290822E+04  0.91254010025E+02 0.  0.
          3    1    3    3  502    0 -0.48453216797E+03  0.10751276470E+04  0.50992424520E+03  0.12847932188E+04  0.00000000000E+00 0. -1.
         -4    1    3    3    0  502 -0.11227137113E+03  0.22039242438E+03  0.70315116006E+02  0.25714178392E+03  0.00000000000E+00 0.  1.
         11    1    5    5    0    0  0.21890938677E+03 -0.88250585730E+03 -0.25835517240E+03  0.94524351513E+03  0.00000000000E+00 0. -1.
        -11    1    5    5    0    0  0.71536951249E+01 -0.35924527043E+02  0.79521228873E+01  0.37483106269E+02  0.00000000000E+00 0.  1.
          2    1    6    6  503    0  0.12734336966E+03 -0.17566049107E+03 -0.44480953267E+03  0.49490247754E+03  0.00000000000E+00 0. -1.
         -2    1    6    6    0  503  0.24339708754E+03 -0.20142919597E+03 -0.49143144222E+03  0.58422660468E+03  0.00000000000E+00 0.  1.
<mgrwt>
<rscale>  0 0.35524049E+04</rscale>
<asrwt>0</asrwt>
<pdfrwt beam="1">  1        1 0.23056816E+00 0.35524049E+04</pdfrwt>
<pdfrwt beam="2">  1       -2 0.32386118E+00 0.35524049E+04</pdfrwt>
<totfact> 0.10595838E-01</totfact>
</mgrwt>
</event>
<event>
12    4  0.4280696E-008  0.1984499E+04  0.7818608E-02  0.8613903E-01
         -2   -1    0    0    0  501 -0.00000000000E+00  0.00000000000E+00  0.62526434511E+03  0.62526434511E+03  0.00000000000E+00 0.  1.
          1   -1    0    0  501    0  0.00000000000E+00 -0.00000000000E+00 -0.15746278949E+04  0.15746278949E+04  0.00000000000E+00 0. -1.
        -24    2    1    2    0    0  0.44367373148E+03  0.30992380738E+03  0.25385726679E+03  0.60290700915E+03  0.78448730971E+02 0.  0.
        254    2    1    2    0    0 -0.44367373148E+03 -0.30992380738E+03 -0.12032208165E+04  0.15969852308E+04  0.89984573551E+03 0.  0.
         23    2    4    4    0    0  0.13316701888E+03 -0.19999116593E+03 -0.21409852811E+01  0.25689862339E+03  0.90897731061E+02 0.  0.
         23    2    4    4    0    0 -0.57684075037E+03 -0.10993264145E+03 -0.12010798313E+04  0.13400866074E+04  0.91700149539E+02 0.  0.
          1    1    3    3  502    0  0.37302071203E+03  0.22807182145E+03  0.18522171310E+03  0.47483501382E+03  0.00000000000E+00 0. -1.
         -2    1    3    3    0  502  0.70653019453E+02  0.81851985926E+02  0.68635553687E+02  0.12807199533E+03  0.00000000000E+00 0.  1.
         11    1    5    5    0    0  0.83840229782E+02 -0.16285297890E+03  0.32608593182E+02  0.18604729833E+03  0.00000000000E+00 0. -1.
        -11    1    5    5    0    0  0.49326789101E+02 -0.37138187027E+02 -0.34749578463E+02  0.70851325055E+02  0.00000000000E+00 0.  1.
          1    1    6    6  503    0 -0.47852538003E+03 -0.80233646592E+02 -0.10580897501E+04  0.11640351785E+04  0.00000000000E+00 0. -1.
         -1    1    6    6    0  503 -0.98315370337E+02 -0.29698994856E+02 -0.14299008113E+03  0.17605142897E+03  0.00000000000E+00 0.  1.
<mgrwt>
<rscale>  0 0.19844986E+04</rscale>
<asrwt>0</asrwt>
<pdfrwt beam="1">  1        1 0.24225044E+00 0.19844986E+04</pdfrwt>
<pdfrwt beam="2">  1       -2 0.96194516E-01 0.19844986E+04</pdfrwt>
<totfact> 0.42871307E+00</totfact>
</mgrwt>
</event>
<event>
12    4  0.4280696E-008  0.1826734E+04  0.7818608E-02  0.8692210E-01
         -2   -1    0    0    0  501 -0.00000000000E+00  0.00000000000E+00  0.80457775142E+03  0.80457775142E+03  0.00000000000E+00 0.  1.
          1   -1    0    0  501    0  0.00000000000E+00 -0.00000000000E+00 -0.10368659986E+04  0.10368659986E+04  0.00000000000E+00 0. -1.
        -24    2    1    2    0    0  0.45685958774E+03  0.37433029407E+03  0.29762033188E+03  0.66577427582E+03  0.76378481478E+02 0.  0.
        254    2    1    2    0    0 -0.45685958774E+03 -0.37433029407E+03 -0.52990857907E+03  0.11756694742E+04  0.86749741120E+03 0.  0.
         23    2    4    4    0    0  0.71276100896E+02 -0.33647438812E+03  0.76927046972E+02  0.36517058489E+03  0.95584983638E+02 0.  0.
         23    2    4    4    0    0 -0.52813568864E+03 -0.37855905946E+02 -0.60683562604E+03  0.81049888931E+03  0.91096637189E+02 0.  0.
          1    1    3    3  502    0  0.18259796341E+03  0.12603478939E+03  0.76068576397E+02  0.23454895586E+03  0.00000000000E+00 0. -1.
         -2    1    3    3    0  502  0.27426162433E+03  0.24829550468E+03  0.22155175548E+03  0.43122531997E+03  0.00000000000E+00 0.  1.
         11    1    5    5    0    0  0.26042057797E+02 -0.28642939218E+03  0.76893581193E+02  0.29771229116E+03  0.00000000000E+00 0.  1.
        -11    1    5    5    0    0  0.45234043099E+02 -0.50044995940E+02  0.33465779754E-01  0.67458293736E+02  0.00000000000E+00 0. -1.
          4    1    6    6  503    0 -0.93583972136E+02 -0.27881518489E+02 -0.15760911236E+03  0.18540758133E+03  0.00000000000E+00 0. -1.
         -4    1    6    6    0  503 -0.43455171650E+03 -0.99743874575E+01 -0.44922651368E+03  0.62509130798E+03  0.00000000000E+00 0.  1.
<mgrwt>
<rscale>  0 0.18267340E+04</rscale>
<asrwt>0</asrwt>
<pdfrwt beam="1">  1        1 0.15951785E+00 0.18267340E+04</pdfrwt>
<pdfrwt beam="2">  1       -2 0.12378119E+00 0.18267340E+04</pdfrwt>
<totfact> 0.57455282E+00</totfact>
</mgrwt>
</event>
<event>
12    4  0.4280696E-008  0.2799893E+04  0.7818608E-02  0.8303301E-01
          1   -1    0    0  501    0  0.00000000000E+00  0.00000000000E+00  0.20435010958E+04  0.20435010958E+04  0.00000000000E+00 0. -1.
         -2   -1    0    0    0  501 -0.00000000000E+00 -0.00000000000E+00 -0.95906521230E+03  0.95906521230E+03  0.00000000000E+00 0.  1.
        -24    2    1    2    0    0 -0.11670283222E+04 -0.45477181410E+03  0.64892386468E+03  0.14127876449E+04  0.78065610966E+02 0.  0.
        254    2    1    2    0    0  0.11670283222E+04  0.45477181410E+03  0.43551201881E+03  0.15897786632E+04  0.87689963608E+03 0.  0.
         23    2    4    4    0    0  0.17556963762E+03  0.36801877391E+03  0.41520628635E+03  0.58895940036E+03  0.90633324078E+02 0.  0.
         23    2    4    4    0    0  0.99145868459E+03  0.86753040189E+02  0.20305732454E+02  0.10008192629E+04  0.10349135672E+03 0.  0.
          3    1    3    3  502    0 -0.10213567304E+04 -0.39946629187E+03  0.53821749658E+03  0.12216468240E+04  0.00000000000E+00 0. -1.
         -4    1    3    3    0  502 -0.14567159183E+03 -0.55305522238E+02  0.11070636810E+03  0.19114082085E+03  0.00000000000E+00 0.  1.
         11    1    5    5    0    0  0.92529693018E+01 -0.39422899957E+01  0.12963149924E+02  0.16407386973E+02  0.00000000000E+00 0. -1.
        -11    1    5    5    0    0  0.16631666832E+03  0.37196106391E+03  0.40224313643E+03  0.57255201338E+03  0.00000000000E+00 0.  1.
          2    1    6    6  503    0  0.60035263140E+03  0.79420422637E+02  0.55186248794E+02  0.60809243344E+03  0.00000000000E+00 0. -1.
         -2    1    6    6    0  503  0.39110605319E+03  0.73326175525E+01 -0.34880516339E+02  0.39272682941E+03  0.00000000000E+00 0.  1.
<mgrwt>
<rscale>  0 0.27998934E+04</rscale>
<asrwt>0</asrwt>
<pdfrwt beam="1">  1        1 0.31438478E+00 0.27998934E+04</pdfrwt>
<pdfrwt beam="2">  1       -2 0.14754849E+00 0.27998934E+04</pdfrwt>
<totfact> 0.66311160E-01</totfact>
</mgrwt>
</event>
<event>
12    4  0.4280696E-008  0.1246651E+04  0.7818608E-02  0.9072976E-01
          1   -1    0    0  501    0  0.00000000000E+00  0.00000000000E+00  0.48956844320E+03  0.48956844320E+03  0.00000000000E+00 0. -1.
         -2   -1    0    0    0  501 -0.00000000000E+00 -0.00000000000E+00 -0.79362643493E+03  0.79362643493E+03  0.00000000000E+00 0.  1.
        -24    2    1    2    0    0 -0.14573476698E+03  0.46633492939E+01 -0.32899638072E+03  0.37201039359E+03  0.94301353538E+02 0.  0.
        254    2    1    2    0    0  0.14573476698E+03 -0.46633492939E+01  0.24938388985E+02  0.91118448455E+03  0.89909669808E+03 0.  0.
         23    2    4    4    0    0 -0.34300571503E+03  0.32378751685E+02 -0.14475265124E+03  0.38438494012E+03  0.89984154437E+02 0.  0.
         23    2    4    4    0    0  0.48874048201E+03 -0.37042100979E+02  0.16969104022E+03  0.52679954443E+03  0.92105020918E+02 0.  0.
          3    1    3    3  502    0 -0.60111599081E+02 -0.21491306408E+02 -0.56731495811E+02  0.85403414522E+02  0.00000000000E+00 0. -1.
         -4    1    3    3    0  502 -0.85623167899E+02  0.26154655702E+02 -0.27226488491E+03  0.28660697907E+03  0.00000000000E+00 0.  1.
         11    1    5    5    0    0 -0.33279486326E+03  0.36771568291E+02 -0.11730955791E+03  0.35477612888E+03  0.00000000000E+00 0.  1.
        -11    1    5    5    0    0 -0.10210851766E+02 -0.43928166065E+01 -0.27443093329E+02  0.29608811239E+02  0.00000000000E+00 0. -1.
          1    1    6    6  503    0  0.52294722129E+02 -0.27376041021E+02  0.40310260810E+02  0.71477987598E+02  0.00000000000E+00 0. -1.
         -1    1    6    6    0  503  0.43644575988E+03 -0.96660599576E+01  0.12938077941E+03  0.45532155683E+03  0.00000000000E+00 0.  1.
<mgrwt>
<rscale>  0 0.12466506E+04</rscale>
<asrwt>0</asrwt>
<pdfrwt beam="1">  1        1 0.75318222E-01 0.12466506E+04</pdfrwt>
<pdfrwt beam="2">  1       -2 0.12209637E+00 0.12466506E+04</pdfrwt>
<totfact> 0.20008276E+01</totfact>
</mgrwt>
</event>
<event>
12    4  0.4280696E-008  0.2291472E+04  0.7818608E-02  0.8481291E-01
          3   -1    0    0  501    0  0.00000000000E+00  0.00000000000E+00  0.13066718012E+04  0.13066718012E+04  0.00000000000E+00 0. -1.
         -4   -1    0    0    0  501 -0.00000000000E+00 -0.00000000000E+00 -0.10046219884E+04  0.10046219884E+04  0.00000000000E+00 0.  1.
        -24    2    1    2    0    0 -0.82749333362E+02 -0.71503303412E+03  0.76021368596E+03  0.10498797718E+04  0.78759093782E+02 0.  0.
        254    2    1    2    0    0  0.82749333362E+02  0.71503303412E+03 -0.45816387311E+03  0.12614140178E+04  0.92904870580E+03 0.  0.
         23    2    4    4    0    0  0.37716287682E+03  0.26192312896E+03 -0.53034197684E+03  0.70736221767E+03  0.90791703672E+02 0.  0.
         23    2    4    4    0    0 -0.29441354345E+03  0.45310990515E+03  0.72178103733E+02  0.55405180017E+03  0.98872634741E+02 0.  0.
          3    1    3    3  502    0 -0.91355292523E+02 -0.62563155623E+03  0.69002195133E+03  0.93589044602E+03  0.00000000000E+00 0. -1.
         -4    1    3    3    0  502  0.86059591613E+01 -0.89401477889E+02  0.70191734623E+02  0.11398932578E+03  0.00000000000E+00 0.  1.
         11    1    5    5    0    0  0.12919663522E+03  0.14397212680E+03 -0.22418809726E+03  0.29610816740E+03  0.00000000000E+00 0. -1.
        -11    1    5    5    0    0  0.24796624160E+03  0.11795100216E+03 -0.30615387958E+03  0.41125405027E+03  0.00000000000E+00 0.  1.
          4    1    6    6  503    0 -0.16197869199E+03  0.25114811908E+03 -0.97836627077E+01  0.29901203058E+03  0.00000000000E+00 0.  1.
         -4    1    6    6    0  503 -0.13243485147E+03  0.20196178608E+03  0.81961766440E+02  0.25503976960E+03  0.00000000000E+00 0. -1.
<mgrwt>
<rscale>  0 0.22914722E+04</rscale>
<asrwt>0</asrwt>
<pdfrwt beam="1">  1        3 0.20102643E+00 0.22914722E+04</pdfrwt>
<pdfrwt beam="2">  1       -4 0.15455723E+00 0.22914722E+04</pdfrwt>
<totfact> 0.82710599E-02</totfact>
</mgrwt>
</event>
<event>
12    4  0.4280696E-008  0.2851432E+04  0.7818608E-02  0.8287476E-01
          1   -1    0    0  501    0  0.00000000000E+00  0.00000000000E+00  0.13001484761E+04  0.13001484761E+04  0.00000000000E+00 0. -1.
         -2   -1    0    0    0  501 -0.00000000000E+00 -0.00000000000E+00 -0.15634107363E+04  0.15634107363E+04  0.00000000000E+00 0.  1.
        -24    2    1    2    0    0 -0.62908395804E+03  0.10382713638E+04  0.21675588409E+03  0.12357365586E+04  0.79420889664E+02 0.  0.
        254    2    1    2    0    0  0.62908395804E+03 -0.10382713638E+04 -0.48001814428E+03  0.16278226538E+04  0.97243772158E+03 0.  0.
         23    2    4    4    0    0  0.59107030533E+03 -0.19715964606E+03 -0.45945775730E+03  0.77984673445E+03  0.93933309342E+02 0.  0.
         23    2    4    4    0    0  0.38013652707E+02 -0.84111171775E+03 -0.20560386972E+02  0.84797591939E+03  0.98622871732E+02 0.  0.
          3    1    3    3  502    0 -0.33824757793E+03  0.63275543309E+03  0.12177299439E+03  0.72774963019E+03  0.00000000000E+00 0. -1.
         -4    1    3    3    0  502 -0.29083638011E+03  0.40551593072E+03  0.94982889697E+02  0.50798692838E+03  0.00000000000E+00 0.  1.
         11    1    5    5    0    0  0.44454466143E+03 -0.10983060268E+03 -0.35922843958E+03  0.58200325523E+03  0.00000000000E+00 0. -1.
        -11    1    5    5    0    0  0.14652564390E+03 -0.87329043388E+02 -0.10022931772E+03  0.19784347922E+03  0.00000000000E+00 0.  1.
          3    1    6    6  503    0  0.69160312266E+02 -0.50680920363E+03  0.13990513403E+01  0.51150823554E+03  0.00000000000E+00 0. -1.
         -3    1    6    6    0  503 -0.31146659559E+02 -0.33430251412E+03 -0.21959438312E+02  0.33646768385E+03  0.00000000000E+00 0.  1.
<mgrwt>
<rscale>  0 0.28514320E+04</rscale>
<asrwt>0</asrwt>
<pdfrwt beam="1">  1        1 0.20002284E+00 0.28514320E+04</pdfrwt>
<pdfrwt beam="2">  1       -2 0.24052473E+00 0.28514320E+04</pdfrwt>
<totfact> 0.50309146E-01</totfact>
</mgrwt>
</event>
<event>
12    4  0.4280696E-008  0.1679284E+04  0.7818608E-02  0.8773269E-01
          1   -1    0    0  501    0  0.00000000000E+00  0.00000000000E+00  0.15848604139E+04  0.15848604139E+04  0.00000000000E+00 0. -1.
         -2   -1    0    0    0  501 -0.00000000000E+00 -0.00000000000E+00 -0.44483318739E+03  0.44483318739E+03  0.00000000000E+00 0.  1.
        -24    2    1    2    0    0 -0.14383619844E+03 -0.34359037348E+02 -0.28655101850E+03  0.33276814755E+03  0.82181253297E+02 0.  0.
        254    2    1    2    0    0  0.14383619844E+03  0.34359037348E+02  0.14265782450E+04  0.16969254537E+04  0.90695154830E+03 0.  0.
         23    2    4    4    0    0  0.34150291139E+03 -0.71725783809E+02  0.14083222240E+04  0.14537985464E+04  0.91596399122E+02 0.  0.
         23    2    4    4    0    0 -0.19766671295E+03  0.10608482116E+03  0.18256021025E+02  0.24312690735E+03  0.91930909314E+02 0.  0.
          3    1    3    3  502    0 -0.97163503870E+02  0.89767975169E+01 -0.12134786630E+03  0.15571330718E+03  0.00000000000E+00 0. -1.
         -4    1    3    3    0  502 -0.46672694570E+02 -0.43335834865E+02 -0.16520315220E+03  0.17705484037E+03  0.00000000000E+00 0.  1.
         11    1    5    5    0    0  0.29646954731E+03 -0.85403505637E+02  0.12917573357E+04  0.13280907219E+04  0.00000000000E+00 0. -1.
        -11    1    5    5    0    0  0.45033364076E+02  0.13677721827E+02  0.11656488827E+03  0.12570782447E+03  0.00000000000E+00 0.  1.
          1    1    6    6  503    0 -0.18352285302E+03  0.71682020481E+02 -0.86562940979E+01  0.19721531651E+03  0.00000000000E+00 0. -1.
         -1    1    6    6    0  503 -0.14143859932E+02  0.34402800677E+02  0.26912315123E+02  0.45911590840E+02  0.00000000000E+00 0.  1.
<mgrwt>
<rscale>  0 0.16792838E+04</rscale>
<asrwt>0</asrwt>
<pdfrwt beam="1">  1        1 0.24382468E+00 0.16792838E+04</pdfrwt>
<pdfrwt beam="2">  1       -2 0.68435876E-01 0.16792838E+04</pdfrwt>
<totfact> 0.93375660E+00</totfact>
</mgrwt>
</event>
<event>
12    4  0.4280696E-008  0.1463180E+04  0.7818608E-02  0.8909314E-01
         -2   -1    0    0    0  501 -0.00000000000E+00  0.00000000000E+00  0.11296781002E+04  0.11296781002E+04  0.00000000000E+00 0.  1.
          1   -1    0    0  501    0  0.00000000000E+00 -0.00000000000E+00 -0.47378424614E+03  0.47378424614E+03  0.00000000000E+00 0. -1.
        -24    2    1    2    0    0 -0.29403643015E+03 -0.33571848892E+03  0.11862418895E+03  0.46857897816E+03  0.79562770891E+02 0.  0.
        254    2    1    2    0    0  0.29403643015E+03  0.33571848892E+03  0.53726966509E+03  0.11348833681E+04  0.89450390732E+03 0.  0.
         23    2    4    4    0    0  0.12116818442E+03 -0.25246169776E+03 -0.28741147092E+02  0.29556331855E+03  0.90072104355E+02 0.  0.
         23    2    4    4    0    0  0.17286824573E+03  0.58818018669E+03  0.56601081218E+03  0.83932004960E+03  0.90832503860E+02 0.  0.
          1    1    3    3  502    0 -0.28456142398E+03 -0.29083929630E+03  0.99497265793E+02  0.41888232977E+03  0.00000000000E+00 0. -1.
         -2    1    3    3    0  502 -0.94750061696E+01 -0.44879192622E+02  0.19126923157E+02  0.49696648396E+02  0.00000000000E+00 0.  1.
         11    1    5    5    0    0  0.24467297499E+02 -0.24759492361E+02  0.24432740234E+02  0.42528107226E+02  0.00000000000E+00 0. -1.
        -11    1    5    5    0    0  0.96700886920E+02 -0.22770220540E+03 -0.53173887326E+02  0.25303521132E+03  0.00000000000E+00 0.  1.
          2    1    6    6  503    0  0.98444542693E+02  0.18345189028E+03  0.18572575066E+03  0.27899816933E+03  0.00000000000E+00 0. -1.
         -2    1    6    6    0  503  0.74423703038E+02  0.40472829641E+03  0.38028506152E+03  0.56032188027E+03  0.00000000000E+00 0.  1.
<mgrwt>
<rscale>  0 0.14631797E+04</rscale>
<asrwt>0</asrwt>
<pdfrwt beam="1">  1        1 0.72889884E-01 0.14631797E+04</pdfrwt>
<pdfrwt beam="2">  1       -2 0.17379663E+00 0.14631797E+04</pdfrwt>
<totfact> 0.81046314E+00</totfact>
</mgrwt>
</event>
<event>
12    4  0.4280696E-008  0.1940155E+04  0.7818608E-02  0.8635123E-01
         -4   -1    0    0    0  501 -0.00000000000E+00  0.00000000000E+00  0.11242443226E+04  0.11242443226E+04  0.00000000000E+00 0.  1.
          3   -1    0    0  501    0  0.00000000000E+00 -0.00000000000E+00 -0.83705167972E+03  0.83705167972E+03  0.00000000000E+00 0. -1.
        -24    2    1    2    0    0 -0.89331415083E+02  0.45022710471E+03  0.75508069242E+03  0.88651620820E+03  0.71271227017E+02 0.  0.
        254    2    1    2    0    0  0.89331415083E+02 -0.45022710471E+03 -0.46788804950E+03  0.10747797942E+04  0.85179095531E+03 0.  0.
         23    2    4    4    0    0  0.18883145413E+03  0.29789280965E+02  0.16545982912E+03  0.26889225950E+03  0.91549837993E+02 0.  0.
         23    2    4    4    0    0 -0.99500039046E+02 -0.48001638568E+03 -0.63334787862E+03  0.80588753467E+03  0.89494105363E+02 0.  0.
          1    1    3    3  502    0 -0.14353051562E+02  0.22945426192E+03  0.33998037639E+03  0.41041676956E+03  0.00000000000E+00 0. -1.
         -4    1    3    3    0  502 -0.74978363521E+02  0.22077284279E+03  0.41510031603E+03  0.47609943865E+03  0.00000000000E+00 0.  1.
         11    1    5    5    0    0  0.11957800467E+03 -0.12849898576E+02  0.56365377887E+02  0.13281970832E+03  0.00000000000E+00 0. -1.
        -11    1    5    5    0    0  0.69253449462E+02  0.42639179541E+02  0.10909445124E+03  0.13607255118E+03  0.00000000000E+00 0.  1.
          1    1    6    6  503    0 -0.38274832464E+02 -0.48520233609E+02 -0.65172656067E+02  0.89814536509E+02  0.00000000000E+00 0. -1.
         -1    1    6    6    0  503 -0.61225206582E+02 -0.43149615207E+03 -0.56817522255E+03  0.71607299816E+03  0.00000000000E+00 0.  1.
<mgrwt>
<rscale>  0 0.19401553E+04</rscale>
<asrwt>0</asrwt>
<pdfrwt beam="1">  1        3 0.12877718E+00 0.19401553E+04</pdfrwt>
<pdfrwt beam="2">  1       -4 0.17296066E+00 0.19401553E+04</pdfrwt>
<totfact> 0.20477987E-01</totfact>
</mgrwt>
</event>
<event>
12    4  0.4280696E-008  0.1727360E+04  0.7818608E-02  0.8745912E-01
          1   -1    0    0  501    0  0.00000000000E+00  0.00000000000E+00  0.22564830337E+04  0.22564830337E+04  0.00000000000E+00 0. -1.
         -2   -1    0    0    0  501 -0.00000000000E+00 -0.00000000000E+00 -0.33057788204E+03  0.33057788204E+03  0.00000000000E+00 0.  1.
        -24    2    1    2    0    0 -0.16202221019E+03 -0.55591765345E+03  0.34914713377E+03  0.68073068279E+03  0.78707734400E+02 0.  0.
        254    2    1    2    0    0  0.16202221019E+03  0.55591765345E+03  0.15767580179E+04  0.19063302330E+04  0.90146185502E+03 0.  0.
         23    2    4    4    0    0  0.25385416555E+03  0.11464095604E+03  0.32405340965E+02  0.29497839191E+03  0.91529554825E+02 0.  0.
         23    2    4    4    0    0 -0.91831955355E+02  0.44127669742E+03  0.15443526770E+04  0.16113518411E+04  0.90946870005E+02 0.  0.
          1    1    3    3  502    0 -0.99833584953E+02 -0.37425329676E+03  0.27437238474E+03  0.47467091793E+03  0.00000000000E+00 0. -1.
         -2    1    3    3    0  502 -0.62188625238E+02 -0.18166435669E+03  0.74774749034E+02  0.20605976486E+03  0.00000000000E+00 0.  1.
         11    1    5    5    0    0  0.11304777972E+02 -0.97215140768E+01 -0.11580340313E+02  0.18878827366E+02  0.00000000000E+00 0.  1.
        -11    1    5    5    0    0  0.24254938757E+03  0.12436247012E+03  0.43985681279E+02  0.27609956455E+03  0.00000000000E+00 0. -1.
          1    1    6    6  503    0 -0.28167020354E+02  0.48959036023E+02  0.29308827739E+03  0.29848133374E+03  0.00000000000E+00 0. -1.
         -1    1    6    6    0  503 -0.63664935001E+02  0.39231766139E+03  0.12512643996E+04  0.13128705073E+04  0.00000000000E+00 0.  1.
<mgrwt>
<rscale>  0 0.17273603E+04</rscale>
<asrwt>0</asrwt>
<pdfrwt beam="1">  1        1 0.34715123E+00 0.17273603E+04</pdfrwt>
<pdfrwt beam="2">  1       -2 0.50858137E-01 0.17273603E+04</pdfrwt>
<totfact> 0.60780446E+00</totfact>
</mgrwt>
</event>
<event>
12    4  0.4280696E-008  0.2913788E+04  0.7818608E-02  0.8268787E-01
         -2   -1    0    0    0  501 -0.00000000000E+00  0.00000000000E+00  0.16109525339E+04  0.16109525339E+04  0.00000000000E+00 0.  1.
          1   -1    0    0  501    0  0.00000000000E+00 -0.00000000000E+00 -0.13175687086E+04  0.13175687086E+04  0.00000000000E+00 0. -1.
        -24    2    1    2    0    0  0.12458750370E+04  0.41163093528E+03  0.29506771223E+03  0.13463776249E+04  0.63428065628E+02 0.  0.
        254    2    1    2    0    0 -0.12458750370E+04 -0.41163093528E+03 -0.16838868958E+01  0.15821436176E+04  0.88404239522E+03 0.  0.
         23    2    4    4    0    0 -0.17228041396E+03  0.24850447023E+03  0.22142296813E+02  0.31839044099E+03  0.97196598943E+02 0.  0.
         23    2    4    4    0    0 -0.10735946230E+04 -0.66013540550E+03 -0.23826183708E+02  0.12637531766E+04  0.90112353070E+02 0.  0.
          1    1    3    3  502    0  0.59238467093E+03  0.20650284571E+03  0.11034253333E+03  0.63697605787E+03  0.00000000000E+00 0. -1.
         -2    1    3    3    0  502  0.65349036604E+03  0.20512808956E+03  0.18472517890E+03  0.70940156707E+03  0.00000000000E+00 0.  1.
         11    1    5    5    0    0 -0.11924037883E+03  0.16620338004E+03 -0.31156323974E+02  0.20691193296E+03  0.00000000000E+00 0. -1.
        -11    1    5    5    0    0 -0.53040035133E+02  0.82301090188E+02  0.53298620787E+02  0.11147850802E+03  0.00000000000E+00 0.  1.
          1    1    6    6  503    0 -0.10050922225E+04 -0.63218110836E+03 -0.49105841312E+01  0.11873868129E+04  0.00000000000E+00 0. -1.
         -1    1    6    6    0  503 -0.68502400499E+02 -0.27954297138E+02 -0.18915599577E+02  0.76366363734E+02  0.00000000000E+00 0.  1.
<mgrwt>
<rscale>  0 0.29137884E+04</rscale>
<asrwt>0</asrwt>
<pdfrwt beam="1">  1        1 0.20270288E+00 0.29137884E+04</pdfrwt>
<pdfrwt beam="2">  1       -2 0.24783885E+00 0.29137884E+04</pdfrwt>
<totfact> 0.43828652E-01</totfact>
</mgrwt>
</event>
<event>
12    4  0.4280696E-008  0.1776796E+04  0.7818608E-02  0.8718737E-01
         -2   -1    0    0    0  501 -0.00000000000E+00  0.00000000000E+00  0.16929087329E+04  0.16929087329E+04  0.00000000000E+00 0.  1.
          1   -1    0    0  501    0  0.00000000000E+00 -0.00000000000E+00 -0.46621019522E+03  0.46621019522E+03  0.00000000000E+00 0. -1.
        -24    2    1    2    0    0  0.45527828088E+03 -0.47165560941E+03  0.46911051859E+03  0.81005470645E+03  0.79916342864E+02 0.  0.
        254    2    1    2    0    0 -0.45527828088E+03  0.47165560941E+03  0.75758801906E+03  0.13490642217E+04  0.90349174905E+03 0.  0.
         23    2    4    4    0    0 -0.43482212153E+03  0.37590690865E+03  0.95027245991E+03  0.11142765825E+04  0.90654689887E+02 0.  0.
         23    2    4    4    0    0 -0.20456159353E+02  0.95748700761E+02 -0.19268444084E+03  0.23478763921E+03  0.91715176651E+02 0.  0.
          3    1    3    3  502    0  0.18247783063E+03 -0.22349939799E+03  0.16739042738E+03  0.33357112398E+03  0.00000000000E+00 0. -1.
         -4    1    3    3    0  502  0.27280045025E+03 -0.24815621141E+03  0.30172009121E+03  0.47648358247E+03  0.00000000000E+00 0.  1.
         11    1    5    5    0    0 -0.17868826851E+03  0.21279764617E+03  0.43456906313E+03  0.51581256882E+03  0.00000000000E+00 0.  1.
        -11    1    5    5    0    0 -0.25613385301E+03  0.16310926248E+03  0.51570339677E+03  0.59846401363E+03  0.00000000000E+00 0. -1.
          4    1    6    6  503    0 -0.51376788429E+00  0.63044519299E+02 -0.18536015829E+03  0.19578882413E+03  0.00000000000E+00 0. -1.
         -4    1    6    6    0  503 -0.19942391469E+02  0.32704181462E+02 -0.73242825500E+01  0.38998815078E+02  0.00000000000E+00 0.  1.
<mgrwt>
<rscale>  0 0.17767963E+04</rscale>
<asrwt>0</asrwt>
<pdfrwt beam="1">  1        1 0.71724646E-01 0.17767963E+04</pdfrwt>
<pdfrwt beam="2">  1       -2 0.26044749E+00 0.17767963E+04</pdfrwt>
<totfact> 0.22384368E+00</totfact>
</mgrwt>
</event>
<event>
12    4  0.4280696E-008  0.1672219E+04  0.7818608E-02  0.8777370E-01
         -4   -1    0    0    0  501 -0.00000000000E+00  0.00000000000E+00  0.33371936951E+03  0.33371936951E+03  0.00000000000E+00 0.  1.
          3   -1    0    0  501    0  0.00000000000E+00 -0.00000000000E+00 -0.20948105909E+04  0.20948105909E+04  0.00000000000E+00 0. -1.
        -24    2    1    2    0    0  0.25748019914E+03  0.37817552663E+03 -0.11583422017E+04  0.12478167772E+04  0.77312813250E+02 0.  0.
        254    2    1    2    0    0 -0.25748019914E+03 -0.37817552663E+03 -0.60274901964E+03  0.11807131833E+04  0.90634676508E+03 0.  0.
         23    2    4    4    0    0  0.25447257181E+03 -0.13894915597E+03  0.54742653845E+02  0.30866270779E+03  0.90624231188E+02 0.  0.
         23    2    4    4    0    0 -0.51195277095E+03 -0.23922637066E+03 -0.65749167349E+03  0.87205047548E+03  0.94084190920E+02 0.  0.
          1    1    3    3  502    0  0.19869435262E+03  0.33797475851E+03 -0.95388485538E+03  0.10313111560E+04  0.00000000000E+00 0. -1.
         -2    1    3    3    0  502  0.58785846517E+02  0.40200768126E+02 -0.20445734637E+03  0.21650562116E+03  0.00000000000E+00 0.  1.
         11    1    5    5    0    0  0.24660510234E+03 -0.11893548871E+03  0.69635677116E+02  0.28250460971E+03  0.00000000000E+00 0.  1.
        -11    1    5    5    0    0  0.78674694655E+01 -0.20013667260E+02 -0.14893023271E+02  0.26158098080E+02  0.00000000000E+00 0. -1.
          1    1    6    6  503    0 -0.23577217745E+03 -0.59150232363E+02 -0.28654656416E+03  0.37576083229E+03  0.00000000000E+00 0. -1.
         -1    1    6    6    0  503 -0.27618059350E+03 -0.18007613830E+03 -0.37094510933E+03  0.49628964320E+03  0.00000000000E+00 0.  1.
<mgrwt>
<rscale>  0 0.16722187E+04</rscale>
<asrwt>0</asrwt>
<pdfrwt beam="1">  1        3 0.32227855E+00 0.16722187E+04</pdfrwt>
<pdfrwt beam="2">  1       -4 0.51341441E-01 0.16722187E+04</pdfrwt>
<totfact> 0.23401577E-01</totfact>
</mgrwt>
</event>
<event>
12    4  0.4280696E-008  0.1330314E+04  0.7818608E-02  0.9005865E-01
         -2   -1    0    0    0  501 -0.00000000000E+00  0.00000000000E+00  0.45340373056E+03  0.45340373056E+03  0.00000000000E+00 0.  1.
          1   -1    0    0  501    0  0.00000000000E+00 -0.00000000000E+00 -0.97580597578E+03  0.97580597578E+03  0.00000000000E+00 0. -1.
        -24    2    1    2    0    0  0.13940995333E+03  0.87522053677E+02 -0.47334276872E+03  0.50761010585E+03  0.80742788493E+02 0.  0.
        254    2    1    2    0    0 -0.13940995333E+03 -0.87522053677E+02 -0.49059476501E+02  0.92159960049E+03  0.90545223310E+03 0.  0.
         23    2    4    4    0    0  0.35239227314E+03  0.11260476657E+03 -0.13960044097E+02  0.38185276016E+03  0.93576172148E+02 0.  0.
         23    2    4    4    0    0 -0.49180222647E+03 -0.20012682024E+03 -0.35099432404E+02  0.53974684033E+03  0.90412982201E+02 0.  0.
          3    1    3    3  502    0  0.13974662673E+03  0.91292477007E+02 -0.47500108619E+03  0.50347737578E+03  0.00000000000E+00 0. -1.
         -4    1    3    3    0  502 -0.33667339955E+00 -0.37704233305E+01  0.16583174634E+01  0.41327300757E+01  0.00000000000E+00 0.  1.
         11    1    5    5    0    0  0.26873925076E+03  0.12037589665E+03 -0.31112033434E+02  0.29610656868E+03  0.00000000000E+00 0.  1.
        -11    1    5    5    0    0  0.83653022374E+02 -0.77711300796E+01  0.17151989337E+02  0.85746191479E+02  0.00000000000E+00 0. -1.
          1    1    6    6  503    0 -0.25878725744E+03 -0.77594939831E+02 -0.55059222234E+02  0.27572329835E+03  0.00000000000E+00 0. -1.
         -1    1    6    6    0  503 -0.23301496903E+03 -0.12253188041E+03  0.19959789829E+02  0.26402354198E+03  0.00000000000E+00 0.  1.
<mgrwt>
<rscale>  0 0.13303144E+04</rscale>
<asrwt>0</asrwt>
<pdfrwt beam="1">  1        1 0.15012400E+00 0.13303144E+04</pdfrwt>
<pdfrwt beam="2">  1       -2 0.69754420E-01 0.13303144E+04</pdfrwt>
<totfact> 0.25451182E+01</totfact>
</mgrwt>
</event>
<event>
12    4  0.4280696E-008  0.1944913E+04  0.7818608E-02  0.8632818E-01
         -2   -1    0    0    0  501 -0.00000000000E+00  0.00000000000E+00  0.40814822302E+03  0.40814822302E+03  0.00000000000E+00 0.  1.
          1   -1    0    0  501    0  0.00000000000E+00 -0.00000000000E+00 -0.23169803144E+04  0.23169803144E+04  0.00000000000E+00 0. -1.
        -24    2    1    2    0    0  0.27794207327E+03 -0.57487689975E+03 -0.13358042105E+04  0.14827131044E+04  0.79561392176E+02 0.  0.
        254    2    1    2    0    0 -0.27794207327E+03  0.57487689975E+03 -0.57302788084E+03  0.12424154330E+04  0.89860998770E+03 0.  0.
         23    2    4    4    0    0 -0.56152882943E+03  0.54977744225E+03 -0.49204055935E+03  0.93279825844E+03  0.10217052716E+03 0.  0.
         23    2    4    4    0    0  0.28358675616E+03  0.25099457502E+02 -0.80987321497E+02  0.30961717457E+03  0.90842817616E+02 0.  0.
          1    1    3    3  502    0  0.27609340063E+03 -0.52442406309E+03 -0.12431603033E+04  0.13772057593E+04  0.00000000000E+00 0. -1.
         -2    1    3    3    0  502  0.18486726418E+01 -0.50452836656E+02 -0.92643907230E+02  0.10550734507E+03  0.00000000000E+00 0.  1.
         11    1    5    5    0    0 -0.51471906132E+03  0.50238368841E+03 -0.41285966949E+03  0.82932393499E+03  0.00000000000E+00 0.  1.
        -11    1    5    5    0    0 -0.46809768106E+02  0.47393753839E+02 -0.79180889860E+02  0.10347432344E+03  0.00000000000E+00 0. -1.
          4    1    6    6  503    0  0.24173820831E+02  0.29997383292E+02 -0.27720725471E+01  0.38625134357E+02  0.00000000000E+00 0. -1.
         -4    1    6    6    0  503  0.25941293533E+03 -0.48979257895E+01 -0.78215248950E+02  0.27099204021E+03  0.00000000000E+00 0.  1.
<mgrwt>
<rscale>  0 0.19449127E+04</rscale>
<asrwt>0</asrwt>
<pdfrwt beam="1">  1        1 0.35645851E+00 0.19449127E+04</pdfrwt>
<pdfrwt beam="2">  1       -2 0.62792034E-01 0.19449127E+04</pdfrwt>
<totfact> 0.34885738E+00</totfact>
</mgrwt>
</event>
<event>
12    4  0.4280696E-008  0.1367401E+04  0.7818608E-02  0.8977759E-01
          1   -1    0    0  501    0  0.00000000000E+00  0.00000000000E+00  0.12524610130E+04  0.12524610130E+04  0.00000000000E+00 0. -1.
         -2   -1    0    0    0  501 -0.00000000000E+00 -0.00000000000E+00 -0.37322223382E+03  0.37322223382E+03  0.00000000000E+00 0.  1.
        -24    2    1    2    0    0 -0.86982434588E+02  0.25047026546E+03 -0.75372796640E+02  0.28710245979E+03  0.80283660435E+02 0.  0.
        254    2    1    2    0    0  0.86982434588E+02 -0.25047026546E+03  0.95461157580E+03  0.13385807870E+04  0.90011886155E+03 0.  0.
         23    2    4    4    0    0 -0.17250201988E+03 -0.48544799447E+03  0.33328709500E+03  0.61956386312E+03  0.85804374030E+02 0.  0.
         23    2    4    4    0    0  0.25948445447E+03  0.23497772900E+03  0.62132448080E+03  0.71901692390E+03  0.91621564977E+02 0.  0.
          1    1    3    3  502    0 -0.30670362759E+01  0.10441890424E+03 -0.50972478723E+01  0.10458822214E+03  0.00000000000E+00 0. -1.
         -2    1    3    3    0  502 -0.83915398312E+02  0.14605136123E+03 -0.70275548767E+02  0.18251423765E+03  0.00000000000E+00 0.  1.
         11    1    5    5    0    0 -0.97711249732E+02 -0.15311226786E+03  0.11525749253E+03  0.21511658346E+03  0.00000000000E+00 0.  1.
        -11    1    5    5    0    0 -0.74790770146E+02 -0.33233572661E+03  0.21802960247E+03  0.40444727967E+03  0.00000000000E+00 0. -1.
          1    1    6    6  503    0  0.35467984510E+02  0.62553604177E+02  0.19157178753E+03  0.20462326627E+03  0.00000000000E+00 0. -1.
         -1    1    6    6    0  503  0.22401646996E+03  0.17242412482E+03  0.42975269327E+03  0.51439365762E+03  0.00000000000E+00 0.  1.
<mgrwt>
<rscale>  0 0.13674009E+04</rscale>
<asrwt>0</asrwt>
<pdfrwt beam="1">  1        1 0.19268631E+00 0.13674009E+04</pdfrwt>
<pdfrwt beam="2">  1       -2 0.57418806E-01 0.13674009E+04</pdfrwt>
<totfact> 0.23842299E+01</totfact>
</mgrwt>
</event>
<event>
12    4  0.4280696E-008  0.2062038E+04  0.7818608E-02  0.8578153E-01
          1   -1    0    0  501    0  0.00000000000E+00  0.00000000000E+00  0.14277209440E+04  0.14277209440E+04  0.00000000000E+00 0. -1.
         -2   -1    0    0    0  501 -0.00000000000E+00 -0.00000000000E+00 -0.74454352504E+03  0.74454352504E+03  0.00000000000E+00 0.  1.
        -24    2    1    2    0    0 -0.34499877837E+03 -0.73253973522E+03  0.11398313429E+03  0.82170880833E+03  0.81083845732E+02 0.  0.
        254    2    1    2    0    0  0.34499877837E+03  0.73253973522E+03  0.56919428469E+03  0.13505556607E+04  0.91890143012E+03 0.  0.
         23    2    4    4    0    0 -0.27737622028E+03  0.42242464576E+03  0.15807258859E+03  0.53726949269E+03  0.91057210543E+02 0.  0.
         23    2    4    4    0    0  0.62237499865E+03  0.31011508946E+03  0.41112169610E+03  0.81328616805E+03  0.94293872989E+02 0.  0.
          3    1    3    3  502    0 -0.96809937405E+02 -0.15368069207E+03 -0.13825762545E+00  0.18163132497E+03  0.00000000000E+00 0. -1.
         -4    1    3    3    0  502 -0.24818884097E+03 -0.57885904315E+03  0.11412139192E+03  0.64007748337E+03  0.00000000000E+00 0.  1.
         11    1    5    5    0    0 -0.53171855019E+02  0.14327864949E+03  0.72486300683E+02  0.16914573998E+03  0.00000000000E+00 0.  1.
        -11    1    5    5    0    0 -0.22420436526E+03  0.27914599627E+03  0.85586287912E+02  0.36812375272E+03  0.00000000000E+00 0. -1.
          3    1    6    6  503    0  0.40749793573E+03  0.22521557780E+03  0.31983864284E+03  0.56486580846E+03  0.00000000000E+00 0. -1.
         -3    1    6    6    0  503  0.21487706291E+03  0.84899511657E+02  0.91283053256E+02  0.24842035959E+03  0.00000000000E+00 0.  1.
<mgrwt>
<rscale>  0 0.20620382E+04</rscale>
<asrwt>0</asrwt>
<pdfrwt beam="1">  1        1 0.21964938E+00 0.20620382E+04</pdfrwt>
<pdfrwt beam="2">  1       -2 0.11454516E+00 0.20620382E+04</pdfrwt>
<totfact> 0.35421776E+00</totfact>
</mgrwt>
</event>
<event>
12    4  0.4280696E-008  0.1689085E+04  0.7818608E-02  0.8767614E-01
         -2   -1    0    0    0  501 -0.00000000000E+00  0.00000000000E+00  0.98680421660E+03  0.98680421660E+03  0.00000000000E+00 0.  1.
          1   -1    0    0  501    0  0.00000000000E+00 -0.00000000000E+00 -0.72279019992E+03  0.72279019992E+03  0.00000000000E+00 0. -1.
        -24    2    1    2    0    0  0.14730030883E+03  0.47615591014E+03  0.41858890750E+03  0.65618509106E+03  0.83308874084E+02 0.  0.
        254    2    1    2    0    0 -0.14730030883E+03 -0.47615591014E+03 -0.15457489082E+03  0.10534093255E+04  0.91507157007E+03 0.  0.
         23    2    4    4    0    0 -0.41090551085E+02 -0.30386001228E+03  0.36746930300E+03  0.48653597879E+03  0.87545585593E+02 0.  0.
         23    2    4    4    0    0 -0.10620975774E+03 -0.17229589786E+03 -0.52204419382E+03  0.56687334667E+03  0.88593802306E+02 0.  0.
          3    1    3    3  502    0  0.11879758802E+03  0.34117303101E+03  0.25503223036E+03  0.44221413651E+03  0.00000000000E+00 0. -1.
         -4    1    3    3    0  502  0.28502720810E+02  0.13498287913E+03  0.16355667715E+03  0.21397095455E+03  0.00000000000E+00 0.  1.
         11    1    5    5    0    0  0.36231679580E+00 -0.12957255546E+02 -0.33695067364E+01  0.13393107197E+02  0.00000000000E+00 0. -1.
        -11    1    5    5    0    0 -0.41452867881E+02 -0.29090275674E+03  0.37083880974E+03  0.47314287160E+03  0.00000000000E+00 0.  1.
          1    1    6    6  503    0 -0.45807241764E+02 -0.13062238347E+03 -0.25758920591E+03  0.29242556226E+03  0.00000000000E+00 0. -1.
         -1    1    6    6    0  503 -0.60402515978E+02 -0.41673514386E+02 -0.26445498791E+03  0.27444778441E+03  0.00000000000E+00 0.  1.
<mgrwt>
<rscale>  0 0.16890855E+04</rscale>
<asrwt>0</asrwt>
<pdfrwt beam="1">  1        1 0.11119849E+00 0.16890855E+04</pdfrwt>
<pdfrwt beam="2">  1       -2 0.15181603E+00 0.16890855E+04</pdfrwt>
<totfact> 0.62751194E+00</totfact>
</mgrwt>
</event>
<event>
12    4  0.4280696E-008  0.2423269E+04  0.7818608E-02  0.8430843E-01
          1   -1    0    0  501    0  0.00000000000E+00  0.00000000000E+00  0.11029019558E+04  0.11029019558E+04  0.00000000000E+00 0. -1.
         -2   -1    0    0    0  501 -0.00000000000E+00 -0.00000000000E+00 -0.13310867785E+04  0.13310867785E+04  0.00000000000E+00 0.  1.
        -24    2    1    2    0    0  0.56456552544E+03  0.76794186476E+03  0.32599097733E+03  0.10106356029E+04  0.81518490556E+02 0.  0.
        254    2    1    2    0    0 -0.56456552544E+03 -0.76794186476E+03 -0.55417580006E+03  0.14233531314E+04  0.90019685584E+03 0.  0.
         23    2    4    4    0    0 -0.27607045028E+03 -0.92304683123E+03 -0.39219532874E+03  0.10445092141E+04  0.94614884154E+02 0.  0.
         23    2    4    4    0    0 -0.28849507516E+03  0.15510496647E+03 -0.16198047132E+03  0.37884391734E+03  0.99990407549E+02 0.  0.
          1    1    3    3  502    0  0.34048936070E+03  0.49603438439E+03  0.24147608180E+03  0.64830071212E+03  0.00000000000E+00 0. -1.
         -2    1    3    3    0  502  0.22407616473E+03  0.27190748037E+03  0.84514895532E+02  0.36233489074E+03  0.00000000000E+00 0.  1.
         11    1    5    5    0    0 -0.10926834919E+03 -0.51742032626E+03 -0.19508391645E+03  0.56366754441E+03  0.00000000000E+00 0.  1.
        -11    1    5    5    0    0 -0.16680210109E+03 -0.40562650497E+03 -0.19711141230E+03  0.48084166970E+03  0.00000000000E+00 0. -1.
          1    1    6    6  503    0 -0.10529454293E+03  0.70188876277E+01 -0.34681802585E+02  0.11108119996E+03  0.00000000000E+00 0. -1.
         -1    1    6    6    0  503 -0.18320053223E+03  0.14808607884E+03 -0.12729866873E+03  0.26776271738E+03  0.00000000000E+00 0.  1.
<mgrwt>
<rscale>  0 0.24232690E+04</rscale>
<asrwt>0</asrwt>
<pdfrwt beam="1">  1        1 0.16967722E+00 0.24232690E+04</pdfrwt>
<pdfrwt beam="2">  1       -2 0.20478258E+00 0.24232690E+04</pdfrwt>
<totfact> 0.12246947E+00</totfact>
</mgrwt>
</event>
<event>
12    4  0.4280696E-008  0.1768983E+04  0.7818608E-02  0.8722970E-01
         -2   -1    0    0    0  501 -0.00000000000E+00  0.00000000000E+00  0.33792678203E+03  0.33792678203E+03  0.00000000000E+00 0.  1.
          1   -1    0    0  501    0  0.00000000000E+00 -0.00000000000E+00 -0.23150719196E+04  0.23150719196E+04  0.00000000000E+00 0. -1.
        -24    2    1    2    0    0  0.28420804642E+03  0.21337219644E+03 -0.15748185821E+04  0.16164557819E+04  0.81079100442E+02 0.  0.
        254    2    1    2    0    0 -0.28420804642E+03 -0.21337219644E+03 -0.40232655552E+03  0.10365429198E+04  0.88670889211E+03 0.  0.
         23    2    4    4    0    0 -0.57875275209E+03 -0.25489634257E+03 -0.31885216647E+03  0.71404620556E+03  0.90930666481E+02 0.  0.
         23    2    4    4    0    0  0.29454470567E+03  0.41524146125E+02 -0.83474389046E+02  0.32249671419E+03  0.92494965743E+02 0.  0.
          1    1    3    3  502    0  0.25595581430E+03  0.15387703604E+03 -0.12858054883E+04  0.13200330582E+04  0.00000000000E+00 0. -1.
         -2    1    3    3    0  502  0.28252232114E+02  0.59495160404E+02 -0.28901309383E+03  0.29642272372E+03  0.00000000000E+00 0.  1.
         11    1    5    5    0    0 -0.13876512164E+03 -0.34144779884E+02 -0.40477601346E+02  0.14852629797E+03  0.00000000000E+00 0.  1.
        -11    1    5    5    0    0 -0.43998763045E+03 -0.22075156268E+03 -0.27837456513E+03  0.56551990759E+03  0.00000000000E+00 0. -1.
          4    1    6    6  503    0  0.28958774695E+03  0.23266033714E+02 -0.86966221853E+02  0.30325813304E+03  0.00000000000E+00 0. -1.
         -4    1    6    6    0  503  0.49569587205E+01  0.18258112411E+02  0.34918328066E+01  0.19238581157E+02  0.00000000000E+00 0.  1.
<mgrwt>
<rscale>  0 0.17689825E+04</rscale>
<asrwt>0</asrwt>
<pdfrwt beam="1">  1        1 0.35616491E+00 0.17689825E+04</pdfrwt>
<pdfrwt beam="2">  1       -2 0.51988736E-01 0.17689825E+04</pdfrwt>
<totfact> 0.52786456E+00</totfact>
</mgrwt>
</event>
<event>
12    4  0.4280696E-008  0.1393744E+04  0.7818608E-02  0.8958359E-01
          1   -1    0    0  501    0  0.00000000000E+00  0.00000000000E+00  0.25047495259E+04  0.25047495259E+04  0.00000000000E+00 0. -1.
         -2   -1    0    0    0  501 -0.00000000000E+00 -0.00000000000E+00 -0.19388390082E+03  0.19388390082E+03  0.00000000000E+00 0.  1.
        -24    2    1    2    0    0  0.11822791969E+03  0.29509325769E+03  0.11450836613E+04  0.11911903098E+04  0.81608156003E+02 0.  0.
        254    2    1    2    0    0 -0.11822791969E+03 -0.29509325769E+03  0.11657819638E+04  0.15074431169E+04  0.90126538371E+03 0.  0.
         23    2    4    4    0    0 -0.27259772016E+03 -0.15420749502E+03  0.71153156251E+01  0.32607839095E+03  0.90482157205E+02 0.  0.
         23    2    4    4    0    0  0.15436980046E+03 -0.14088576266E+03  0.11586666482E+04  0.11813647260E+04  0.97135887959E+02 0.  0.
          3    1    3    3  502    0  0.12999181308E+02  0.42099071652E+02  0.78989371110E+02  0.90446842383E+02  0.00000000000E+00 0. -1.
         -4    1    3    3    0  502  0.10522873838E+03  0.25299418603E+03  0.10660942902E+04  0.11007434674E+04  0.00000000000E+00 0.  1.
         11    1    5    5    0    0 -0.13552503892E+03 -0.28884216903E+02  0.19518650751E+02  0.13993681391E+03  0.00000000000E+00 0.  1.
        -11    1    5    5    0    0 -0.13707268123E+03 -0.12532327812E+03 -0.12403335126E+02  0.18614157704E+03  0.00000000000E+00 0. -1.
          2    1    6    6  503    0  0.19429424524E+02 -0.84377252066E+01  0.35994549307E+03  0.36056824004E+03  0.00000000000E+00 0. -1.
         -2    1    6    6    0  503  0.13494037594E+03 -0.13244803745E+03  0.79872115512E+03  0.82079648594E+03  0.00000000000E+00 0.  1.
<mgrwt>
<rscale>  0 0.13937440E+04</rscale>
<asrwt>0</asrwt>
<pdfrwt beam="1">  1        1 0.38534606E+00 0.13937440E+04</pdfrwt>
<pdfrwt beam="2">  1       -2 0.29828294E-01 0.13937440E+04</pdfrwt>
<totfact> 0.11979757E+01</totfact>
</mgrwt>
</event>
<event>
12    4  0.4280696E-008  0.1144184E+04  0.7818608E-02  0.9163166E-01
         -2   -1    0    0    0  501 -0.00000000000E+00  0.00000000000E+00  0.66647835067E+03  0.66647835067E+03  0.00000000000E+00 0.  1.
          1   -1    0    0  501    0  0.00000000000E+00 -0.00000000000E+00 -0.49107257985E+03  0.49107257985E+03  0.00000000000E+00 0. -1.
        -24    2    1    2    0    0  0.73130172121E+02  0.24981000891E+03  0.14082776631E+03  0.30668668086E+03  0.80443755679E+02 0.  0.
        254    2    1    2    0    0 -0.73130172121E+02 -0.24981000891E+03  0.34578004506E+02  0.85086424965E+03  0.80933384355E+03 0.  0.
         23    2    4    4    0    0  0.22235289103E+03 -0.24970712270E+03  0.28783673306E+03  0.45108241655E+03  0.93972902216E+02 0.  0.
         23    2    4    4    0    0 -0.29548306315E+03 -0.10288621343E+00 -0.25325872855E+03  0.39978183310E+03  0.91516552048E+02 0.  0.
          1    1    3    3  502    0  0.44731271260E+02  0.11798463783E+03  0.24372278140E+02  0.12851174784E+03  0.00000000000E+00 0. -1.
         -2    1    3    3    0  502  0.28398900861E+02  0.13182537108E+03  0.11645548817E+03  0.17817493302E+03  0.00000000000E+00 0.  1.
         11    1    5    5    0    0  0.11893054486E+03 -0.96967332266E+02  0.79505418878E+02  0.17282433179E+03  0.00000000000E+00 0.  1.
        -11    1    5    5    0    0  0.10342234617E+03 -0.15273979043E+03  0.20833131418E+03  0.27825808476E+03  0.00000000000E+00 0. -1.
          1    1    6    6  503    0 -0.23663088874E+03  0.17625195036E+02 -0.23878787841E+03  0.33663700908E+03  0.00000000000E+00 0. -1.
         -1    1    6    6    0  503 -0.58852174409E+02 -0.17728081250E+02 -0.14470850144E+02  0.63144824026E+02  0.00000000000E+00 0.  1.
<mgrwt>
<rscale>  0 0.11441840E+04</rscale>
<asrwt>0</asrwt>
<pdfrwt beam="1">  1        1 0.75549628E-01 0.11441840E+04</pdfrwt>
<pdfrwt beam="2">  1       -2 0.10253513E+00 0.11441840E+04</pdfrwt>
<totfact> 0.30722158E+01</totfact>
</mgrwt>
</event>
<event>
12    4  0.4280696E-008  0.2174371E+04  0.7818608E-02  0.8529172E-01
          1   -1    0    0  501    0  0.00000000000E+00  0.00000000000E+00  0.36707417554E+04  0.36707417554E+04  0.00000000000E+00 0. -1.
         -2   -1    0    0    0  501 -0.00000000000E+00 -0.00000000000E+00 -0.32199820132E+03  0.32199820132E+03  0.00000000000E+00 0.  1.
        -24    2    1    2    0    0  0.66701169236E+03 -0.57626024665E+03  0.11159180869E+04  0.14243368941E+04  0.80510506237E+02 0.  0.
        254    2    1    2    0    0 -0.66701169236E+03  0.57626024665E+03  0.22328254671E+04  0.25684030626E+04  0.91334782831E+03 0.  0.
         23    2    4    4    0    0 -0.85087431390E+03  0.29978959671E+03  0.17975632296E+04  0.20132566830E+04  0.90044471080E+02 0.  0.
         23    2    4    4    0    0  0.18386262153E+03  0.27647064994E+03  0.43526223747E+03  0.55514637954E+03  0.92156407641E+02 0.  0.
          3    1    3    3  502    0  0.53252567358E+03 -0.47070435866E+03  0.84722239147E+03  0.11058625443E+04  0.00000000000E+00 0. -1.
         -4    1    3    3    0  502  0.13448601878E+03 -0.10555588799E+03  0.26869569545E+03  0.31847434981E+03  0.00000000000E+00 0.  1.
         11    1    5    5    0    0 -0.53768833059E+03  0.14803382765E+03  0.10624557684E+04  0.11999312542E+04  0.00000000000E+00 0. -1.
        -11    1    5    5    0    0 -0.31318598330E+03  0.15175576906E+03  0.73510746129E+03  0.81332542885E+03  0.00000000000E+00 0.  1.
          2    1    6    6  503    0  0.82314211994E+02  0.14328744204E+03  0.28843376381E+03  0.33241684170E+03  0.00000000000E+00 0. -1.
         -2    1    6    6    0  503  0.10154840954E+03  0.13318320789E+03  0.14682847366E+03  0.22272953783E+03  0.00000000000E+00 0.  1.
<mgrwt>
<rscale>  0 0.21743709E+04</rscale>
<asrwt>0</asrwt>
<pdfrwt beam="1">  1        1 0.56472947E+00 0.21743709E+04</pdfrwt>
<pdfrwt beam="2">  1       -2 0.49538187E-01 0.21743709E+04</pdfrwt>
<totfact> 0.56675122E-01</totfact>
</mgrwt>
</event>
<event>
12    4  0.4280696E-008  0.1585235E+04  0.7818608E-02  0.8829671E-01
          1   -1    0    0  501    0  0.00000000000E+00  0.00000000000E+00  0.26936873042E+03  0.26936873042E+03  0.00000000000E+00 0. -1.
         -2   -1    0    0    0  501 -0.00000000000E+00 -0.00000000000E+00 -0.23322761658E+04  0.23322761658E+04  0.00000000000E+00 0.  1.
        -24    2    1    2    0    0 -0.53131601107E+03  0.46049049044E+02 -0.68257529011E+03  0.86958277966E+03  0.76471991507E+02 0.  0.
        254    2    1    2    0    0  0.53131601107E+03 -0.46049049044E+02 -0.13803321453E+04  0.17320621166E+04  0.90016949837E+03 0.  0.
         23    2    4    4    0    0  0.11779007183E+03  0.26630583203E+03 -0.59595845071E+02  0.31027527085E+03  0.89026859741E+02 0.  0.
         23    2    4    4    0    0  0.41352593924E+03 -0.31235488108E+03 -0.13207363002E+04  0.14217868457E+04  0.92542886165E+02 0.  0.
          1    1    3    3  502    0 -0.28371323133E+03  0.21681986699E+02 -0.42510144258E+03  0.51154134013E+03  0.00000000000E+00 0. -1.
         -2    1    3    3    0  502 -0.24760277974E+03  0.24367062344E+02 -0.25747384753E+03  0.35804143953E+03  0.00000000000E+00 0.  1.
         11    1    5    5    0    0  0.16202958888E+01  0.49764564672E+02 -0.39802683436E+02  0.63744732053E+02  0.00000000000E+00 0. -1.
        -11    1    5    5    0    0  0.11616977594E+03  0.21654126736E+03 -0.19793161635E+02  0.24653053880E+03  0.00000000000E+00 0.  1.
          4    1    6    6  503    0  0.39315001945E+03 -0.29251524393E+03 -0.11714168074E+04  0.12697832266E+04  0.00000000000E+00 0. -1.
         -4    1    6    6    0  503  0.20375919791E+02 -0.19839637144E+02 -0.14931949281E+03  0.15200361917E+03  0.00000000000E+00 0.  1.
<mgrwt>
<rscale>  0 0.15852347E+04</rscale>
<asrwt>0</asrwt>
<pdfrwt beam="1">  1        1 0.41441344E-01 0.15852347E+04</pdfrwt>
<pdfrwt beam="2">  1       -2 0.35881171E+00 0.15852347E+04</pdfrwt>
<totfact> 0.11657332E+00</totfact>
</mgrwt>
</event>
<event>
12    4  0.4280696E-008  0.3382381E+04  0.7818608E-02  0.8142244E-01
          1   -1    0    0  501    0  0.00000000000E+00  0.00000000000E+00  0.26070680446E+04  0.26070680446E+04  0.00000000000E+00 0. -1.
         -2   -1    0    0    0  501 -0.00000000000E+00 -0.00000000000E+00 -0.10970659721E+04  0.10970659721E+04  0.00000000000E+00 0.  1.
        -24    2    1    2    0    0  0.27470003651E+03  0.15062469332E+04  0.11083450812E+04  0.18919119269E+04  0.81620989917E+02 0.  0.
        254    2    1    2    0    0 -0.27470003651E+03 -0.15062469332E+04  0.40165699131E+03  0.18122220899E+04  0.88237216098E+03 0.  0.
         23    2    4    4    0    0 -0.38652864680E+03 -0.66270758267E+03  0.54297243496E+03  0.94497548911E+03  0.97846180137E+02 0.  0.
         23    2    4    4    0    0  0.11182861030E+03 -0.84353935058E+03 -0.14131544365E+03  0.86724660079E+03  0.89901823715E+02 0.  0.
          3    1    3    3  502    0 -0.35910371786E+01  0.26754940962E+02  0.11844203708E+02  0.29478934434E+02  0.00000000000E+00 0. -1.
         -2    1    3    3    0  502  0.27829107369E+03  0.14794919923E+04  0.10965008775E+04  0.18624329924E+04  0.00000000000E+00 0.  1.
         11    1    5    5    0    0 -0.75040794883E+02 -0.70576723406E+02  0.54253575336E+02  0.11642871304E+03  0.00000000000E+00 0. -1.
        -11    1    5    5    0    0 -0.31148785192E+03 -0.59213085926E+03  0.48871885963E+03  0.82854677607E+03  0.00000000000E+00 0.  1.
          1    1    6    6  503    0  0.28606053409E+02 -0.61633823659E+02  0.19652684934E+01  0.67977178455E+02  0.00000000000E+00 0. -1.
         -1    1    6    6    0  503  0.83222556887E+02 -0.78190552692E+03 -0.14328071215E+03  0.79926942233E+03  0.00000000000E+00 0.  1.
<mgrwt>
<rscale>  0 0.33823812E+04</rscale>
<asrwt>0</asrwt>
<pdfrwt beam="1">  1        1 0.40108739E+00 0.33823812E+04</pdfrwt>
<pdfrwt beam="2">  1       -2 0.16877938E+00 0.33823812E+04</pdfrwt>
<totfact> 0.17981773E-01</totfact>
</mgrwt>
</event>
<event>
12    4  0.4280696E-008  0.1396960E+04  0.7818608E-02  0.8956022E-01
          1   -1    0    0  501    0  0.00000000000E+00  0.00000000000E+00  0.15657115885E+04  0.15657115885E+04  0.00000000000E+00 0. -1.
         -2   -1    0    0    0  501 -0.00000000000E+00 -0.00000000000E+00 -0.31159890428E+03  0.31159890428E+03  0.00000000000E+00 0.  1.
        -24    2    1    2    0    0 -0.10759368598E+03  0.37846941675E+03  0.43367066780E+03  0.59124896099E+03  0.81789883785E+02 0.  0.
        254    2    1    2    0    0  0.10759368598E+03 -0.37846941675E+03  0.82044201640E+03  0.12860615318E+04  0.90885293670E+03 0.  0.
         23    2    4    4    0    0 -0.19988696441E+03  0.99180896205E+02  0.63916062711E+03  0.68289169302E+03  0.89571805996E+02 0.  0.
         23    2    4    4    0    0  0.30748065039E+03 -0.47765031295E+03  0.18128138929E+03  0.60316983875E+03  0.90866608022E+02 0.  0.
          3    1    3    3  502    0 -0.90697916647E+02  0.21994817151E+03  0.30218218254E+03  0.38460028819E+03  0.00000000000E+00 0. -1.
         -4    1    3    3    0  502 -0.16895769329E+02  0.15852124524E+03  0.13148848526E+03  0.20664867280E+03  0.00000000000E+00 0.  1.
         11    1    5    5    0    0 -0.40392295876E+02  0.62096416390E+02  0.24833806503E+03  0.25915110850E+03  0.00000000000E+00 0.  1.
        -11    1    5    5    0    0 -0.15949466854E+03  0.37084479815E+02  0.39082256208E+03  0.42374058451E+03  0.00000000000E+00 0. -1.
          1    1    6    6  503    0  0.31373857856E+03 -0.46526474471E+03  0.17412558164E+03  0.58755671771E+03  0.00000000000E+00 0. -1.
         -1    1    6    6    0  503 -0.62579281679E+01 -0.12385568244E+02  0.71558076480E+01  0.15613121045E+02  0.00000000000E+00 0.  1.
<mgrwt>
<rscale>  0 0.13969596E+04</rscale>
<asrwt>0</asrwt>
<pdfrwt beam="1">  1        1 0.24087870E+00 0.13969596E+04</pdfrwt>
<pdfrwt beam="2">  1       -2 0.47938294E-01 0.13969596E+04</pdfrwt>
<totfact> 0.20789351E+01</totfact>
</mgrwt>
</event>
<event>
12    4  0.4280696E-008  0.1271266E+04  0.7818608E-02  0.9052667E-01
          1   -1    0    0  501    0  0.00000000000E+00  0.00000000000E+00  0.10251427083E+04  0.10251427083E+04  0.00000000000E+00 0. -1.
         -2   -1    0    0    0  501 -0.00000000000E+00 -0.00000000000E+00 -0.39411990287E+03  0.39411990287E+03  0.00000000000E+00 0.  1.
        -24    2    1    2    0    0 -0.41361361351E+02  0.71878162155E+02  0.50009003530E+03  0.51328528833E+03  0.80588531490E+02 0.  0.
        254    2    1    2    0    0  0.41361361351E+02 -0.71878162155E+02  0.13093277016E+03  0.90597732288E+03  0.89262214114E+03 0.  0.
         23    2    4    4    0    0 -0.65859983053E+01 -0.43284180145E+03  0.25451928964E+03  0.51043721274E+03  0.91491414315E+02 0.  0.
         23    2    4    4    0    0  0.47947359657E+02  0.36096363930E+03 -0.12358651947E+03  0.39554011014E+03  0.92653401116E+02 0.  0.
          1    1    3    3  502    0 -0.37727263779E+02  0.76166694354E+02  0.50048386483E+03  0.50765028387E+03  0.00000000000E+00 0. -1.
         -2    1    3    3    0  502 -0.36340975727E+01 -0.42885321995E+01 -0.39382953007E+00  0.56350044626E+01  0.00000000000E+00 0.  1.
         11    1    5    5    0    0  0.17710289803E+02 -0.16709932508E+03  0.53507652787E+02  0.17634882397E+03  0.00000000000E+00 0. -1.
        -11    1    5    5    0    0 -0.24296288109E+02 -0.26574247637E+03  0.20101163685E+03  0.33408838877E+03  0.00000000000E+00 0.  1.
          3    1    6    6  503    0  0.54119238481E+02  0.16874882016E+03 -0.95125608467E+02  0.20113164262E+03  0.00000000000E+00 0. -1.
         -3    1    6    6    0  503 -0.61718788247E+01  0.19221481914E+03 -0.28460911006E+02  0.19440846752E+03  0.00000000000E+00 0.  1.
<mgrwt>
<rscale>  0 0.12712657E+04</rscale>
<asrwt>0</asrwt>
<pdfrwt beam="1">  1        1 0.15771426E+00 0.12712657E+04</pdfrwt>
<pdfrwt beam="2">  1       -2 0.60633832E-01 0.12712657E+04</pdfrwt>
<totfact> 0.31626344E+01</totfact>
</mgrwt>
</event>
<event>
12    4  0.4280696E-008  0.4098495E+04  0.7818608E-02  0.7984967E-01
          1   -1    0    0  501    0  0.00000000000E+00  0.00000000000E+00  0.19255260072E+04  0.19255260072E+04  0.00000000000E+00 0. -1.
         -2   -1    0    0    0  501 -0.00000000000E+00 -0.00000000000E+00 -0.21809183446E+04  0.21809183446E+04  0.00000000000E+00 0.  1.
        -24    2    1    2    0    0 -0.11415243997E+04 -0.42302861696E+03  0.14037769785E+04  0.18598598065E+04  0.80358748680E+02 0.  0.
        254    2    1    2    0    0  0.11415243997E+04  0.42302861696E+03 -0.16591693159E+04  0.22465845453E+04  0.90125919383E+03 0.  0.
         23    2    4    4    0    0  0.41535164028E+03 -0.18988586679E+03 -0.20900789735E+03  0.51062423688E+03  0.92082477366E+02 0.  0.
         23    2    4    4    0    0  0.72617275945E+03  0.61291448375E+03 -0.14501614186E+04  0.17359603084E+04  0.87172310137E+02 0.  0.
          1    1    3    3  502    0 -0.10201185115E+04 -0.35484829549E+03  0.12224642435E+04  0.16312504152E+04  0.00000000000E+00 0. -1.
         -2    1    3    3    0  502 -0.12140588820E+03 -0.68180321469E+02  0.18131273492E+03  0.22860939125E+03  0.00000000000E+00 0.  1.
         11    1    5    5    0    0  0.30336808930E+03 -0.11672456058E+03 -0.18717934044E+03  0.37509055725E+03  0.00000000000E+00 0. -1.
        -11    1    5    5    0    0  0.11198355098E+03 -0.73161306211E+02 -0.21828556912E+02  0.13553367963E+03  0.00000000000E+00 0.  1.
          1    1    6    6  503    0  0.66598076917E+03  0.58908639283E+03 -0.13635944164E+04  0.16278645200E+04  0.00000000000E+00 0. -1.
         -1    1    6    6    0  503  0.60191990284E+02  0.23828090920E+02 -0.86567002181E+02  0.10809578844E+03  0.00000000000E+00 0.  1.
<mgrwt>
<rscale>  0 0.40984948E+04</rscale>
<asrwt>0</asrwt>
<pdfrwt beam="1">  1        1 0.29623477E+00 0.40984948E+04</pdfrwt>
<pdfrwt beam="2">  1       -2 0.33552590E+00 0.40984948E+04</pdfrwt>
<totfact> 0.43793621E-02</totfact>
</mgrwt>
</event>
<event>
12    4  0.4280696E-008  0.1605313E+04  0.7818608E-02  0.8817291E-01
          3   -1    0    0  501    0  0.00000000000E+00  0.00000000000E+00  0.93009466291E+03  0.93009466291E+03  0.00000000000E+00 0. -1.
         -4   -1    0    0    0  501 -0.00000000000E+00 -0.00000000000E+00 -0.69267941147E+03  0.69267941147E+03  0.00000000000E+00 0.  1.
        -24    2    1    2    0    0  0.24177771765E+03  0.41527471361E+03  0.16075075385E+03  0.51312341191E+03  0.80902895277E+02 0.  0.
        254    2    1    2    0    0 -0.24177771765E+03 -0.41527471361E+03  0.76664497589E+02  0.11096506625E+04  0.99726505755E+03 0.  0.
         23    2    4    4    0    0  0.25876390107E+03 -0.26322810990E+02  0.32192961985E+03  0.42374973908E+03  0.90958860815E+02 0.  0.
         23    2    4    4    0    0 -0.50054161872E+03 -0.38895190262E+03 -0.24526512226E+03  0.68590092338E+03  0.92084753738E+02 0.  0.
          1    1    3    3  502    0  0.21761219232E+03  0.40474042704E+03  0.16051790860E+03  0.48676059671E+03  0.00000000000E+00 0. -1.
         -2    1    3    3    0  502  0.24165525336E+02  0.10534286575E+02  0.23284524734E+00  0.26362815201E+02  0.00000000000E+00 0.  1.
         11    1    5    5    0    0  0.20516634895E+03  0.43895167940E+01  0.28689220600E+03  0.35273167772E+03  0.00000000000E+00 0. -1.
        -11    1    5    5    0    0  0.53597552120E+02 -0.30712327784E+02  0.35037413845E+02  0.71018061365E+02  0.00000000000E+00 0.  1.
          2    1    6    6  503    0 -0.36843880579E+03 -0.32990876741E+03 -0.20774389861E+03  0.53641819119E+03  0.00000000000E+00 0. -1.
         -2    1    6    6    0  503 -0.13210281293E+03 -0.59043135216E+02 -0.37521223647E+02  0.14948273220E+03  0.00000000000E+00 0.  1.
<mgrwt>
<rscale>  0 0.16053130E+04</rscale>
<asrwt>0</asrwt>
<pdfrwt beam="1">  1        3 0.14309149E+00 0.16053130E+04</pdfrwt>
<pdfrwt beam="2">  1       -4 0.10656606E+00 0.16053130E+04</pdfrwt>
<totfact> 0.56804315E-01</totfact>
</mgrwt>
</event>
<event>
12    4  0.4280696E-008  0.1476396E+04  0.7818608E-02  0.8900303E-01
         -2   -1    0    0    0  501 -0.00000000000E+00  0.00000000000E+00  0.11284300839E+04  0.11284300839E+04  0.00000000000E+00 0.  1.
          1   -1    0    0  501    0  0.00000000000E+00 -0.00000000000E+00 -0.48291554303E+03  0.48291554303E+03  0.00000000000E+00 0. -1.
        -24    2    1    2    0    0  0.90112231926E+02  0.40985257313E+03  0.40897715331E+03  0.59131327097E+03  0.79307795637E+02 0.  0.
        254    2    1    2    0    0 -0.90112231926E+02 -0.40985257313E+03  0.23653738756E+03  0.10200323560E+04  0.89911997278E+03 0.  0.
         23    2    4    4    0    0 -0.25307774575E+03 -0.46340532905E+03  0.47138424506E+03  0.71409642808E+03  0.94539715031E+02 0.  0.
         23    2    4    4    0    0  0.16296551382E+03  0.53552755917E+02 -0.23484685750E+03  0.30593592788E+03  0.94963620036E+02 0.  0.
          1    1    3    3  502    0  0.43889588753E+02  0.21003349581E+03  0.26374964691E+03  0.34000623760E+03  0.00000000000E+00 0. -1.
         -2    1    3    3    0  502  0.46222643174E+02  0.19981907733E+03  0.14522750639E+03  0.25130703336E+03  0.00000000000E+00 0.  1.
         11    1    5    5    0    0 -0.10324832006E+03 -0.20001754340E+03  0.26384714301E+03  0.34681774484E+03  0.00000000000E+00 0. -1.
        -11    1    5    5    0    0 -0.14982942569E+03 -0.26338778565E+03  0.20753710205E+03  0.36727868324E+03  0.00000000000E+00 0.  1.
          1    1    6    6  503    0  0.79525025116E+02 -0.13135733129E+02 -0.14695318208E+03  0.16760672668E+03  0.00000000000E+00 0. -1.
         -1    1    6    6    0  503  0.83440488707E+02  0.66688489046E+02 -0.87893675418E+02  0.13832920120E+03  0.00000000000E+00 0.  1.
<mgrwt>
<rscale>  0 0.14763962E+04</rscale>
<asrwt>0</asrwt>
<pdfrwt beam="1">  1        1 0.74294699E-01 0.14763962E+04</pdfrwt>
<pdfrwt beam="2">  1       -2 0.17360463E+00 0.14763962E+04</pdfrwt>
<totfact> 0.79121795E+00</totfact>
</mgrwt>
</event>
<event>
12    4  0.4280696E-008  0.1270115E+04  0.7818608E-02  0.9053606E-01
          1   -1    0    0  501    0  0.00000000000E+00  0.00000000000E+00  0.45656883272E+03  0.45656883272E+03  0.00000000000E+00 0. -1.
         -2   -1    0    0    0  501 -0.00000000000E+00 -0.00000000000E+00 -0.88332410361E+03  0.88332410361E+03  0.00000000000E+00 0.  1.
        -24    2    1    2    0    0 -0.14438530063E+03 -0.22196027064E+03 -0.41637761592E+02  0.27955675408E+03  0.79402763061E+02 0.  0.
        254    2    1    2    0    0  0.14438530063E+03  0.22196027064E+03 -0.38511750930E+03  0.10603361822E+04  0.95177930563E+03 0.  0.
         23    2    4    4    0    0 -0.86103479958E+02 -0.77839348284E+02 -0.59879325633E+03  0.61680547647E+03  0.91776132954E+02 0.  0.
         23    2    4    4    0    0  0.23048878058E+03  0.29979961892E+03  0.21367574703E+03  0.44353070577E+03  0.89762311753E+02 0.  0.
          1    1    3    3  502    0 -0.13632366136E+03 -0.19595106325E+03 -0.11563609954E+02  0.23898677141E+03  0.00000000000E+00 0. -1.
         -2    1    3    3    0  502 -0.80616392633E+01 -0.26009207391E+02 -0.30074151638E+02  0.40569982665E+02  0.00000000000E+00 0.  1.
         11    1    5    5    0    0 -0.50829015902E+02 -0.85614706867E+02 -0.52825752101E+03  0.53755881110E+03  0.00000000000E+00 0.  1.
        -11    1    5    5    0    0 -0.35274464056E+02  0.77753585825E+01 -0.70535735322E+02  0.79246665375E+02  0.00000000000E+00 0. -1.
          1    1    6    6  503    0  0.11656546544E+02  0.64773294252E+02  0.21241503168E+02  0.69156750809E+02  0.00000000000E+00 0. -1.
         -1    1    6    6    0  503  0.21883223404E+03  0.23502632467E+03  0.19243424386E+03  0.37437395496E+03  0.00000000000E+00 0.  1.
<mgrwt>
<rscale>  0 0.12701154E+04</rscale>
<asrwt>0</asrwt>
<pdfrwt beam="1">  1        1 0.70241360E-01 0.12701154E+04</pdfrwt>
<pdfrwt beam="2">  1       -2 0.13589601E+00 0.12701154E+04</pdfrwt>
<totfact> 0.16751553E+01</totfact>
</mgrwt>
</event>
<event>
12    4  0.4280696E-008  0.1685692E+04  0.7818608E-02  0.8769567E-01
          1   -1    0    0  501    0  0.00000000000E+00  0.00000000000E+00  0.29579319126E+04  0.29579319126E+04  0.00000000000E+00 0. -1.
         -4   -1    0    0    0  501 -0.00000000000E+00 -0.00000000000E+00 -0.24016409395E+03  0.24016409395E+03  0.00000000000E+00 0.  1.
        -24    2    1    2    0    0 -0.45162773207E+03  0.19963641859E+03  0.32442190062E+03  0.59616155729E+03  0.79603547605E+02 0.  0.
        254    2    1    2    0    0  0.45162773207E+03 -0.19963641859E+03  0.23933459180E+04  0.26019344493E+04  0.89338451236E+03 0.  0.
         23    2    4    4    0    0  0.43442920454E+03  0.20806907976E+03  0.67886465401E+03  0.83742064370E+03  0.91622269792E+02 0.  0.
         23    2    4    4    0    0  0.17198527529E+02 -0.40770549835E+03  0.17144812640E+04  0.17645138056E+04  0.86852764040E+02 0.  0.
          3    1    3    3  502    0 -0.39597147180E+03  0.17783582801E+03  0.25075701717E+03  0.50129638923E+03  0.00000000000E+00 0. -1.
         -4    1    3    3    0  502 -0.55656260272E+02  0.21800590587E+02  0.73664883447E+02  0.94865168058E+02  0.00000000000E+00 0.  1.
         11    1    5    5    0    0  0.24836882568E+03  0.71134333103E+02  0.38431909695E+03  0.46308566723E+03  0.00000000000E+00 0. -1.
        -11    1    5    5    0    0  0.18606037885E+03  0.13693474665E+03  0.29454555706E+03  0.37433497647E+03  0.00000000000E+00 0.  1.
          2    1    6    6  503    0 -0.31745001900E+02 -0.11402483337E+03  0.54790062989E+03  0.56053947943E+03  0.00000000000E+00 0. -1.
         -2    1    6    6    0  503  0.48943529428E+02 -0.29368066498E+03  0.11665806341E+04  0.12039743261E+04  0.00000000000E+00 0.  1.
<mgrwt>
<rscale>  0 0.16856916E+04</rscale>
<asrwt>0</asrwt>
<pdfrwt beam="1">  1        1 0.45506642E+00 0.16856916E+04</pdfrwt>
<pdfrwt beam="2">  1       -4 0.36948324E-01 0.16856916E+04</pdfrwt>
<totfact> 0.21877819E+00</totfact>
</mgrwt>
</event>
<event>
12    4  0.4280696E-008  0.1537982E+04  0.7818608E-02  0.8859581E-01
          1   -1    0    0  501    0  0.00000000000E+00  0.00000000000E+00  0.24504116245E+04  0.24504116245E+04  0.00000000000E+00 0. -1.
         -2   -1    0    0    0  501 -0.00000000000E+00 -0.00000000000E+00 -0.24132574639E+03  0.24132574639E+03  0.00000000000E+00 0.  1.
        -24    2    1    2    0    0  0.29549164041E+03 -0.35927512777E+03  0.10841537747E+04  0.11823971702E+04  0.79244771838E+02 0.  0.
        254    2    1    2    0    0 -0.29549164041E+03  0.35927512777E+03  0.11249321034E+04  0.15093402007E+04  0.89232375133E+03 0.  0.
         23    2    4    4    0    0 -0.55266811743E+03  0.10257004441E+02  0.59031038981E+03  0.81384731780E+03  0.91289902022E+02 0.  0.
         23    2    4    4    0    0  0.25717647703E+03  0.34901812333E+03  0.53462171356E+03  0.69549288287E+03  0.99682409508E+02 0.  0.
          1    1    3    3  502    0  0.29342383298E+03 -0.36322918033E+03  0.10781094212E+04  0.11748842101E+04  0.00000000000E+00 0. -1.
         -4    1    3    3    0  502  0.20678074300E+01  0.39540525549E+01  0.60443535878E+01  0.75129601003E+01  0.00000000000E+00 0.  1.
         11    1    5    5    0    0 -0.39827172552E+03  0.68696598156E+01  0.48161827119E+03  0.62499897498E+03  0.00000000000E+00 0.  1.
        -11    1    5    5    0    0 -0.15439639191E+03  0.33873446255E+01  0.10869211862E+03  0.18884834282E+03  0.00000000000E+00 0. -1.
          1    1    6    6  503    0  0.21457183558E+02  0.38836132645E+02  0.16709866591E+02  0.47411766120E+02  0.00000000000E+00 0. -1.
         -1    1    6    6    0  503  0.23571929347E+03  0.31018199069E+03  0.51791184696E+03  0.64808111675E+03  0.00000000000E+00 0.  1.
<mgrwt>
<rscale>  0 0.15379823E+04</rscale>
<asrwt>0</asrwt>
<pdfrwt beam="1">  1        1 0.37698639E+00 0.15379823E+04</pdfrwt>
<pdfrwt beam="2">  1       -2 0.37127040E-01 0.15379823E+04</pdfrwt>
<totfact> 0.85089583E+00</totfact>
</mgrwt>
</event>
<event>
12    4  0.4280696E-008  0.1335360E+04  0.7818608E-02  0.9001985E-01
          1   -1    0    0  501    0  0.00000000000E+00  0.00000000000E+00  0.74386597931E+03  0.74386597931E+03  0.00000000000E+00 0. -1.
         -2   -1    0    0    0  501 -0.00000000000E+00 -0.00000000000E+00 -0.59929699111E+03  0.59929699111E+03  0.00000000000E+00 0.  1.
        -24    2    1    2    0    0 -0.16319089029E+03  0.23508382040E+03  0.25325371151E+03  0.39020771042E+03  0.78923669369E+02 0.  0.
        254    2    1    2    0    0  0.16319089029E+03 -0.23508382040E+03 -0.10868472331E+03  0.95295526001E+03  0.90244982642E+03 0.  0.
         23    2    4    4    0    0 -0.89079405872E+02  0.30184350432E+03  0.51845700400E+02  0.33153964604E+03  0.90476066433E+02 0.  0.
         23    2    4    4    0    0  0.25227029616E+03 -0.53692732471E+03 -0.16053042371E+03  0.62141561397E+03  0.91957022566E+02 0.  0.
          3    1    3    3  502    0 -0.11514934666E+03  0.10816514387E+03  0.16436955736E+03  0.22798338047E+03  0.00000000000E+00 0. -1.
         -4    1    3    3    0  502 -0.48041543627E+02  0.12691867653E+03  0.88884154157E+02  0.16222432995E+03  0.00000000000E+00 0.  1.
         11    1    5    5    0    0 -0.31367360188E+02  0.16351937362E+03 -0.15506313150E+02  0.16722123843E+03  0.00000000000E+00 0. -1.
        -11    1    5    5    0    0 -0.57712045683E+02  0.13832413069E+03  0.67352013551E+02  0.16431840760E+03  0.00000000000E+00 0.  1.
          1    1    6    6  503    0  0.15992919148E+03 -0.26101727222E+03 -0.49986082057E+02  0.31017087401E+03  0.00000000000E+00 0. -1.
         -1    1    6    6    0  503  0.92341104678E+02 -0.27591005250E+03 -0.11054434165E+03  0.31124473996E+03  0.00000000000E+00 0.  1.
<mgrwt>
<rscale>  0 0.13353601E+04</rscale>
<asrwt>0</asrwt>
<pdfrwt beam="1">  1        1 0.11444092E+00 0.13353601E+04</pdfrwt>
<pdfrwt beam="2">  1       -2 0.92199537E-01 0.13353601E+04</pdfrwt>
<totfact> 0.21280738E+01</totfact>
</mgrwt>
</event>
<event>
12    4  0.4280696E-008  0.1226797E+04  0.7818608E-02  0.9089720E-01
          1   -1    0    0  501    0  0.00000000000E+00  0.00000000000E+00  0.30240283575E+03  0.30240283575E+03  0.00000000000E+00 0. -1.
         -2   -1    0    0    0  501 -0.00000000000E+00 -0.00000000000E+00 -0.12442261372E+04  0.12442261372E+04  0.00000000000E+00 0.  1.
        -24    2    1    2    0    0 -0.17871695354E+03 -0.82646597309E+02  0.22169433149E+02  0.21340048597E+03  0.79234298853E+02 0.  0.
        254    2    1    2    0    0  0.17871695354E+03  0.82646597309E+02 -0.96399273458E+03  0.13332284870E+04  0.89969216768E+03 0.  0.
         23    2    4    4    0    0 -0.99343277742E+02  0.28412618695E+02 -0.10211518372E+04  0.10303653329E+04  0.90693334769E+02 0.  0.
         23    2    4    4    0    0  0.27806023128E+03  0.54233978614E+02  0.57159102609E+02  0.30286315403E+03  0.90554460965E+02 0.  0.
          1    1    3    3  502    0 -0.91095435874E+02 -0.24785370749E+02  0.47063441361E+02  0.10548772703E+03  0.00000000000E+00 0. -1.
         -4    1    3    3    0  502 -0.87621517668E+02 -0.57861226560E+02 -0.24894008213E+02  0.10791275894E+03  0.00000000000E+00 0.  1.
         11    1    5    5    0    0 -0.95717512459E+02  0.99074965276E+01 -0.51813341846E+03  0.52699358631E+03  0.00000000000E+00 0. -1.
        -11    1    5    5    0    0 -0.36257652834E+01  0.18505122167E+02 -0.50301841872E+03  0.50337174662E+03  0.00000000000E+00 0.  1.
          3    1    6    6  503    0  0.25398744698E+03  0.51305267398E+02  0.78302258130E+02  0.27069003918E+03  0.00000000000E+00 0. -1.
         -3    1    6    6    0  503  0.24072784308E+02  0.29287112156E+01 -0.21143155521E+02  0.32173114850E+02  0.00000000000E+00 0.  1.
<mgrwt>
<rscale>  0 0.12267967E+04</rscale>
<asrwt>0</asrwt>
<pdfrwt beam="1">  1        1 0.46523513E-01 0.12267967E+04</pdfrwt>
<pdfrwt beam="2">  1       -2 0.19141941E+00 0.12267967E+04</pdfrwt>
<totfact> 0.11333670E+01</totfact>
</mgrwt>
</event>
<event>
12    4  0.4280696E-008  0.1549644E+04  0.7818608E-02  0.8852095E-01
          1   -1    0    0  501    0  0.00000000000E+00  0.00000000000E+00  0.22879731830E+04  0.22879731830E+04  0.00000000000E+00 0. -1.
         -2   -1    0    0    0  501 -0.00000000000E+00 -0.00000000000E+00 -0.26239339470E+03  0.26239339470E+03  0.00000000000E+00 0.  1.
        -24    2    1    2    0    0 -0.33332178737E+02 -0.40064430995E+03  0.11826204906E+04  0.12514445233E+04  0.76780680753E+02 0.  0.
        254    2    1    2    0    0  0.33332178737E+02  0.40064430995E+03  0.84295929776E+03  0.12989220544E+04  0.90276864620E+03 0.  0.
         23    2    4    4    0    0  0.19216598153E+03  0.38094287379E+03 -0.16872119706E+01  0.43422794296E+03  0.80658677260E+02 0.  0.
         23    2    4    4    0    0 -0.15883380280E+03  0.19701436166E+02  0.84464650973E+03  0.86469411146E+03  0.93015356245E+02 0.  0.
          1    1    3    3  502    0 -0.20120640289E+02 -0.34096277585E+03  0.90830727956E+03  0.97040330213E+03  0.00000000000E+00 0. -1.
         -2    1    3    3    0  502 -0.13211538448E+02 -0.59681534105E+02  0.27431321102E+03  0.28104122118E+03  0.00000000000E+00 0.  1.
         11    1    5    5    0    0  0.14827425854E+02  0.10495115430E+03  0.48963588591E+01  0.10610641676E+03  0.00000000000E+00 0. -1.
        -11    1    5    5    0    0  0.17733855568E+03  0.27599171949E+03 -0.65835708297E+01  0.32812152621E+03  0.00000000000E+00 0.  1.
          1    1    6    6  503    0  0.67802621546E+00 -0.19478297320E+02  0.12727740136E+03  0.12876102159E+03  0.00000000000E+00 0. -1.
         -1    1    6    6    0  503 -0.15951182901E+03  0.39179733486E+02  0.71736910838E+03  0.73593308987E+03  0.00000000000E+00 0.  1.
<mgrwt>
<rscale>  0 0.15496439E+04</rscale>
<asrwt>0</asrwt>
<pdfrwt beam="1">  1        1 0.35199586E+00 0.15496439E+04</pdfrwt>
<pdfrwt beam="2">  1       -2 0.40368216E-01 0.15496439E+04</pdfrwt>
<totfact> 0.93340558E+00</totfact>
</mgrwt>
</event>
<event>
12    4  0.4280696E-008  0.2471887E+04  0.7818608E-02  0.8413070E-01
         -2   -1    0    0    0  501 -0.00000000000E+00  0.00000000000E+00  0.99584920782E+03  0.99584920782E+03  0.00000000000E+00 0.  1.
          1   -1    0    0  501    0  0.00000000000E+00 -0.00000000000E+00 -0.15339239289E+04  0.15339239289E+04  0.00000000000E+00 0. -1.
        -24    2    1    2    0    0 -0.53650617129E+01 -0.10623311077E+04 -0.21210988157E+03  0.10863270258E+04  0.80868032255E+02 0.  0.
        254    2    1    2    0    0  0.53650617129E+01  0.10623311077E+04 -0.32596483950E+03  0.14434461110E+04  0.92125318575E+03 0.  0.
         23    2    4    4    0    0  0.35408424991E+03  0.12817191026E+03 -0.19644031707E+03  0.43419117348E+03  0.90163642031E+02 0.  0.
         23    2    4    4    0    0 -0.34871918820E+03  0.93415919749E+03 -0.12952452242E+03  0.10092549375E+04  0.86950839129E+02 0.  0.
          3    1    3    3  502    0  0.27971687212E+02 -0.39091509603E+03 -0.52700669905E+02  0.39544201623E+03  0.00000000000E+00 0. -1.
         -4    1    3    3    0  502 -0.33336748925E+02 -0.67141601171E+03 -0.15940921167E+03  0.69088500952E+03  0.00000000000E+00 0.  1.
         11    1    5    5    0    0  0.42299238794E+02 -0.38034666191E+00 -0.52731809530E+02  0.67601878690E+02  0.00000000000E+00 0. -1.
        -11    1    5    5    0    0  0.31178501112E+03  0.12855225692E+03 -0.14370850754E+03  0.36658929479E+03  0.00000000000E+00 0.  1.
          3    1    6    6  503    0 -0.72183110913E+02  0.25070678402E+03 -0.12106045926E+01  0.26089415213E+03  0.00000000000E+00 0. -1.
         -3    1    6    6    0  503 -0.27653607728E+03  0.68345241347E+03 -0.12831391783E+03  0.74836078534E+03  0.00000000000E+00 0.  1.
<mgrwt>
<rscale>  0 0.24718875E+04</rscale>
<asrwt>0</asrwt>
<pdfrwt beam="1">  1        1 0.23598830E+00 0.24718875E+04</pdfrwt>
<pdfrwt beam="2">  1       -2 0.15320757E+00 0.24718875E+04</pdfrwt>
<totfact> 0.13725598E+00</totfact>
</mgrwt>
</event>
<event>
12    4  0.4280696E-008  0.1874416E+04  0.7818608E-02  0.8667697E-01
          1   -1    0    0  501    0  0.00000000000E+00  0.00000000000E+00  0.15382087816E+04  0.15382087816E+04  0.00000000000E+00 0. -1.
         -2   -1    0    0    0  501 -0.00000000000E+00 -0.00000000000E+00 -0.57102701213E+03  0.57102701213E+03  0.00000000000E+00 0.  1.
        -24    2    1    2    0    0 -0.46788544337E+02 -0.66388234744E+03  0.29730474107E+03  0.73331966840E+03  0.80241434884E+02 0.  0.
        254    2    1    2    0    0  0.46788544337E+02  0.66388234744E+03  0.66987702838E+03  0.13759161253E+04  0.10007402318E+04 0.  0.
         23    2    4    4    0    0  0.14066985119E+02  0.13657199568E+03  0.80620388682E+03  0.82275932754E+03  0.90102241125E+02 0.  0.
         23    2    4    4    0    0  0.32721559218E+02  0.52731035176E+03 -0.13632685845E+03  0.55315679775E+03  0.90942416126E+02 0.  0.
          3    1    3    3  502    0 -0.41058206048E+02 -0.13737592715E+03  0.52954168562E+02  0.15284654269E+03  0.00000000000E+00 0. -1.
         -4    1    3    3    0  502 -0.57303382890E+01 -0.52650642030E+03  0.24435057251E+03  0.58047312571E+03  0.00000000000E+00 0.  1.
         11    1    5    5    0    0 -0.38179043943E+01  0.16584429559E+02  0.35870417410E+03  0.35910764989E+03  0.00000000000E+00 0.  1.
        -11    1    5    5    0    0  0.17884889513E+02  0.11998756612E+03  0.44749971273E+03  0.46365167765E+03  0.00000000000E+00 0. -1.
          1    1    6    6  503    0  0.22232994596E+02  0.52066191706E+03 -0.12405589316E+03  0.53569861168E+03  0.00000000000E+00 0. -1.
         -1    1    6    6    0  503  0.10488564622E+02  0.66484347026E+01 -0.12270965292E+02  0.17458186075E+02  0.00000000000E+00 0.  1.
<mgrwt>
<rscale>  0 0.18744159E+04</rscale>
<asrwt>0</asrwt>
<pdfrwt beam="1">  1        1 0.23664750E+00 0.18744159E+04</pdfrwt>
<pdfrwt beam="2">  1       -2 0.87850311E-01 0.18744159E+04</pdfrwt>
<totfact> 0.56595099E+00</totfact>
</mgrwt>
</event>
<event>
12    4  0.4280696E-008  0.2295276E+04  0.7818608E-02  0.8479786E-01
          1   -1    0    0  501    0  0.00000000000E+00  0.00000000000E+00  0.14552879236E+04  0.14552879236E+04  0.00000000000E+00 0. -1.
         -2   -1    0    0    0  501 -0.00000000000E+00 -0.00000000000E+00 -0.90502559315E+03  0.90502559315E+03  0.00000000000E+00 0.  1.
        -24    2    1    2    0    0 -0.89668095279E+03 -0.22961911034E+03 -0.13918656304E+03  0.93929709714E+03  0.78386672541E+02 0.  0.
        254    2    1    2    0    0  0.89668095279E+03  0.22961911034E+03  0.68944889351E+03  0.14210164196E+04  0.82896696024E+03 0.  0.
         23    2    4    4    0    0  0.94461639423E+03  0.54847289953E+02  0.32910762094E+03  0.10059408234E+04  0.91086533679E+02 0.  0.
         23    2    4    4    0    0 -0.47935441438E+02  0.17477182039E+03  0.36034127257E+03  0.41507559620E+03  0.97974088915E+02 0.  0.
          1    1    3    3  502    0 -0.42634198258E+03 -0.84158518651E+02 -0.34228586622E+02  0.43591482943E+03  0.00000000000E+00 0. -1.
         -4    1    3    3    0  502 -0.47033897021E+03 -0.14546059169E+03 -0.10495797642E+03  0.50338226771E+03  0.00000000000E+00 0.  1.
         11    1    5    5    0    0  0.59162891381E+03  0.45523756020E+02  0.16085577996E+03  0.61479408419E+03  0.00000000000E+00 0. -1.
        -11    1    5    5    0    0  0.35298748042E+03  0.93235339333E+01  0.16825184098E+03  0.39114673923E+03  0.00000000000E+00 0.  1.
          2    1    6    6  503    0  0.29516149997E+02  0.46655570933E+02  0.11698073740E+03  0.12935392663E+03  0.00000000000E+00 0.  1.
         -2    1    6    6    0  503 -0.77451591436E+02  0.12811624945E+03  0.24336053517E+03  0.28572166958E+03  0.00000000000E+00 0. -1.
<mgrwt>
<rscale>  0 0.22952759E+04</rscale>
<asrwt>0</asrwt>
<pdfrwt beam="1">  1        1 0.22389045E+00 0.22952759E+04</pdfrwt>
<pdfrwt beam="2">  1       -2 0.13923471E+00 0.22952759E+04</pdfrwt>
<totfact> 0.20324288E+00</totfact>
</mgrwt>
</event>
<event>
12    4  0.4280696E-008  0.2937192E+04  0.7818608E-02  0.8261897E-01
          1   -1    0    0  501    0  0.00000000000E+00  0.00000000000E+00  0.11302249189E+04  0.11302249189E+04  0.00000000000E+00 0. -1.
         -2   -1    0    0    0  501 -0.00000000000E+00 -0.00000000000E+00 -0.19082695647E+04  0.19082695647E+04  0.00000000000E+00 0.  1.
        -24    2    1    2    0    0  0.36171025607E+03 -0.10708731195E+04 -0.10825302592E+04  0.15670881763E+04  0.79309790171E+02 0.  0.
        254    2    1    2    0    0 -0.36171025607E+03  0.10708731195E+04  0.30448561346E+03  0.14714063073E+04  0.89147152773E+03 0.  0.
         23    2    4    4    0    0 -0.27794872577E+03  0.66970955696E+03 -0.25208271264E+03  0.77313526127E+03  0.91793536629E+02 0.  0.
         23    2    4    4    0    0 -0.83761530293E+02  0.40116356259E+03  0.55656832611E+03  0.69827104600E+03  0.99327509519E+02 0.  0.
          1    1    3    3  502    0  0.10435738258E+03 -0.21127178871E+03 -0.21483752466E+03  0.31887520131E+03  0.00000000000E+00 0. -1.
         -2    1    3    3    0  502  0.25735287348E+03 -0.85960133083E+03 -0.86769273456E+03  0.12482129750E+04  0.00000000000E+00 0.  1.
         11    1    5    5    0    0 -0.10071898207E+03  0.36203546813E+03 -0.12602226275E+03  0.39635287843E+03  0.00000000000E+00 0. -1.
        -11    1    5    5    0    0 -0.17722974371E+03  0.30767408883E+03 -0.12606044989E+03  0.37678238284E+03  0.00000000000E+00 0.  1.
          3    1    6    6  503    0 -0.10284592609E+03  0.28091340571E+03  0.41435475072E+03  0.51105722328E+03  0.00000000000E+00 0. -1.
         -3    1    6    6    0  503  0.19084395802E+02  0.12025015688E+03  0.14221357539E+03  0.18721382272E+03  0.00000000000E+00 0.  1.
<mgrwt>
<rscale>  0 0.29371917E+04</rscale>
<asrwt>0</asrwt>
<pdfrwt beam="1">  1        1 0.17388076E+00 0.29371917E+04</pdfrwt>
<pdfrwt beam="2">  1       -2 0.29357993E+00 0.29371917E+04</pdfrwt>
<totfact> 0.31437268E-01</totfact>
</mgrwt>
</event>
<event>
12    4  0.4280696E-008  0.2303613E+04  0.7818608E-02  0.8476498E-01
          1   -1    0    0  501    0  0.00000000000E+00  0.00000000000E+00  0.29512518861E+04  0.29512518861E+04  0.00000000000E+00 0. -1.
         -2   -1    0    0    0  501 -0.00000000000E+00 -0.00000000000E+00 -0.44952389689E+03  0.44952389689E+03  0.00000000000E+00 0.  1.
        -24    2    1    2    0    0  0.67599436050E+03 -0.70445544386E+02  0.21006097987E+04  0.22092308564E+04  0.78794035887E+02 0.  0.
        254    2    1    2    0    0 -0.67599436050E+03  0.70445544386E+02  0.40111819048E+03  0.11915449266E+04  0.89272199438E+03 0.  0.
         23    2    4    4    0    0 -0.15881995145E+03  0.37233820552E+03 -0.75940712471E+02  0.42102276775E+03  0.87370835407E+02 0.  0.
         23    2    4    4    0    0 -0.51717440905E+03 -0.30189266114E+03  0.47705890295E+03  0.77052215886E+03  0.86664019018E+02 0.  0.
          3    1    3    3  502    0  0.65016113757E+03 -0.57774531556E+02  0.19640079935E+04  0.20696315614E+04  0.00000000000E+00 0. -1.
         -4    1    3    3    0  502  0.25833222927E+02 -0.12671012829E+02  0.13660180521E+03  0.13959929498E+03  0.00000000000E+00 0.  1.
         11    1    5    5    0    0 -0.11133118931E+03  0.30594623521E+03 -0.90924948717E+02  0.33803118029E+03  0.00000000000E+00 0. -1.
        -11    1    5    5    0    0 -0.47488762148E+02  0.66391970318E+02  0.14984236247E+02  0.82991587459E+02  0.00000000000E+00 0.  1.
          2    1    6    6  503    0 -0.37524662926E+03 -0.17468539139E+03  0.34204712548E+03  0.53695554265E+03  0.00000000000E+00 0. -1.
         -2    1    6    6    0  503 -0.14192777979E+03 -0.12720726975E+03  0.13501177747E+03  0.23356661621E+03  0.00000000000E+00 0.  1.
<mgrwt>
<rscale>  0 0.23036130E+04</rscale>
<asrwt>0</asrwt>
<pdfrwt beam="1">  1        1 0.45403874E+00 0.23036130E+04</pdfrwt>
<pdfrwt beam="2">  1       -2 0.69157524E-01 0.23036130E+04</pdfrwt>
<totfact> 0.98381182E-01</totfact>
</mgrwt>
</event>
<event>
12    4  0.4280696E-008  0.1126516E+04  0.7818608E-02  0.9179726E-01
          1   -1    0    0  501    0  0.00000000000E+00  0.00000000000E+00  0.20396597169E+04  0.20396597169E+04  0.00000000000E+00 0. -1.
         -2   -1    0    0    0  501 -0.00000000000E+00 -0.00000000000E+00 -0.15554541538E+03  0.15554541538E+03  0.00000000000E+00 0.  1.
        -24    2    1    2    0    0  0.78626226792E+02 -0.90331784362E+02  0.62977328407E+03  0.64571292468E+03  0.77387834690E+02 0.  0.
        254    2    1    2    0    0 -0.78626226792E+02  0.90331784362E+02  0.12543410175E+04  0.15494922076E+04  0.90178312169E+03 0.  0.
         23    2    4    4    0    0 -0.27499457092E+03 -0.69267588854E+02  0.12491012397E+04  0.12842784612E+04  0.93259026216E+02 0.  0.
         23    2    4    4    0    0  0.19636834413E+03  0.15959937322E+03  0.52397777750E+01  0.26521374643E+03  0.79236289127E+02 0.  0.
          1    1    3    3  502    0  0.73317954012E+02 -0.10437666929E+03  0.56650115559E+03  0.58068370974E+03  0.00000000000E+00 0. -1.
         -2    1    3    3    0  502  0.53082727794E+01  0.14044884929E+02  0.63272128482E+02  0.65029214936E+02  0.00000000000E+00 0.  1.
         11    1    5    5    0    0 -0.22931720754E+03 -0.25561704443E+02  0.10622888866E+04  0.10870590881E+04  0.00000000000E+00 0. -1.
        -11    1    5    5    0    0 -0.45677363382E+02 -0.43705884411E+02  0.18681235314E+03  0.19721937314E+03  0.00000000000E+00 0.  1.
          2    1    6    6  503    0  0.12826828224E+03  0.66605850304E+02 -0.23484484894E+02  0.14642613344E+03  0.00000000000E+00 0. -1.
         -2    1    6    6    0  503  0.68100061892E+02  0.92993522912E+02  0.28724262669E+02  0.11878761299E+03  0.00000000000E+00 0.  1.
<mgrwt>
<rscale>  0 0.11265163E+04</rscale>
<asrwt>0</asrwt>
<pdfrwt beam="1">  1        1 0.31379378E+00 0.11265163E+04</pdfrwt>
<pdfrwt beam="2">  1       -2 0.23930065E-01 0.11265163E+04</pdfrwt>
<totfact> 0.38090175E+01</totfact>
</mgrwt>
</event>
<event>
12    4  0.4280696E-008  0.2405881E+04  0.7818608E-02  0.8437305E-01
          1   -1    0    0  501    0  0.00000000000E+00  0.00000000000E+00  0.18796043704E+04  0.18796043704E+04  0.00000000000E+00 0. -1.
         -2   -1    0    0    0  501 -0.00000000000E+00 -0.00000000000E+00 -0.76987807581E+03  0.76987807581E+03  0.00000000000E+00 0.  1.
        -24    2    1    2    0    0  0.39941057233E+03 -0.70942745209E+03 -0.21783771175E+03  0.84706259602E+03  0.85121429969E+02 0.  0.
        254    2    1    2    0    0 -0.39941057233E+03  0.70942745209E+03  0.13275640064E+04  0.18024198502E+04  0.90745523878E+03 0.  0.
         23    2    4    4    0    0 -0.78594975640E+02  0.75474110593E+03  0.12359150263E+04  0.14532498795E+04  0.92940586572E+02 0.  0.
         23    2    4    4    0    0 -0.32081559669E+03 -0.45313653833E+02  0.91648980011E+02  0.34916997075E+03  0.92434618150E+02 0.  0.
          1    1    3    3  502    0  0.19847034965E+03 -0.34619314789E+03 -0.62877145341E+02  0.40397241335E+03  0.00000000000E+00 0. -1.
         -2    1    3    3    0  502  0.20094022268E+03 -0.36323430420E+03 -0.15496056641E+03  0.44309018267E+03  0.00000000000E+00 0.  1.
         11    1    5    5    0    0 -0.73645508384E+02  0.74301921069E+03  0.11837777631E+04  0.13995824380E+04  0.00000000000E+00 0. -1.
        -11    1    5    5    0    0 -0.49494672564E+01  0.11721895238E+02  0.52137263221E+02  0.53667441436E+02  0.00000000000E+00 0.  1.
          3    1    6    6  503    0 -0.32678424403E+03 -0.44980260507E+02  0.85878070904E+02  0.34086098199E+03  0.00000000000E+00 0. -1.
         -3    1    6    6    0  503  0.59686473430E+01 -0.33339332605E+00  0.57709091071E+01  0.83089887554E+01  0.00000000000E+00 0.  1.
<mgrwt>
<rscale>  0 0.24058813E+04</rscale>
<asrwt>0</asrwt>
<pdfrwt beam="1">  1        1 0.28916990E+00 0.24058813E+04</pdfrwt>
<pdfrwt beam="2">  1       -2 0.11844278E+00 0.24058813E+04</pdfrwt>
<totfact> 0.15524816E+00</totfact>
</mgrwt>
</event>
<event>
12    4  0.4280696E-008  0.1203816E+04  0.7818608E-02  0.9109523E-01
          1   -1    0    0  501    0  0.00000000000E+00  0.00000000000E+00  0.88886438304E+03  0.88886438304E+03  0.00000000000E+00 0. -1.
         -2   -1    0    0    0  501 -0.00000000000E+00 -0.00000000000E+00 -0.40759117932E+03  0.40759117932E+03  0.00000000000E+00 0.  1.
        -24    2    1    2    0    0 -0.22364891009E+03 -0.83274458698E+02  0.17726607342E+03  0.31658844784E+03  0.10886465938E+03 0.  0.
        254    2    1    2    0    0  0.22364891009E+03  0.83274458698E+02  0.30400713029E+03  0.97986711452E+03  0.90042531972E+03 0.  0.
         23    2    4    4    0    0  0.54798121943E+03 -0.68192869559E+02  0.15341979713E+03  0.58078565867E+03  0.94024799153E+02 0.  0.
         23    2    4    4    0    0 -0.32433230934E+03  0.15146732826E+03  0.15058733317E+03  0.39908145586E+03  0.91954690399E+02 0.  0.
          3    1    3    3  502    0 -0.20280305853E+03 -0.10692428890E+03  0.16623386187E+03  0.28318824293E+03  0.00000000000E+00 0. -1.
         -4    1    3    3    0  502 -0.20845851563E+02  0.23649830201E+02  0.11032211555E+02  0.33400204905E+02  0.00000000000E+00 0.  1.
         11    1    5    5    0    0  0.50629376410E+03 -0.39518444797E+02  0.12597853972E+03  0.52322621830E+03  0.00000000000E+00 0. -1.
        -11    1    5    5    0    0  0.41687455330E+02 -0.28674424762E+02  0.27441257407E+02  0.57559440367E+02  0.00000000000E+00 0.  1.
          3    1    6    6  503    0 -0.80295201034E+02  0.39001588083E+02  0.83262728599E+02  0.12207016489E+03  0.00000000000E+00 0. -1.
         -3    1    6    6    0  503 -0.24403710831E+03  0.11246574017E+03  0.67324604568E+02  0.27701129097E+03  0.00000000000E+00 0.  1.
<mgrwt>
<rscale>  0 0.12038161E+04</rscale>
<asrwt>0</asrwt>
<pdfrwt beam="1">  1        1 0.13674837E+00 0.12038161E+04</pdfrwt>
<pdfrwt beam="2">  1       -2 0.62706335E-01 0.12038161E+04</pdfrwt>
<totfact> 0.38006967E+01</totfact>
</mgrwt>
</event>
<event>
12    4  0.4280696E-008  0.1689041E+04  0.7818608E-02  0.8767639E-01
          1   -1    0    0  501    0  0.00000000000E+00  0.00000000000E+00  0.21127175317E+04  0.21127175317E+04  0.00000000000E+00 0. -1.
         -2   -1    0    0    0  501 -0.00000000000E+00 -0.00000000000E+00 -0.33758182463E+03  0.33758182463E+03  0.00000000000E+00 0.  1.
        -24    2    1    2    0    0 -0.83115235250E+02  0.43060042609E+03  0.35904613297E+02  0.44569759072E+03  0.70938930358E+02 0.  0.
        254    2    1    2    0    0  0.83115235250E+02 -0.43060042609E+03  0.17392310938E+04  0.20046017656E+04  0.89508579021E+03 0.  0.
         23    2    4    4    0    0 -0.23074163749E+03  0.89975487431E+02  0.10400728049E+04  0.10737180618E+04  0.98902705681E+02 0.  0.
         23    2    4    4    0    0  0.31385687274E+03 -0.52057591352E+03  0.69915828893E+03  0.93088370383E+03  0.90646228647E+02 0.  0.
          1    1    3    3  502    0 -0.10856553552E+02  0.28745766274E+02  0.20825228283E+02  0.37119724767E+02  0.00000000000E+00 0. -1.
         -2    1    3    3    0  502 -0.72258681697E+02  0.40185465982E+03  0.15079385014E+02  0.40857786596E+03  0.00000000000E+00 0.  1.
         11    1    5    5    0    0 -0.11335566388E+03  0.50340810815E+02  0.32251433172E+03  0.34554189027E+03  0.00000000000E+00 0.  1.
        -11    1    5    5    0    0 -0.11738597361E+03  0.39634676616E+02  0.71755847317E+03  0.72817617155E+03  0.00000000000E+00 0. -1.
          2    1    6    6  503    0  0.23463190575E+03 -0.38859011471E+03  0.45843699090E+03  0.64515027945E+03  0.00000000000E+00 0. -1.
         -2    1    6    6    0  503  0.79224966986E+02 -0.13198579881E+03  0.24072129803E+03  0.28573342438E+03  0.00000000000E+00 0.  1.
<mgrwt>
<rscale>  0 0.16890412E+04</rscale>
<asrwt>0</asrwt>
<pdfrwt beam="1">  1        1 0.32503346E+00 0.16890412E+04</pdfrwt>
<pdfrwt beam="2">  1       -2 0.51935666E-01 0.16890412E+04</pdfrwt>
<totfact> 0.73175198E+00</totfact>
</mgrwt>
</event>
<event>
12    4  0.4280696E-008  0.1947569E+04  0.7818608E-02  0.8631534E-01
         -2   -1    0    0    0  501 -0.00000000000E+00  0.00000000000E+00  0.55802419434E+03  0.55802419434E+03  0.00000000000E+00 0.  1.
          1   -1    0    0  501    0  0.00000000000E+00 -0.00000000000E+00 -0.16993106894E+04  0.16993106894E+04  0.00000000000E+00 0. -1.
        -24    2    1    2    0    0 -0.26349870443E+03 -0.72880566458E+01  0.37949205943E+03  0.46890312395E+03  0.79820006729E+02 0.  0.
        254    2    1    2    0    0  0.26349870443E+03  0.72880566458E+01 -0.15207785545E+04  0.17884317598E+04  0.90345783776E+03 0.  0.
         23    2    4    4    0    0  0.87641268618E+02 -0.43583684378E+03 -0.68866888803E+03  0.82489143871E+03  0.92446211118E+02 0.  0.
         23    2    4    4    0    0  0.17585743581E+03  0.44312490043E+03 -0.83210966644E+03  0.96354032106E+03  0.93369899950E+02 0.  0.
          1    1    3    3  502    0 -0.71768648925E+02  0.16116690470E+02  0.16264996987E+03  0.17850910167E+03  0.00000000000E+00 0. -1.
         -2    1    3    3    0  502 -0.19173005550E+03 -0.23404747116E+02  0.21684208956E+03  0.29039402228E+03  0.00000000000E+00 0.  1.
         11    1    5    5    0    0 -0.17695745976E+02 -0.34204313557E+02 -0.67855769972E+02  0.78022304567E+02  0.00000000000E+00 0.  1.
        -11    1    5    5    0    0  0.10533701459E+03 -0.40163253022E+03 -0.62081311806E+03  0.74686913414E+03  0.00000000000E+00 0. -1.
          3    1    6    6  503    0  0.16590481453E+03  0.40617843189E+03 -0.70122313341E+03  0.82717544019E+03  0.00000000000E+00 0. -1.
         -3    1    6    6    0  503  0.99526212805E+01  0.36946468541E+02 -0.13088653302E+03  0.13636488087E+03  0.00000000000E+00 0.  1.
<mgrwt>
<rscale>  0 0.19475692E+04</rscale>
<asrwt>0</asrwt>
<pdfrwt beam="1">  1        1 0.26143241E+00 0.19475692E+04</pdfrwt>
<pdfrwt beam="2">  1       -2 0.85849878E-01 0.19475692E+04</pdfrwt>
<totfact> 0.45971909E+00</totfact>
</mgrwt>
</event>
<event>
12    4  0.4280696E-008  0.2239126E+04  0.7818608E-02  0.8502317E-01
         -2   -1    0    0    0  501 -0.00000000000E+00  0.00000000000E+00  0.56006874919E+03  0.56006874919E+03  0.00000000000E+00 0.  1.
          1   -1    0    0  501    0  0.00000000000E+00 -0.00000000000E+00 -0.22379766495E+04  0.22379766495E+04  0.00000000000E+00 0. -1.
        -24    2    1    2    0    0 -0.87078374185E+03 -0.96791164710E+02 -0.27104271093E+03  0.92058530560E+03  0.79876774576E+02 0.  0.
        254    2    1    2    0    0  0.87078374185E+03  0.96791164710E+02 -0.14068651894E+04  0.18774600931E+04  0.88201694169E+03 0.  0.
         23    2    4    4    0    0  0.14011596084E+03 -0.25163971544E+03 -0.66749088689E+02  0.30898947119E+03  0.89799908678E+02 0.  0.
         23    2    4    4    0    0  0.73066778101E+03  0.34843088015E+03 -0.13401161007E+04  0.15684706219E+04  0.94389850994E+02 0.  0.
          3    1    3    3  502    0 -0.74212720351E+03 -0.58638769537E+02 -0.24631619023E+03  0.78413197680E+03  0.00000000000E+00 0. -1.
         -4    1    3    3    0  502 -0.12865653834E+03 -0.38152395172E+02 -0.24726520706E+02  0.13645332880E+03  0.00000000000E+00 0.  1.
         11    1    5    5    0    0  0.14037295168E+03 -0.25375119042E+03 -0.75766545408E+02  0.29972454289E+03  0.00000000000E+00 0.  1.
        -11    1    5    5    0    0 -0.25699084898E+00  0.21114749784E+01  0.90174567188E+01  0.92649283082E+01  0.00000000000E+00 0. -1.
          1    1    6    6  503    0  0.26425441722E+03  0.17650048533E+03 -0.51025801735E+03  0.60112067225E+03  0.00000000000E+00 0. -1.
         -1    1    6    6    0  503  0.46641336379E+03  0.17193039483E+03 -0.82985808331E+03  0.96734994962E+03  0.00000000000E+00 0.  1.
<mgrwt>
<rscale>  0 0.22391255E+04</rscale>
<asrwt>0</asrwt>
<pdfrwt beam="1">  1        1 0.34430411E+00 0.22391255E+04</pdfrwt>
<pdfrwt beam="2">  1       -2 0.86164421E-01 0.22391255E+04</pdfrwt>
<totfact> 0.19136516E+00</totfact>
</mgrwt>
</event>
<event>
12    4  0.4280696E-008  0.1230335E+04  0.7818608E-02  0.9086711E-01
         -2   -1    0    0    0  501 -0.00000000000E+00  0.00000000000E+00  0.15516101454E+04  0.15516101454E+04  0.00000000000E+00 0.  1.
          1   -1    0    0  501    0  0.00000000000E+00 -0.00000000000E+00 -0.24389583429E+03  0.24389583429E+03  0.00000000000E+00 0. -1.
        -24    2    1    2    0    0 -0.10736116418E+03 -0.20673277192E+03  0.84787266448E+02  0.26075162765E+03  0.80855873082E+02 0.  0.
        254    2    1    2    0    0  0.10736116418E+03  0.20673277192E+03  0.12229270446E+04  0.15347543520E+04  0.89758314712E+03 0.  0.
         23    2    4    4    0    0 -0.15797010242E+03  0.24110464428E+03  0.12122508907E+04  0.12495695511E+04  0.93732802920E+02 0.  0.
         23    2    4    4    0    0  0.26533126660E+03 -0.34371872365E+02  0.10676153982E+02  0.28518480094E+03  0.98154387459E+02 0.  0.
          1    1    3    3  502    0 -0.96925183334E+02 -0.12573757332E+03  0.27813899005E+02  0.16117705012E+03  0.00000000000E+00 0. -1.
         -2    1    3    3    0  502 -0.10435980850E+02 -0.80995198599E+02  0.56973367443E+02  0.99574577530E+02  0.00000000000E+00 0.  1.
         11    1    5    5    0    0 -0.85636427144E+01  0.86675039236E+02  0.30262662008E+03  0.31491073272E+03  0.00000000000E+00 0.  1.
        -11    1    5    5    0    0 -0.14940645970E+03  0.15442960505E+03  0.90962427058E+03  0.93465881836E+03  0.00000000000E+00 0. -1.
          1    1    6    6  503    0  0.27215087042E+03 -0.34522746765E+02  0.18316432911E+02  0.27494255405E+03  0.00000000000E+00 0. -1.
         -1    1    6    6    0  503 -0.68196038150E+01  0.15087440027E+00 -0.76402789282E+01  0.10242246891E+02  0.00000000000E+00 0.  1.
<mgrwt>
<rscale>  0 0.12303353E+04</rscale>
<asrwt>0</asrwt>
<pdfrwt beam="1">  1        1 0.37522437E-01 0.12303353E+04</pdfrwt>
<pdfrwt beam="2">  1       -2 0.23870925E+00 0.12303353E+04</pdfrwt>
<totfact> 0.74756875E+00</totfact>
</mgrwt>
</event>
<event>
12    4  0.4280696E-008  0.1524582E+04  0.7818608E-02  0.8868269E-01
         -2   -1    0    0    0  501 -0.00000000000E+00  0.00000000000E+00  0.29862842941E+03  0.29862842941E+03  0.00000000000E+00 0.  1.
          1   -1    0    0  501    0  0.00000000000E+00 -0.00000000000E+00 -0.19458541272E+04  0.19458541272E+04  0.00000000000E+00 0. -1.
        -24    2    1    2    0    0  0.15005643025E+03 -0.11244227905E+03  0.13212410920E+03  0.24263539162E+03  0.79088271311E+02 0.  0.
        254    2    1    2    0    0 -0.15005643025E+03  0.11244227905E+03 -0.17793498070E+04  0.20018471650E+04  0.89785641279E+03 0.  0.
         23    2    4    4    0    0 -0.92063616150E+02 -0.38303792166E+03 -0.88074976804E+03  0.97008755581E+03  0.10077674923E+03 0.  0.
         23    2    4    4    0    0 -0.57992814100E+02  0.49548020071E+03 -0.89860003893E+03  0.10317596092E+04  0.90454769650E+02 0.  0.
          3    1    3    3  502    0  0.11600248676E+03 -0.10472299259E+03  0.69720657875E+02  0.17112700618E+03  0.00000000000E+00 0. -1.
         -4    1    3    3    0  502  0.34053943494E+02 -0.77192864575E+01  0.62403451322E+02  0.71508385437E+02  0.00000000000E+00 0.  1.
         11    1    5    5    0    0 -0.25121390770E+02 -0.89828767605E+02 -0.32569559671E+03  0.33878889221E+03  0.00000000000E+00 0. -1.
        -11    1    5    5    0    0 -0.66942225380E+02 -0.29320915406E+03 -0.55505417132E+03  0.63129866360E+03  0.00000000000E+00 0.  1.
          4    1    6    6  503    0  0.45299013335E+01  0.13254225040E+03 -0.17236197742E+03  0.21747785958E+03  0.00000000000E+00 0. -1.
         -4    1    6    6    0  503 -0.62522715433E+02  0.36293795032E+03 -0.72623806151E+03  0.81428174958E+03  0.00000000000E+00 0.  1.
<mgrwt>
<rscale>  0 0.15245817E+04</rscale>
<asrwt>0</asrwt>
<pdfrwt beam="1">  1        1 0.29936216E+00 0.15245817E+04</pdfrwt>
<pdfrwt beam="2">  1       -2 0.45942837E-01 0.15245817E+04</pdfrwt>
<totfact> 0.12353199E+01</totfact>
</mgrwt>
</event>
<event>
12    4  0.4280696E-008  0.1357029E+04  0.7818608E-02  0.8985524E-01
         -4   -1    0    0    0  501 -0.00000000000E+00  0.00000000000E+00  0.47172997749E+03  0.47172997749E+03  0.00000000000E+00 0.  1.
          1   -1    0    0  501    0  0.00000000000E+00 -0.00000000000E+00 -0.97594377694E+03  0.97594377694E+03  0.00000000000E+00 0. -1.
        -24    2    1    2    0    0 -0.21792256733E+03  0.15894556130E+03  0.14278828723E+03  0.31661353407E+03  0.84271573954E+02 0.  0.
        254    2    1    2    0    0  0.21792256733E+03 -0.15894556130E+03 -0.64700208667E+03  0.11310602204E+04  0.88765510482E+03 0.  0.
         23    2    4    4    0    0 -0.23893913343E+03  0.58470305657E+02  0.47926831785E+02  0.26661346499E+03  0.90967424830E+02 0.  0.
         23    2    4    4    0    0  0.45686170076E+03 -0.21741586696E+03 -0.69492891845E+03  0.86444675537E+03  0.91376793247E+02 0.  0.
          3    1    3    3  502    0 -0.10825535722E+03  0.62578371779E+02  0.21635195964E+02  0.12689900191E+03  0.00000000000E+00 0. -1.
         -4    1    3    3    0  502 -0.10966721011E+03  0.96367189525E+02  0.12115309126E+03  0.18971453216E+03  0.00000000000E+00 0.  1.
         11    1    5    5    0    0 -0.21327305157E+02 -0.16708292457E+02  0.22050422030E+02  0.34931963784E+02  0.00000000000E+00 0.  1.
        -11    1    5    5    0    0 -0.21761182827E+03  0.75178598114E+02  0.25876409755E+02  0.23168150120E+03  0.00000000000E+00 0. -1.
          1    1    6    6  503    0  0.23184026458E+03 -0.61630230652E+02 -0.34485333653E+03  0.42008572616E+03  0.00000000000E+00 0. -1.
         -1    1    6    6    0  503  0.22502143618E+03 -0.15578563631E+03 -0.35007558192E+03  0.44436102921E+03  0.00000000000E+00 0.  1.
<mgrwt>
<rscale>  0 0.13570290E+04</rscale>
<asrwt>0</asrwt>
<pdfrwt beam="1">  1        1 0.15014519E+00 0.13570290E+04</pdfrwt>
<pdfrwt beam="2">  1       -4 0.72573844E-01 0.13570290E+04</pdfrwt>
<totfact> 0.13004568E+01</totfact>
</mgrwt>
</event>
<event>
12    4  0.4280696E-008  0.2056049E+04  0.7818608E-02  0.8580855E-01
         -2   -1    0    0    0  501 -0.00000000000E+00  0.00000000000E+00  0.43735146836E+03  0.43735146836E+03  0.00000000000E+00 0.  1.
          1   -1    0    0  501    0  0.00000000000E+00 -0.00000000000E+00 -0.24164414156E+04  0.24164414156E+04  0.00000000000E+00 0. -1.
        -24    2    1    2    0    0  0.46355533324E+02 -0.46308711796E+03  0.15055722591E+03  0.49547749168E+03  0.78942714644E+02 0.  0.
        254    2    1    2    0    0 -0.46355533324E+02  0.46308711796E+03 -0.21296471731E+04  0.23583153922E+04  0.89980880915E+03 0.  0.
         23    2    4    4    0    0 -0.34531100683E+03  0.17710436513E+03 -0.35723343415E+03  0.53605254248E+03  0.95556026659E+02 0.  0.
         23    2    4    4    0    0  0.29895547351E+03  0.28598275283E+03 -0.17724137390E+04  0.18222628498E+04  0.89615408843E+02 0.  0.
          3    1    3    3  502    0  0.28477141908E+02 -0.47668085972E+02  0.26744499505E+02  0.61631666254E+02  0.00000000000E+00 0. -1.
         -4    1    3    3    0  502  0.17878391416E+02 -0.41541903199E+03  0.12381272640E+03  0.43384582542E+03  0.00000000000E+00 0.  1.
         11    1    5    5    0    0 -0.29047717586E+03  0.12827995048E+03 -0.24128052964E+03  0.39880951515E+03  0.00000000000E+00 0.  1.
        -11    1    5    5    0    0 -0.54833830973E+02  0.48824414657E+02 -0.11595290451E+03  0.13724302733E+03  0.00000000000E+00 0. -1.
          2    1    6    6  503    0  0.41911870709E+02  0.20240653084E+02 -0.11395195692E+03  0.12309076907E+03  0.00000000000E+00 0. -1.
         -2    1    6    6    0  503  0.25704360280E+03  0.26574209975E+03 -0.16584617820E+04  0.16991720807E+04  0.00000000000E+00 0.  1.
<mgrwt>
<rscale>  0 0.20560488E+04</rscale>
<asrwt>0</asrwt>
<pdfrwt beam="1">  1        1 0.37176021E+00 0.20560488E+04</pdfrwt>
<pdfrwt beam="2">  1       -2 0.67284842E-01 0.20560488E+04</pdfrwt>
<totfact> 0.25439411E+00</totfact>
</mgrwt>
</event>
<event>
12    4  0.4280696E-008  0.1342458E+04  0.7818608E-02  0.8996557E-01
          1   -1    0    0  501    0  0.00000000000E+00  0.00000000000E+00  0.69042276497E+03  0.69042276497E+03  0.00000000000E+00 0. -1.
         -2   -1    0    0    0  501 -0.00000000000E+00 -0.00000000000E+00 -0.65256916481E+03  0.65256916481E+03  0.00000000000E+00 0.  1.
        -24    2    1    2    0    0 -0.11745423516E+02  0.33724126530E+03  0.15112979371E+03  0.37833477106E+03  0.80170808008E+02 0.  0.
        254    2    1    2    0    0  0.11745423516E+02 -0.33724126530E+03 -0.11327619355E+03  0.96465715872E+03  0.89658368926E+03 0.  0.
         23    2    4    4    0    0  0.27243979046E+03  0.78487488143E+02 -0.30990755616E+03  0.42822893082E+03  0.83388240209E+02 0.  0.
         23    2    4    4    0    0 -0.26069436695E+03 -0.41572875344E+03  0.19663136261E+03  0.53642822790E+03  0.91101051196E+02 0.  0.
          1    1    3    3  502    0  0.21432564967E+02  0.27705676455E+03  0.12660204844E+03  0.30536516549E+03  0.00000000000E+00 0. -1.
         -2    1    3    3    0  502 -0.33177988484E+02  0.60184500748E+02  0.24527745270E+02  0.72969605577E+02  0.00000000000E+00 0.  1.
         11    1    5    5    0    0  0.24050941121E+03  0.85049273166E+02 -0.23631400824E+03  0.34773907781E+03  0.00000000000E+00 0. -1.
        -11    1    5    5    0    0  0.31930379250E+02 -0.65617850235E+01 -0.73593547922E+02  0.80489853010E+02  0.00000000000E+00 0.  1.
          2    1    6    6  503    0 -0.97686013974E+02 -0.18226230374E+03  0.37262337938E+02  0.21012040957E+03  0.00000000000E+00 0.  1.
         -2    1    6    6    0  503 -0.16300835297E+03 -0.23346644970E+03  0.15936902467E+03  0.32630781832E+03  0.00000000000E+00 0. -1.
<mgrwt>
<rscale>  0 0.13424584E+04</rscale>
<asrwt>0</asrwt>
<pdfrwt beam="1">  1        1 0.10621889E+00 0.13424584E+04</pdfrwt>
<pdfrwt beam="2">  1       -2 0.10039526E+00 0.13424584E+04</pdfrwt>
<totfact> 0.19523798E+01</totfact>
</mgrwt>
</event>
<event>
12    4  0.4280696E-008  0.2187455E+04  0.7818608E-02  0.8523668E-01
         -2   -1    0    0    0  501 -0.00000000000E+00  0.00000000000E+00  0.43485743174E+03  0.43485743174E+03  0.00000000000E+00 0.  1.
          1   -1    0    0  501    0  0.00000000000E+00 -0.00000000000E+00 -0.27508784328E+04  0.27508784328E+04  0.00000000000E+00 0. -1.
        -24    2    1    2    0    0  0.49034799291E+02 -0.40793496198E+03 -0.21217817804E+04  0.21626863049E+04  0.80242040972E+02 0.  0.
        254    2    1    2    0    0 -0.49034799291E+02  0.40793496198E+03 -0.19423922062E+03  0.10230495596E+04  0.91656215378E+03 0.  0.
         23    2    4    4    0    0 -0.10722447888E+00  0.57631090956E+03 -0.42352214099E+03  0.72056532587E+03  0.87801531672E+02 0.  0.
         23    2    4    4    0    0 -0.48927574812E+02 -0.16837594758E+03  0.22928292037E+03  0.30248423369E+03  0.90452676877E+02 0.  0.
          1    1    3    3  502    0 -0.71968592141E+01 -0.10182692946E+03 -0.38871155554E+03  0.40189201504E+03  0.00000000000E+00 0. -1.
         -2    1    3    3    0  502  0.56231658505E+02 -0.30610803252E+03 -0.17330702249E+04  0.17607942899E+04  0.00000000000E+00 0.  1.
         11    1    5    5    0    0  0.20038082802E+02  0.37321106392E+02 -0.19357845017E+02  0.46573768459E+02  0.00000000000E+00 0.  1.
        -11    1    5    5    0    0 -0.20145307281E+02  0.53898980317E+03 -0.40416429597E+03  0.67399155741E+03  0.00000000000E+00 0. -1.
          3    1    6    6  503    0 -0.68195064782E+02 -0.14791672329E+03  0.21816643297E+03  0.27226185257E+03  0.00000000000E+00 0. -1.
         -3    1    6    6    0  503  0.19267489970E+02 -0.20459224288E+02  0.11116487403E+02  0.30222381117E+02  0.00000000000E+00 0.  1.
<mgrwt>
<rscale>  0 0.21874551E+04</rscale>
<asrwt>0</asrwt>
<pdfrwt beam="1">  1        1 0.42321207E+00 0.21874551E+04</pdfrwt>
<pdfrwt beam="2">  1       -2 0.66901142E-01 0.21874551E+04</pdfrwt>
<totfact> 0.14868402E+00</totfact>
</mgrwt>
</event>
<event>
12    4  0.4280696E-008  0.1356886E+04  0.7818608E-02  0.8985632E-01
          1   -1    0    0  501    0  0.00000000000E+00  0.00000000000E+00  0.18465675066E+04  0.18465675066E+04  0.00000000000E+00 0. -1.
         -2   -1    0    0    0  501 -0.00000000000E+00 -0.00000000000E+00 -0.24926495447E+03  0.24926495447E+03  0.00000000000E+00 0.  1.
        -24    2    1    2    0    0 -0.26153116792E+02  0.42652873334E+02  0.10409558978E+04  0.10451928414E+04  0.79596743241E+02 0.  0.
        254    2    1    2    0    0  0.26153116792E+02 -0.42652873334E+02  0.55634665433E+03  0.10506396196E+04  0.88984198451E+03 0.  0.
         23    2    4    4    0    0 -0.35308912685E+03  0.14249063205E+03  0.46812074836E+03  0.61018919062E+03  0.90654848642E+02 0.  0.
         23    2    4    4    0    0  0.37924224364E+03 -0.18514350538E+03  0.88225905972E+02  0.44045042900E+03  0.90055388369E+02 0.  0.
          1    1    3    3  502    0 -0.74622518353E+01  0.39489321735E+01  0.82279679009E+03  0.82284010418E+03  0.00000000000E+00 0. -1.
         -2    1    3    3    0  502 -0.18690864956E+02  0.38703941161E+02  0.21815910769E+03  0.22235273725E+03  0.00000000000E+00 0.  1.
         11    1    5    5    0    0 -0.23656799028E+02  0.34820467989E+02  0.30672007137E+02  0.52085325697E+02  0.00000000000E+00 0. -1.
        -11    1    5    5    0    0 -0.32943232782E+03  0.10767016406E+03  0.43744874122E+03  0.55810386492E+03  0.00000000000E+00 0.  1.
          1    1    6    6  503    0  0.51033366309E+02 -0.55810815777E+02  0.36268415979E+02  0.83872818197E+02  0.00000000000E+00 0. -1.
         -1    1    6    6    0  503  0.32820887733E+03 -0.12933268960E+03  0.51957489993E+02  0.35657761080E+03  0.00000000000E+00 0.  1.
<mgrwt>
<rscale>  0 0.13568855E+04</rscale>
<asrwt>0</asrwt>
<pdfrwt beam="1">  1        1 0.28408730E+00 0.13568855E+04</pdfrwt>
<pdfrwt beam="2">  1       -2 0.38348456E-01 0.13568855E+04</pdfrwt>
<totfact> 0.20899489E+01</totfact>
</mgrwt>
</event>
<event>
12    4  0.4280696E-008  0.1415026E+04  0.7818608E-02  0.8943013E-01
         -2   -1    0    0    0  501 -0.00000000000E+00  0.00000000000E+00  0.16187423814E+03  0.16187423814E+03  0.00000000000E+00 0.  1.
          1   -1    0    0  501    0  0.00000000000E+00 -0.00000000000E+00 -0.30923692618E+04  0.30923692618E+04  0.00000000000E+00 0. -1.
        -24    2    1    2    0    0 -0.32803441402E+03 -0.22167320252E+03 -0.12057117337E+04  0.12715028431E+04  0.78950045829E+02 0.  0.
        254    2    1    2    0    0  0.32803441402E+03  0.22167320252E+03 -0.17247832899E+04  0.19827406568E+04  0.89422454086E+03 0.  0.
         23    2    4    4    0    0  0.53962700373E+03 -0.12207192469E+03 -0.10653111271E+04  0.12039159197E+04  0.91798073055E+02 0.  0.
         23    2    4    4    0    0 -0.21159258972E+03  0.34374512722E+03 -0.65947216283E+03  0.77882473712E+03  0.93446782168E+02 0.  0.
          3    1    3    3  502    0 -0.99794831263E+02 -0.72166802407E+02 -0.26878487159E+03  0.29565581833E+03  0.00000000000E+00 0. -1.
         -4    1    3    3    0  502 -0.22823958275E+03 -0.14950640012E+03 -0.93692686216E+03  0.97584702482E+03  0.00000000000E+00 0.  1.
         11    1    5    5    0    0  0.45612483182E+03 -0.99863245130E+02 -0.81719979889E+03  0.94118969461E+03  0.00000000000E+00 0.  1.
        -11    1    5    5    0    0  0.83502171913E+02 -0.22208679563E+02 -0.24811132822E+03  0.26272622509E+03  0.00000000000E+00 0. -1.
          1    1    6    6  503    0 -0.16488889296E+03  0.29055687304E+03 -0.59837354529E+03  0.68531930018E+03  0.00000000000E+00 0.  1.
         -1    1    6    6    0  503 -0.46703696755E+02  0.53188254176E+02 -0.61098617539E+02  0.93505436944E+02  0.00000000000E+00 0. -1.
<mgrwt>
<rscale>  0 0.14150264E+04</rscale>
<asrwt>0</asrwt>
<pdfrwt beam="1">  1        1 0.47574908E+00 0.14150264E+04</pdfrwt>
<pdfrwt beam="2">  1       -2 0.24903731E-01 0.14150264E+04</pdfrwt>
<totfact> 0.63716038E+00</totfact>
</mgrwt>
</event>
<event>
12    4  0.4280696E-008  0.1114677E+04  0.7818608E-02  0.9191004E-01
         -2   -1    0    0    0  501 -0.00000000000E+00  0.00000000000E+00  0.20186294756E+03  0.20186294756E+03  0.00000000000E+00 0.  1.
          1   -1    0    0  501    0  0.00000000000E+00 -0.00000000000E+00 -0.15387967538E+04  0.15387967538E+04  0.00000000000E+00 0. -1.
        -24    2    1    2    0    0 -0.15942433350E+02 -0.40613799092E+02  0.42099698365E+02  0.90534431978E+02  0.67234343258E+02 0.  0.
        254    2    1    2    0    0  0.15942433350E+02  0.40613799092E+02 -0.13790335047E+04  0.16501252694E+04  0.90513886005E+03 0.  0.
         23    2    4    4    0    0 -0.38781873338E+03 -0.11552912371E+03 -0.94301800859E+03  0.10299671143E+04  0.88311627965E+02 0.  0.
         23    2    4    4    0    0  0.40376116673E+03  0.15614292280E+03 -0.43601549607E+03  0.62015815513E+03  0.84160159523E+02 0.  0.
          3    1    3    3  502    0  0.20724680221E+02 -0.37679703390E+02  0.18385389388E+02  0.46768525322E+02  0.00000000000E+00 0. -1.
         -4    1    3    3    0  502 -0.36667113570E+02 -0.29340957018E+01  0.23714308977E+02  0.43765906656E+02  0.00000000000E+00 0.  1.
         11    1    5    5    0    0 -0.11754137301E+03 -0.31388379700E+02 -0.19120276971E+03  0.22662679430E+03  0.00000000000E+00 0. -1.
        -11    1    5    5    0    0 -0.27027736037E+03 -0.84140744011E+02 -0.75181523888E+03  0.80334032000E+03  0.00000000000E+00 0.  1.
          2    1    6    6  503    0  0.27082707572E+02  0.27118043894E+02 -0.67539548319E+02  0.77655984581E+02  0.00000000000E+00 0. -1.
         -2    1    6    6    0  503  0.37667845916E+03  0.12902487891E+03 -0.36847594775E+03  0.54250217055E+03  0.00000000000E+00 0.  1.
<mgrwt>
<rscale>  0 0.11146767E+04</rscale>
<asrwt>0</asrwt>
<pdfrwt beam="1">  1        1 0.23673796E+00 0.11146767E+04</pdfrwt>
<pdfrwt beam="2">  1       -2 0.31055838E-01 0.11146767E+04</pdfrwt>
<totfact> 0.51630690E+01</totfact>
</mgrwt>
</event>
<event>
12    4  0.4280696E-008  0.2011145E+04  0.7818608E-02  0.8601428E-01
          1   -1    0    0  501    0  0.00000000000E+00  0.00000000000E+00  0.64405967757E+03  0.64405967757E+03  0.00000000000E+00 0. -1.
         -2   -1    0    0    0  501 -0.00000000000E+00 -0.00000000000E+00 -0.15700041087E+04  0.15700041087E+04  0.00000000000E+00 0.  1.
        -24    2    1    2    0    0 -0.29032453584E+02  0.80209267212E+03 -0.42397496333E+03  0.91117696834E+03  0.79329440113E+02 0.  0.
        254    2    1    2    0    0  0.29032453584E+02 -0.80209267212E+03 -0.50196946778E+03  0.13028868179E+04  0.89517885123E+03 0.  0.
         23    2    4    4    0    0  0.43202078194E+03 -0.27171245562E+03 -0.30853650071E+03  0.60320537324E+03  0.90511521244E+02 0.  0.
         23    2    4    4    0    0 -0.40298832835E+03 -0.53038021650E+03 -0.19343296707E+03  0.69968144468E+03  0.91842497930E+02 0.  0.
          1    1    3    3  502    0 -0.33690446430E+02  0.38612685805E+03 -0.16568991184E+03  0.42152359789E+03  0.00000000000E+00 0. -1.
         -2    1    3    3    0  502  0.46579928455E+01  0.41596581407E+03 -0.25828505149E+03  0.48965337045E+03  0.00000000000E+00 0.  1.
         11    1    5    5    0    0  0.35772826088E+03 -0.18548201989E+03 -0.22071941978E+03  0.45944548164E+03  0.00000000000E+00 0.  1.
        -11    1    5    5    0    0  0.74292521063E+02 -0.86230435725E+02 -0.87817080926E+02  0.14375989160E+03  0.00000000000E+00 0. -1.
          2    1    6    6  503    0 -0.30626186921E+03 -0.33574903501E+03 -0.14486300172E+03  0.47697907324E+03  0.00000000000E+00 0. -1.
         -2    1    6    6    0  503 -0.96726459139E+02 -0.19463118150E+03 -0.48569965351E+02  0.22270237143E+03  0.00000000000E+00 0.  1.
<mgrwt>
<rscale>  0 0.20111453E+04</rscale>
<asrwt>0</asrwt>
<pdfrwt beam="1">  1        1 0.99086107E-01 0.20111453E+04</pdfrwt>
<pdfrwt beam="2">  1       -2 0.24153909E+00 0.20111453E+04</pdfrwt>
<totfact> 0.18154614E+00</totfact>
</mgrwt>
</event>
<event>
12    4  0.4280696E-008  0.1124918E+04  0.7818608E-02  0.9181240E-01
         -2   -1    0    0    0  501 -0.00000000000E+00  0.00000000000E+00  0.94496848731E+03  0.94496848731E+03  0.00000000000E+00 0.  1.
          1   -1    0    0  501    0  0.00000000000E+00 -0.00000000000E+00 -0.33478382756E+03  0.33478382756E+03  0.00000000000E+00 0. -1.
        -24    2    1    2    0    0  0.14359666430E+03 -0.12723299734E+03  0.29910348679E+03  0.36397030605E+03  0.78760715248E+02 0.  0.
        254    2    1    2    0    0 -0.14359666430E+03  0.12723299734E+03  0.31108117296E+03  0.91578200881E+03  0.83968860531E+03 0.  0.
         23    2    4    4    0    0 -0.11615558844E+02  0.46074504411E+03  0.73209763218E+02  0.47573938909E+03  0.92452041764E+02 0.  0.
         23    2    4    4    0    0 -0.13198110546E+03 -0.33351204677E+03  0.23787140974E+03  0.44004261972E+03  0.91680979798E+02 0.  0.
          1    1    3    3  502    0  0.39027501967E+02 -0.15170954694E+02  0.12593152859E+03  0.13271041282E+03  0.00000000000E+00 0. -1.
         -2    1    3    3    0  502  0.10456916234E+03 -0.11206204264E+03  0.17317195820E+03  0.23125989324E+03  0.00000000000E+00 0.  1.
         11    1    5    5    0    0  0.41816102469E+01  0.60556786862E+01 -0.10815369015E+02  0.13081640399E+02  0.00000000000E+00 0.  1.
        -11    1    5    5    0    0 -0.15797169090E+02  0.45468936542E+03  0.84025132233E+02  0.46265774869E+03  0.00000000000E+00 0. -1.
          4    1    6    6  503    0 -0.12274577131E+01 -0.23111676565E+02 -0.63539886856E+01  0.24000612873E+02  0.00000000000E+00 0.  1.
         -4    1    6    6    0  503 -0.13075364775E+03 -0.31040037021E+03  0.24422539843E+03  0.41604200685E+03  0.00000000000E+00 0. -1.
<mgrwt>
<rscale>  0 0.11249181E+04</rscale>
<asrwt>0</asrwt>
<pdfrwt beam="1">  1        1 0.51505205E-01 0.11249181E+04</pdfrwt>
<pdfrwt beam="2">  1       -2 0.14537977E+00 0.11249181E+04</pdfrwt>
<totfact> 0.21440835E+01</totfact>
</mgrwt>
</event>
<event>
12    4  0.4280696E-008  0.1789596E+04  0.7818608E-02  0.8711852E-01
          1   -1    0    0  501    0  0.00000000000E+00  0.00000000000E+00  0.44915370498E+03  0.44915370498E+03  0.00000000000E+00 0. -1.
         -2   -1    0    0    0  501 -0.00000000000E+00 -0.00000000000E+00 -0.17826044041E+04  0.17826044041E+04  0.00000000000E+00 0.  1.
        -24    2    1    2    0    0 -0.42589103083E+03  0.86074015812E+02 -0.11129920686E+04  0.11970438067E+04  0.73284541675E+02 0.  0.
        254    2    1    2    0    0  0.42589103083E+03 -0.86074015812E+02 -0.22045863052E+03  0.10347143024E+04  0.91281968288E+03 0.  0.
         23    2    4    4    0    0  0.40921181141E+02  0.35321477506E+03 -0.24485107930E+03  0.44121603549E+03  0.91018231973E+02 0.  0.
         23    2    4    4    0    0  0.38496984968E+03 -0.43928879088E+03  0.24392448781E+02  0.59349826689E+03  0.10231702834E+03 0.  0.
          3    1    3    3  502    0  0.26958365524E+01  0.15875204038E+01 -0.15447723385E+02  0.15761342377E+02  0.00000000000E+00 0. -1.
         -4    1    3    3    0  502 -0.42858686738E+03  0.84486495408E+02 -0.10975443452E+04  0.11812824643E+04  0.00000000000E+00 0.  1.
         11    1    5    5    0    0  0.57467976154E+02  0.17762567675E+03 -0.93429496589E+02  0.20876426935E+03  0.00000000000E+00 0. -1.
        -11    1    5    5    0    0 -0.16546795014E+02  0.17558909831E+03 -0.15142158271E+03  0.23245176614E+03  0.00000000000E+00 0.  1.
          1    1    6    6  503    0  0.79476064098E+01 -0.48407008514E+02 -0.68024312926E+01  0.49524498911E+02  0.00000000000E+00 0. -1.
         -1    1    6    6    0  503  0.37702224327E+03 -0.39088178236E+03  0.31194880074E+02  0.54397376798E+03  0.00000000000E+00 0.  1.
<mgrwt>
<rscale>  0 0.17895959E+04</rscale>
<asrwt>0</asrwt>
<pdfrwt beam="1">  1        1 0.69100570E-01 0.17895959E+04</pdfrwt>
<pdfrwt beam="2">  1       -2 0.27424683E+00 0.17895959E+04</pdfrwt>
<totfact> 0.19379634E+00</totfact>
</mgrwt>
</event>
<event>
12    4  0.4280696E-008  0.2383652E+04  0.7818608E-02  0.8445649E-01
          1   -1    0    0  501    0  0.00000000000E+00  0.00000000000E+00  0.11399316445E+04  0.11399316445E+04  0.00000000000E+00 0. -1.
         -2   -1    0    0    0  501 -0.00000000000E+00 -0.00000000000E+00 -0.12460830197E+04  0.12460830197E+04  0.00000000000E+00 0.  1.
        -24    2    1    2    0    0 -0.97737120316E+03  0.14176663680E+03 -0.39471320857E+02  0.99174360510E+03  0.81517758828E+02 0.  0.
        254    2    1    2    0    0  0.97737120316E+03 -0.14176663680E+03 -0.66680054387E+02  0.13942710591E+04  0.98193345415E+03 0.  0.
         23    2    4    4    0    0  0.11119454142E+04  0.57628271991E+02  0.35200056282E+02  0.11175884641E+04  0.89561762438E+02 0.  0.
         23    2    4    4    0    0 -0.13457421103E+03 -0.19939490879E+03 -0.10188011067E+03  0.27668259494E+03  0.91132614715E+02 0.  0.
          1    1    3    3  502    0 -0.15170984551E+03  0.17209479764E+02  0.23003618481E+02  0.15440599043E+03  0.00000000000E+00 0. -1.
         -2    1    3    3    0  502 -0.82566135766E+03  0.12455715704E+03 -0.62474939338E+02  0.83733761467E+03  0.00000000000E+00 0.  1.
         11    1    5    5    0    0  0.90284440919E+03  0.71728071830E+02  0.39657792500E+01  0.90569789163E+03  0.00000000000E+00 0. -1.
        -11    1    5    5    0    0  0.20910100501E+03 -0.14099799838E+02  0.31234277032E+02  0.21189057249E+03  0.00000000000E+00 0.  1.
          4    1    6    6  503    0 -0.62643691865E+02 -0.15019027626E+03 -0.34069742987E+02  0.16625913088E+03  0.00000000000E+00 0. -1.
         -4    1    6    6    0  503 -0.71930519164E+02 -0.49204632538E+02 -0.67810367682E+02  0.11042346406E+03  0.00000000000E+00 0.  1.
<mgrwt>
<rscale>  0 0.23836522E+04</rscale>
<asrwt>0</asrwt>
<pdfrwt beam="1">  1        1 0.17537410E+00 0.23836522E+04</pdfrwt>
<pdfrwt beam="2">  1       -2 0.19170508E+00 0.23836522E+04</pdfrwt>
<totfact> 0.14064864E+00</totfact>
</mgrwt>
</event>
<event>
12    4  0.4280696E-008  0.1500190E+04  0.7818608E-02  0.8884326E-01
         -2   -1    0    0    0  501 -0.00000000000E+00  0.00000000000E+00  0.26518376794E+03  0.26518376794E+03  0.00000000000E+00 0.  1.
          1   -1    0    0  501    0  0.00000000000E+00 -0.00000000000E+00 -0.21217083509E+04  0.21217083509E+04  0.00000000000E+00 0. -1.
        -24    2    1    2    0    0  0.39878300676E+02  0.98818481481E+02 -0.13508071622E+04  0.13573478175E+04  0.79735418143E+02 0.  0.
        254    2    1    2    0    0 -0.39878300676E+02 -0.98818481481E+02 -0.50571742069E+03  0.10295443013E+04  0.89042461088E+03 0.  0.
         23    2    4    4    0    0  0.26887532804E+03  0.77432985186E+02  0.10922613127E+03  0.31398903494E+03  0.91482004175E+02 0.  0.
         23    2    4    4    0    0 -0.30875362872E+03 -0.17625146667E+03 -0.61494355196E+03  0.71555526639E+03  0.86431385544E+02 0.  0.
          1    1    3    3  502    0  0.20713991213E+02  0.10736789584E+03 -0.12173149041E+04  0.12222162289E+04  0.00000000000E+00 0. -1.
         -2    1    3    3    0  502  0.19164309463E+02 -0.85494143603E+01 -0.13349225812E+03  0.13513158854E+03  0.00000000000E+00 0.  1.
         11    1    5    5    0    0  0.17823301476E+03  0.83863911543E+02  0.10453671776E+03  0.22299795642E+03  0.00000000000E+00 0.  1.
        -11    1    5    5    0    0  0.90642313284E+02 -0.64309263574E+01  0.46894135129E+01  0.90991078521E+02  0.00000000000E+00 0. -1.
          4    1    6    6  503    0 -0.12347303201E+03 -0.35428865085E+02 -0.16620488134E+03  0.21005917427E+03  0.00000000000E+00 0. -1.
         -4    1    6    6    0  503 -0.18528059671E+03 -0.14082260158E+03 -0.44873867062E+03  0.50549609212E+03  0.00000000000E+00 0.  1.
<mgrwt>
<rscale>  0 0.15001901E+04</rscale>
<asrwt>0</asrwt>
<pdfrwt beam="1">  1        1 0.32641666E+00 0.15001901E+04</pdfrwt>
<pdfrwt beam="2">  1       -2 0.40797503E-01 0.15001901E+04</pdfrwt>
<totfact> 0.11913764E+01</totfact>
</mgrwt>
</event>
<event>
12    4  0.4280696E-008  0.1868955E+04  0.7818608E-02  0.8670466E-01
          1   -1    0    0  501    0  0.00000000000E+00  0.00000000000E+00  0.52900648704E+03  0.52900648704E+03  0.00000000000E+00 0. -1.
         -2   -1    0    0    0  501 -0.00000000000E+00 -0.00000000000E+00 -0.16507316670E+04  0.16507316670E+04  0.00000000000E+00 0.  1.
        -24    2    1    2    0    0  0.24284291855E+03 -0.21222565929E+03 -0.11685302177E+04  0.12149299385E+04  0.81113945092E+02 0.  0.
        254    2    1    2    0    0 -0.24284291855E+03  0.21222565929E+03  0.46805037729E+02  0.96480821562E+03  0.90810339049E+03 0.  0.
         23    2    4    4    0    0 -0.18157817170E+03  0.37839990594E+03 -0.32818481940E+03  0.54044493338E+03  0.90655000305E+02 0.  0.
         23    2    4    4    0    0 -0.61264746844E+02 -0.16617424665E+03  0.37498985713E+03  0.42436328224E+03  0.89997516109E+02 0.  0.
          3    1    3    3  502    0  0.37781492437E+02 -0.44197125573E+02 -0.11916297517E+03  0.13259201232E+03  0.00000000000E+00 0. -1.
         -4    1    3    3    0  502  0.20506142611E+03 -0.16802853372E+03 -0.10493672426E+04  0.10823379261E+04  0.00000000000E+00 0.  1.
         11    1    5    5    0    0 -0.11834562312E+03  0.32730175595E+03 -0.26274824439E+03  0.43608343914E+03  0.00000000000E+00 0. -1.
        -11    1    5    5    0    0 -0.63232548577E+02  0.51098149992E+02 -0.65436575011E+02  0.10436149425E+03  0.00000000000E+00 0.  1.
          3    1    6    6  503    0 -0.50783967808E+02 -0.10271227862E+03  0.14095934435E+03  0.18165450813E+03  0.00000000000E+00 0. -1.
         -3    1    6    6    0  503 -0.10480779037E+02 -0.63461968031E+02  0.23403051278E+03  0.24270877410E+03  0.00000000000E+00 0.  1.
<mgrwt>
<rscale>  0 0.18689545E+04</rscale>
<asrwt>0</asrwt>
<pdfrwt beam="1">  1        1 0.81385613E-01 0.18689545E+04</pdfrwt>
<pdfrwt beam="2">  1       -2 0.25395872E+00 0.18689545E+04</pdfrwt>
<totfact> 0.20441770E+00</totfact>
</mgrwt>
</event>
<event>
12    4  0.4280696E-008  0.2778673E+04  0.7818608E-02  0.8309920E-01
         -2   -1    0    0    0  501 -0.00000000000E+00  0.00000000000E+00  0.96029569844E+03  0.96029569844E+03  0.00000000000E+00 0.  1.
          1   -1    0    0  501    0  0.00000000000E+00 -0.00000000000E+00 -0.20100639732E+04  0.20100639732E+04  0.00000000000E+00 0. -1.
        -24    2    1    2    0    0 -0.10745980318E+04 -0.14526987674E+03  0.17906924933E+03  0.11020069826E+04  0.80556357449E+02 0.  0.
        254    2    1    2    0    0  0.10745980318E+04  0.14526987674E+03 -0.12288375241E+04  0.18683526890E+04  0.89712643649E+03 0.  0.
         23    2    4    4    0    0  0.86367991580E+03  0.69923136114E+02 -0.32098562572E+03  0.92883044662E+03  0.94138115224E+02 0.  0.
         23    2    4    4    0    0  0.21091811596E+03  0.75346740625E+02 -0.90785189837E+03  0.93952224241E+03  0.91342167933E+02 0.  0.
          1    1    3    3  502    0 -0.61915113454E+02 -0.16979420437E+02 -0.63942498177E+01  0.64518744743E+02  0.00000000000E+00 0. -1.
         -4    1    3    3    0  502 -0.10126829183E+04 -0.12829045630E+03  0.18546349915E+03  0.10374882379E+04  0.00000000000E+00 0.  1.
         11    1    5    5    0    0  0.52908310689E+03  0.26141258182E+02 -0.15012290401E+03  0.55058985251E+03  0.00000000000E+00 0.  1.
        -11    1    5    5    0    0  0.33459680891E+03  0.43781877932E+02 -0.17086272171E+03  0.37824059412E+03  0.00000000000E+00 0. -1.
          4    1    6    6  503    0  0.39695667377E+02  0.21323898970E+02 -0.74651625794E+02  0.87197017779E+02  0.00000000000E+00 0. -1.
         -4    1    6    6    0  503  0.17122244859E+03  0.54022841654E+02 -0.83320027257E+03  0.85232522463E+03  0.00000000000E+00 0.  1.
<mgrwt>
<rscale>  0 0.27786729E+04</rscale>
<asrwt>0</asrwt>
<pdfrwt beam="1">  1        1 0.30924061E+00 0.27786729E+04</pdfrwt>
<pdfrwt beam="2">  1       -2 0.14773780E+00 0.27786729E+04</pdfrwt>
<totfact> 0.69756971E-01</totfact>
</mgrwt>
</event>
<event>
12    4  0.4280696E-008  0.3718210E+04  0.7818608E-02  0.8063938E-01
          1   -1    0    0  501    0  0.00000000000E+00  0.00000000000E+00  0.19258205706E+04  0.19258205706E+04  0.00000000000E+00 0. -1.
         -2   -1    0    0    0  501 -0.00000000000E+00 -0.00000000000E+00 -0.17947002469E+04  0.17947002469E+04  0.00000000000E+00 0.  1.
        -24    2    1    2    0    0 -0.33932438905E+03  0.92716674928E+03  0.15041323149E+04  0.18009992028E+04  0.80030530396E+02 0.  0.
        254    2    1    2    0    0  0.33932438905E+03 -0.92716674928E+03 -0.13730119912E+04  0.19195216147E+04  0.90808704394E+03 0.  0.
         23    2    4    4    0    0  0.48399421235E+03 -0.12730171978E+03 -0.38590452959E+03  0.63747984781E+03  0.83678700770E+02 0.  0.
         23    2    4    4    0    0 -0.14466982330E+03 -0.79986502950E+03 -0.98710746157E+03  0.12820417669E+04  0.92393333635E+02 0.  0.
          3    1    3    3  502    0 -0.19291586701E+03  0.55781811193E+03  0.82936551146E+03  0.10179512411E+04  0.00000000000E+00 0. -1.
         -4    1    3    3    0  502 -0.14640852203E+03  0.36934863734E+03  0.67476680342E+03  0.78304796164E+03  0.00000000000E+00 0.  1.
         11    1    5    5    0    0  0.11578104174E+03 -0.55811604516E+02 -0.65935055196E+02  0.14445627826E+03  0.00000000000E+00 0.  1.
        -11    1    5    5    0    0  0.36821317061E+03 -0.71490115267E+02 -0.31996947439E+03  0.49302356955E+03  0.00000000000E+00 0. -1.
          2    1    6    6  503    0 -0.69155809969E+02 -0.20696059696E+03 -0.22384284361E+03  0.31260331633E+03  0.00000000000E+00 0. -1.
         -2    1    6    6    0  503 -0.75514013336E+02 -0.59290443253E+03 -0.76326461796E+03  0.96943845053E+03  0.00000000000E+00 0.  1.
<mgrwt>
<rscale>  0 0.37182096E+04</rscale>
<asrwt>0</asrwt>
<pdfrwt beam="1">  1        1 0.29628009E+00 0.37182096E+04</pdfrwt>
<pdfrwt beam="2">  1       -2 0.27610773E+00 0.37182096E+04</pdfrwt>
<totfact> 0.10481238E-01</totfact>
</mgrwt>
</event>
<event>
12    4  0.4280696E-008  0.1343433E+04  0.7818608E-02  0.8995814E-01
          1   -1    0    0  501    0  0.00000000000E+00  0.00000000000E+00  0.47386843078E+03  0.47386843078E+03  0.00000000000E+00 0. -1.
         -2   -1    0    0    0  501 -0.00000000000E+00 -0.00000000000E+00 -0.95216927778E+03  0.95216927778E+03  0.00000000000E+00 0.  1.
        -24    2    1    2    0    0  0.86202970919E+02 -0.34882255768E+03 -0.21484185431E+03  0.42609724233E+03  0.79332897420E+02 0.  0.
        254    2    1    2    0    0 -0.86202970919E+02  0.34882255768E+03 -0.26345899269E+03  0.99994046624E+03  0.89518834121E+03 0.  0.
         23    2    4    4    0    0 -0.35805683553E+03  0.27133102126E+03 -0.45352850707E+03  0.64492266542E+03  0.91716503898E+02 0.  0.
         23    2    4    4    0    0  0.27185386461E+03  0.77491536425E+02  0.19006951438E+03  0.35501780081E+03  0.10000878299E+03 0.  0.
          3    1    3    3  502    0  0.14972711412E+02 -0.45599818888E+02 -0.64056737296E+02  0.80042433512E+02  0.00000000000E+00 0. -1.
         -4    1    3    3    0  502  0.71230259508E+02 -0.30322273879E+03 -0.15078511701E+03  0.34605480881E+03  0.00000000000E+00 0.  1.
         11    1    5    5    0    0 -0.35703843677E+03  0.26060944975E+03 -0.45462653149E+03  0.63409700658E+03  0.00000000000E+00 0.  1.
        -11    1    5    5    0    0 -0.10183987682E+01  0.10721571511E+02  0.10980244214E+01  0.10825658841E+02  0.00000000000E+00 0. -1.
          2    1    6    6  503    0  0.16222159209E+03  0.76907948226E+02  0.16207651713E+03  0.24186664682E+03  0.00000000000E+00 0. -1.
         -2    1    6    6    0  503  0.10963227253E+03  0.58358819869E+00  0.27992997245E+02  0.11315115399E+03  0.00000000000E+00 0.  1.
<mgrwt>
<rscale>  0 0.13434329E+04</rscale>
<asrwt>0</asrwt>
<pdfrwt beam="1">  1        1 0.72902836E-01 0.13434329E+04</pdfrwt>
<pdfrwt beam="2">  1       -2 0.14648758E+00 0.13434329E+04</pdfrwt>
<totfact> 0.13023228E+01</totfact>
</mgrwt>
</event>
<event>
12    4  0.4280696E-008  0.1473430E+04  0.7818608E-02  0.8902316E-01
          1   -1    0    0  501    0  0.00000000000E+00  0.00000000000E+00  0.11263005166E+04  0.11263005166E+04  0.00000000000E+00 0. -1.
         -2   -1    0    0    0  501 -0.00000000000E+00 -0.00000000000E+00 -0.48188644570E+03  0.48188644570E+03  0.00000000000E+00 0.  1.
        -24    2    1    2    0    0  0.90502232108E+02 -0.20166858125E+03 -0.23294010407E+03  0.33049355227E+03  0.78128262032E+02 0.  0.
        254    2    1    2    0    0 -0.90502232108E+02  0.20166858125E+03  0.87735417496E+03  0.12776934100E+04  0.90215809647E+03 0.  0.
         23    2    4    4    0    0 -0.45071014859E+03  0.88023532616E+02  0.22770421440E+03  0.52064624873E+03  0.91299105792E+02 0.  0.
         23    2    4    4    0    0  0.36020791648E+03  0.11364504863E+03  0.64964996056E+03  0.75704716130E+03  0.91708194849E+02 0.  0.
          3    1    3    3  502    0  0.23253459964E+02 -0.65659867487E+01 -0.85379559089E+01  0.25626788199E+02  0.00000000000E+00 0. -1.
         -4    1    3    3    0  502  0.67248772144E+02 -0.19510259450E+03 -0.22440214816E+03  0.30486676407E+03  0.00000000000E+00 0.  1.
         11    1    5    5    0    0 -0.19185345853E+03 -0.53060719608E+01  0.75962913242E+02  0.20641285846E+03  0.00000000000E+00 0. -1.
        -11    1    5    5    0    0 -0.25885669006E+03  0.93329604577E+02  0.15174130116E+03  0.31423339027E+03  0.00000000000E+00 0.  1.
          2    1    6    6  503    0  0.23113837779E+03  0.11574587544E+03  0.45947813820E+03  0.52720225421E+03  0.00000000000E+00 0. -1.
         -2    1    6    6    0  503  0.12906953870E+03 -0.21008268107E+01  0.19017182236E+03  0.22984490708E+03  0.00000000000E+00 0.  1.
<mgrwt>
<rscale>  0 0.14734299E+04</rscale>
<asrwt>0</asrwt>
<pdfrwt beam="1">  1        1 0.17327700E+00 0.14734299E+04</pdfrwt>
<pdfrwt beam="2">  1       -2 0.74136377E-01 0.14734299E+04</pdfrwt>
<totfact> 0.16873917E+01</totfact>
</mgrwt>
</event>
<event>
12    4  0.4280696E-008  0.2889563E+04  0.7818608E-02  0.8275990E-01
          1   -1    0    0  501    0  0.00000000000E+00  0.00000000000E+00  0.21154499008E+04  0.21154499008E+04  0.00000000000E+00 0. -1.
         -2   -1    0    0    0  501 -0.00000000000E+00 -0.00000000000E+00 -0.98673718534E+03  0.98673718534E+03  0.00000000000E+00 0.  1.
        -24    2    1    2    0    0  0.43100618802E+03 -0.33226875191E+03  0.17441738558E+04  0.18289703927E+04  0.82591771333E+02 0.  0.
        254    2    1    2    0    0 -0.43100618802E+03  0.33226875191E+03 -0.61546114035E+03  0.12732166934E+04  0.97268673035E+03 0.  0.
         23    2    4    4    0    0 -0.32205530563E+03 -0.31022517002E+03 -0.24331384931E+03  0.51733692856E+03  0.92068411474E+02 0.  0.
         23    2    4    4    0    0 -0.10895088239E+03  0.64249392192E+03 -0.37214729104E+03  0.75587976481E+03  0.90508994819E+02 0.  0.
          1    1    3    3  502    0  0.39761548587E+03 -0.27643994167E+03  0.15727561163E+04  0.16456241725E+04  0.00000000000E+00 0. -1.
         -4    1    3    3    0  502  0.33390702143E+02 -0.55828810239E+02  0.17141773954E+03  0.18334622023E+03  0.00000000000E+00 0.  1.
         11    1    5    5    0    0 -0.58636267949E+02 -0.10505895461E+03 -0.41905880514E+02  0.12740368395E+03  0.00000000000E+00 0.  1.
        -11    1    5    5    0    0 -0.26341903768E+03 -0.20516621540E+03 -0.20140796879E+03  0.38993324461E+03  0.00000000000E+00 0. -1.
          3    1    6    6  503    0 -0.22274887147E+02  0.39496621252E+03 -0.22890190490E+03  0.45704547006E+03  0.00000000000E+00 0. -1.
         -3    1    6    6    0  503 -0.86675995241E+02  0.24752770940E+03 -0.14324538614E+03  0.29883429475E+03  0.00000000000E+00 0.  1.
<mgrwt>
<rscale>  0 0.28895627E+04</rscale>
<asrwt>0</asrwt>
<pdfrwt beam="1">  1        1 0.32545383E+00 0.28895627E+04</pdfrwt>
<pdfrwt beam="2">  1       -2 0.15180572E+00 0.28895627E+04</pdfrwt>
<totfact> 0.54532231E-01</totfact>
</mgrwt>
</event>
<event>
12    4  0.4280696E-008  0.2344413E+04  0.7818608E-02  0.8460613E-01
         -2   -1    0    0    0  501 -0.00000000000E+00  0.00000000000E+00  0.53425355251E+03  0.53425355251E+03  0.00000000000E+00 0.  1.
          1   -1    0    0  501    0  0.00000000000E+00 -0.00000000000E+00 -0.25719409869E+04  0.25719409869E+04  0.00000000000E+00 0. -1.
        -24    2    1    2    0    0  0.36014893764E+03 -0.65792672307E+03  0.34513898957E+01  0.75431442594E+03  0.80021939968E+02 0.  0.
        254    2    1    2    0    0 -0.36014893764E+03  0.65792672307E+03 -0.20411388242E+04  0.23518801134E+04  0.89583343203E+03 0.  0.
         23    2    4    4    0    0  0.10318432416E+03 -0.67776198610E+02 -0.22134562196E+02  0.15519748026E+03  0.91409524587E+02 0.  0.
         23    2    4    4    0    0 -0.46333326180E+03  0.72570292168E+03 -0.20190042620E+04  0.21966826332E+04  0.87829031025E+02 0.  0.
          3    1    3    3  502    0  0.75056311422E+02 -0.16563851707E+03 -0.30637045998E+02  0.18441311453E+03  0.00000000000E+00 0. -1.
         -4    1    3    3    0  502  0.28509262622E+03 -0.49228820600E+03  0.34088435893E+02  0.56990131141E+03  0.00000000000E+00 0.  1.
         11    1    5    5    0    0  0.57363467990E+02 -0.15714763140E+02 -0.52644894705E+02  0.79429252665E+02  0.00000000000E+00 0. -1.
        -11    1    5    5    0    0  0.45820856174E+02 -0.52061435470E+02  0.30510332508E+02  0.75768227599E+02  0.00000000000E+00 0.  1.
          3    1    6    6  503    0 -0.10271559562E+03  0.10530322849E+03 -0.30978072258E+03  0.34293346235E+03  0.00000000000E+00 0. -1.
         -3    1    6    6    0  503 -0.36061766618E+03  0.62039969319E+03 -0.17092235395E+04  0.18537491708E+04  0.00000000000E+00 0.  1.
<mgrwt>
<rscale>  0 0.23444135E+04</rscale>
<asrwt>0</asrwt>
<pdfrwt beam="1">  1        1 0.39568322E+00 0.23444135E+04</pdfrwt>
<pdfrwt beam="2">  1       -2 0.82192855E-01 0.23444135E+04</pdfrwt>
<totfact> 0.12423294E+00</totfact>
</mgrwt>
</event>
<event>
12    4  0.4280696E-008  0.1120012E+04  0.7818608E-02  0.9185903E-01
          1   -1    0    0  501    0  0.00000000000E+00  0.00000000000E+00  0.10653087208E+04  0.10653087208E+04  0.00000000000E+00 0. -1.
         -2   -1    0    0    0  501 -0.00000000000E+00 -0.00000000000E+00 -0.29438124074E+03  0.29438124074E+03  0.00000000000E+00 0.  1.
        -24    2    1    2    0    0 -0.11489553493E+03  0.83408368466E+02  0.28721623436E+03  0.33907163199E+03  0.11098858708E+03 0.  0.
        254    2    1    2    0    0  0.11489553493E+03 -0.83408368466E+02  0.48371124572E+03  0.10206183296E+04  0.88742732973E+03 0.  0.
         23    2    4    4    0    0 -0.25997432147E+03 -0.33629732051E+03  0.19510789973E+03  0.47648692015E+03  0.91050298911E+02 0.  0.
         23    2    4    4    0    0  0.37486985640E+03  0.25288895204E+03  0.28860334599E+03  0.54413140943E+03  0.91142021645E+02 0.  0.
          3    1    3    3  502    0 -0.13232332204E+03  0.75555654513E+02  0.20958460821E+03  0.25912125826E+03  0.00000000000E+00 0. -1.
         -4    1    3    3    0  502  0.17427787113E+02  0.78527139528E+01  0.77631626152E+02  0.79950373727E+02  0.00000000000E+00 0.  1.
         11    1    5    5    0    0 -0.12650929215E+03 -0.23575335504E+03  0.11628182011E+03  0.29172882460E+03  0.00000000000E+00 0. -1.
        -11    1    5    5    0    0 -0.13346502932E+03 -0.10054396546E+03  0.78826079620E+02  0.18475809555E+03  0.00000000000E+00 0.  1.
          2    1    6    6  503    0  0.59852900312E+02  0.33333015921E+02  0.89112091669E+01  0.69085955699E+02  0.00000000000E+00 0. -1.
         -2    1    6    6    0  503  0.31501695609E+03  0.21955593612E+03  0.27969213683E+03  0.47504545373E+03  0.00000000000E+00 0.  1.
<mgrwt>
<rscale>  0 0.11200123E+04</rscale>
<asrwt>0</asrwt>
<pdfrwt beam="1">  1        1 0.16389365E+00 0.11200123E+04</pdfrwt>
<pdfrwt beam="2">  1       -2 0.45289422E-01 0.11200123E+04</pdfrwt>
<totfact> 0.54330697E+01</totfact>
</mgrwt>
</event>
<event>
12    4  0.4280696E-008  0.1237814E+04  0.7818608E-02  0.9080387E-01
         -2   -1    0    0    0  501 -0.00000000000E+00  0.00000000000E+00  0.44966625427E+03  0.44966625427E+03  0.00000000000E+00 0.  1.
          1   -1    0    0  501    0  0.00000000000E+00 -0.00000000000E+00 -0.85184446892E+03  0.85184446892E+03  0.00000000000E+00 0. -1.
        -24    2    1    2    0    0  0.18050714126E+03  0.65995227409E+02  0.12511673994E+03  0.24216516208E+03  0.77791831348E+02 0.  0.
        254    2    1    2    0    0 -0.18050714126E+03 -0.65995227409E+02 -0.52729495459E+03  0.10593455611E+04  0.89846249261E+03 0.  0.
         23    2    4    4    0    0 -0.97863249856E+02 -0.29328600232E+03 -0.68429735273E+03  0.75642414191E+03  0.91217984422E+02 0.  0.
         23    2    4    4    0    0 -0.82643891409E+02  0.22729077491E+03  0.15700239814E+03  0.30292141920E+03  0.92846777234E+02 0.  0.
          1    1    3    3  502    0  0.75915967813E+01  0.16709391343E+02  0.38364379947E+02  0.42528364059E+02  0.00000000000E+00 0. -1.
         -2    1    3    3    0  502  0.17291554448E+03  0.49285836065E+02  0.86752359997E+02  0.19963679803E+03  0.00000000000E+00 0.  1.
         11    1    5    5    0    0  0.40011812998E+01 -0.12268857818E+01 -0.55591390452E+02  0.55748698576E+02  0.00000000000E+00 0.  1.
        -11    1    5    5    0    0 -0.10186443116E+03 -0.29205911654E+03 -0.62870596227E+03  0.70067544333E+03  0.00000000000E+00 0. -1.
          2    1    6    6  503    0 -0.28005590719E+02  0.12796897070E+03  0.33359767196E+02  0.13517856576E+03  0.00000000000E+00 0. -1.
         -2    1    6    6    0  503 -0.54638300690E+02  0.99321804210E+02  0.12364263094E+03  0.16774285344E+03  0.00000000000E+00 0.  1.
<mgrwt>
<rscale>  0 0.12378137E+04</rscale>
<asrwt>0</asrwt>
<pdfrwt beam="1">  1        1 0.13105300E+00 0.12378137E+04</pdfrwt>
<pdfrwt beam="2">  1       -2 0.69179424E-01 0.12378137E+04</pdfrwt>
<totfact> 0.32929019E+01</totfact>
</mgrwt>
</event>
<event>
12    4  0.4280696E-008  0.2104949E+04  0.7818608E-02  0.8559066E-01
         -2   -1    0    0    0  501 -0.00000000000E+00  0.00000000000E+00  0.69208619717E+03  0.69208619717E+03  0.00000000000E+00 0.  1.
          1   -1    0    0  501    0  0.00000000000E+00 -0.00000000000E+00 -0.16005271081E+04  0.16005271081E+04  0.00000000000E+00 0. -1.
        -24    2    1    2    0    0  0.52863820374E+02 -0.76796811114E+03 -0.74049479782E+03  0.10706015632E+04  0.72701844631E+02 0.  0.
        254    2    1    2    0    0 -0.52863820374E+02  0.76796811114E+03 -0.16794611306E+03  0.12220117421E+04  0.93409699583E+03 0.  0.
         23    2    4    4    0    0 -0.81196044114E+01  0.96347606728E+03 -0.22384156919E+03  0.99408890059E+03  0.98770612864E+02 0.  0.
         23    2    4    4    0    0 -0.44744215963E+02 -0.19550795615E+03  0.55895456133E+02  0.22792284148E+03  0.92731407147E+02 0.  0.
          1    1    3    3  502    0  0.35305874618E+02 -0.62382274332E+03 -0.63699779306E+03  0.89228219092E+03  0.00000000000E+00 0. -1.
         -2    1    3    3    0  502  0.17557945756E+02 -0.14414536782E+03 -0.10349700476E+03  0.17831937224E+03  0.00000000000E+00 0.  1.
         11    1    5    5    0    0  0.45109407137E+02  0.38477807440E+03 -0.91175095313E+02  0.39799739089E+03  0.00000000000E+00 0. -1.
        -11    1    5    5    0    0 -0.53229011549E+02  0.57869799289E+03 -0.13266647388E+03  0.59609150970E+03  0.00000000000E+00 0.  1.
          1    1    6    6  503    0 -0.36518582425E+02 -0.14174427774E+02  0.56598223058E+01  0.39579727811E+02  0.00000000000E+00 0. -1.
         -1    1    6    6    0  503 -0.82256335375E+01 -0.18133352837E+03  0.50235633828E+02  0.18834311366E+03  0.00000000000E+00 0.  1.
<mgrwt>
<rscale>  0 0.21049491E+04</rscale>
<asrwt>0</asrwt>
<pdfrwt beam="1">  1        1 0.24623494E+00 0.21049491E+04</pdfrwt>
<pdfrwt beam="2">  1       -2 0.10647480E+00 0.21049491E+04</pdfrwt>
<totfact> 0.31986187E+00</totfact>
</mgrwt>
</event>
<event>
12    4  0.4280696E-008  0.2363528E+04  0.7818608E-02  0.8453286E-01
         -2   -1    0    0    0  501 -0.00000000000E+00  0.00000000000E+00  0.20225163887E+04  0.20225163887E+04  0.00000000000E+00 0.  1.
          1   -1    0    0  501    0  0.00000000000E+00 -0.00000000000E+00 -0.69050897275E+03  0.69050897275E+03  0.00000000000E+00 0. -1.
        -24    2    1    2    0    0 -0.99777188193E+03  0.43978299348E+02  0.44600617150E+03  0.10967400858E+04  0.80215282701E+02 0.  0.
        254    2    1    2    0    0  0.99777188193E+03 -0.43978299348E+02  0.88600124442E+03  0.16162852756E+04  0.91098686485E+03 0.  0.
         23    2    4    4    0    0  0.67054620891E+03  0.35192497365E+03  0.27004911955E+03  0.80917583953E+03  0.91409009049E+02 0.  0.
         23    2    4    4    0    0  0.32722567301E+03 -0.39590327300E+03  0.61595212487E+03  0.80710943610E+03  0.90623281067E+02 0.  0.
          3    1    3    3  502    0 -0.70801205563E+03  0.31438809793E+02  0.27600387944E+03  0.76055743448E+03  0.00000000000E+00 0. -1.
         -4    1    3    3    0  502 -0.28975982629E+03  0.12539489555E+02  0.17000229205E+03  0.33618265130E+03  0.00000000000E+00 0.  1.
         11    1    5    5    0    0  0.60228851666E+03  0.32802707337E+03  0.21648449878E+03  0.71917922410E+03  0.00000000000E+00 0. -1.
        -11    1    5    5    0    0  0.68257692250E+02  0.23897900277E+02  0.53564620774E+02  0.89996615424E+02  0.00000000000E+00 0.  1.
          4    1    6    6  503    0  0.13486960237E+03 -0.19848728495E+03  0.34783533623E+03  0.42258304872E+03  0.00000000000E+00 0. -1.
         -4    1    6    6    0  503  0.19235607064E+03 -0.19741598805E+03  0.26811678863E+03  0.38452638739E+03  0.00000000000E+00 0.  1.
<mgrwt>
<rscale>  0 0.23635276E+04</rscale>
<asrwt>0</asrwt>
<pdfrwt beam="1">  1        1 0.10623215E+00 0.23635276E+04</pdfrwt>
<pdfrwt beam="2">  1       -2 0.31115637E+00 0.23635276E+04</pdfrwt>
<totfact> 0.59517028E-01</totfact>
</mgrwt>
</event>
<event>
12    4  0.4280696E-008  0.2137287E+04  0.7818608E-02  0.8544994E-01
         -2   -1    0    0    0  501 -0.00000000000E+00  0.00000000000E+00  0.14813405787E+04  0.14813405787E+04  0.00000000000E+00 0.  1.
          1   -1    0    0  501    0  0.00000000000E+00 -0.00000000000E+00 -0.77092245134E+03  0.77092245134E+03  0.00000000000E+00 0. -1.
        -24    2    1    2    0    0  0.18571615045E+03  0.75651308033E+03 -0.13773086565E+03  0.79512165533E+03  0.80287771081E+02 0.  0.
        254    2    1    2    0    0 -0.18571615045E+03 -0.75651308033E+03  0.84814899298E+03  0.14571413747E+04  0.89280554561E+03 0.  0.
         23    2    4    4    0    0  0.25060476420E+03 -0.26117070655E+02  0.42464980050E+03  0.50209845250E+03  0.91052477844E+02 0.  0.
         23    2    4    4    0    0 -0.43632091464E+03 -0.73039600967E+03  0.42349919248E+03  0.95504292218E+03  0.94345883185E+02 0.  0.
          1    1    3    3  502    0  0.11199491431E+03  0.39826144236E+03 -0.11125120249E+03  0.42840619435E+03  0.00000000000E+00 0. -1.
         -2    1    3    3    0  502  0.73721236136E+02  0.35825163796E+03 -0.26479663159E+02  0.36671546098E+03  0.00000000000E+00 0.  1.
         11    1    5    5    0    0  0.19765587943E+03 -0.44728943234E+02  0.27009228043E+03  0.33766605542E+03  0.00000000000E+00 0. -1.
        -11    1    5    5    0    0  0.52948884768E+02  0.18611872579E+02  0.15455752008E+03  0.16443239709E+03  0.00000000000E+00 0.  1.
          1    1    6    6  503    0 -0.25695841306E+03 -0.35065105499E+03  0.24185621120E+03  0.49747182363E+03  0.00000000000E+00 0. -1.
         -1    1    6    6    0  503 -0.17936250158E+03 -0.37974495468E+03  0.18164298128E+03  0.45757109855E+03  0.00000000000E+00 0.  1.
<mgrwt>
<rscale>  0 0.21372868E+04</rscale>
<asrwt>0</asrwt>
<pdfrwt beam="1">  1        1 0.11860345E+00 0.21372868E+04</pdfrwt>
<pdfrwt beam="2">  1       -2 0.22789855E+00 0.21372868E+04</pdfrwt>
<totfact> 0.16599376E+00</totfact>
</mgrwt>
</event>
<event>
12    4  0.4280696E-008  0.1421342E+04  0.7818608E-02  0.8938513E-01
         -2   -1    0    0    0  501 -0.00000000000E+00  0.00000000000E+00  0.47498524565E+03  0.47498524565E+03  0.00000000000E+00 0.  1.
          1   -1    0    0  501    0  0.00000000000E+00 -0.00000000000E+00 -0.10633034992E+04  0.10633034992E+04  0.00000000000E+00 0. -1.
        -24    2    1    2    0    0  0.12359704071E+03  0.39188263203E+03 -0.10005736950E+03  0.43044727387E+03  0.80157049780E+02 0.  0.
        254    2    1    2    0    0 -0.12359704071E+03 -0.39188263203E+03 -0.48826088409E+03  0.11078414710E+04  0.90557484960E+03 0.  0.
         23    2    4    4    0    0 -0.25932826969E+03  0.11652815711E+03  0.10113522870E+03  0.31261057767E+03  0.81652164238E+02 0.  0.
         23    2    4    4    0    0  0.13573122898E+03 -0.50841078914E+03 -0.58939611278E+03  0.79523089335E+03  0.89999438565E+02 0.  0.
          3    1    3    3  502    0  0.90216722273E+02  0.24157921053E+03 -0.99711606354E+02  0.27648142140E+03  0.00000000000E+00 0. -1.
         -4    1    3    3    0  502  0.33380318441E+02  0.15030342150E+03 -0.34576314310E+00  0.15396585247E+03  0.00000000000E+00 0.  1.
         11    1    5    5    0    0 -0.13039711237E+03  0.14649010271E+02  0.38440529752E+02  0.13673212769E+03  0.00000000000E+00 0.  1.
        -11    1    5    5    0    0 -0.12893115733E+03  0.10187914684E+03  0.62694698945E+02  0.17587844998E+03  0.00000000000E+00 0. -1.
          2    1    6    6  503    0  0.16931025071E+01 -0.33047782679E+01 -0.28008150416E+02  0.28253223625E+02  0.00000000000E+00 0. -1.
         -2    1    6    6    0  503  0.13403812647E+03 -0.50510601087E+03 -0.56138796237E+03  0.76697766973E+03  0.00000000000E+00 0.  1.
<mgrwt>
<rscale>  0 0.14213423E+04</rscale>
<asrwt>0</asrwt>
<pdfrwt beam="1">  1        1 0.16358515E+00 0.14213423E+04</pdfrwt>
<pdfrwt beam="2">  1       -2 0.73074654E-01 0.14213423E+04</pdfrwt>
<totfact> 0.19516576E+01</totfact>
</mgrwt>
</event>
<event>
12    4  0.4280696E-008  0.1392170E+04  0.7818608E-02  0.8959506E-01
         -2   -1    0    0    0  501 -0.00000000000E+00  0.00000000000E+00  0.91095521647E+03  0.91095521647E+03  0.00000000000E+00 0.  1.
          1   -1    0    0  501    0  0.00000000000E+00 -0.00000000000E+00 -0.53189724578E+03  0.53189724578E+03  0.00000000000E+00 0. -1.
        -24    2    1    2    0    0 -0.32494462219E+03 -0.15726565306E+03 -0.64747764473E+02  0.37557817706E+03  0.80902416247E+02 0.  0.
        254    2    1    2    0    0  0.32494462219E+03  0.15726565306E+03  0.44380573517E+03  0.10672742852E+04  0.90099354944E+03 0.  0.
         23    2    4    4    0    0  0.30655850188E+03  0.50847149113E+03  0.21842412795E+03  0.63930493062E+03  0.92088665302E+02 0.  0.
         23    2    4    4    0    0  0.18386120305E+02 -0.35120583806E+03  0.22538160721E+03  0.42796935457E+03  0.93152077105E+02 0.  0.
          3    1    3    3  502    0 -0.32140924779E+03 -0.14112338139E+03 -0.52326073464E+02  0.35490524271E+03  0.00000000000E+00 0. -1.
         -4    1    3    3    0  502 -0.35353743971E+01 -0.16142271673E+02 -0.12421691009E+02  0.20672934344E+02  0.00000000000E+00 0.  1.
         11    1    5    5    0    0  0.24375819894E+03  0.33094463187E+03  0.12862372900E+03  0.43068140495E+03  0.00000000000E+00 0.  1.
        -11    1    5    5    0    0  0.62800302941E+02  0.17752685926E+03  0.89800398953E+02  0.20862352567E+03  0.00000000000E+00 0. -1.
          1    1    6    6  503    0  0.16869974574E+02 -0.82218617011E+02  0.12343486234E+02  0.84834301304E+02  0.00000000000E+00 0. -1.
         -1    1    6    6    0  503  0.15161457310E+01 -0.26898722105E+03  0.21303812098E+03  0.34313505326E+03  0.00000000000E+00 0.  1.
<mgrwt>
<rscale>  0 0.13921703E+04</rscale>
<asrwt>0</asrwt>
<pdfrwt beam="1">  1        1 0.81830346E-01 0.13921703E+04</pdfrwt>
<pdfrwt beam="2">  1       -2 0.14014696E+00 0.13921703E+04</pdfrwt>
<totfact> 0.12421667E+01</totfact>
</mgrwt>
</event>
<event>
12    4  0.4280696E-008  0.1511553E+04  0.7818608E-02  0.8876806E-01
          1   -1    0    0  501    0  0.00000000000E+00  0.00000000000E+00  0.81706169642E+03  0.81706169642E+03  0.00000000000E+00 0. -1.
         -2   -1    0    0    0  501 -0.00000000000E+00 -0.00000000000E+00 -0.69908842958E+03  0.69908842958E+03  0.00000000000E+00 0.  1.
        -24    2    1    2    0    0  0.12358740554E+03  0.28534071398E+03  0.43393506700E+03  0.54064953434E+03  0.85493314070E+02 0.  0.
        254    2    1    2    0    0 -0.12358740554E+03 -0.28534071398E+03 -0.31596180015E+03  0.97550059166E+03  0.86895130779E+03 0.  0.
         23    2    4    4    0    0 -0.22292825539E+03 -0.53444430661E+03 -0.36237920873E+03  0.68876011536E+03  0.88000464071E+02 0.  0.
         23    2    4    4    0    0  0.99340849854E+02  0.24910359262E+03  0.46417408572E+02  0.28674047631E+03  0.90245889797E+02 0.  0.
          1    1    3    3  502    0  0.35639702289E+02  0.18678829538E+03  0.26641790041E+03  0.32732026110E+03  0.00000000000E+00 0. -1.
         -2    1    3    3    0  502  0.87947703246E+02  0.98552418603E+02  0.16751716659E+03  0.21332927324E+03  0.00000000000E+00 0.  1.
         11    1    5    5    0    0 -0.79641388998E+02 -0.15215484999E+03 -0.64794856620E+02  0.18355441335E+03  0.00000000000E+00 0. -1.
        -11    1    5    5    0    0 -0.14328686639E+03 -0.38228945662E+03 -0.29758435211E+03  0.50520570201E+03  0.00000000000E+00 0.  1.
          2    1    6    6  503    0  0.11574025676E+03  0.23160658650E+03  0.40805285043E+02  0.26211159690E+03  0.00000000000E+00 0. -1.
         -2    1    6    6    0  503 -0.16399406902E+02  0.17497006124E+02  0.56121235292E+01  0.24628879401E+02  0.00000000000E+00 0.  1.
<mgrwt>
<rscale>  0 0.15115533E+04</rscale>
<asrwt>0</asrwt>
<pdfrwt beam="1">  1        1 0.12570180E+00 0.15115533E+04</pdfrwt>
<pdfrwt beam="2">  1       -2 0.10755207E+00 0.15115533E+04</pdfrwt>
<totfact> 0.12551531E+01</totfact>
</mgrwt>
</event>
<event>
12    4  0.4280696E-008  0.2414464E+04  0.7818608E-02  0.8434108E-01
         -2   -1    0    0    0  501 -0.00000000000E+00  0.00000000000E+00  0.15702798513E+04  0.15702798513E+04  0.00000000000E+00 0.  1.
          1   -1    0    0  501    0  0.00000000000E+00 -0.00000000000E+00 -0.92812070519E+03  0.92812070519E+03  0.00000000000E+00 0. -1.
        -24    2    1    2    0    0  0.82656534671E+03 -0.59123958800E+03  0.80899952715E+02  0.10226642218E+04  0.80763763568E+02 0.  0.
        254    2    1    2    0    0 -0.82656534671E+03  0.59123958800E+03  0.56125919336E+03  0.14757363346E+04  0.91104957294E+03 0.  0.
         23    2    4    4    0    0 -0.30244563274E+03 -0.28858242793E+02  0.57696585096E+03  0.65858129300E+03  0.92377309840E+02 0.  0.
         23    2    4    4    0    0 -0.52411971397E+03  0.62009783079E+03 -0.15706657596E+02  0.81715504161E+03  0.90955311072E+02 0.  0.
          1    1    3    3  502    0  0.17374170612E+03 -0.15000556465E+03 -0.82487292420E+01  0.22968650680E+03  0.00000000000E+00 0. -1.
         -2    1    3    3    0  502  0.65282364059E+03 -0.44123402334E+03  0.89148681957E+02  0.79297771505E+03  0.00000000000E+00 0.  1.
         11    1    5    5    0    0 -0.14370902519E+03 -0.16749214143E+02  0.37134967038E+03  0.39853907937E+03  0.00000000000E+00 0. -1.
        -11    1    5    5    0    0 -0.15873660755E+03 -0.12109028650E+02  0.20561618058E+03  0.26004221363E+03  0.00000000000E+00 0.  1.
          2    1    6    6  503    0 -0.21833260405E+02  0.45905720311E+02  0.16922303132E+02  0.53576027853E+02  0.00000000000E+00 0. -1.
         -2    1    6    6    0  503 -0.50228645356E+03  0.57419211048E+03 -0.32628960729E+02  0.76357901375E+03  0.00000000000E+00 0.  1.
<mgrwt>
<rscale>  0 0.24144641E+04</rscale>
<asrwt>0</asrwt>
<pdfrwt beam="1">  1        1 0.14278780E+00 0.24144641E+04</pdfrwt>
<pdfrwt beam="2">  1       -2 0.24158152E+00 0.24144641E+04</pdfrwt>
<totfact> 0.98094399E-01</totfact>
</mgrwt>
</event>
<event>
12    4  0.4280696E-008  0.1511616E+04  0.7818608E-02  0.8876765E-01
         -2   -1    0    0    0  501 -0.00000000000E+00  0.00000000000E+00  0.81191661902E+03  0.81191661902E+03  0.00000000000E+00 0.  1.
          1   -1    0    0  501    0  0.00000000000E+00 -0.00000000000E+00 -0.70357652443E+03  0.70357652443E+03  0.00000000000E+00 0. -1.
        -24    2    1    2    0    0  0.15083974431E+03  0.17784322280E+03 -0.38756640486E+03  0.45910332380E+03  0.78659413873E+02 0.  0.
        254    2    1    2    0    0 -0.15083974431E+03 -0.17784322280E+03  0.49590649944E+03  0.10563898196E+04  0.90313639862E+03 0.  0.
         23    2    4    4    0    0 -0.12932498742E+03 -0.52310859328E+03  0.16613625784E+03  0.57012950433E+03  0.84135859225E+02 0.  0.
         23    2    4    4    0    0 -0.21514756887E+02  0.34526537048E+03  0.32977024160E+03  0.48626031532E+03  0.89608153606E+02 0.  0.
          3    1    3    3  502    0  0.55206489177E+02  0.12069545373E+03 -0.23935726681E+03  0.27369152375E+03  0.00000000000E+00 0. -1.
         -4    1    3    3    0  502  0.95633255132E+02  0.57147769070E+02 -0.14820913806E+03  0.18541180006E+03  0.00000000000E+00 0.  1.
         11    1    5    5    0    0 -0.96344839363E+01 -0.38630529910E+02 -0.97624659613E+01  0.40993253878E+02  0.00000000000E+00 0. -1.
        -11    1    5    5    0    0 -0.11969050349E+03 -0.48447806337E+03  0.17589872380E+03  0.52913625045E+03  0.00000000000E+00 0.  1.
          4    1    6    6  503    0  0.30225887605E+01  0.24741137650E+02  0.65610731591E+02  0.70185668302E+02  0.00000000000E+00 0. -1.
         -4    1    6    6    0  503 -0.24537345648E+02  0.32052423283E+03  0.26415951001E+03  0.41607464701E+03  0.00000000000E+00 0.  1.
<mgrwt>
<rscale>  0 0.15116157E+04</rscale>
<asrwt>0</asrwt>
<pdfrwt beam="1">  1        1 0.10824254E+00 0.15116157E+04</pdfrwt>
<pdfrwt beam="2">  1       -2 0.12491025E+00 0.15116157E+04</pdfrwt>
<totfact> 0.10985660E+01</totfact>
</mgrwt>
</event>
<event>
12    4  0.4280696E-008  0.1968868E+04  0.7818608E-02  0.8621316E-01
          1   -1    0    0  501    0  0.00000000000E+00  0.00000000000E+00  0.12783402318E+04  0.12783402318E+04  0.00000000000E+00 0. -1.
         -2   -1    0    0    0  501 -0.00000000000E+00 -0.00000000000E+00 -0.75810069939E+03  0.75810069939E+03  0.00000000000E+00 0.  1.
        -24    2    1    2    0    0  0.24615429043E+03  0.36524242854E+03 -0.44737721528E+03  0.63673592492E+03  0.10626522965E+03 0.  0.
        254    2    1    2    0    0 -0.24615429043E+03 -0.36524242854E+03  0.96761674769E+03  0.13997050063E+04  0.91043833831E+03 0.  0.
         23    2    4    4    0    0  0.11373586425E+03 -0.45127453182E+03  0.15011885892E+03  0.49777069110E+03  0.93034613093E+02 0.  0.
         23    2    4    4    0    0 -0.35989015467E+03  0.86032103281E+02  0.81749788877E+03  0.90193431517E+03  0.90885997282E+02 0.  0.
          3    1    3    3  502    0  0.15896871062E+03  0.14441650405E+03 -0.19251345698E+03  0.28842435528E+03  0.00000000000E+00 0. -1.
         -4    1    3    3    0  502  0.87185579807E+02  0.22082592449E+03 -0.25486375830E+03  0.34831156964E+03  0.00000000000E+00 0.  1.
         11    1    5    5    0    0  0.75097178758E+02 -0.33977996615E+03  0.69478753739E+02  0.35484828994E+03  0.00000000000E+00 0. -1.
        -11    1    5    5    0    0  0.38638685488E+02 -0.11149456567E+03  0.80640105178E+02  0.14292240116E+03  0.00000000000E+00 0.  1.
          2    1    6    6  503    0 -0.12477843474E+03 -0.12928371878E+02  0.29140774787E+03  0.31726215673E+03  0.00000000000E+00 0. -1.
         -2    1    6    6    0  503 -0.23511171993E+03  0.98960475160E+02  0.52609014090E+03  0.58467215843E+03  0.00000000000E+00 0.  1.
<mgrwt>
<rscale>  0 0.19688683E+04</rscale>
<asrwt>0</asrwt>
<pdfrwt beam="1">  1        1 0.19666773E+00 0.19688683E+04</pdfrwt>
<pdfrwt beam="2">  1       -2 0.11663088E+00 0.19688683E+04</pdfrwt>
<totfact> 0.43584131E+00</totfact>
</mgrwt>
</event>
<event>
12    4  0.4280696E-008  0.1775271E+04  0.7818608E-02  0.8719562E-01
         -2   -1    0    0    0  501 -0.00000000000E+00  0.00000000000E+00  0.26001959713E+03  0.26001959713E+03  0.00000000000E+00 0.  1.
          1   -1    0    0  501    0  0.00000000000E+00 -0.00000000000E+00 -0.30301426342E+04  0.30301426342E+04  0.00000000000E+00 0. -1.
        -24    2    1    2    0    0 -0.37651382505E+03 -0.73920734070E+02 -0.20162028558E+04  0.20539463853E+04  0.79967883859E+02 0.  0.
        254    2    1    2    0    0  0.37651382505E+03  0.73920734070E+02 -0.75392018128E+03  0.12362158461E+04  0.90144719366E+03 0.  0.
         23    2    4    4    0    0 -0.79299937913E+02 -0.69360689466E+02  0.15335173230E+03  0.20711401901E+03  0.90994932139E+02 0.  0.
         23    2    4    4    0    0  0.45581376296E+03  0.14328142354E+03 -0.90727191358E+03  0.10291018271E+04  0.87249598628E+02 0.  0.
          3    1    3    3  502    0 -0.34741952322E+03 -0.83819945295E+02 -0.19191783097E+04  0.19521709691E+04  0.00000000000E+00 0. -1.
         -4    1    3    3    0  502 -0.29094301825E+02  0.98992112255E+01 -0.97024546086E+02  0.10177541611E+03  0.00000000000E+00 0.  1.
         11    1    5    5    0    0 -0.37280853943E+02 -0.55583384500E+02  0.14817860261E+03  0.16259235214E+03  0.00000000000E+00 0. -1.
        -11    1    5    5    0    0 -0.42019083970E+02 -0.13777304966E+02  0.51731296862E+01  0.44521666867E+02  0.00000000000E+00 0.  1.
          4    1    6    6  503    0  0.36331485092E+03  0.12286164575E+03 -0.79141920390E+03  0.87945268276E+03  0.00000000000E+00 0. -1.
         -4    1    6    6    0  503  0.92498912038E+02  0.20419777784E+02 -0.11585270967E+03  0.14964914431E+03  0.00000000000E+00 0.  1.
<mgrwt>
<rscale>  0 0.17752706E+04</rscale>
<asrwt>0</asrwt>
<pdfrwt beam="1">  1        1 0.46617579E+00 0.17752706E+04</pdfrwt>
<pdfrwt beam="2">  1       -2 0.40003015E-01 0.17752706E+04</pdfrwt>
<totfact> 0.28002235E+00</totfact>
</mgrwt>
</event>
<event>
12    4  0.4280696E-008  0.1967612E+04  0.7818608E-02  0.8621914E-01
         -2   -1    0    0    0  501 -0.00000000000E+00  0.00000000000E+00  0.93772584507E+03  0.93772584507E+03  0.00000000000E+00 0.  1.
          1   -1    0    0  501    0  0.00000000000E+00 -0.00000000000E+00 -0.10321508263E+04  0.10321508263E+04  0.00000000000E+00 0. -1.
        -24    2    1    2    0    0 -0.34041960122E+03 -0.73743087765E+02  0.65455578865E+03  0.74548846500E+03  0.77370686309E+02 0.  0.
        254    2    1    2    0    0  0.34041960122E+03  0.73743087765E+02 -0.74898076984E+03  0.12243882063E+04  0.90378688768E+03 0.  0.
         23    2    4    4    0    0  0.50694034530E+03 -0.60951777054E+02 -0.82942715499E+03  0.97815586028E+03  0.90198939821E+02 0.  0.
         23    2    4    4    0    0 -0.16652074408E+03  0.13469486482E+03  0.80446385149E+02  0.24623234606E+03  0.91032315938E+02 0.  0.
          1    1    3    3  502    0 -0.19214167041E+03 -0.10324983703E+02  0.40456138288E+03  0.44798988751E+03  0.00000000000E+00 0. -1.
         -2    1    3    3    0  502 -0.14827793082E+03 -0.63418104062E+02  0.24999440577E+03  0.29749857749E+03  0.00000000000E+00 0.  1.
         11    1    5    5    0    0  0.15417317334E+03  0.10613057784E+02 -0.19596926825E+03  0.24957154980E+03  0.00000000000E+00 0.  1.
        -11    1    5    5    0    0  0.35276717196E+03 -0.71564834838E+02 -0.63345788674E+03  0.72858431047E+03  0.00000000000E+00 0. -1.
          3    1    6    6  503    0 -0.28182190064E+02  0.78335348446E+02  0.25494350609E+02  0.87066782219E+02  0.00000000000E+00 0. -1.
         -3    1    6    6    0  503 -0.13833855401E+03  0.56359516373E+02  0.54952034541E+02  0.15916556384E+03  0.00000000000E+00 0.  1.
<mgrwt>
<rscale>  0 0.19676123E+04</rscale>
<asrwt>0</asrwt>
<pdfrwt beam="1">  1        1 0.15879244E+00 0.19676123E+04</pdfrwt>
<pdfrwt beam="2">  1       -2 0.14426551E+00 0.19676123E+04</pdfrwt>
<totfact> 0.38683796E+00</totfact>
</mgrwt>
</event>
<event>
12    4  0.4280696E-008  0.1458484E+04  0.7818608E-02  0.8912540E-01
          1   -1    0    0  501    0  0.00000000000E+00  0.00000000000E+00  0.82296387911E+03  0.82296387911E+03  0.00000000000E+00 0. -1.
         -2   -1    0    0    0  501 -0.00000000000E+00 -0.00000000000E+00 -0.64619306144E+03  0.64619306144E+03  0.00000000000E+00 0.  1.
        -24    2    1    2    0    0  0.15521318205E+03  0.10549638980E+03  0.45912303324E+03  0.50250617908E+03  0.80609430048E+02 0.  0.
        254    2    1    2    0    0 -0.15521318205E+03 -0.10549638980E+03 -0.28235221558E+03  0.96665076148E+03  0.90524598915E+03 0.  0.
         23    2    4    4    0    0 -0.50264580275E+03 -0.13703137537E+03 -0.36799599009E+02  0.53030656196E+03  0.91871858094E+02 0.  0.
         23    2    4    4    0    0  0.34743262070E+03  0.31534985569E+02 -0.24555261657E+03  0.43634419952E+03  0.91631281255E+02 0.  0.
          1    1    3    3  502    0  0.72112709817E+02  0.86720500586E+02  0.32082838850E+03  0.34007579009E+03  0.00000000000E+00 0. -1.
         -2    1    3    3    0  502  0.83100472233E+02  0.18775889217E+02  0.13829464474E+03  0.16243038899E+03  0.00000000000E+00 0.  1.
         11    1    5    5    0    0 -0.43315355153E+02  0.11245574511E+02 -0.14800428446E+02  0.47135290604E+02  0.00000000000E+00 0.  1.
        -11    1    5    5    0    0 -0.45933044760E+03 -0.14827694988E+03 -0.21999170564E+02  0.48317127136E+03  0.00000000000E+00 0. -1.
          2    1    6    6  503    0  0.25753651274E+03  0.53814188101E+02 -0.21184248049E+03  0.33778433767E+03  0.00000000000E+00 0. -1.
         -2    1    6    6    0  503  0.89896107967E+02 -0.22279202532E+02 -0.33710136075E+02  0.98559861847E+02  0.00000000000E+00 0.  1.
<mgrwt>
<rscale>  0 0.14584835E+04</rscale>
<asrwt>0</asrwt>
<pdfrwt beam="1">  1        1 0.12660983E+00 0.14584835E+04</pdfrwt>
<pdfrwt beam="2">  1       -2 0.99414317E-01 0.14584835E+04</pdfrwt>
<totfact> 0.15042297E+01</totfact>
</mgrwt>
</event>
<event>
12    4  0.4280696E-008  0.1694695E+04  0.7818608E-02  0.8764396E-01
         -2   -1    0    0    0  501 -0.00000000000E+00  0.00000000000E+00  0.56094024446E+03  0.56094024446E+03  0.00000000000E+00 0.  1.
          1   -1    0    0  501    0  0.00000000000E+00 -0.00000000000E+00 -0.12799895796E+04  0.12799895796E+04  0.00000000000E+00 0. -1.
        -24    2    1    2    0    0  0.27789498693E+02  0.54842806472E+03  0.16454095876E+02  0.55544194141E+03  0.81849951714E+02 0.  0.
        254    2    1    2    0    0 -0.27789498693E+02 -0.54842806472E+03 -0.73550343098E+03  0.12854878826E+04  0.89998233369E+03 0.  0.
         23    2    4    4    0    0 -0.55677651875E+02  0.12932003657E+03 -0.55201903440E+03  0.57692422196E+03  0.91065200607E+02 0.  0.
         23    2    4    4    0    0  0.27888153182E+02 -0.67774810128E+03 -0.18348439657E+03  0.70856366066E+03  0.90970871888E+02 0.  0.
          1    1    3    3  502    0  0.72214634094E+01  0.31214652045E+03  0.48974856931E+02  0.31604768054E+03  0.00000000000E+00 0. -1.
         -2    1    3    3    0  502  0.20568035283E+02  0.23628154426E+03 -0.32520761055E+02  0.23939426086E+03  0.00000000000E+00 0.  1.
         11    1    5    5    0    0 -0.58235835966E+02  0.13869472696E+03 -0.54372209117E+03  0.56414656988E+03  0.00000000000E+00 0.  1.
        -11    1    5    5    0    0  0.25581840909E+01 -0.93746903880E+01 -0.82969432333E+01  0.12777652082E+02  0.00000000000E+00 0. -1.
          3    1    6    6  503    0 -0.14242426064E+01 -0.70934488742E+02  0.84364494496E+01  0.71448609779E+02  0.00000000000E+00 0. -1.
         -3    1    6    6    0  503  0.29312395789E+02 -0.60681361254E+03 -0.19192084602E+03  0.63711505088E+03  0.00000000000E+00 0.  1.
<mgrwt>
<rscale>  0 0.16946949E+04</rscale>
<asrwt>0</asrwt>
<pdfrwt beam="1">  1        1 0.19692147E+00 0.16946949E+04</pdfrwt>
<pdfrwt beam="2">  1       -2 0.86298499E-01 0.16946949E+04</pdfrwt>
<totfact> 0.90882355E+00</totfact>
</mgrwt>
</event>
<event>
12    4  0.4280696E-008  0.1210593E+04  0.7818608E-02  0.9103635E-01
          1   -1    0    0  501    0  0.00000000000E+00  0.00000000000E+00  0.11250013763E+04  0.11250013763E+04  0.00000000000E+00 0. -1.
         -4   -1    0    0    0  501 -0.00000000000E+00 -0.00000000000E+00 -0.32567388447E+03  0.32567388447E+03  0.00000000000E+00 0.  1.
        -24    2    1    2    0    0  0.54605383848E+02  0.68922611257E+02 -0.10377635318E+03  0.15820224897E+03  0.80785802037E+02 0.  0.
        254    2    1    2    0    0 -0.54605383848E+02 -0.68922611257E+02  0.90310384498E+03  0.12924730118E+04  0.92041178668E+03 0.  0.
         23    2    4    4    0    0 -0.33702512621E+03  0.16039539481E+03  0.82373485161E+03  0.90885402983E+03  0.90354432151E+02 0.  0.
         23    2    4    4    0    0  0.28241974236E+03 -0.22931800607E+03  0.79368993365E+02  0.38361898194E+03  0.92284491763E+02 0.  0.
          1    1    3    3  502    0 -0.51025604018E+01  0.26946316768E+02  0.43295080140E+01  0.27764811357E+02  0.00000000000E+00 0. -1.
         -2    1    3    3    0  502  0.59707944249E+02  0.41976294489E+02 -0.10810586119E+03  0.13043743761E+03  0.00000000000E+00 0.  1.
         11    1    5    5    0    0 -0.18822026826E+03  0.44923841982E+02  0.36915786540E+03  0.41680037254E+03  0.00000000000E+00 0.  1.
        -11    1    5    5    0    0 -0.14880485795E+03  0.11547155283E+03  0.45457698621E+03  0.49205365729E+03  0.00000000000E+00 0. -1.
          1    1    6    6  503    0  0.90088676656E+02 -0.24371808704E+02  0.31584467430E+02  0.98526815151E+02  0.00000000000E+00 0. -1.
         -1    1    6    6    0  503  0.19233106570E+03 -0.20494619736E+03  0.47784525935E+02  0.28509216679E+03  0.00000000000E+00 0.  1.
<mgrwt>
<rscale>  0 0.12105925E+04</rscale>
<asrwt>0</asrwt>
<pdfrwt beam="1">  1        1 0.17307713E+00 0.12105925E+04</pdfrwt>
<pdfrwt beam="2">  1       -4 0.50103675E-01 0.12105925E+04</pdfrwt>
<totfact> 0.22556141E+01</totfact>
</mgrwt>
</event>
<event>
12    4  0.4280696E-008  0.1572223E+04  0.7818608E-02  0.8837797E-01
         -2   -1    0    0    0  501 -0.00000000000E+00  0.00000000000E+00  0.17295335510E+04  0.17295335510E+04  0.00000000000E+00 0.  1.
          1   -1    0    0  501    0  0.00000000000E+00 -0.00000000000E+00 -0.35730502220E+03  0.35730502220E+03  0.00000000000E+00 0. -1.
        -24    2    1    2    0    0 -0.28624474308E+03 -0.14809974531E+03  0.10087081223E+04  0.10621321065E+04  0.82237145436E+02 0.  0.
        254    2    1    2    0    0  0.28624474308E+03  0.14809974531E+03  0.36352040652E+03  0.10247064668E+04  0.90222318168E+03 0.  0.
         23    2    4    4    0    0  0.63357997703E+02 -0.28393168983E+03 -0.12544743549E+03  0.32945102859E+03  0.90385180228E+02 0.  0.
         23    2    4    4    0    0  0.22288674538E+03  0.43203143514E+03  0.48896784201E+03  0.69525543817E+03  0.89223940549E+02 0.  0.
          3    1    3    3  502    0 -0.13101705138E+03 -0.97666814408E+02  0.40435728130E+03  0.43612966573E+03  0.00000000000E+00 0. -1.
         -4    1    3    3    0  502 -0.15522769170E+03 -0.50432930901E+02  0.60435084102E+03  0.62600244075E+03  0.00000000000E+00 0.  1.
         11    1    5    5    0    0 -0.15979908580E+02 -0.13248214016E+03 -0.48820012789E+02  0.14209246493E+03  0.00000000000E+00 0.  1.
        -11    1    5    5    0    0  0.79337906283E+02 -0.15144954967E+03 -0.76627422705E+02  0.18735856366E+03  0.00000000000E+00 0. -1.
          3    1    6    6  503    0 -0.26245299274E+01 -0.29006418695E+01  0.16619519066E+01  0.42501723183E+01  0.00000000000E+00 0. -1.
         -3    1    6    6    0  503  0.22551127531E+03  0.43493207701E+03  0.48730589011E+03  0.69100526585E+03  0.00000000000E+00 0.  1.
<mgrwt>
<rscale>  0 0.15722227E+04</rscale>
<asrwt>0</asrwt>
<pdfrwt beam="1">  1        1 0.54970004E-01 0.15722227E+04</pdfrwt>
<pdfrwt beam="2">  1       -2 0.26608208E+00 0.15722227E+04</pdfrwt>
<totfact> 0.30032417E+00</totfact>
</mgrwt>
</event>
<event>
12    4  0.4280696E-008  0.1610587E+04  0.7818608E-02  0.8814070E-01
          1   -1    0    0  501    0  0.00000000000E+00  0.00000000000E+00  0.16044201611E+04  0.16044201611E+04  0.00000000000E+00 0. -1.
         -2   -1    0    0    0  501 -0.00000000000E+00 -0.00000000000E+00 -0.40419428704E+03  0.40419428704E+03  0.00000000000E+00 0.  1.
        -24    2    1    2    0    0 -0.44624048515E+03 -0.91889506856E+02  0.30509572406E+02  0.46434119035E+03  0.84306909501E+02 0.  0.
        254    2    1    2    0    0  0.44624048515E+03  0.91889506856E+02  0.11697163016E+04  0.15442732578E+04  0.89942727127E+03 0.  0.
         23    2    4    4    0    0 -0.19602446940E+03  0.24405075608E+03  0.51710138268E+03  0.61151785156E+03  0.92595241004E+02 0.  0.
         23    2    4    4    0    0  0.64226495456E+03 -0.15216124923E+03  0.65261491895E+03  0.93275540620E+03  0.92027701010E+02 0.  0.
          1    1    3    3  502    0 -0.17014765151E+03 -0.84930418101E+01 -0.20031114580E+02  0.17153308901E+03  0.00000000000E+00 0. -1.
         -2    1    3    3    0  502 -0.27609283364E+03 -0.83396465046E+02  0.50540686987E+02  0.29280810134E+03  0.00000000000E+00 0.  1.
         11    1    5    5    0    0 -0.11578938204E+03  0.13089079991E+03  0.20117854413E+03  0.26648149863E+03  0.00000000000E+00 0.  1.
        -11    1    5    5    0    0 -0.80235087368E+02  0.11315995617E+03  0.31592283855E+03  0.34503635293E+03  0.00000000000E+00 0. -1.
          1    1    6    6  503    0  0.94743806525E+02  0.55414239849E+01  0.11804357547E+03  0.15146412765E+03  0.00000000000E+00 0. -1.
         -1    1    6    6    0  503  0.54752114803E+03 -0.15770267321E+03  0.53457134347E+03  0.78129127855E+03  0.00000000000E+00 0.  1.
<mgrwt>
<rscale>  0 0.16105868E+04</rscale>
<asrwt>0</asrwt>
<pdfrwt beam="1">  1        1 0.24683387E+00 0.16105868E+04</pdfrwt>
<pdfrwt beam="2">  1       -2 0.62183738E-01 0.16105868E+04</pdfrwt>
<totfact> 0.11191486E+01</totfact>
</mgrwt>
</event>
<event>
12    4  0.4280696E-008  0.1154090E+04  0.7818608E-02  0.9154019E-01
         -2   -1    0    0    0  501 -0.00000000000E+00  0.00000000000E+00  0.37142599717E+03  0.37142599717E+03  0.00000000000E+00 0.  1.
          1   -1    0    0  501    0  0.00000000000E+00 -0.00000000000E+00 -0.89649319094E+03  0.89649319094E+03  0.00000000000E+00 0. -1.
        -24    2    1    2    0    0 -0.22566391662E+02  0.17332291805E+03  0.27607977265E+02  0.19581763735E+03  0.83858635419E+02 0.  0.
        254    2    1    2    0    0  0.22566391662E+02 -0.17332291805E+03 -0.55267517104E+03  0.10721015508E+04  0.90188791682E+03 0.  0.
         23    2    4    4    0    0 -0.13600687203E+03 -0.50963363048E+03 -0.30381044696E+03  0.61582561025E+03  0.93359991430E+02 0.  0.
         23    2    4    4    0    0  0.15857326370E+03  0.33631071242E+03 -0.24886472408E+03  0.45627594051E+03  0.89463443665E+02 0.  0.
          3    1    3    3  502    0 -0.11635726268E+01  0.84239876635E+02 -0.27838318276E+02  0.88728139174E+02  0.00000000000E+00 0. -1.
         -4    1    3    3    0  502 -0.21402819035E+02  0.89083041418E+02  0.55446295541E+02  0.10708949818E+03  0.00000000000E+00 0.  1.
         11    1    5    5    0    0 -0.23461014818E+02 -0.25209245182E+03 -0.16645568756E+03  0.30299920694E+03  0.00000000000E+00 0.  1.
        -11    1    5    5    0    0 -0.11254585722E+03 -0.25754117865E+03 -0.13735475941E+03  0.31282640331E+03  0.00000000000E+00 0. -1.
          1    1    6    6  503    0  0.10125518225E+03  0.26428403816E+03 -0.22397492569E+03  0.36092025725E+03  0.00000000000E+00 0. -1.
         -1    1    6    6    0  503  0.57318081450E+02  0.72026674268E+02 -0.24889798389E+02  0.95355683265E+02  0.00000000000E+00 0.  1.
<mgrwt>
<rscale>  0 0.11540899E+04</rscale>
<asrwt>0</asrwt>
<pdfrwt beam="1">  1        1 0.13792203E+00 0.11540899E+04</pdfrwt>
<pdfrwt beam="2">  1       -2 0.57142462E-01 0.11540899E+04</pdfrwt>
<totfact> 0.45757549E+01</totfact>
</mgrwt>
</event>
<event>
12    4  0.4280696E-008  0.1678167E+04  0.7818608E-02  0.8773915E-01
         -2   -1    0    0    0  501 -0.00000000000E+00  0.00000000000E+00  0.70485885836E+03  0.70485885836E+03  0.00000000000E+00 0.  1.
          1   -1    0    0  501    0  0.00000000000E+00 -0.00000000000E+00 -0.99886829687E+03  0.99886829687E+03  0.00000000000E+00 0. -1.
        -24    2    1    2    0    0 -0.67769645654E+02 -0.28005853493E+03 -0.63270912984E+03  0.69993827905E+03  0.81038531800E+02 0.  0.
        254    2    1    2    0    0  0.67769645654E+02  0.28005853493E+03  0.33869969133E+03  0.10037888762E+04  0.89991617341E+03 0.  0.
         23    2    4    4    0    0  0.47196934276E+03  0.93220537596E+02  0.15492856494E+03  0.51351090185E+03  0.90804498526E+02 0.  0.
         23    2    4    4    0    0 -0.40419969711E+03  0.18683799733E+03  0.18377112639E+03  0.49027797432E+03  0.91185705134E+02 0.  0.
          1    1    3    3  502    0 -0.64713760168E+02 -0.27196816997E+03 -0.63222513490E+03  0.69127648407E+03  0.00000000000E+00 0. -1.
         -2    1    3    3    0  502 -0.30558854861E+01 -0.80903649518E+01 -0.48399494624E+00  0.86617949794E+01  0.00000000000E+00 0.  1.
         11    1    5    5    0    0  0.39103124586E+03  0.90900527194E+02  0.94374696162E+02  0.41240141169E+03  0.00000000000E+00 0. -1.
        -11    1    5    5    0    0  0.80938096898E+02  0.23200104013E+01  0.60553868781E+02  0.10110949017E+03  0.00000000000E+00 0.  1.
          4    1    6    6  503    0 -0.15659755842E+03  0.66539642905E+02  0.11855902340E+03  0.20738023390E+03  0.00000000000E+00 0. -1.
         -4    1    6    6    0  503 -0.24760213869E+03  0.12029835443E+03  0.65212102983E+02  0.28289774042E+03  0.00000000000E+00 0.  1.
<mgrwt>
<rscale>  0 0.16781671E+04</rscale>
<asrwt>0</asrwt>
<pdfrwt beam="1">  1        1 0.15367204E+00 0.16781671E+04</pdfrwt>
<pdfrwt beam="2">  1       -2 0.10843983E+00 0.16781671E+04</pdfrwt>
<totfact> 0.86182499E+00</totfact>
</mgrwt>
</event>
<event>
12    4  0.4280696E-008  0.1665758E+04  0.7818608E-02  0.8781138E-01
         -2   -1    0    0    0  501 -0.00000000000E+00  0.00000000000E+00  0.21756373237E+03  0.21756373237E+03  0.00000000000E+00 0.  1.
          1   -1    0    0  501    0  0.00000000000E+00 -0.00000000000E+00 -0.31884336217E+04  0.31884336217E+04  0.00000000000E+00 0. -1.
        -24    2    1    2    0    0  0.32690737119E+03 -0.13622267035E+03 -0.20036927644E+04  0.20366711720E+04  0.88429199079E+02 0.  0.
        254    2    1    2    0    0 -0.32690737119E+03  0.13622267035E+03 -0.96717712490E+03  0.13693261821E+04  0.90232896263E+03 0.  0.
         23    2    4    4    0    0 -0.41183400999E+03  0.42898943836E+03 -0.82336528010E+03  0.10197815604E+04  0.91568861739E+02 0.  0.
         23    2    4    4    0    0  0.84926638806E+02 -0.29276676801E+03 -0.14381184480E+03  0.34954462170E+03  0.92599575743E+02 0.  0.
          3    1    3    3  502    0  0.24931405697E+03 -0.13974488484E+03 -0.14937557884E+04  0.15208525527E+04  0.00000000000E+00 0. -1.
         -4    1    3    3    0  502  0.77593314221E+02  0.35222144908E+01 -0.50993697606E+03  0.51581861925E+03  0.00000000000E+00 0.  1.
         11    1    5    5    0    0 -0.41418418553E+03  0.43072722350E+03 -0.82264886130E+03  0.10167721621E+04  0.00000000000E+00 0. -1.
        -11    1    5    5    0    0  0.23501755311E+01 -0.17377851464E+01 -0.71641879532E+00  0.30093983008E+01  0.00000000000E+00 0.  1.
          2    1    6    6  503    0  0.10180683659E+03 -0.26089187765E+03 -0.11258098496E+03  0.30183386486E+03  0.00000000000E+00 0. -1.
         -2    1    6    6    0  503 -0.16880197781E+02 -0.31874890355E+02 -0.31230859838E+02  0.47710756843E+02  0.00000000000E+00 0.  1.
<mgrwt>
<rscale>  0 0.16657581E+04</rscale>
<asrwt>0</asrwt>
<pdfrwt beam="1">  1        1 0.49052827E+00 0.16657581E+04</pdfrwt>
<pdfrwt beam="2">  1       -2 0.33471342E-01 0.16657581E+04</pdfrwt>
<totfact> 0.30496375E+00</totfact>
</mgrwt>
</event>
<event>
12    4  0.4280696E-008  0.1150898E+04  0.7818608E-02  0.9156956E-01
          1   -1    0    0  501    0  0.00000000000E+00  0.00000000000E+00  0.18976395949E+04  0.18976395949E+04  0.00000000000E+00 0. -1.
         -2   -1    0    0    0  501 -0.00000000000E+00 -0.00000000000E+00 -0.17450172313E+03  0.17450172313E+03  0.00000000000E+00 0.  1.
        -24    2    1    2    0    0 -0.19674687730E+03 -0.68456835970E+02  0.50141618573E+03  0.54882740745E+03  0.79985372043E+02 0.  0.
        254    2    1    2    0    0  0.19674687730E+03  0.68456835970E+02  0.12217216860E+04  0.15233139106E+04  0.88571198472E+03 0.  0.
         23    2    4    4    0    0  0.58718054450E+02 -0.17423166522E+03 -0.55641398505E+02  0.21260590442E+03  0.91108848544E+02 0.  0.
         23    2    4    4    0    0  0.13802882285E+03  0.24268850119E+03  0.12773630845E+04  0.13107080061E+04  0.91374849410E+02 0.  0.
          3    1    3    3  502    0 -0.67875444495E+02 -0.10126458911E+02  0.26110522718E+03  0.26997325941E+03  0.00000000000E+00 0. -1.
         -4    1    3    3    0  502 -0.12887143281E+03 -0.58330377058E+02  0.24031095854E+03  0.27885414804E+03  0.00000000000E+00 0.  1.
         11    1    5    5    0    0 -0.73071207513E+01 -0.74782176749E+02  0.10925737988E+02  0.75928517196E+02  0.00000000000E+00 0. -1.
        -11    1    5    5    0    0  0.66025175202E+02 -0.99449488468E+02 -0.66567136493E+02  0.13667738722E+03  0.00000000000E+00 0.  1.
          3    1    6    6  503    0  0.95641407301E+02  0.10790761325E+03  0.49026970425E+03  0.51103396628E+03  0.00000000000E+00 0. -1.
         -3    1    6    6    0  503  0.42387415553E+02  0.13478088793E+03  0.78709338028E+03  0.79967403986E+03  0.00000000000E+00 0.  1.
<mgrwt>
<rscale>  0 0.11508977E+04</rscale>
<asrwt>0</asrwt>
<pdfrwt beam="1">  1        1 0.29194454E+00 0.11508977E+04</pdfrwt>
<pdfrwt beam="2">  1       -2 0.26846420E-01 0.11508977E+04</pdfrwt>
<totfact> 0.38461589E+01</totfact>
</mgrwt>
</event>
<event>
12    4  0.4280696E-008  0.1160686E+04  0.7818608E-02  0.9147981E-01
         -2   -1    0    0    0  501 -0.00000000000E+00  0.00000000000E+00  0.95867549760E+03  0.95867549760E+03  0.00000000000E+00 0.  1.
          1   -1    0    0  501    0  0.00000000000E+00 -0.00000000000E+00 -0.35131622839E+03  0.35131622839E+03  0.00000000000E+00 0. -1.
        -24    2    1    2    0    0 -0.19563536779E+03  0.24606126718E+02  0.28033510854E+03  0.35199143882E+03  0.80196890963E+02 0.  0.
        254    2    1    2    0    0  0.19563536779E+03 -0.24606126718E+02  0.32702416067E+03  0.95800028716E+03  0.87860178121E+03 0.  0.
         23    2    4    4    0    0  0.37650524239E+03  0.30643120139E+03  0.87227621110E+02  0.50166851819E+03  0.91686234112E+02 0.  0.
         23    2    4    4    0    0 -0.18086987460E+03 -0.33103732811E+03  0.23979653956E+03  0.45633176897E+03  0.91851395462E+02 0.  0.
          1    1    3    3  502    0 -0.10068012108E+02 -0.51422463493E+01 -0.32693365437E+01  0.11768437737E+02  0.00000000000E+00 0. -1.
         -2    1    3    3    0  502 -0.18556735569E+03  0.29748373068E+02  0.28360444509E+03  0.34022300109E+03  0.00000000000E+00 0.  1.
         11    1    5    5    0    0  0.21629530130E+03  0.14324433604E+03  0.84915281771E+02  0.27297106486E+03  0.00000000000E+00 0. -1.
        -11    1    5    5    0    0  0.16020994109E+03  0.16318686535E+03  0.23123393385E+01  0.22869745333E+03  0.00000000000E+00 0.  1.
          2    1    6    6  503    0  0.68142082928E+01 -0.37241867900E+02  0.11354090064E+02  0.39526010683E+02  0.00000000000E+00 0.  1.
         -2    1    6    6    0  503 -0.18768408289E+03 -0.29379546021E+03  0.22844244949E+03  0.41680575829E+03  0.00000000000E+00 0. -1.
<mgrwt>
<rscale>  0 0.11606865E+04</rscale>
<asrwt>0</asrwt>
<pdfrwt beam="1">  1        1 0.54048651E-01 0.11606865E+04</pdfrwt>
<pdfrwt beam="2">  1       -2 0.14748854E+00 0.11606865E+04</pdfrwt>
<totfact> 0.19330251E+01</totfact>
</mgrwt>
</event>
<event>
12    4  0.4280696E-008  0.1314866E+04  0.7818608E-02  0.9017859E-01
         -4   -1    0    0    0  501 -0.00000000000E+00  0.00000000000E+00  0.36862603555E+03  0.36862603555E+03  0.00000000000E+00 0.  1.
          3   -1    0    0  501    0  0.00000000000E+00 -0.00000000000E+00 -0.11725112319E+04  0.11725112319E+04  0.00000000000E+00 0. -1.
        -24    2    1    2    0    0 -0.21067924575E+03 -0.20752610074E+03 -0.41609159121E+03  0.51643043058E+03  0.78200705091E+02 0.  0.
        254    2    1    2    0    0  0.21067924575E+03  0.20752610074E+03 -0.38779360518E+03  0.10247068369E+04  0.90121439974E+03 0.  0.
         23    2    4    4    0    0 -0.18011628893E+03 -0.18585542133E+03 -0.36990810744E+03  0.46269027023E+03  0.10132207579E+03 0.  0.
         23    2    4    4    0    0  0.39079553467E+03  0.39338152207E+03 -0.17885497742E+02  0.56201656668E+03  0.89847417100E+02 0.  0.
          3    1    3    3  502    0 -0.21647284846E+03 -0.19781090164E+03 -0.38959752473E+03  0.48762268015E+03  0.00000000000E+00 0. -1.
         -4    1    3    3    0  502  0.57936027072E+01 -0.97151990954E+01 -0.26494066484E+02  0.28807750427E+02  0.00000000000E+00 0.  1.
         11    1    5    5    0    0 -0.22052200828E+02 -0.57919747376E+02 -0.35825236262E+02  0.71585223690E+02  0.00000000000E+00 0.  1.
        -11    1    5    5    0    0 -0.15806408810E+03 -0.12793567396E+03 -0.33408287117E+03  0.39110504654E+03  0.00000000000E+00 0. -1.
          1    1    6    6  503    0  0.18512556161E+03  0.12651838615E+03  0.53783726714E+01  0.22429289442E+03  0.00000000000E+00 0. -1.
         -1    1    6    6    0  503  0.20566997307E+03  0.26686313593E+03 -0.23263870413E+02  0.33772367226E+03  0.00000000000E+00 0.  1.
<mgrwt>
<rscale>  0 0.13148660E+04</rscale>
<asrwt>0</asrwt>
<pdfrwt beam="1">  1        3 0.18038634E+00 0.13148660E+04</pdfrwt>
<pdfrwt beam="2">  1       -4 0.56711698E-01 0.13148660E+04</pdfrwt>
<totfact> 0.13104586E+00</totfact>
</mgrwt>
</event>
<event>
12    4  0.4280696E-008  0.2691200E+04  0.7818608E-02  0.8337866E-01
          1   -1    0    0  501    0  0.00000000000E+00  0.00000000000E+00  0.38102733018E+04  0.38102733018E+04  0.00000000000E+00 0. -1.
         -2   -1    0    0    0  501 -0.00000000000E+00 -0.00000000000E+00 -0.47519928386E+03  0.47519928386E+03  0.00000000000E+00 0.  1.
        -24    2    1    2    0    0  0.31302222800E+03  0.56617180386E+03 -0.11509834681E+03  0.66191169372E+03  0.79661999380E+02 0.  0.
        254    2    1    2    0    0 -0.31302222800E+03 -0.56617180386E+03  0.34501723648E+04  0.36235608920E+04  0.89887193996E+03 0.  0.
         23    2    4    4    0    0 -0.12859760768E+03 -0.66544156386E+03  0.32559470539E+04  0.33269214014E+04  0.88684685446E+02 0.  0.
         23    2    4    4    0    0 -0.18442462032E+03  0.99269760009E+02  0.19422531083E+03  0.29663949056E+03  0.80028683359E+02 0.  0.
          1    1    3    3  502    0  0.76940532505E+02  0.19341559948E+03 -0.63782930505E+02  0.21771013272E+03  0.00000000000E+00 0. -1.
         -2    1    3    3    0  502  0.23608169550E+03  0.37275620437E+03 -0.51315416305E+02  0.44420156100E+03  0.00000000000E+00 0.  1.
         11    1    5    5    0    0 -0.11538333338E+03 -0.58220591045E+03  0.29739989132E+04  0.30326467931E+04  0.00000000000E+00 0.  1.
        -11    1    5    5    0    0 -0.13214274298E+02 -0.83235653411E+02  0.28194814073E+03  0.29427460833E+03  0.00000000000E+00 0. -1.
          1    1    6    6  503    0 -0.23056125088E+02 -0.13596604955E+02  0.16988443587E+02  0.31702677898E+02  0.00000000000E+00 0. -1.
         -1    1    6    6    0  503 -0.16136849523E+03  0.11286636496E+03  0.17723686724E+03  0.26493681266E+03  0.00000000000E+00 0.  1.
<mgrwt>
<rscale>  0 0.26911998E+04</rscale>
<asrwt>0</asrwt>
<pdfrwt beam="1">  1        1 0.58619587E+00 0.26911998E+04</pdfrwt>
<pdfrwt beam="2">  1       -2 0.73107585E-01 0.26911998E+04</pdfrwt>
<totfact> 0.18157917E-01</totfact>
</mgrwt>
</event>
<event>
12    4  0.4280696E-008  0.2380280E+04  0.7818608E-02  0.8446924E-01
          1   -1    0    0  501    0  0.00000000000E+00  0.00000000000E+00  0.26312330420E+04  0.26312330420E+04  0.00000000000E+00 0. -1.
         -2   -1    0    0    0  501 -0.00000000000E+00 -0.00000000000E+00 -0.53831516862E+03  0.53831516862E+03  0.00000000000E+00 0.  1.
        -24    2    1    2    0    0  0.93237551824E+03  0.99140183038E+01  0.34454067693E+03  0.99736339806E+03  0.81259306909E+02 0.  0.
        254    2    1    2    0    0 -0.93237551824E+03 -0.99140183038E+01  0.17483771965E+04  0.21721848126E+04  0.89002339526E+03 0.  0.
         23    2    4    4    0    0 -0.31184714676E+03 -0.39125397152E+03  0.44050994374E+03  0.67238015103E+03  0.87850690375E+02 0.  0.
         23    2    4    4    0    0 -0.62052837148E+03  0.38133995321E+03  0.13078672527E+04  0.14998046615E+04  0.91769560925E+02 0.  0.
          3    1    3    3  502    0  0.23498704883E+03  0.98816098036E+01  0.12432225030E+03  0.26603116594E+03  0.00000000000E+00 0. -1.
         -4    1    3    3    0  502  0.69738846941E+03  0.32408500183E-01  0.22021842664E+03  0.73133223212E+03  0.00000000000E+00 0.  1.
         11    1    5    5    0    0 -0.11617681758E+03 -0.11180435678E+03  0.18967326870E+03  0.24894420258E+03  0.00000000000E+00 0.  1.
        -11    1    5    5    0    0 -0.19567032918E+03 -0.27944961474E+03  0.25083667503E+03  0.42343594845E+03  0.00000000000E+00 0. -1.
          4    1    6    6  503    0 -0.30085940123E+03  0.13666792528E+03  0.63049463537E+03  0.71184126484E+03  0.00000000000E+00 0. -1.
         -4    1    6    6    0  503 -0.31966897025E+03  0.24467202793E+03  0.67737261736E+03  0.78796339670E+03  0.00000000000E+00 0.  1.
<mgrwt>
<rscale>  0 0.23802795E+04</rscale>
<asrwt>0</asrwt>
<pdfrwt beam="1">  1        1 0.40480507E+00 0.23802795E+04</pdfrwt>
<pdfrwt beam="2">  1       -2 0.82817720E-01 0.23802795E+04</pdfrwt>
<totfact> 0.11065224E+00</totfact>
</mgrwt>
</event>
<event>
12    4  0.4280696E-008  0.2075172E+04  0.7818608E-02  0.8572260E-01
          1   -1    0    0  501    0  0.00000000000E+00  0.00000000000E+00  0.62605329133E+03  0.62605329133E+03  0.00000000000E+00 0. -1.
         -2   -1    0    0    0  501 -0.00000000000E+00 -0.00000000000E+00 -0.17196379164E+04  0.17196379164E+04  0.00000000000E+00 0.  1.
        -24    2    1    2    0    0 -0.61086375684E+03 -0.35026844569E+03 -0.97484548259E+03  0.12054401072E+04  0.83184275841E+02 0.  0.
        254    2    1    2    0    0  0.61086375684E+03  0.35026844569E+03 -0.11873914248E+03  0.11402511005E+04  0.88894942192E+03 0.  0.
         23    2    4    4    0    0 -0.14262263070E+03 -0.13828812252E+03  0.42936735175E+02  0.22333696467E+03  0.92579786886E+02 0.  0.
         23    2    4    4    0    0  0.75348638754E+03  0.48855656821E+03 -0.16167587765E+03  0.91691413582E+03  0.90350354172E+02 0.  0.
          1    1    3    3  502    0 -0.18037088678E+03 -0.13856356730E+03 -0.35539194471E+03  0.42194425384E+03  0.00000000000E+00 0. -1.
         -2    1    3    3    0  502 -0.43049287006E+03 -0.21170487839E+03 -0.61945353787E+03  0.78349585340E+03  0.00000000000E+00 0.  1.
         11    1    5    5    0    0 -0.14888139665E+03 -0.12332247556E+03  0.18772968163E+02  0.19423317837E+03  0.00000000000E+00 0.  1.
        -11    1    5    5    0    0  0.62587659540E+01 -0.14965646967E+02  0.24163767012E+02  0.29103786293E+02  0.00000000000E+00 0. -1.
          1    1    6    6  503    0  0.25483210163E+03  0.13433279849E+03 -0.18170198182E+02  0.28864313065E+03  0.00000000000E+00 0. -1.
         -1    1    6    6    0  503  0.49865428591E+03  0.35422376972E+03 -0.14350567947E+03  0.62827100517E+03  0.00000000000E+00 0.  1.
<mgrwt>
<rscale>  0 0.20751723E+04</rscale>
<asrwt>0</asrwt>
<pdfrwt beam="1">  1        1 0.96315893E-01 0.20751723E+04</pdfrwt>
<pdfrwt beam="2">  1       -2 0.26455967E+00 0.20751723E+04</pdfrwt>
<totfact> 0.13597458E+00</totfact>
</mgrwt>
</event>
<event>
12    4  0.4280696E-008  0.5235381E+04  0.7818608E-02  0.7793189E-01
          1   -1    0    0  501    0  0.00000000000E+00  0.00000000000E+00  0.28318242622E+04  0.28318242622E+04  0.00000000000E+00 0. -1.
         -2   -1    0    0    0  501 -0.00000000000E+00 -0.00000000000E+00 -0.24197486420E+04  0.24197486420E+04  0.00000000000E+00 0.  1.
        -24    2    1    2    0    0  0.20352188451E+04 -0.17875866728E+03 -0.13351632274E+04  0.24418796259E+04  0.77748668432E+02 0.  0.
        254    2    1    2    0    0 -0.20352188451E+04  0.17875866728E+03  0.17472388475E+04  0.28096932783E+04  0.81698367132E+03 0.  0.
         23    2    4    4    0    0 -0.53767686863E+03  0.74732317427E+02  0.67747938025E+02  0.55539149586E+03  0.95857165856E+02 0.  0.
         23    2    4    4    0    0 -0.14975419764E+04  0.10402634986E+03  0.16794909095E+04  0.22543017824E+04  0.87939515515E+02 0.  0.
          1    1    3    3  502    0  0.96413267173E+02 -0.16616962618E+02 -0.81921443002E+02  0.12760393551E+03  0.00000000000E+00 0. -1.
         -2    1    3    3    0  502  0.19388055779E+04 -0.16214170467E+03 -0.12532417844E+04  0.23142756904E+04  0.00000000000E+00 0.  1.
         11    1    5    5    0    0 -0.43530009426E+03  0.85562205179E+02  0.82978226953E+02  0.45132299871E+03  0.00000000000E+00 0.  1.
        -11    1    5    5    0    0 -0.10237677437E+03 -0.10829887752E+02 -0.15230288929E+02  0.10406849715E+03  0.00000000000E+00 0. -1.
          2    1    6    6  503    0 -0.15132719687E+03  0.31231477775E+02  0.14828219412E+03  0.21415633264E+03  0.00000000000E+00 0. -1.
         -2    1    6    6    0  503 -0.13462147796E+04  0.72794872081E+02  0.15312087154E+04  0.20401454498E+04  0.00000000000E+00 0.  1.
<mgrwt>
<rscale>  0 0.52353808E+04</rscale>
<asrwt>0</asrwt>
<pdfrwt beam="1">  1        1 0.43566527E+00 0.52353808E+04</pdfrwt>
<pdfrwt beam="2">  1       -2 0.37226902E+00 0.52353808E+04</pdfrwt>
<totfact> 0.55346290E-03</totfact>
</mgrwt>
</event>
<event>
12    4  0.4280696E-008  0.1766797E+04  0.7818608E-02  0.8724158E-01
          1   -1    0    0  501    0  0.00000000000E+00  0.00000000000E+00  0.26132586109E+04  0.26132586109E+04  0.00000000000E+00 0. -1.
         -2   -1    0    0    0  501 -0.00000000000E+00 -0.00000000000E+00 -0.29862826441E+03  0.29862826441E+03  0.00000000000E+00 0.  1.
        -24    2    1    2    0    0 -0.44143357339E+03 -0.25702432520E+03  0.14785597263E+04  0.15666481802E+04  0.85571916496E+02 0.  0.
        254    2    1    2    0    0  0.44143357339E+03  0.25702432520E+03  0.83607062018E+03  0.13452386951E+04  0.92180690024E+03 0.  0.
         23    2    4    4    0    0  0.26794399222E+03  0.59659732192E+03  0.48442774540E+03  0.81896014511E+03  0.91121519273E+02 0.  0.
         23    2    4    4    0    0  0.17348958117E+03 -0.33957299672E+03  0.35164287479E+03  0.52627854997E+03  0.88926632095E+02 0.  0.
          1    1    3    3  502    0 -0.27360884340E+03 -0.18750983477E+03  0.85207959054E+03  0.91436391329E+03  0.00000000000E+00 0. -1.
         -2    1    3    3    0  502 -0.16782472999E+03 -0.69514490431E+02  0.62648013578E+03  0.65228426694E+03  0.00000000000E+00 0.  1.
         11    1    5    5    0    0  0.32424979210E+02  0.26127830590E+02  0.45131498326E+02  0.61407613121E+02  0.00000000000E+00 0. -1.
        -11    1    5    5    0    0  0.23551901301E+03  0.57046949133E+03  0.43929624707E+03  0.75755253199E+03  0.00000000000E+00 0.  1.
          2    1    6    6  503    0  0.16747672333E+03 -0.33919240754E+03  0.35550812088E+03  0.51912037738E+03  0.00000000000E+00 0.  1.
         -2    1    6    6    0  503  0.60128578351E+01 -0.38058917215E+00 -0.38652460966E+01  0.71581725916E+01  0.00000000000E+00 0. -1.
<mgrwt>
<rscale>  0 0.17667970E+04</rscale>
<asrwt>0</asrwt>
<pdfrwt beam="1">  1        1 0.40203977E+00 0.17667970E+04</pdfrwt>
<pdfrwt beam="2">  1       -2 0.45942812E-01 0.17667970E+04</pdfrwt>
<totfact> 0.42235865E+00</totfact>
</mgrwt>
</event>
<event>
12    4  0.4280696E-008  0.1300711E+04  0.7818608E-02  0.9029001E-01
         -2   -1    0    0    0  501 -0.00000000000E+00  0.00000000000E+00  0.13483314252E+03  0.13483314252E+03  0.00000000000E+00 0.  1.
          1   -1    0    0  501    0  0.00000000000E+00 -0.00000000000E+00 -0.31369333732E+04  0.31369333732E+04  0.00000000000E+00 0. -1.
        -24    2    1    2    0    0 -0.14337181197E+03  0.16652698164E+03 -0.15770040269E+03  0.28126619718E+03  0.77165695665E+02 0.  0.
        254    2    1    2    0    0  0.14337181197E+03 -0.16652698164E+03 -0.28443998280E+04  0.29905003186E+04  0.89676923545E+03 0.  0.
         23    2    4    4    0    0 -0.14558204327E+03 -0.38693773297E+03 -0.73445502496E+03  0.84769305207E+03  0.90798603007E+02 0.  0.
         23    2    4    4    0    0  0.28895385524E+03  0.22041075134E+03 -0.21099448031E+04  0.21428072665E+04  0.87639486897E+02 0.  0.
          3    1    3    3  502    0 -0.13417074732E+02 -0.27874509844E+01  0.30822522799E+01  0.14045926686E+02  0.00000000000E+00 0. -1.
         -4    1    3    3    0  502 -0.12995473724E+03  0.16931443262E+03 -0.16078265497E+03  0.26722027049E+03  0.00000000000E+00 0.  1.
         11    1    5    5    0    0 -0.15728760403E+03 -0.37271543739E+03 -0.70860312875E+03  0.81595010983E+03  0.00000000000E+00 0.  1.
        -11    1    5    5    0    0  0.11705560758E+02 -0.14222295585E+02 -0.25851896209E+02  0.31742942239E+02  0.00000000000E+00 0. -1.
          2    1    6    6  503    0  0.30338217521E+02 -0.22027811725E+01 -0.24734334006E+03  0.24920671652E+03  0.00000000000E+00 0. -1.
         -2    1    6    6    0  503  0.25861563772E+03  0.22261353251E+03 -0.18626014630E+04  0.18936005500E+04  0.00000000000E+00 0.  1.
<mgrwt>
<rscale>  0 0.13007115E+04</rscale>
<asrwt>0</asrwt>
<pdfrwt beam="1">  1        1 0.48260511E+00 0.13007115E+04</pdfrwt>
<pdfrwt beam="2">  1       -2 0.20743561E-01 0.13007115E+04</pdfrwt>
<totfact> 0.82905115E+00</totfact>
</mgrwt>
</event>
<event>
12    4  0.4280696E-008  0.1058976E+04  0.7818608E-02  0.9246126E-01
         -2   -1    0    0    0  501 -0.00000000000E+00  0.00000000000E+00  0.56384223419E+03  0.56384223419E+03  0.00000000000E+00 0.  1.
          1   -1    0    0  501    0  0.00000000000E+00 -0.00000000000E+00 -0.49722656760E+03  0.49722656760E+03  0.00000000000E+00 0. -1.
        -24    2    1    2    0    0  0.50333338537E+02  0.31150897748E+02  0.10405718132E+03  0.14465499750E+03  0.81199432995E+02 0.  0.
        254    2    1    2    0    0 -0.50333338537E+02 -0.31150897748E+02 -0.37441514724E+02  0.91641380430E+03  0.91373331464E+03 0.  0.
         23    2    4    4    0    0  0.37702627482E+03 -0.19760966068E+03  0.51140288477E+02  0.43837496985E+03  0.91426993717E+02 0.  0.
         23    2    4    4    0    0 -0.42735961336E+03  0.16645876294E+03 -0.88581803201E+02  0.47803883445E+03  0.10163479963E+03 0.  0.
          1    1    3    3  502    0  0.43668103169E+02  0.45367762268E+01  0.78337166534E+01  0.44596554682E+02  0.00000000000E+00 0. -1.
         -2    1    3    3    0  502  0.66652353681E+01  0.26614121521E+02  0.96223464662E+02  0.10005844281E+03  0.00000000000E+00 0.  1.
         11    1    5    5    0    0  0.10418937691E+03 -0.10317799477E+03  0.19757064486E+02  0.14795765092E+03  0.00000000000E+00 0. -1.
        -11    1    5    5    0    0  0.27283689791E+03 -0.94431665911E+02  0.31383223990E+02  0.29041731893E+03  0.00000000000E+00 0.  1.
          4    1    6    6  503    0 -0.51662153296E+02  0.24255633795E+02 -0.47464703335E+02  0.74230801670E+02  0.00000000000E+00 0. -1.
         -4    1    6    6    0  503 -0.37569746007E+03  0.14220312914E+03 -0.41117099866E+02  0.40380803278E+03  0.00000000000E+00 0.  1.
<mgrwt>
<rscale>  0 0.10589756E+04</rscale>
<asrwt>0</asrwt>
<pdfrwt beam="1">  1        1 0.76496395E-01 0.10589756E+04</pdfrwt>
<pdfrwt beam="2">  1       -2 0.86744959E-01 0.10589756E+04</pdfrwt>
<totfact> 0.44908007E+01</totfact>
</mgrwt>
</event>
<event>
12    4  0.4280696E-008  0.1995147E+04  0.7818608E-02  0.8608893E-01
         -2   -1    0    0    0  501 -0.00000000000E+00  0.00000000000E+00  0.13744206962E+04  0.13744206962E+04  0.00000000000E+00 0.  1.
          1   -1    0    0  501    0  0.00000000000E+00 -0.00000000000E+00 -0.72405270673E+03  0.72405270673E+03  0.00000000000E+00 0. -1.
        -24    2    1    2    0    0 -0.11661477333E+01  0.14526550653E+03 -0.55482131300E+03  0.58017118932E+03  0.87569927910E+02 0.  0.
        254    2    1    2    0    0  0.11661477333E+01 -0.14526550653E+03  0.12051893025E+04  0.15183022136E+04  0.91195226286E+03 0.  0.
         23    2    4    4    0    0 -0.33692466576E+03  0.12874350590E+03  0.91202833039E+03  0.98505391791E+03  0.91882670040E+02 0.  0.
         23    2    4    4    0    0  0.33809081349E+03 -0.27400901243E+03  0.29316097207E+03  0.53324829568E+03  0.94995011639E+02 0.  0.
          1    1    3    3  502    0 -0.22887927430E+02  0.14423347449E+03 -0.50746574305E+03  0.52806120171E+03  0.00000000000E+00 0. -1.
         -2    1    3    3    0  502  0.21721779696E+02  0.10320320330E+01 -0.47355569953E+02  0.52109987611E+02  0.00000000000E+00 0.  1.
         11    1    5    5    0    0 -0.32742728767E+03  0.14065445285E+03  0.86199274670E+03  0.93275066292E+03  0.00000000000E+00 0. -1.
        -11    1    5    5    0    0 -0.94973780872E+01 -0.11910946941E+02  0.50035583689E+02  0.52303254991E+02  0.00000000000E+00 0.  1.
          2    1    6    6  503    0  0.10586404988E+03 -0.49654759123E+02  0.42276515108E+02  0.12433863395E+03  0.00000000000E+00 0.  1.
         -2    1    6    6    0  503  0.23222676361E+03 -0.22435425331E+03  0.25088445696E+03  0.40890966173E+03  0.00000000000E+00 0. -1.
<mgrwt>
<rscale>  0 0.19951471E+04</rscale>
<asrwt>0</asrwt>
<pdfrwt beam="1">  1        1 0.11139272E+00 0.19951471E+04</pdfrwt>
<pdfrwt beam="2">  1       -2 0.21144934E+00 0.19951471E+04</pdfrwt>
<totfact> 0.23557298E+00</totfact>
</mgrwt>
</event>
<event>
12    4  0.4280696E-008  0.1689112E+04  0.7818608E-02  0.8767599E-01
          1   -1    0    0  501    0  0.00000000000E+00  0.00000000000E+00  0.19248661368E+04  0.19248661368E+04  0.00000000000E+00 0. -1.
         -2   -1    0    0    0  501 -0.00000000000E+00 -0.00000000000E+00 -0.37055807555E+03  0.37055807555E+03  0.00000000000E+00 0.  1.
        -24    2    1    2    0    0  0.15345467319E+03  0.34306872589E+03  0.11987237793E+04  0.12587619232E+04  0.79362413722E+02 0.  0.
        254    2    1    2    0    0 -0.15345467319E+03 -0.34306872589E+03  0.35558428194E+03  0.10366622892E+04  0.89832290012E+03 0.  0.
         23    2    4    4    0    0 -0.32498392819E+03 -0.53624786647E+03  0.41294224487E+03  0.75617926587E+03  0.90052521684E+02 0.  0.
         23    2    4    4    0    0  0.17152925500E+03  0.19317914058E+03 -0.57357962925E+02  0.28048302333E+03  0.92953347393E+02 0.  0.
          1    1    3    3  502    0  0.15914349154E+03  0.29583587696E+03  0.10720803801E+04  0.11234775736E+04  0.00000000000E+00 0. -1.
         -2    1    3    3    0  502 -0.56888183458E+01  0.47232848930E+02  0.12664339926E+03  0.13528434960E+03  0.00000000000E+00 0.  1.
         11    1    5    5    0    0 -0.67417501388E+02 -0.10322436637E+03  0.12635856569E+03  0.17654142978E+03  0.00000000000E+00 0. -1.
        -11    1    5    5    0    0 -0.25756642680E+03 -0.43302350010E+03  0.28658367917E+03  0.57963783608E+03  0.00000000000E+00 0.  1.
          4    1    6    6  503    0  0.47016506786E+02  0.63986009330E+02 -0.62395037027E+02  0.10098466193E+03  0.00000000000E+00 0. -1.
         -4    1    6    6    0  503  0.12451274821E+03  0.12919313125E+03  0.50370741020E+01  0.17949836140E+03  0.00000000000E+00 0.  1.
<mgrwt>
<rscale>  0 0.16891118E+04</rscale>
<asrwt>0</asrwt>
<pdfrwt beam="1">  1        1 0.29613325E+00 0.16891118E+04</pdfrwt>
<pdfrwt beam="2">  1       -2 0.57008936E-01 0.16891118E+04</pdfrwt>
<totfact> 0.80849819E+00</totfact>
</mgrwt>
</event>
<event>
12    4  0.4280696E-008  0.1547864E+04  0.7818608E-02  0.8853233E-01
          1   -1    0    0  501    0  0.00000000000E+00  0.00000000000E+00  0.69392404399E+03  0.69392404399E+03  0.00000000000E+00 0. -1.
         -2   -1    0    0    0  501 -0.00000000000E+00 -0.00000000000E+00 -0.86316510652E+03  0.86316510652E+03  0.00000000000E+00 0.  1.
        -24    2    1    2    0    0 -0.42676505784E+03  0.18113877754E+03 -0.27988453732E+03  0.54748745299E+03  0.80420679054E+02 0.  0.
        254    2    1    2    0    0  0.42676505784E+03 -0.18113877754E+03  0.11064347478E+03  0.10096016975E+04  0.89000783019E+03 0.  0.
         23    2    4    4    0    0  0.57010665159E+01 -0.45570815185E+03 -0.64910060848E+02  0.46901846707E+03  0.89791896215E+02 0.  0.
         23    2    4    4    0    0  0.42106399133E+03  0.27456937431E+03  0.17555353563E+03  0.54058323046E+03  0.93423546697E+02 0.  0.
          1    1    3    3  502    0 -0.12567981119E+03  0.64833756342E+02 -0.45364429253E+02  0.14851519230E+03  0.00000000000E+00 0. -1.
         -2    1    3    3    0  502 -0.30108524665E+03  0.11630502120E+03 -0.23452010807E+03  0.39897226068E+03  0.00000000000E+00 0.  1.
         11    1    5    5    0    0 -0.11177573745E+02 -0.40877235716E+03 -0.80473669832E+02  0.41676826855E+03  0.00000000000E+00 0. -1.
        -11    1    5    5    0    0  0.16878640260E+02 -0.46935794688E+02  0.15563608985E+02  0.52250198513E+02  0.00000000000E+00 0.  1.
          1    1    6    6  503    0  0.24378957470E+03  0.20809792926E+03  0.90719394780E+02  0.33311876784E+03  0.00000000000E+00 0. -1.
         -1    1    6    6    0  503  0.17727441663E+03  0.66471445054E+02  0.84834140852E+02  0.20746446262E+03  0.00000000000E+00 0.  1.
<mgrwt>
<rscale>  0 0.15478644E+04</rscale>
<asrwt>0</asrwt>
<pdfrwt beam="1">  1        1 0.10675755E+00 0.15478644E+04</pdfrwt>
<pdfrwt beam="2">  1       -2 0.13279463E+00 0.15478644E+04</pdfrwt>
<totfact> 0.95804411E+00</totfact>
</mgrwt>
</event>
<event>
12    4  0.4280696E-008  0.2151641E+04  0.7818608E-02  0.8538830E-01
          1   -1    0    0  501    0  0.00000000000E+00  0.00000000000E+00  0.13930166561E+04  0.13930166561E+04  0.00000000000E+00 0. -1.
         -2   -1    0    0    0  501 -0.00000000000E+00 -0.00000000000E+00 -0.83085160052E+03  0.83085160052E+03  0.00000000000E+00 0.  1.
        -24    2    1    2    0    0  0.23500863546E+03  0.43894158715E+03  0.99004010191E+03  0.11112468878E+04  0.82410355132E+02 0.  0.
        254    2    1    2    0    0 -0.23500863546E+03 -0.43894158715E+03 -0.42787504637E+03  0.11126213687E+04  0.89830422420E+03 0.  0.
         23    2    4    4    0    0 -0.74184151929E+02 -0.58329364034E+03 -0.58173722065E+03  0.83193814958E+03  0.89264391418E+02 0.  0.
         23    2    4    4    0    0 -0.16082448353E+03  0.14435205319E+03  0.15386217428E+03  0.28068321917E+03  0.91692262980E+02 0.  0.
          3    1    3    3  502    0  0.13220059019E+03  0.28998869189E+03  0.70367495422E+03  0.77248228372E+03  0.00000000000E+00 0. -1.
         -4    1    3    3    0  502  0.10280804527E+03  0.14895289526E+03  0.28636514769E+03  0.33876460410E+03  0.00000000000E+00 0.  1.
         11    1    5    5    0    0 -0.60496375220E+02 -0.57251649183E+03 -0.57369907998E+03  0.81275185586E+03  0.00000000000E+00 0. -1.
        -11    1    5    5    0    0 -0.13687776708E+02 -0.10777148506E+02 -0.80381406698E+01  0.19186293716E+02  0.00000000000E+00 0.  1.
          3    1    6    6  503    0 -0.13309871475E+03  0.12950745766E+03  0.16387914845E+03  0.24767685550E+03  0.00000000000E+00 0. -1.
         -3    1    6    6    0  503 -0.27725768784E+02  0.14844595529E+02 -0.10016974173E+02  0.33006363669E+02  0.00000000000E+00 0.  1.
<mgrwt>
<rscale>  0 0.21516413E+04</rscale>
<asrwt>0</asrwt>
<pdfrwt beam="1">  1        1 0.21431026E+00 0.21516413E+04</pdfrwt>
<pdfrwt beam="2">  1       -2 0.12782332E+00 0.21516413E+04</pdfrwt>
<totfact> 0.28301853E+00</totfact>
</mgrwt>
</event>
<event>
12    4  0.4280696E-008  0.2451994E+04  0.7818608E-02  0.8420290E-01
          1   -1    0    0  501    0  0.00000000000E+00  0.00000000000E+00  0.76575492428E+03  0.76575492428E+03  0.00000000000E+00 0. -1.
         -2   -1    0    0    0  501 -0.00000000000E+00 -0.00000000000E+00 -0.19628583728E+04  0.19628583728E+04  0.00000000000E+00 0.  1.
        -24    2    1    2    0    0 -0.10249943023E+04 -0.13303742301E+03 -0.76443541182E+03  0.12880560926E+04  0.80091965919E+02 0.  0.
        254    2    1    2    0    0  0.10249943023E+04  0.13303742301E+03 -0.43266803673E+03  0.14405572046E+04  0.90536796602E+03 0.  0.
         23    2    4    4    0    0  0.12131571313E+03 -0.22907381661E+03  0.13760967451E+03  0.30856346212E+03  0.95303053077E+02 0.  0.
         23    2    4    4    0    0  0.90367858919E+03  0.36211123962E+03 -0.57027771124E+03  0.11319937424E+04  0.91834756903E+02 0.  0.
          1    1    3    3  502    0 -0.21127334641E+02 -0.24308140173E+01 -0.33207651555E+01  0.21524418854E+02  0.00000000000E+00 0. -1.
         -2    1    3    3    0  502 -0.10038669677E+04 -0.13060660899E+03 -0.76111464667E+03  0.12665316737E+04  0.00000000000E+00 0.  1.
         11    1    5    5    0    0  0.12582748082E+03 -0.14692977824E+03  0.10466131323E+03  0.21994295885E+03  0.00000000000E+00 0. -1.
        -11    1    5    5    0    0 -0.45117676850E+01 -0.82144038377E+02  0.32948361286E+02  0.88620503271E+02  0.00000000000E+00 0.  1.
          1    1    6    6  503    0  0.39219646790E+03  0.14796649331E+03 -0.19413839220E+03  0.46195440024E+03  0.00000000000E+00 0. -1.
         -1    1    6    6    0  503  0.51148212129E+03  0.21414474631E+03 -0.37613931904E+03  0.67003934220E+03  0.00000000000E+00 0.  1.
<mgrwt>
<rscale>  0 0.24519939E+04</rscale>
<asrwt>0</asrwt>
<pdfrwt beam="1">  1        1 0.11780845E+00 0.24519939E+04</pdfrwt>
<pdfrwt beam="2">  1       -2 0.30197821E+00 0.24519939E+04</pdfrwt>
<totfact> 0.57318148E-01</totfact>
</mgrwt>
</event>
<event>
12    4  0.4280696E-008  0.1559607E+04  0.7818608E-02  0.8845755E-01
         -2   -1    0    0    0  501 -0.00000000000E+00  0.00000000000E+00  0.22201079694E+04  0.22201079694E+04  0.00000000000E+00 0.  1.
          1   -1    0    0  501    0  0.00000000000E+00 -0.00000000000E+00 -0.27390261335E+03  0.27390261335E+03  0.00000000000E+00 0. -1.
        -24    2    1    2    0    0  0.23115125537E+03  0.15355932365E+03  0.13894016721E+04  0.14190364235E+04  0.78841589294E+02 0.  0.
        254    2    1    2    0    0 -0.23115125537E+03 -0.15355932365E+03  0.55680368402E+03  0.10749741593E+04  0.87665713469E+03 0.  0.
         23    2    4    4    0    0  0.11218778208E+03 -0.10780350338E+03  0.67454752140E+03  0.69825087441E+03  0.91281056146E+02 0.  0.
         23    2    4    4    0    0 -0.34333903745E+03 -0.45755820266E+02 -0.11774383738E+03  0.37672328485E+03  0.89897343582E+02 0.  0.
          1    1    3    3  502    0  0.66727074002E+00 -0.67830591810E+01  0.19476818055E+02  0.20634960228E+02  0.00000000000E+00 0. -1.
         -2    1    3    3    0  502  0.23048398463E+03  0.16034238283E+03  0.13699248540E+04  0.13984014633E+04  0.00000000000E+00 0.  1.
         11    1    5    5    0    0  0.18382470425E+02  0.99148309054E+01  0.18259955627E+03  0.18379014403E+03  0.00000000000E+00 0.  1.
        -11    1    5    5    0    0  0.93805311655E+02 -0.11771833428E+03  0.49194796512E+03  0.51446073039E+03  0.00000000000E+00 0. -1.
          4    1    6    6  503    0 -0.21208573843E+03  0.80887896831E+01 -0.43690302204E+02  0.21669017392E+03  0.00000000000E+00 0. -1.
         -4    1    6    6    0  503 -0.13125329901E+03 -0.53844609949E+02 -0.74053535175E+02  0.16003311093E+03  0.00000000000E+00 0.  1.
<mgrwt>
<rscale>  0 0.15596068E+04</rscale>
<asrwt>0</asrwt>
<pdfrwt beam="1">  1        1 0.42138865E-01 0.15596068E+04</pdfrwt>
<pdfrwt beam="2">  1       -2 0.34155506E+00 0.15596068E+04</pdfrwt>
<totfact> 0.14677642E+00</totfact>
</mgrwt>
</event>
<event>
12    4  0.4280696E-008  0.2613363E+04  0.7818608E-02  0.8363676E-01
          1   -1    0    0  501    0  0.00000000000E+00  0.00000000000E+00  0.16303343687E+04  0.16303343687E+04  0.00000000000E+00 0. -1.
         -2   -1    0    0    0  501 -0.00000000000E+00 -0.00000000000E+00 -0.10472798060E+04  0.10472798060E+04  0.00000000000E+00 0.  1.
        -24    2    1    2    0    0 -0.51037929538E+03  0.75234158201E+03  0.97429741913E+03  0.13348920011E+04  0.78589519374E+02 0.  0.
        254    2    1    2    0    0  0.51037929538E+03 -0.75234158201E+03 -0.39124285636E+03  0.13427221736E+04  0.90737367254E+03 0.  0.
         23    2    4    4    0    0 -0.21132185098E+03 -0.10356437580E+03  0.72773876934E+02  0.26314439341E+03  0.92555010577E+02 0.  0.
         23    2    4    4    0    0  0.72170114635E+03 -0.64877720621E+03 -0.46401673329E+03  0.10795777802E+04  0.91718300961E+02 0.  0.
          1    1    3    3  502    0 -0.50152289190E+03  0.71603985244E+03  0.94551518540E+03  0.12877256102E+04  0.00000000000E+00 0. -1.
         -2    1    3    3    0  502 -0.88564034803E+01  0.36301729571E+02  0.28782233725E+02  0.47166390901E+02  0.00000000000E+00 0.  1.
         11    1    5    5    0    0 -0.27496847879E+02  0.14446425429E+02 -0.46033425468E+01  0.31400105311E+02  0.00000000000E+00 0. -1.
        -11    1    5    5    0    0 -0.18382500310E+03 -0.11801080123E+03  0.77377219480E+02  0.23174428810E+03  0.00000000000E+00 0.  1.
          2    1    6    6  503    0  0.35371977598E+03 -0.37722754147E+03 -0.23251081966E+03  0.56699169237E+03  0.00000000000E+00 0. -1.
         -2    1    6    6    0  503  0.36798137038E+03 -0.27154966474E+03 -0.23150591363E+03  0.51258608780E+03  0.00000000000E+00 0.  1.
<mgrwt>
<rscale>  0 0.26133628E+04</rscale>
<asrwt>0</asrwt>
<pdfrwt beam="1">  1        1 0.25082067E+00 0.26133628E+04</pdfrwt>
<pdfrwt beam="2">  1       -2 0.16111997E+00 0.26133628E+04</pdfrwt>
<totfact> 0.10158000E+00</totfact>
</mgrwt>
</event>
<event>
12    4  0.4280696E-008  0.2933609E+04  0.7818608E-02  0.8262948E-01
         -2   -1    0    0    0  501 -0.00000000000E+00  0.00000000000E+00  0.85939299186E+03  0.85939299186E+03  0.00000000000E+00 0.  1.
          1   -1    0    0  501    0  0.00000000000E+00 -0.00000000000E+00 -0.25035287029E+04  0.25035287029E+04  0.00000000000E+00 0. -1.
        -24    2    1    2    0    0  0.12107583899E+04  0.54184525751E+03 -0.76339469252E+03  0.15325346205E+04  0.79741737244E+02 0.  0.
        254    2    1    2    0    0 -0.12107583899E+04 -0.54184525751E+03 -0.88074101855E+03  0.18303870743E+04  0.90281777673E+03 0.  0.
         23    2    4    4    0    0 -0.53170302628E+03 -0.38299240430E+03 -0.91173438224E+03  0.11265340702E+04  0.91804888945E+02 0.  0.
         23    2    4    4    0    0 -0.67905536366E+03 -0.15885285321E+03  0.30993363686E+02  0.70385300407E+03  0.89989148607E+02 0.  0.
          3    1    3    3  502    0  0.86090900632E+03  0.36163223313E+03 -0.57052744252E+03  0.10942777307E+04  0.00000000000E+00 0. -1.
         -4    1    3    3    0  502  0.34984938361E+03  0.18021302437E+03 -0.19286725000E+03  0.43825688984E+03  0.00000000000E+00 0.  1.
         11    1    5    5    0    0 -0.30096063672E+03 -0.18720322043E+03 -0.42498703007E+03  0.55338623611E+03  0.00000000000E+00 0.  1.
        -11    1    5    5    0    0 -0.23074238956E+03 -0.19578918387E+03 -0.48674735217E+03  0.57314783408E+03  0.00000000000E+00 0. -1.
          2    1    6    6  503    0 -0.53039786997E+03 -0.14379810259E+03 -0.73482675346E+01  0.54959420650E+03  0.00000000000E+00 0. -1.
         -2    1    6    6    0  503 -0.14865749368E+03 -0.15054750614E+02  0.38341631221E+02  0.15425879757E+03  0.00000000000E+00 0.  1.
<mgrwt>
<rscale>  0 0.29336087E+04</rscale>
<asrwt>0</asrwt>
<pdfrwt beam="1">  1        1 0.38515825E+00 0.29336087E+04</pdfrwt>
<pdfrwt beam="2">  1       -2 0.13221431E+00 0.29336087E+04</pdfrwt>
<totfact> 0.42186723E-01</totfact>
</mgrwt>
</event>
<event>
12    4  0.4280696E-008  0.1761624E+04  0.7818608E-02  0.8726978E-01
         -2   -1    0    0    0  501 -0.00000000000E+00  0.00000000000E+00  0.82141210932E+03  0.82141210932E+03  0.00000000000E+00 0.  1.
          1   -1    0    0  501    0  0.00000000000E+00 -0.00000000000E+00 -0.94450747293E+03  0.94450747293E+03  0.00000000000E+00 0. -1.
        -24    2    1    2    0    0 -0.50030184251E+02  0.63579664560E+03  0.76327233709E+02  0.64692488136E+03  0.77107467951E+02 0.  0.
        254    2    1    2    0    0  0.50030184251E+02 -0.63579664560E+03 -0.19942259732E+03  0.11189947009E+04  0.89757416096E+03 0.  0.
         23    2    4    4    0    0  0.44496851067E+03 -0.32222096138E+03  0.29120361751E+02  0.55759460330E+03  0.90776774085E+02 0.  0.
         23    2    4    4    0    0 -0.39493832642E+03 -0.31357568422E+03 -0.22854295907E+03  0.56140009760E+03  0.92909601394E+02 0.  0.
          3    1    3    3  502    0 -0.54063145192E+01  0.67924006508E+00  0.24351576575E+01  0.59682155259E+01  0.00000000000E+00 0. -1.
         -4    1    3    3    0  502 -0.44623869731E+02  0.63511740554E+03  0.73892076052E+02  0.64095666583E+03  0.00000000000E+00 0.  1.
         11    1    5    5    0    0  0.41560039912E+03 -0.26813441738E+03  0.34640570813E+02  0.49580210435E+03  0.00000000000E+00 0.  1.
        -11    1    5    5    0    0  0.29368111556E+02 -0.54086543998E+02 -0.55202090613E+01  0.61792498947E+02  0.00000000000E+00 0. -1.
          4    1    6    6  503    0 -0.12179135633E+03 -0.72905197224E+02 -0.10644095356E+03  0.17742034510E+03  0.00000000000E+00 0. -1.
         -4    1    6    6    0  503 -0.27314697009E+03 -0.24067048700E+03 -0.12210200551E+03  0.38397975250E+03  0.00000000000E+00 0.  1.
<mgrwt>
<rscale>  0 0.17616241E+04</rscale>
<asrwt>0</asrwt>
<pdfrwt beam="1">  1        1 0.14530884E+00 0.17616241E+04</pdfrwt>
<pdfrwt beam="2">  1       -2 0.12637109E+00 0.17616241E+04</pdfrwt>
<totfact> 0.64805518E+00</totfact>
</mgrwt>
</event>
<event>
12    4  0.4280696E-008  0.2416122E+04  0.7818608E-02  0.8433492E-01
          1   -1    0    0  501    0  0.00000000000E+00  0.00000000000E+00  0.89243685118E+03  0.89243685118E+03  0.00000000000E+00 0. -1.
         -2   -1    0    0    0  501 -0.00000000000E+00 -0.00000000000E+00 -0.16353111597E+04  0.16353111597E+04  0.00000000000E+00 0.  1.
        -24    2    1    2    0    0 -0.97649724829E+03  0.12400877036E+03 -0.63579000041E+03  0.11745446700E+04  0.80007538074E+02 0.  0.
        254    2    1    2    0    0  0.97649724829E+03 -0.12400877036E+03 -0.10708430813E+03  0.13532033409E+04  0.92237041461E+03 0.  0.
         23    2    4    4    0    0  0.62310564258E+03 -0.15836636713E+03 -0.49737818016E+03  0.81829018685E+03  0.94197811802E+02 0.  0.
         23    2    4    4    0    0  0.35339160571E+03  0.34357596770E+02  0.39029387203E+03  0.53491315405E+03  0.87958537929E+02 0.  0.
          3    1    3    3  502    0 -0.91249994852E+03  0.13472052215E+03 -0.58656625592E+03  0.10930991482E+04  0.00000000000E+00 0. -1.
         -4    1    3    3    0  502 -0.63997299765E+02 -0.10711751793E+02 -0.49223744489E+02  0.81445521824E+02  0.00000000000E+00 0.  1.
         11    1    5    5    0    0  0.33299422587E+03 -0.44641460960E+02 -0.22435959940E+03  0.40399906478E+03  0.00000000000E+00 0. -1.
        -11    1    5    5    0    0  0.29011141671E+03 -0.11372490617E+03 -0.27301858076E+03  0.41429112207E+03  0.00000000000E+00 0.  1.
          3    1    6    6  503    0  0.29893893111E+02  0.16574424491E+02  0.76903583897E+02  0.84157694887E+02  0.00000000000E+00 0. -1.
         -3    1    6    6    0  503  0.32349771260E+03  0.17783172279E+02  0.31339028813E+03  0.45075545916E+03  0.00000000000E+00 0.  1.
<mgrwt>
<rscale>  0 0.24161225E+04</rscale>
<asrwt>0</asrwt>
<pdfrwt beam="1">  1        1 0.13729798E+00 0.24161225E+04</pdfrwt>
<pdfrwt beam="2">  1       -2 0.25158633E+00 0.24161225E+04</pdfrwt>
<totfact> 0.90997940E-01</totfact>
</mgrwt>
</event>
<event>
12    4  0.4280696E-008  0.1663976E+04  0.7818608E-02  0.8782181E-01
          1   -1    0    0  501    0  0.00000000000E+00  0.00000000000E+00  0.84518632357E+03  0.84518632357E+03  0.00000000000E+00 0. -1.
         -2   -1    0    0    0  501 -0.00000000000E+00 -0.00000000000E+00 -0.81899598676E+03  0.81899598676E+03  0.00000000000E+00 0.  1.
        -24    2    1    2    0    0 -0.30381113213E+03 -0.59073957677E+02  0.50972908939E+03  0.60182859665E+03  0.81135557493E+02 0.  0.
        254    2    1    2    0    0  0.30381113213E+03  0.59073957677E+02 -0.48353875258E+03  0.10623537137E+04  0.89386506321E+03 0.  0.
         23    2    4    4    0    0 -0.17294112881E+03 -0.15572468319E+03  0.10376530148E+03  0.27065849346E+03  0.91268676435E+02 0.  0.
         23    2    4    4    0    0  0.47675226094E+03  0.21479864087E+03 -0.58730405406E+03  0.79169522022E+03  0.91782870749E+02 0.  0.
          1    1    3    3  502    0 -0.16482236327E+03 -0.34062634425E+02  0.35167619098E+03  0.38987538753E+03  0.00000000000E+00 0. -1.
         -2    1    3    3    0  502 -0.13898876886E+03 -0.25011323253E+02  0.15805289841E+03  0.21195320912E+03  0.00000000000E+00 0.  1.
         11    1    5    5    0    0 -0.25409804254E+02  0.10693935450E+02  0.10629973702E+02  0.29546822986E+02  0.00000000000E+00 0. -1.
        -11    1    5    5    0    0 -0.14753132456E+03 -0.16641861864E+03  0.93135327781E+02  0.24111167047E+03  0.00000000000E+00 0.  1.
          1    1    6    6  503    0  0.17915224809E+03  0.71506058628E+02 -0.15384991736E+03  0.24673556997E+03  0.00000000000E+00 0. -1.
         -1    1    6    6    0  503  0.29760001286E+03  0.14329258224E+03 -0.43345413670E+03  0.54495965025E+03  0.00000000000E+00 0.  1.
<mgrwt>
<rscale>  0 0.16639762E+04</rscale>
<asrwt>0</asrwt>
<pdfrwt beam="1">  1        1 0.13002867E+00 0.16639762E+04</pdfrwt>
<pdfrwt beam="2">  1       -2 0.12599938E+00 0.16639762E+04</pdfrwt>
<totfact> 0.79443132E+00</totfact>
</mgrwt>
</event>
<event>
12    4  0.4280696E-008  0.1222843E+04  0.7818608E-02  0.9093094E-01
          1   -1    0    0  501    0  0.00000000000E+00  0.00000000000E+00  0.12340114189E+04  0.12340114189E+04  0.00000000000E+00 0. -1.
         -2   -1    0    0    0  501 -0.00000000000E+00 -0.00000000000E+00 -0.30294398099E+03  0.30294398099E+03  0.00000000000E+00 0.  1.
        -24    2    1    2    0    0  0.11525722579E+03 -0.23376230160E+03  0.18082211121E+03  0.32676973903E+03  0.78439688281E+02 0.  0.
        254    2    1    2    0    0 -0.11525722579E+03  0.23376230160E+03  0.75024532671E+03  0.12101856609E+04  0.91310034595E+03 0.  0.
         23    2    4    4    0    0  0.30695682374E+03 -0.55290875718E+02  0.57742747755E+03  0.66245249114E+03  0.90228812494E+02 0.  0.
         23    2    4    4    0    0 -0.42221404952E+03  0.28905317732E+03  0.17281784916E+03  0.54773316974E+03  0.91264304672E+02 0.  0.
          3    1    3    3  502    0  0.87221693015E+00 -0.81070938012E+02  0.61260208665E+02  0.10161727667E+03  0.00000000000E+00 0. -1.
         -4    1    3    3    0  502  0.11438500886E+03 -0.15269136359E+03  0.11956190254E+03  0.22515246236E+03  0.00000000000E+00 0.  1.
         11    1    5    5    0    0  0.24920025872E+03 -0.74603911201E+02  0.50302110840E+03  0.56630093414E+03  0.00000000000E+00 0. -1.
        -11    1    5    5    0    0  0.57756565019E+02  0.19313035484E+02  0.74406369150E+02  0.96151556995E+02  0.00000000000E+00 0.  1.
          1    1    6    6  503    0 -0.29838985189E+03  0.24647775428E+03  0.10906457766E+03  0.40209808401E+03  0.00000000000E+00 0. -1.
         -1    1    6    6    0  503 -0.12382419763E+03  0.42575423035E+02  0.63753271498E+02  0.14563508572E+03  0.00000000000E+00 0.  1.
<mgrwt>
<rscale>  0 0.12228431E+04</rscale>
<asrwt>0</asrwt>
<pdfrwt beam="1">  1        1 0.18984791E+00 0.12228431E+04</pdfrwt>
<pdfrwt beam="2">  1       -2 0.46606767E-01 0.12228431E+04</pdfrwt>
<totfact> 0.38167603E+01</totfact>
</mgrwt>
</event>
<event>
12    4  0.4280696E-008  0.3232785E+04  0.7818608E-02  0.8180212E-01
         -2   -1    0    0    0  501 -0.00000000000E+00  0.00000000000E+00  0.19830476401E+04  0.19830476401E+04  0.00000000000E+00 0.  1.
          1   -1    0    0  501    0  0.00000000000E+00 -0.00000000000E+00 -0.13175298949E+04  0.13175298949E+04  0.00000000000E+00 0. -1.
        -24    2    1    2    0    0 -0.14208738085E+04 -0.44293271019E+03  0.22840758617E+03  0.15077496858E+04  0.77893029914E+02 0.  0.
        254    2    1    2    0    0  0.14208738085E+04  0.44293271019E+03  0.43711015902E+03  0.17928278491E+04  0.89894084343E+03 0.  0.
         23    2    4    4    0    0  0.22460541228E+03 -0.21333321842E+03 -0.76181507531E+02  0.33205625646E+03  0.92190466201E+02 0.  0.
         23    2    4    4    0    0  0.11962683963E+04  0.65626592861E+03  0.51329166656E+03  0.14607715927E+04  0.92963789168E+02 0.  0.
          3    1    3    3  502    0 -0.61931392491E+03 -0.20663541193E+03  0.13705407284E+03  0.66710700036E+03  0.00000000000E+00 0. -1.
         -4    1    3    3    0  502 -0.80155988363E+03 -0.23629729826E+03  0.91353513330E+02  0.84064268545E+03  0.00000000000E+00 0.  1.
         11    1    5    5    0    0  0.12100049822E+03 -0.14040531688E+03 -0.22480971050E+01  0.18536404052E+03  0.00000000000E+00 0.  1.
        -11    1    5    5    0    0  0.10360491406E+03 -0.72927901540E+02 -0.73933410426E+02  0.14669221594E+03  0.00000000000E+00 0. -1.
          4    1    6    6  503    0  0.81466428676E+01  0.13594645089E+02  0.32709327763E+00  0.15852102546E+02  0.00000000000E+00 0. -1.
         -4    1    6    6    0  503  0.11881217534E+04  0.64267128352E+03  0.51296457328E+03  0.14449194901E+04  0.00000000000E+00 0.  1.
<mgrwt>
<rscale>  0 0.32327849E+04</rscale>
<asrwt>0</asrwt>
<pdfrwt beam="1">  1        1 0.20269691E+00 0.32327849E+04</pdfrwt>
<pdfrwt beam="2">  1       -2 0.30508425E+00 0.32327849E+04</pdfrwt>
<totfact> 0.19042452E-01</totfact>
</mgrwt>
</event>
<event>
12    4  0.4280696E-008  0.1435290E+04  0.7818608E-02  0.8928662E-01
          1   -1    0    0  501    0  0.00000000000E+00  0.00000000000E+00  0.11973393185E+04  0.11973393185E+04  0.00000000000E+00 0. -1.
         -2   -1    0    0    0  501 -0.00000000000E+00 -0.00000000000E+00 -0.43013261125E+03  0.43013261125E+03  0.00000000000E+00 0.  1.
        -24    2    1    2    0    0  0.29285524618E+03  0.31306334716E+03  0.17146267785E+03  0.46865798027E+03  0.80423864762E+02 0.  0.
        254    2    1    2    0    0 -0.29285524618E+03 -0.31306334716E+03  0.59574402943E+03  0.11588139495E+04  0.89675301306E+03 0.  0.
         23    2    4    4    0    0 -0.76835299522E+02  0.27521981326E+03  0.16604553404E+02  0.30046894142E+03  0.91412606879E+02 0.  0.
         23    2    4    4    0    0 -0.21601994666E+03 -0.58828316043E+03  0.57913947603E+03  0.85834500810E+03  0.92800463566E+02 0.  0.
          3    1    3    3  502    0  0.22842094708E+02  0.14865046299E+02  0.33924530745E+02  0.43515568230E+02  0.00000000000E+00 0. -1.
         -4    1    3    3    0  502  0.27001315147E+03  0.29819830086E+03  0.13753814710E+03  0.42514241204E+03  0.00000000000E+00 0.  1.
         11    1    5    5    0    0 -0.64164608833E+02  0.24257572393E+03  0.45572134052E+02  0.25502332887E+03  0.00000000000E+00 0.  1.
        -11    1    5    5    0    0 -0.12670690689E+02  0.32644089335E+02 -0.28967580648E+02  0.45445612546E+02  0.00000000000E+00 0. -1.
          2    1    6    6  503    0 -0.26447790224E+02 -0.34633423192E+02  0.71044113725E+02  0.83344020210E+02  0.00000000000E+00 0. -1.
         -2    1    6    6    0  503 -0.18957215643E+03 -0.55364973723E+03  0.50809536230E+03  0.77500098789E+03  0.00000000000E+00 0.  1.
<mgrwt>
<rscale>  0 0.14352905E+04</rscale>
<asrwt>0</asrwt>
<pdfrwt beam="1">  1        1 0.18420605E+00 0.14352905E+04</pdfrwt>
<pdfrwt beam="2">  1       -2 0.66174248E-01 0.14352905E+04</pdfrwt>
<totfact> 0.19227287E+01</totfact>
</mgrwt>
</event>
<event>
12    4  0.4280696E-008  0.1314020E+04  0.7818608E-02  0.9018520E-01
         -2   -1    0    0    0  501 -0.00000000000E+00  0.00000000000E+00  0.56313037216E+03  0.56313037216E+03  0.00000000000E+00 0.  1.
          1   -1    0    0  501    0  0.00000000000E+00 -0.00000000000E+00 -0.76654036394E+03  0.76654036394E+03  0.00000000000E+00 0. -1.
        -24    2    1    2    0    0  0.74759834444E+02  0.51312627822E+02 -0.35386821275E+03  0.37408347968E+03  0.80583615907E+02 0.  0.
        254    2    1    2    0    0 -0.74759834444E+02 -0.51312627822E+02  0.15045822098E+03  0.95558725642E+03  0.93930150099E+03 0.  0.
         23    2    4    4    0    0  0.23154121717E+03 -0.21354856549E+03  0.40137451303E+03  0.51829208151E+03  0.91163901704E+02 0.  0.
         23    2    4    4    0    0 -0.30630105162E+03  0.16223593766E+03 -0.25091629206E+03  0.43729517491E+03  0.90151265587E+02 0.  0.
          3    1    3    3  502    0  0.54976201478E+02  0.22267216155E+02 -0.31939215699E+03  0.32485313849E+03  0.00000000000E+00 0. -1.
         -4    1    3    3    0  502  0.19783632966E+02  0.29045411667E+02 -0.34476055768E+02  0.49230341189E+02  0.00000000000E+00 0.  1.
         11    1    5    5    0    0  0.15547975649E+03 -0.11460606982E+03  0.17926895789E+03  0.26352583399E+03  0.00000000000E+00 0. -1.
        -11    1    5    5    0    0  0.76061460683E+02 -0.98942495668E+02  0.22210555515E+03  0.25476624752E+03  0.00000000000E+00 0.  1.
          1    1    6    6  503    0 -0.21231184607E+01  0.87382820393E+00 -0.25813787833E+02  0.25915687334E+02  0.00000000000E+00 0.  1.
         -1    1    6    6    0  503 -0.30417793316E+03  0.16136210946E+03 -0.22510250423E+03  0.41137948758E+03  0.00000000000E+00 0. -1.
<mgrwt>
<rscale>  0 0.13140200E+04</rscale>
<asrwt>0</asrwt>
<pdfrwt beam="1">  1        1 0.11792929E+00 0.13140200E+04</pdfrwt>
<pdfrwt beam="2">  1       -2 0.86635442E-01 0.13140200E+04</pdfrwt>
<totfact> 0.23476963E+01</totfact>
</mgrwt>
</event>
<event>
12    4  0.4280696E-008  0.2567422E+04  0.7818608E-02  0.8379352E-01
          1   -1    0    0  501    0  0.00000000000E+00  0.00000000000E+00  0.19138364929E+04  0.19138364929E+04  0.00000000000E+00 0. -1.
         -2   -1    0    0    0  501 -0.00000000000E+00 -0.00000000000E+00 -0.86105255708E+03  0.86105255708E+03  0.00000000000E+00 0.  1.
        -24    2    1    2    0    0 -0.34896421449E+02  0.10435371155E+04  0.10973664473E+03  0.10528893100E+04  0.79663644446E+02 0.  0.
        254    2    1    2    0    0  0.34896421449E+02 -0.10435371155E+04  0.94304729110E+03  0.17219997400E+04  0.99285318126E+03 0.  0.
         23    2    4    4    0    0  0.17612347290E+03  0.61297524071E+02 -0.64499612144E+02  0.21735747161E+03  0.91143877097E+02 0.  0.
         23    2    4    4    0    0 -0.14122705145E+03 -0.11048346396E+04  0.10075469032E+04  0.15046422684E+04  0.90514819972E+02 0.  0.
          3    1    3    3  502    0 -0.13128124184E+02  0.93631410199E+03  0.81822367159E+02  0.93997411932E+03  0.00000000000E+00 0. -1.
         -4    1    3    3    0  502 -0.21768297265E+02  0.10722301352E+03  0.27914277571E+02  0.11291519069E+03  0.00000000000E+00 0.  1.
         11    1    5    5    0    0  0.18498209060E+03  0.67279741730E+02 -0.62114076332E+02  0.20640517428E+03  0.00000000000E+00 0. -1.
        -11    1    5    5    0    0 -0.88586176990E+01 -0.59822176590E+01 -0.23855358117E+01  0.10952297328E+02  0.00000000000E+00 0.  1.
          1    1    6    6  503    0 -0.14078477351E+03 -0.10321149706E+04  0.91146062044E+03  0.13841394899E+04  0.00000000000E+00 0. -1.
         -1    1    6    6    0  503 -0.44227793881E+00 -0.72719669006E+02  0.96086282810E+02  0.12050277845E+03  0.00000000000E+00 0.  1.
<mgrwt>
<rscale>  0 0.25674219E+04</rscale>
<asrwt>0</asrwt>
<pdfrwt beam="1">  1        1 0.29443638E+00 0.25674219E+04</pdfrwt>
<pdfrwt beam="2">  1       -2 0.13246962E+00 0.25674219E+04</pdfrwt>
<totfact> 0.10956134E+00</totfact>
</mgrwt>
</event>
<event>
12    4  0.4280696E-008  0.1382724E+04  0.7818608E-02  0.8966420E-01
         -2   -1    0    0    0  501 -0.00000000000E+00  0.00000000000E+00  0.65174404100E+03  0.65174404100E+03  0.00000000000E+00 0.  1.
          1   -1    0    0  501    0  0.00000000000E+00 -0.00000000000E+00 -0.73338806829E+03  0.73338806829E+03  0.00000000000E+00 0. -1.
        -24    2    1    2    0    0 -0.13470782949E+03 -0.29189220151E+03  0.20494113660E+03  0.38975017154E+03  0.80975737808E+02 0.  0.
        254    2    1    2    0    0  0.13470782949E+03  0.29189220151E+03 -0.28658516389E+03  0.99538193775E+03  0.89738892861E+03 0.  0.
         23    2    4    4    0    0  0.33369610498E+03  0.34764778661E+03 -0.48919243382E+03  0.69244004083E+03  0.89173419977E+02 0.  0.
         23    2    4    4    0    0 -0.19898827549E+03 -0.55755585094E+02  0.20260726993E+03  0.30294189691E+03  0.89549249156E+02 0.  0.
          3    1    3    3  502    0 -0.75563052509E+01 -0.15631655715E+02 -0.73627884536E+01  0.18858872269E+02  0.00000000000E+00 0. -1.
         -4    1    3    3    0  502 -0.12715152424E+03 -0.27626054580E+03  0.21230392506E+03  0.37089129927E+03  0.00000000000E+00 0.  1.
         11    1    5    5    0    0  0.14770613083E+03  0.92963361434E+02 -0.16553424998E+03  0.24054287678E+03  0.00000000000E+00 0. -1.
        -11    1    5    5    0    0  0.18598997414E+03  0.25468442517E+03 -0.32365818384E+03  0.45189716405E+03  0.00000000000E+00 0.  1.
          1    1    6    6  503    0 -0.46604967850E+01  0.13972672792E+02  0.31577928548E+02  0.34844244670E+02  0.00000000000E+00 0. -1.
         -1    1    6    6    0  503 -0.19432777870E+03 -0.69728257886E+02  0.17102934138E+03  0.26809765224E+03  0.00000000000E+00 0.  1.
<mgrwt>
<rscale>  0 0.13827238E+04</rscale>
<asrwt>0</asrwt>
<pdfrwt beam="1">  1        1 0.11282893E+00 0.13827238E+04</pdfrwt>
<pdfrwt beam="2">  1       -2 0.10026831E+00 0.13827238E+04</pdfrwt>
<totfact> 0.17800394E+01</totfact>
</mgrwt>
</event>
<event>
12    4  0.4280696E-008  0.2040391E+04  0.7818608E-02  0.8587966E-01
          1   -1    0    0  501    0  0.00000000000E+00  0.00000000000E+00  0.15055258624E+04  0.15055258624E+04  0.00000000000E+00 0. -1.
         -2   -1    0    0    0  501 -0.00000000000E+00 -0.00000000000E+00 -0.69131931857E+03  0.69131931857E+03  0.00000000000E+00 0.  1.
        -24    2    1    2    0    0  0.50518008576E+03  0.68486231805E+02 -0.36282887875E+03  0.63045297493E+03  0.76999190574E+02 0.  0.
        254    2    1    2    0    0 -0.50518008576E+03 -0.68486231805E+02  0.11770354226E+04  0.15663922061E+04  0.89904108590E+03 0.  0.
         23    2    4    4    0    0 -0.28432550873E+02 -0.37975915310E+03  0.21941517612E+03  0.44873153979E+03  0.90507187436E+02 0.  0.
         23    2    4    4    0    0 -0.47674753489E+03  0.31127292129E+03  0.95762024651E+03  0.11176606663E+04  0.89161566266E+02 0.  0.
          3    1    3    3  502    0  0.26826139391E+03  0.71249547801E+02 -0.21606966805E+03  0.35174816983E+03  0.00000000000E+00 0. -1.
         -4    1    3    3    0  502  0.23691869185E+03 -0.27633159964E+01 -0.14675921070E+03  0.27870480511E+03  0.00000000000E+00 0.  1.
         11    1    5    5    0    0 -0.30178427448E+02 -0.37378725227E+03  0.19331204370E+03  0.42189713637E+03  0.00000000000E+00 0.  1.
        -11    1    5    5    0    0  0.17458765753E+01 -0.59719008299E+01  0.26103132415E+02  0.26834403411E+02  0.00000000000E+00 0. -1.
          4    1    6    6  503    0 -0.37279001758E+02  0.19787155836E+02  0.12650297459E+03  0.13335763228E+03  0.00000000000E+00 0. -1.
         -4    1    6    6    0  503 -0.43946853313E+03  0.29148576546E+03  0.83111727192E+03  0.98430303401E+03  0.00000000000E+00 0.  1.
<mgrwt>
<rscale>  0 0.20403913E+04</rscale>
<asrwt>0</asrwt>
<pdfrwt beam="1">  1        1 0.23161936E+00 0.20403913E+04</pdfrwt>
<pdfrwt beam="2">  1       -2 0.10635682E+00 0.20403913E+04</pdfrwt>
<totfact> 0.37500322E+00</totfact>
</mgrwt>
</event>
<event>
12    4  0.4280696E-008  0.1440037E+04  0.7818608E-02  0.8925337E-01
         -2   -1    0    0    0  501 -0.00000000000E+00  0.00000000000E+00  0.29890570824E+04  0.29890570824E+04  0.00000000000E+00 0.  1.
          1   -1    0    0  501    0  0.00000000000E+00 -0.00000000000E+00 -0.17344163582E+03  0.17344163582E+03  0.00000000000E+00 0. -1.
        -24    2    1    2    0    0  0.37243310126E+03  0.14905360682E+03  0.77437533047E+03  0.87572550953E+03  0.79464602111E+02 0.  0.
        254    2    1    2    0    0 -0.37243310126E+03 -0.14905360682E+03  0.20412401161E+04  0.22867732087E+04  0.94960365614E+03 0.  0.
         23    2    4    4    0    0 -0.44328143503E+03 -0.18774611307E+03  0.20929086749E+04  0.21495991881E+04  0.93610440497E+02 0.  0.
         23    2    4    4    0    0  0.70848333766E+02  0.38692506248E+02 -0.51668558769E+02  0.13717402057E+03  0.98134986202E+02 0.  0.
          3    1    3    3  502    0  0.25378531143E+03  0.10396270685E+03  0.60325282231E+03  0.66266824003E+03  0.00000000000E+00 0. -1.
         -4    1    3    3    0  502  0.11864778983E+03  0.45090899968E+02  0.17112250816E+03  0.21305726951E+03  0.00000000000E+00 0.  1.
         11    1    5    5    0    0 -0.34007346521E+03 -0.17868903345E+03  0.17334298316E+04  0.17754883028E+04  0.00000000000E+00 0. -1.
        -11    1    5    5    0    0 -0.10320796982E+03 -0.90570796103E+01  0.35947884331E+03  0.37411088532E+03  0.00000000000E+00 0.  1.
          1    1    6    6  503    0  0.44523822718E+02  0.32988571348E+02 -0.80493310207E+02  0.97723025010E+02  0.00000000000E+00 0. -1.
         -1    1    6    6    0  503  0.26324511048E+02  0.57039348995E+01  0.28824751437E+02  0.39450995560E+02  0.00000000000E+00 0.  1.
<mgrwt>
<rscale>  0 0.14400374E+04</rscale>
<asrwt>0</asrwt>
<pdfrwt beam="1">  1        1 0.26683331E-01 0.14400374E+04</pdfrwt>
<pdfrwt beam="2">  1       -2 0.45985490E+00 0.14400374E+04</pdfrwt>
<totfact> 0.45849841E-01</totfact>
</mgrwt>
</event>
<event>
12    4  0.4280696E-008  0.2587970E+04  0.7818608E-02  0.8372299E-01
         -2   -1    0    0    0  501 -0.00000000000E+00  0.00000000000E+00  0.10707176295E+04  0.10707176295E+04  0.00000000000E+00 0.  1.
          1   -1    0    0  501    0  0.00000000000E+00 -0.00000000000E+00 -0.15638078829E+04  0.15638078829E+04  0.00000000000E+00 0. -1.
        -24    2    1    2    0    0  0.11345379280E+04 -0.26974804141E+02 -0.26551115801E+03  0.11681250515E+04  0.78204928222E+02 0.  0.
        254    2    1    2    0    0 -0.11345379280E+04  0.26974804141E+02 -0.22757909537E+03  0.14664004609E+04  0.90035221835E+03 0.  0.
         23    2    4    4    0    0 -0.34915991344E+03  0.19249541344E+03 -0.46884525108E+03  0.62226990905E+03  0.91852277561E+02 0.  0.
         23    2    4    4    0    0 -0.78537801453E+03 -0.16552060929E+03  0.24126615572E+03  0.84413055188E+03  0.10065452256E+03 0.  0.
          3    1    3    3  502    0  0.49681475882E+03 -0.65106866814E+01 -0.76846610814E+02  0.50276504971E+03  0.00000000000E+00 0. -1.
         -4    1    3    3    0  502  0.63772316915E+03 -0.20464117459E+02 -0.18866454719E+03  0.66536000176E+03  0.00000000000E+00 0.  1.
         11    1    5    5    0    0 -0.32210419738E+03  0.20187083967E+03 -0.44249647817E+03  0.58335759451E+03  0.00000000000E+00 0. -1.
        -11    1    5    5    0    0 -0.27055716061E+02 -0.93754262330E+01 -0.26348772914E+02  0.38912314538E+02  0.00000000000E+00 0.  1.
          1    1    6    6  503    0 -0.77433100281E+03 -0.17016021898E+03  0.24760828602E+03  0.83057381691E+03  0.00000000000E+00 0. -1.
         -1    1    6    6    0  503 -0.11047011721E+02  0.46396096897E+01 -0.63421303080E+01  0.13556734964E+02  0.00000000000E+00 0.  1.
<mgrwt>
<rscale>  0 0.25879696E+04</rscale>
<asrwt>0</asrwt>
<pdfrwt beam="1">  1        1 0.24058583E+00 0.25879696E+04</pdfrwt>
<pdfrwt beam="2">  1       -2 0.16472579E+00 0.25879696E+04</pdfrwt>
<totfact> 0.10643074E+00</totfact>
</mgrwt>
</event>
<event>
12    4  0.4280696E-008  0.2089089E+04  0.7818608E-02  0.8566065E-01
         -2   -1    0    0    0  501 -0.00000000000E+00  0.00000000000E+00  0.45052533661E+03  0.45052533661E+03  0.00000000000E+00 0.  1.
          1   -1    0    0  501    0  0.00000000000E+00 -0.00000000000E+00 -0.24217799539E+04  0.24217799539E+04  0.00000000000E+00 0. -1.
        -24    2    1    2    0    0 -0.46648611366E+03  0.10862204117E+02 -0.17803287490E+04  0.18421989482E+04  0.79995177727E+02 0.  0.
        254    2    1    2    0    0  0.46648611366E+03 -0.10862204117E+02 -0.19092586831E+03  0.10301063423E+04  0.89829789470E+03 0.  0.
         23    2    4    4    0    0  0.26752934512E+03 -0.12688885592E+03  0.33025804307E+03  0.45294980963E+03  0.91762861628E+02 0.  0.
         23    2    4    4    0    0  0.19895676854E+03  0.11602665180E+03 -0.52118391138E+03  0.57715653272E+03  0.91820553791E+02 0.  0.
          1    1    3    3  502    0 -0.93296271823E+02  0.34438845123E+02 -0.38342089848E+03  0.39610833592E+03  0.00000000000E+00 0. -1.
         -2    1    3    3    0  502 -0.37318984184E+03 -0.23576641006E+02 -0.13969078505E+04  0.14460906122E+04  0.00000000000E+00 0.  1.
         11    1    5    5    0    0  0.15627053273E+03 -0.72285477453E+02  0.25585763345E+03  0.30839714370E+03  0.00000000000E+00 0. -1.
        -11    1    5    5    0    0  0.11125881239E+03 -0.54603378465E+02  0.74400409617E+02  0.14455266592E+03  0.00000000000E+00 0.  1.
          4    1    6    6  503    0  0.15928354969E+03  0.13028563928E+03 -0.43421351579E+03  0.48050699714E+03  0.00000000000E+00 0. -1.
         -4    1    6    6    0  503  0.39673218856E+02 -0.14258987481E+02 -0.86970395587E+02  0.96649535575E+02  0.00000000000E+00 0.  1.
<mgrwt>
<rscale>  0 0.20890890E+04</rscale>
<asrwt>0</asrwt>
<pdfrwt beam="1">  1        1 0.37258153E+00 0.20890890E+04</pdfrwt>
<pdfrwt beam="2">  1       -2 0.69311590E-01 0.20890890E+04</pdfrwt>
<totfact> 0.23580023E+00</totfact>
</mgrwt>
</event>
<event>
12    4  0.4280696E-008  0.1280823E+04  0.7818608E-02  0.9044913E-01
          1   -1    0    0  501    0  0.00000000000E+00  0.00000000000E+00  0.20440602485E+04  0.20440602485E+04  0.00000000000E+00 0. -1.
         -2   -1    0    0    0  501 -0.00000000000E+00 -0.00000000000E+00 -0.20064315020E+03  0.20064315020E+03  0.00000000000E+00 0.  1.
        -24    2    1    2    0    0  0.10707506171E+03 -0.20567957974E+03  0.86566870047E+03  0.89973736247E+03  0.79849008064E+02 0.  0.
        254    2    1    2    0    0 -0.10707506171E+03  0.20567957974E+03  0.97774839779E+03  0.13449660362E+04  0.89396451316E+03 0.  0.
         23    2    4    4    0    0 -0.40679413364E+03 -0.71412406460E+02  0.21296554414E+03  0.47342492626E+03  0.90529767747E+02 0.  0.
         23    2    4    4    0    0  0.29971907193E+03  0.27709198620E+03  0.76478285365E+03  0.87154110994E+03  0.89886607417E+02 0.  0.
          3    1    3    3  502    0  0.76231754242E+02 -0.19673029869E+03  0.70513328332E+03  0.73602108532E+03  0.00000000000E+00 0. -1.
         -4    1    3    3    0  502  0.30843307464E+02 -0.89492810439E+01  0.16053541714E+03  0.16371627715E+03  0.00000000000E+00 0.  1.
         11    1    5    5    0    0 -0.30738173505E+03 -0.45443616854E+02  0.11460061515E+03  0.33118266010E+03  0.00000000000E+00 0.  1.
        -11    1    5    5    0    0 -0.99412398587E+02 -0.25968789606E+02  0.98364928989E+02  0.14224226616E+03  0.00000000000E+00 0. -1.
          3    1    6    6  503    0  0.34474637648E+02  0.48226863606E+02  0.59241482594E+02  0.83808616945E+02  0.00000000000E+00 0. -1.
         -3    1    6    6    0  503  0.26524443429E+03  0.22886512259E+03  0.70554137105E+03  0.78773249300E+03  0.00000000000E+00 0.  1.
<mgrwt>
<rscale>  0 0.12808227E+04</rscale>
<asrwt>0</asrwt>
<pdfrwt beam="1">  1        1 0.31447079E+00 0.12808227E+04</pdfrwt>
<pdfrwt beam="2">  1       -2 0.30868178E-01 0.12808227E+04</pdfrwt>
<totfact> 0.23393934E+01</totfact>
</mgrwt>
</event>
<event>
12    4  0.4280696E-008  0.2950779E+04  0.7818608E-02  0.8257928E-01
          1   -1    0    0  501    0  0.00000000000E+00  0.00000000000E+00  0.12367801545E+04  0.12367801545E+04  0.00000000000E+00 0. -1.
         -2   -1    0    0    0  501 -0.00000000000E+00 -0.00000000000E+00 -0.17600329507E+04  0.17600329507E+04  0.00000000000E+00 0.  1.
        -24    2    1    2    0    0  0.46416623930E+03 -0.64289242571E+03 -0.13199666630E+04  0.15427156793E+04  0.94332958194E+02 0.  0.
        254    2    1    2    0    0 -0.46416623930E+03  0.64289242571E+03  0.79671386669E+03  0.14540974259E+04  0.92243448002E+03 0.  0.
         23    2    4    4    0    0 -0.28744532870E+03 -0.15360027678E+03  0.45111721945E+02  0.34115489975E+03  0.90187228264E+02 0.  0.
         23    2    4    4    0    0 -0.17672091060E+03  0.79649270249E+03  0.75160214474E+03  0.11129425262E+04  0.90024314534E+02 0.  0.
          1    1    3    3  502    0  0.16738504202E+03 -0.22430252109E+03 -0.38181030871E+03  0.47340097708E+03  0.00000000000E+00 0. -1.
         -2    1    3    3    0  502  0.29678119728E+03 -0.41858990461E+03 -0.93815635427E+03  0.10693147022E+04  0.00000000000E+00 0.  1.
         11    1    5    5    0    0 -0.20809311317E+03 -0.78251822883E+02 -0.12220679523E+01  0.22232315440E+03  0.00000000000E+00 0. -1.
        -11    1    5    5    0    0 -0.79352215536E+02 -0.75348453900E+02  0.46333789897E+02  0.11883174535E+03  0.00000000000E+00 0.  1.
          1    1    6    6  503    0 -0.10997620678E+03  0.33778722938E+03  0.36519349213E+03  0.50947155474E+03  0.00000000000E+00 0. -1.
         -1    1    6    6    0  503 -0.66744703823E+02  0.45870547310E+03  0.38640865262E+03  0.60347097143E+03  0.00000000000E+00 0.  1.
<mgrwt>
<rscale>  0 0.29507788E+04</rscale>
<asrwt>0</asrwt>
<pdfrwt beam="1">  1        1 0.19027387E+00 0.29507788E+04</pdfrwt>
<pdfrwt beam="2">  1       -2 0.27077430E+00 0.29507788E+04</pdfrwt>
<totfact> 0.36130295E-01</totfact>
</mgrwt>
</event>
<event>
12    4  0.4280696E-008  0.3334109E+04  0.7818608E-02  0.8154270E-01
         -2   -1    0    0    0  501 -0.00000000000E+00  0.00000000000E+00  0.10711544549E+04  0.10711544549E+04  0.00000000000E+00 0.  1.
          1   -1    0    0  501    0  0.00000000000E+00 -0.00000000000E+00 -0.25944631121E+04  0.25944631121E+04  0.00000000000E+00 0. -1.
        -24    2    1    2    0    0  0.58303896537E+03 -0.52840708841E+03 -0.21663274730E+04  0.23073973420E+04  0.10935852582E+03 0.  0.
        254    2    1    2    0    0 -0.58303896537E+03  0.52840708841E+03  0.64301881590E+03  0.13582202250E+04  0.90118837981E+03 0.  0.
         23    2    4    4    0    0 -0.49423351096E+03  0.50779620436E+03  0.11671350129E+02  0.71429622381E+03  0.89213936268E+02 0.  0.
         23    2    4    4    0    0 -0.88805454412E+02  0.20610884047E+02  0.63134746577E+03  0.64392400123E+03  0.87904946147E+02 0.  0.
          3    1    3    3  502    0  0.25556711964E+03 -0.28880153155E+03 -0.95551962862E+03  0.10304070254E+04  0.00000000000E+00 0. -1.
         -4    1    3    3    0  502  0.32747184573E+03 -0.23960555685E+03 -0.12108078444E+04  0.12769903166E+04  0.00000000000E+00 0.  1.
         11    1    5    5    0    0 -0.48405036150E+03  0.50605579805E+03  0.22094075494E+01  0.70028715874E+03  0.00000000000E+00 0.  1.
        -11    1    5    5    0    0 -0.10183149453E+02  0.17404063107E+01  0.94619425791E+01  0.14009065075E+02  0.00000000000E+00 0. -1.
          2    1    6    6  503    0 -0.36222373114E+02  0.21590442199E+02  0.83363284657E+02  0.93421864342E+02  0.00000000000E+00 0. -1.
         -2    1    6    6    0  503 -0.52583081298E+02 -0.97955815199E+00  0.54798418111E+03  0.55050213689E+03  0.00000000000E+00 0.  1.
<mgrwt>
<rscale>  0 0.33341090E+04</rscale>
<asrwt>0</asrwt>
<pdfrwt beam="1">  1        1 0.39914817E+00 0.33341090E+04</pdfrwt>
<pdfrwt beam="2">  1       -2 0.16479299E+00 0.33341090E+04</pdfrwt>
<totfact> 0.19684252E-01</totfact>
</mgrwt>
</event>
<event>
12    4  0.4280696E-008  0.1843617E+04  0.7818608E-02  0.8683442E-01
          1   -1    0    0  501    0  0.00000000000E+00  0.00000000000E+00  0.47282519901E+03  0.47282519901E+03  0.00000000000E+00 0. -1.
         -2   -1    0    0    0  501 -0.00000000000E+00 -0.00000000000E+00 -0.17971361448E+04  0.17971361448E+04  0.00000000000E+00 0.  1.
        -24    2    1    2    0    0 -0.46440765646E+03  0.52304899623E+03 -0.45694502814E+03  0.83925514177E+03  0.79345512909E+02 0.  0.
        254    2    1    2    0    0  0.46440765646E+03 -0.52304899623E+03 -0.86736591762E+03  0.14307062020E+04  0.89740842293E+03 0.  0.
         23    2    4    4    0    0 -0.16604378771E+03 -0.45971173638E+03 -0.38075580273E+03  0.62630318524E+03  0.91516547808E+02 0.  0.
         23    2    4    4    0    0  0.63045144417E+03 -0.63337259857E+02 -0.48661011488E+03  0.80440301676E+03  0.93777276173E+02 0.  0.
          1    1    3    3  502    0 -0.98658792516E+02  0.12814417693E+03 -0.14456440728E+03  0.21691785375E+03  0.00000000000E+00 0. -1.
         -2    1    3    3    0  502 -0.36574886394E+03  0.39490481930E+03 -0.31238062086E+03  0.62233728803E+03  0.00000000000E+00 0.  1.
         11    1    5    5    0    0 -0.95216728259E+02 -0.37252025451E+03 -0.28341808151E+03  0.47766449972E+03  0.00000000000E+00 0. -1.
        -11    1    5    5    0    0 -0.70827059451E+02 -0.87191481862E+02 -0.97337721223E+02  0.14863868552E+03  0.00000000000E+00 0.  1.
          2    1    6    6  503    0  0.57077338099E+03 -0.82741989896E+02 -0.45185893200E+03  0.73266976447E+03  0.00000000000E+00 0. -1.
         -2    1    6    6    0  503  0.59678063175E+02  0.19404730039E+02 -0.34751182885E+02  0.71733252290E+02  0.00000000000E+00 0.  1.
<mgrwt>
<rscale>  0 0.18436174E+04</rscale>
<asrwt>0</asrwt>
<pdfrwt beam="1">  1        1 0.72742338E-01 0.18436174E+04</pdfrwt>
<pdfrwt beam="2">  1       -2 0.27648248E+00 0.18436174E+04</pdfrwt>
<totfact> 0.17433101E+00</totfact>
</mgrwt>
</event>
<event>
12    4  0.4280696E-008  0.2120330E+04  0.7818608E-02  0.8552340E-01
         -2   -1    0    0    0  501 -0.00000000000E+00  0.00000000000E+00  0.55880034257E+03  0.55880034257E+03  0.00000000000E+00 0.  1.
          1   -1    0    0  501    0  0.00000000000E+00 -0.00000000000E+00 -0.20113618515E+04  0.20113618515E+04  0.00000000000E+00 0. -1.
        -24    2    1    2    0    0  0.48324609796E+02 -0.17942593404E+03 -0.15442567460E+04  0.15573595298E+04  0.78172078555E+02 0.  0.
        254    2    1    2    0    0 -0.48324609796E+02  0.17942593404E+03  0.91695237087E+02  0.10128026642E+04  0.99137898224E+03 0.  0.
         23    2    4    4    0    0 -0.19868753072E+03  0.20823728851E+03 -0.39333504493E+03  0.49592341719E+03  0.91586434323E+02 0.  0.
         23    2    4    4    0    0  0.15036292093E+03 -0.28811354476E+02  0.48503028202E+03  0.51687924703E+03  0.92036293924E+02 0.  0.
          1    1    3    3  502    0  0.51334657173E+02 -0.18558499292E+03 -0.14311856490E+04  0.14440808144E+04  0.00000000000E+00 0. -1.
         -2    1    3    3    0  502 -0.30100473767E+01  0.61590588867E+01 -0.11307109701E+03  0.11327871544E+03  0.00000000000E+00 0.  1.
         11    1    5    5    0    0 -0.10009020539E+03  0.14403553447E+03 -0.17422536400E+03  0.24722209017E+03  0.00000000000E+00 0. -1.
        -11    1    5    5    0    0 -0.98597325336E+02  0.64201754044E+02 -0.21910968093E+03  0.24870132702E+03  0.00000000000E+00 0.  1.
          3    1    6    6  503    0  0.11686603097E+03 -0.43016121942E+02  0.25271466469E+03  0.28173171226E+03  0.00000000000E+00 0. -1.
         -3    1    6    6    0  503  0.33496889957E+02  0.14204767466E+02  0.23231561733E+03  0.23514753477E+03  0.00000000000E+00 0.  1.
<mgrwt>
<rscale>  0 0.21203299E+04</rscale>
<asrwt>0</asrwt>
<pdfrwt beam="1">  1        1 0.30944029E+00 0.21203299E+04</pdfrwt>
<pdfrwt beam="2">  1       -2 0.85969283E-01 0.21203299E+04</pdfrwt>
<totfact> 0.27716335E+00</totfact>
</mgrwt>
</event>
<event>
12    4  0.4280696E-008  0.1716388E+04  0.7818608E-02  0.8752072E-01
         -4   -1    0    0    0  501 -0.00000000000E+00  0.00000000000E+00  0.13993655833E+04  0.13993655833E+04  0.00000000000E+00 0.  1.
          3   -1    0    0  501    0  0.00000000000E+00 -0.00000000000E+00 -0.52630777906E+03  0.52630777906E+03  0.00000000000E+00 0. -1.
        -24    2    1    2    0    0  0.28309812361E+03 -0.17143680730E+03 -0.26635349430E+03  0.43216105942E+03  0.79270870240E+02 0.  0.
        254    2    1    2    0    0 -0.28309812361E+03  0.17143680730E+03  0.11394112985E+04  0.14935123029E+04  0.90707539120E+03 0.  0.
         23    2    4    4    0    0  0.47638808728E+02  0.44587462038E+03  0.30545280304E+03  0.55032096342E+03  0.92076678392E+02 0.  0.
         23    2    4    4    0    0 -0.33073693234E+03 -0.27443781308E+03  0.83395849550E+03  0.94319133952E+03  0.97057194885E+02 0.  0.
          3    1    3    3  502    0  0.25502877246E+03 -0.14765315379E+03 -0.19954506807E+03  0.35589234720E+03  0.00000000000E+00 0. -1.
         -4    1    3    3    0  502  0.28069351145E+02 -0.23783653509E+02 -0.66808426233E+02  0.76268712220E+02  0.00000000000E+00 0.  1.
         11    1    5    5    0    0 -0.21367193920E+02  0.79869675394E+02  0.79433824623E+02  0.11465362845E+03  0.00000000000E+00 0.  1.
        -11    1    5    5    0    0  0.69006002648E+02  0.36600494498E+03  0.22601897842E+03  0.43566733497E+03  0.00000000000E+00 0. -1.
          1    1    6    6  503    0 -0.15129860310E+03 -0.85313629070E+02  0.41305642629E+03  0.44809072062E+03  0.00000000000E+00 0. -1.
         -1    1    6    6    0  503 -0.17943832923E+03 -0.18912418401E+03  0.42090206921E+03  0.49510061890E+03  0.00000000000E+00 0.  1.
<mgrwt>
<rscale>  0 0.17163881E+04</rscale>
<asrwt>0</asrwt>
<pdfrwt beam="1">  1        3 0.80970428E-01 0.17163881E+04</pdfrwt>
<pdfrwt beam="2">  1       -4 0.21528701E+00 0.17163881E+04</pdfrwt>
<totfact> 0.32193162E-01</totfact>
</mgrwt>
</event>
<event>
12    4  0.4280696E-008  0.1993103E+04  0.7818608E-02  0.8609852E-01
          1   -1    0    0  501    0  0.00000000000E+00  0.00000000000E+00  0.10632116330E+04  0.10632116330E+04  0.00000000000E+00 0. -1.
         -2   -1    0    0    0  501 -0.00000000000E+00 -0.00000000000E+00 -0.93407063412E+03  0.93407063412E+03  0.00000000000E+00 0.  1.
        -24    2    1    2    0    0 -0.70942795417E+02  0.59107212699E+03  0.57563560079E+03  0.83203165969E+03  0.80753936763E+02 0.  0.
        254    2    1    2    0    0  0.70942795417E+02 -0.59107212699E+03 -0.44649460192E+03  0.11652506074E+04  0.89668969495E+03 0.  0.
         23    2    4    4    0    0  0.25319018228E+03 -0.52959542390E+03 -0.64417092314E+03  0.87578880843E+03  0.86448119377E+02 0.  0.
         23    2    4    4    0    0 -0.18224738686E+03 -0.61476703090E+02  0.19767632122E+03  0.28946179899E+03  0.87856189681E+02 0.  0.
          1    1    3    3  502    0 -0.62595649555E+02  0.57994349902E+03  0.57338741451E+03  0.81793997611E+03  0.00000000000E+00 0. -1.
         -2    1    3    3    0  502 -0.83471458622E+01  0.11128627965E+02  0.22481862763E+01  0.14091683574E+02  0.00000000000E+00 0.  1.
         11    1    5    5    0    0  0.21935300918E+03 -0.43719871803E+03 -0.57808363447E+03  0.75725765108E+03  0.00000000000E+00 0.  1.
        -11    1    5    5    0    0  0.33837173097E+02 -0.92396705873E+02 -0.66087288665E+02  0.11853115735E+03  0.00000000000E+00 0. -1.
          4    1    6    6  503    0 -0.16338018677E+03 -0.18694218707E+02  0.14795767327E+03  0.22121038023E+03  0.00000000000E+00 0. -1.
         -4    1    6    6    0  503 -0.18867200089E+02 -0.42782484382E+02  0.49718647950E+02  0.68251418763E+02  0.00000000000E+00 0.  1.
<mgrwt>
<rscale>  0 0.19931029E+04</rscale>
<asrwt>0</asrwt>
<pdfrwt beam="1">  1        1 0.16357102E+00 0.19931029E+04</pdfrwt>
<pdfrwt beam="2">  1       -2 0.14370318E+00 0.19931029E+04</pdfrwt>
<totfact> 0.36916266E+00</totfact>
</mgrwt>
</event>
<event>
12    4  0.4280696E-008  0.1508312E+04  0.7818608E-02  0.8878944E-01
         -2   -1    0    0    0  501 -0.00000000000E+00  0.00000000000E+00  0.90668924454E+03  0.90668924454E+03  0.00000000000E+00 0.  1.
          1   -1    0    0  501    0  0.00000000000E+00 -0.00000000000E+00 -0.62728360294E+03  0.62728360294E+03  0.00000000000E+00 0. -1.
        -24    2    1    2    0    0  0.15945622403E+02  0.32412163787E+03  0.46037982261E+03  0.56860703855E+03  0.77815706694E+02 0.  0.
        254    2    1    2    0    0 -0.15945622403E+02 -0.32412163787E+03 -0.18097418102E+03  0.96536580894E+03  0.89099404704E+03 0.  0.
         23    2    4    4    0    0  0.29028253792E+03 -0.37040129166E+03  0.15001858526E+03  0.50239872970E+03  0.91857710635E+02 0.  0.
         23    2    4    4    0    0 -0.30622816032E+03  0.46279653783E+02 -0.33099276628E+03  0.46296707923E+03  0.94153133753E+02 0.  0.
          3    1    3    3  502    0  0.30068852799E+02  0.94062114131E+02  0.97927609766E+02  0.13907420314E+03  0.00000000000E+00 0. -1.
         -4    1    3    3    0  502 -0.14123230396E+02  0.23005952374E+03  0.36245221285E+03  0.42953283541E+03  0.00000000000E+00 0.  1.
         11    1    5    5    0    0  0.11320493739E+03 -0.87124719214E+02  0.21487220007E+02  0.14445682805E+03  0.00000000000E+00 0. -1.
        -11    1    5    5    0    0  0.17707760053E+03 -0.28327657244E+03  0.12853136526E+03  0.35794190165E+03  0.00000000000E+00 0.  1.
          1    1    6    6  503    0 -0.35701587080E+02 -0.93220646915E+01 -0.86781115417E+02  0.94299873824E+02  0.00000000000E+00 0. -1.
         -1    1    6    6    0  503 -0.27052657324E+03  0.55601718474E+02 -0.24421165086E+03  0.36866720541E+03  0.00000000000E+00 0.  1.
<mgrwt>
<rscale>  0 0.15083120E+04</rscale>
<asrwt>0</asrwt>
<pdfrwt beam="1">  1        1 0.96505170E-01 0.15083120E+04</pdfrwt>
<pdfrwt beam="2">  1       -2 0.13949065E+00 0.15083120E+04</pdfrwt>
<totfact> 0.98420363E+00</totfact>
</mgrwt>
</event>
<event>
12    4  0.4280696E-008  0.1562566E+04  0.7818608E-02  0.8843881E-01
          1   -1    0    0  501    0  0.00000000000E+00  0.00000000000E+00  0.51208459045E+03  0.51208459045E+03  0.00000000000E+00 0. -1.
         -2   -1    0    0    0  501 -0.00000000000E+00 -0.00000000000E+00 -0.11919965291E+04  0.11919965291E+04  0.00000000000E+00 0.  1.
        -24    2    1    2    0    0  0.48828260185E+03 -0.24065125608E+02 -0.41520936427E+03  0.64629930493E+03  0.79403689028E+02 0.  0.
        254    2    1    2    0    0 -0.48828260185E+03  0.24065125608E+02 -0.26470257439E+03  0.10577818146E+04  0.89990882035E+03 0.  0.
         23    2    4    4    0    0  0.76753293978E+02 -0.23602218388E+03  0.15076841415E+03  0.30441916978E+03  0.91336612642E+02 0.  0.
         23    2    4    4    0    0 -0.56503589583E+03  0.26008730948E+03 -0.41547098854E+03  0.75336264485E+03  0.89600001166E+02 0.  0.
          1    1    3    3  502    0  0.69542222083E+02  0.24186669403E+02 -0.56314268035E+02  0.92695266402E+02  0.00000000000E+00 0. -1.
         -2    1    3    3    0  502  0.41874037977E+03 -0.48251795011E+02 -0.35889509623E+03  0.55360403852E+03  0.00000000000E+00 0.  1.
         11    1    5    5    0    0  0.69372353650E+01  0.78630394652E+01  0.33186721530E+01  0.10998463938E+02  0.00000000000E+00 0. -1.
        -11    1    5    5    0    0  0.69816058613E+02 -0.24388522334E+03  0.14744974199E+03  0.29342070585E+03  0.00000000000E+00 0.  1.
          4    1    6    6  503    0 -0.43171497192E+02  0.17937059398E+02 -0.58213593278E+01  0.47110556079E+02  0.00000000000E+00 0. -1.
         -4    1    6    6    0  503 -0.52186439864E+03  0.24215025009E+03 -0.40964962921E+03  0.70625208878E+03  0.00000000000E+00 0.  1.
<mgrwt>
<rscale>  0 0.15625659E+04</rscale>
<asrwt>0</asrwt>
<pdfrwt beam="1">  1        1 0.78782245E-01 0.15625659E+04</pdfrwt>
<pdfrwt beam="2">  1       -2 0.18338408E+00 0.15625659E+04</pdfrwt>
<totfact> 0.61980270E+00</totfact>
</mgrwt>
</event>
<event>
12    4  0.4280696E-008  0.1422625E+04  0.7818608E-02  0.8937602E-01
          1   -1    0    0  501    0  0.00000000000E+00  0.00000000000E+00  0.23757620493E+04  0.23757620493E+04  0.00000000000E+00 0. -1.
         -2   -1    0    0    0  501 -0.00000000000E+00 -0.00000000000E+00 -0.21296982411E+03  0.21296982411E+03  0.00000000000E+00 0.  1.
        -24    2    1    2    0    0 -0.18735729228E+03 -0.39439584545E+03  0.72533838430E+03  0.85041640072E+03  0.80258613159E+02 0.  0.
        254    2    1    2    0    0  0.18735729228E+03  0.39439584545E+03  0.14374538409E+04  0.17383154727E+04  0.87453776367E+03 0.  0.
         23    2    4    4    0    0 -0.21570038041E+03  0.45065851791E+03  0.50082888991E+03  0.71300927761E+03  0.89066823895E+02 0.  0.
         23    2    4    4    0    0  0.40305767269E+03 -0.56262672460E+02  0.93662495102E+03  0.10253061951E+04  0.91463211528E+02 0.  0.
          1    1    3    3  502    0 -0.15515503502E+03 -0.25712197212E+03  0.53527462621E+03  0.61376193992E+03  0.00000000000E+00 0. -1.
         -2    1    3    3    0  502 -0.32202257265E+02 -0.13727387333E+03  0.19006375810E+03  0.23665446080E+03  0.00000000000E+00 0.  1.
         11    1    5    5    0    0 -0.16485926721E+03  0.37120641828E+03  0.44872334576E+03  0.60524823336E+03  0.00000000000E+00 0.  1.
        -11    1    5    5    0    0 -0.50841113197E+02  0.79452099628E+02  0.52105544150E+02  0.10776104425E+03  0.00000000000E+00 0. -1.
          3    1    6    6  503    0  0.42210491677E+02 -0.44576547467E+01  0.18678567625E+03  0.19154760543E+03  0.00000000000E+00 0. -1.
         -3    1    6    6    0  503  0.36084718101E+03 -0.51805017714E+02  0.74983927478E+03  0.83375858970E+03  0.00000000000E+00 0.  1.
<mgrwt>
<rscale>  0 0.14226252E+04</rscale>
<asrwt>0</asrwt>
<pdfrwt beam="1">  1        1 0.36550184E+00 0.14226252E+04</pdfrwt>
<pdfrwt beam="2">  1       -2 0.32764590E-01 0.14226252E+04</pdfrwt>
<totfact> 0.12288279E+01</totfact>
</mgrwt>
</event>
<event>
12    4  0.4280696E-008  0.1770099E+04  0.7818608E-02  0.8722364E-01
         -2   -1    0    0    0  501 -0.00000000000E+00  0.00000000000E+00  0.10104852156E+04  0.10104852156E+04  0.00000000000E+00 0.  1.
          1   -1    0    0  501    0  0.00000000000E+00 -0.00000000000E+00 -0.77518438738E+03  0.77518438738E+03  0.00000000000E+00 0. -1.
        -24    2    1    2    0    0 -0.58568777974E+02 -0.52756753511E+03  0.46777173043E+03  0.71222400196E+03  0.81821948855E+02 0.  0.
        254    2    1    2    0    0  0.58568777974E+02  0.52756753511E+03 -0.23247090221E+03  0.10734456010E+04  0.90359555783E+03 0.  0.
         23    2    4    4    0    0 -0.25041977415E+03 -0.14245426779E+03 -0.38313068627E+02  0.30486045456E+03  0.92025669418E+02 0.  0.
         23    2    4    4    0    0  0.30898855212E+03  0.67002180290E+03 -0.19415783358E+03  0.76858514646E+03  0.92858609255E+02 0.  0.
          3    1    3    3  502    0  0.19935379785E+02 -0.12991761994E+03  0.10419997316E+03  0.16773086104E+03  0.00000000000E+00 0. -1.
         -4    1    3    3    0  502 -0.78504157759E+02 -0.39764991517E+03  0.36357175727E+03  0.54449314092E+03  0.00000000000E+00 0.  1.
         11    1    5    5    0    0 -0.75008642798E+02 -0.79793205436E+02 -0.45178754128E+02  0.11846675463E+03  0.00000000000E+00 0. -1.
        -11    1    5    5    0    0 -0.17541113135E+03 -0.62661062357E+02  0.68656855011E+01  0.18639369993E+03  0.00000000000E+00 0.  1.
          2    1    6    6  503    0  0.34905989655E+02  0.11696349954E+03 -0.18546547892E+01  0.12207509199E+03  0.00000000000E+00 0. -1.
         -2    1    6    6    0  503  0.27408256246E+03  0.55305830336E+03 -0.19230317879E+03  0.64651005447E+03  0.00000000000E+00 0.  1.
<mgrwt>
<rscale>  0 0.17700987E+04</rscale>
<asrwt>0</asrwt>
<pdfrwt beam="1">  1        1 0.11925914E+00 0.17700987E+04</pdfrwt>
<pdfrwt beam="2">  1       -2 0.15545926E+00 0.17700987E+04</pdfrwt>
<totfact> 0.52449483E+00</totfact>
</mgrwt>
</event>
<event>
12    4  0.4280696E-008  0.2310440E+04  0.7818608E-02  0.8473816E-01
          1   -1    0    0  501    0  0.00000000000E+00  0.00000000000E+00  0.77701829489E+03  0.77701829489E+03  0.00000000000E+00 0. -1.
         -2   -1    0    0    0  501 -0.00000000000E+00 -0.00000000000E+00 -0.17175060370E+04  0.17175060370E+04  0.00000000000E+00 0.  1.
        -24    2    1    2    0    0 -0.20594595158E+03 -0.77622596644E+03 -0.10029204285E+04  0.12872701679E+04  0.79212456915E+02 0.  0.
        254    2    1    2    0    0  0.20594595158E+03  0.77622596644E+03  0.62432686372E+02  0.12072541640E+04  0.89923539200E+03 0.  0.
         23    2    4    4    0    0 -0.17117207344E+03 -0.10081645896E+03 -0.89950181148E+02  0.23633655717E+03  0.91104862911E+02 0.  0.
         23    2    4    4    0    0  0.37711802501E+03  0.87704242540E+03  0.15238286752E+03  0.97091760683E+03  0.89660694793E+02 0.  0.
          1    1    3    3  502    0 -0.11890373212E+02 -0.13308410592E+03 -0.13765966823E+03  0.19184093536E+03  0.00000000000E+00 0. -1.
         -2    1    3    3    0  502 -0.19405557836E+03 -0.64314186053E+03 -0.86526076025E+03  0.10954292325E+04  0.00000000000E+00 0.  1.
         11    1    5    5    0    0 -0.29662039293E+02  0.14721816299E+02 -0.28204958686E+02  0.43498139554E+02  0.00000000000E+00 0. -1.
        -11    1    5    5    0    0 -0.14151003414E+03 -0.11553827526E+03 -0.61745222463E+02  0.19283841762E+03  0.00000000000E+00 0.  1.
          1    1    6    6  503    0  0.28338825648E+02  0.26182190797E+02 -0.12450895184E+01  0.38602414457E+02  0.00000000000E+00 0. -1.
         -1    1    6    6    0  503  0.34877919936E+03  0.85086023461E+03  0.15362795704E+03  0.93231519237E+03  0.00000000000E+00 0.  1.
<mgrwt>
<rscale>  0 0.23104403E+04</rscale>
<asrwt>0</asrwt>
<pdfrwt beam="1">  1        1 0.11954128E+00 0.23104403E+04</pdfrwt>
<pdfrwt beam="2">  1       -2 0.26423169E+00 0.23104403E+04</pdfrwt>
<totfact> 0.96377290E-01</totfact>
</mgrwt>
</event>
<event>
12    4  0.4280696E-008  0.1809045E+04  0.7818608E-02  0.8701504E-01
         -2   -1    0    0    0  501 -0.00000000000E+00  0.00000000000E+00  0.80233511598E+03  0.80233511598E+03  0.00000000000E+00 0.  1.
          1   -1    0    0  501    0  0.00000000000E+00 -0.00000000000E+00 -0.10197247294E+04  0.10197247294E+04  0.00000000000E+00 0. -1.
        -24    2    1    2    0    0  0.48632154992E+03  0.67174023450E+01  0.38792724515E+03  0.62680262869E+03  0.76421295461E+02 0.  0.
        254    2    1    2    0    0 -0.48632154992E+03 -0.67174023450E+01 -0.60531685862E+03  0.11952572167E+04  0.90866800396E+03 0.  0.
         23    2    4    4    0    0  0.25276462372E+03 -0.16237981510E+02 -0.71623570806E+02  0.27885149303E+03  0.92057548422E+02 0.  0.
         23    2    4    4    0    0 -0.73908617363E+03  0.95205791648E+01 -0.53369328782E+03  0.91640572371E+03  0.92908080931E+02 0.  0.
          3    1    3    3  502    0  0.27502558179E+02  0.16969022824E+02  0.36643460633E+02  0.48857769588E+02  0.00000000000E+00 0. -1.
         -2    1    3    3    0  502  0.45881899174E+03 -0.10251620479E+02  0.35128378452E+03  0.57794485911E+03  0.00000000000E+00 0.  1.
         11    1    5    5    0    0  0.10189052611E+03 -0.20333087294E+02  0.14770743516E+02  0.10494421668E+03  0.00000000000E+00 0. -1.
        -11    1    5    5    0    0  0.15087409761E+03  0.40951057839E+01 -0.86394314322E+02  0.17390727635E+03  0.00000000000E+00 0.  1.
          1    1    6    6  503    0 -0.21193358403E+03 -0.10009322736E+02 -0.20402608973E+03  0.29435127972E+03  0.00000000000E+00 0. -1.
         -1    1    6    6    0  503 -0.52715258960E+03  0.19529901901E+02 -0.32966719809E+03  0.62205444399E+03  0.00000000000E+00 0.  1.
<mgrwt>
<rscale>  0 0.18090450E+04</rscale>
<asrwt>0</asrwt>
<pdfrwt beam="1">  1        1 0.15688073E+00 0.18090450E+04</pdfrwt>
<pdfrwt beam="2">  1       -2 0.12343617E+00 0.18090450E+04</pdfrwt>
<totfact> 0.59739748E+00</totfact>
</mgrwt>
</event>
<event>
12    4  0.4280696E-008  0.1290149E+04  0.7818608E-02  0.9037414E-01
          1   -1    0    0  501    0  0.00000000000E+00  0.00000000000E+00  0.13738980682E+04  0.13738980682E+04  0.00000000000E+00 0. -1.
         -2   -1    0    0    0  501 -0.00000000000E+00 -0.00000000000E+00 -0.30287639678E+03  0.30287639678E+03  0.00000000000E+00 0.  1.
        -24    2    1    2    0    0  0.24792112568E+03  0.15099250737E+03  0.37243510891E+03  0.47980340292E+03  0.85086857184E+02 0.  0.
        254    2    1    2    0    0 -0.24792112568E+03 -0.15099250737E+03  0.69858656247E+03  0.11969710620E+04  0.92760601345E+03 0.  0.
         23    2    4    4    0    0 -0.38939681906E+03 -0.39560754373E+03  0.70018919680E+03  0.89819671273E+03  0.91417788703E+02 0.  0.
         23    2    4    4    0    0  0.14147569338E+03  0.24461503636E+03 -0.16026343226E+01  0.29877434929E+03  0.97013687294E+02 0.  0.
          1    1    3    3  502    0  0.19741348718E+03  0.11930434786E+03  0.23161763574E+03  0.32688276419E+03  0.00000000000E+00 0. -1.
         -2    1    3    3    0  502  0.50507638496E+02  0.31688159512E+02  0.14081747316E+03  0.15292063872E+03  0.00000000000E+00 0.  1.
         11    1    5    5    0    0 -0.57951291790E+02 -0.21308121432E+02  0.93526703371E+02  0.11206976623E+03  0.00000000000E+00 0. -1.
        -11    1    5    5    0    0 -0.33144552727E+03 -0.37429942230E+03  0.60666249343E+03  0.78612694650E+03  0.00000000000E+00 0.  1.
          1    1    6    6  503    0  0.14436121862E+03  0.17700557115E+03 -0.18085389333E+02  0.22912488946E+03  0.00000000000E+00 0. -1.
         -1    1    6    6    0  503 -0.28855252406E+01  0.67609465207E+02  0.16482755010E+02  0.69649459827E+02  0.00000000000E+00 0.  1.
<mgrwt>
<rscale>  0 0.12901493E+04</rscale>
<asrwt>0</asrwt>
<pdfrwt beam="1">  1        1 0.21136893E+00 0.12901493E+04</pdfrwt>
<pdfrwt beam="2">  1       -2 0.46596369E-01 0.12901493E+04</pdfrwt>
<totfact> 0.30184803E+01</totfact>
</mgrwt>
</event>
<event>
12    4  0.4280696E-008  0.2613533E+04  0.7818608E-02  0.8363619E-01
         -2   -1    0    0    0  501 -0.00000000000E+00  0.00000000000E+00  0.10417801789E+04  0.10417801789E+04  0.00000000000E+00 0.  1.
          1   -1    0    0  501    0  0.00000000000E+00 -0.00000000000E+00 -0.16391540785E+04  0.16391540785E+04  0.00000000000E+00 0. -1.
        -24    2    1    2    0    0 -0.38126164655E+03  0.21057869118E+03 -0.13558890159E+04  0.14264928554E+04  0.82115861129E+02 0.  0.
        254    2    1    2    0    0  0.38126164655E+03 -0.21057869118E+03  0.75851511632E+03  0.12544414020E+04  0.89920755168E+03 0.  0.
         23    2    4    4    0    0  0.15010439428E+03 -0.45225752858E+02  0.90490324552E+03  0.92282460610E+03  0.90436010293E+02 0.  0.
         23    2    4    4    0    0  0.23115725227E+03 -0.16535293832E+03 -0.14638812921E+03  0.33161679588E+03  0.88118927868E+02 0.  0.
          1    1    3    3  502    0 -0.38477977733E+03  0.21180181783E+03 -0.13389663062E+04  0.14091650919E+04  0.00000000000E+00 0. -1.
         -2    1    3    3    0  502  0.35181307883E+01 -0.12231266503E+01 -0.16922709701E+02  0.17327763464E+02  0.00000000000E+00 0.  1.
         11    1    5    5    0    0  0.62607049087E+02  0.31990875948E+01  0.17079694491E+03  0.18193810252E+03  0.00000000000E+00 0.  1.
        -11    1    5    5    0    0  0.87497345193E+02 -0.48424840453E+02  0.73410630061E+03  0.74088650358E+03  0.00000000000E+00 0. -1.
          4    1    6    6  503    0  0.56659177973E+02 -0.58370629555E+02 -0.85624460257E+02  0.11810563508E+03  0.00000000000E+00 0.  1.
         -4    1    6    6    0  503  0.17449807429E+03 -0.10698230877E+03 -0.60763668949E+02  0.21351116080E+03  0.00000000000E+00 0. -1.
<mgrwt>
<rscale>  0 0.26135327E+04</rscale>
<asrwt>0</asrwt>
<pdfrwt beam="1">  1        1 0.25217755E+00 0.26135327E+04</pdfrwt>
<pdfrwt beam="2">  1       -2 0.16027387E+00 0.26135327E+04</pdfrwt>
<totfact> 0.10162614E+00</totfact>
</mgrwt>
</event>
<event>
12    4  0.4280696E-008  0.1738219E+04  0.7818608E-02  0.8739862E-01
         -2   -1    0    0    0  501 -0.00000000000E+00  0.00000000000E+00  0.21351550346E+04  0.21351550346E+04  0.00000000000E+00 0.  1.
          1   -1    0    0  501    0  0.00000000000E+00 -0.00000000000E+00 -0.35376893653E+03  0.35376893653E+03  0.00000000000E+00 0. -1.
        -24    2    1    2    0    0 -0.57256198692E+03 -0.26711427313E+03  0.62871445556E+03  0.89478684952E+03  0.78640801510E+02 0.  0.
        254    2    1    2    0    0  0.57256198692E+03  0.26711427313E+03  0.11526716425E+04  0.15941371216E+04  0.90191129455E+03 0.  0.
         23    2    4    4    0    0  0.26971172783E+03  0.17265269783E+03  0.12136405877E+04  0.12587086742E+04  0.94184288955E+02 0.  0.
         23    2    4    4    0    0  0.30285025910E+03  0.94461575294E+02 -0.60968945215E+02  0.33542844735E+03  0.90298185843E+02 0.  0.
          3    1    3    3  502    0 -0.49382045764E+03 -0.20337671421E+03  0.54866324544E+03  0.76567100583E+03  0.00000000000E+00 0. -1.
         -4    1    3    3    0  502 -0.78741529283E+02 -0.63737558917E+02  0.80051210125E+02  0.12911584369E+03  0.00000000000E+00 0.  1.
         11    1    5    5    0    0  0.22554928762E+02  0.47410282321E+01  0.21755582301E+03  0.21877325770E+03  0.00000000000E+00 0. -1.
        -11    1    5    5    0    0  0.24715679906E+03  0.16791166960E+03  0.99608476470E+03  0.10399354165E+04  0.00000000000E+00 0.  1.
          1    1    6    6  503    0  0.30741764785E+02  0.17123034923E+02  0.20908548326E+02  0.40931916888E+02  0.00000000000E+00 0. -1.
         -1    1    6    6    0  503  0.27210849431E+03  0.77338540371E+02 -0.81877493541E+02  0.29449653046E+03  0.00000000000E+00 0.  1.
<mgrwt>
<rscale>  0 0.17382192E+04</rscale>
<asrwt>0</asrwt>
<pdfrwt beam="1">  1        1 0.54425992E-01 0.17382192E+04</pdfrwt>
<pdfrwt beam="2">  1       -2 0.32848538E+00 0.17382192E+04</pdfrwt>
<totfact> 0.12463569E+00</totfact>
</mgrwt>
</event>
<event>
12    4  0.4280696E-008  0.1098526E+04  0.7818608E-02  0.9206630E-01
          1   -1    0    0  501    0  0.00000000000E+00  0.00000000000E+00  0.44882013602E+03  0.44882013602E+03  0.00000000000E+00 0. -1.
         -2   -1    0    0    0  501 -0.00000000000E+00 -0.00000000000E+00 -0.67218404292E+03  0.67218404292E+03  0.00000000000E+00 0.  1.
        -24    2    1    2    0    0 -0.89322118448E+02 -0.25945193702E+02  0.10067262486E+03  0.15893884503E+03  0.80467292388E+02 0.  0.
        254    2    1    2    0    0  0.89322118448E+02  0.25945193702E+02 -0.32403653175E+03  0.96206533392E+03  0.90106516906E+03 0.  0.
         23    2    4    4    0    0  0.39085389142E+03  0.24804805871E+03 -0.33079236725E+03  0.57619648388E+03  0.91017547388E+02 0.  0.
         23    2    4    4    0    0 -0.30153177297E+03 -0.22210286501E+03  0.67558354914E+01  0.38586885004E+03  0.92725591705E+02 0.  0.
          1    1    3    3  502    0 -0.67876278365E+02 -0.24834576487E+02  0.11302965924E+03  0.13416277137E+03  0.00000000000E+00 0. -1.
         -2    1    3    3    0  502 -0.21445840083E+02 -0.11106172152E+01 -0.12357034381E+02  0.24776073663E+02  0.00000000000E+00 0.  1.
         11    1    5    5    0    0  0.10784008431E+03  0.29642156706E+02 -0.10478195099E+03  0.15325599007E+03  0.00000000000E+00 0.  1.
        -11    1    5    5    0    0  0.28301380711E+03  0.21840590201E+03 -0.22601041626E+03  0.42294049381E+03  0.00000000000E+00 0. -1.
          3    1    6    6  503    0 -0.26022707868E+03 -0.20872467094E+03  0.32861874445E+02  0.33520743358E+03  0.00000000000E+00 0. -1.
         -3    1    6    6    0  503 -0.41304694296E+02 -0.13378194071E+02 -0.26106038953E+02  0.50661416456E+02  0.00000000000E+00 0.  1.
<mgrwt>
<rscale>  0 0.10985258E+04</rscale>
<asrwt>0</asrwt>
<pdfrwt beam="1">  1        1 0.69049252E-01 0.10985258E+04</pdfrwt>
<pdfrwt beam="2">  1       -2 0.10341293E+00 0.10985258E+04</pdfrwt>
<totfact> 0.34132124E+01</totfact>
</mgrwt>
</event>
<event>
12    4  0.4280696E-008  0.1216147E+04  0.7818608E-02  0.9098839E-01
         -4   -1    0    0    0  501 -0.00000000000E+00  0.00000000000E+00  0.44443505161E+03  0.44443505161E+03  0.00000000000E+00 0.  1.
          3   -1    0    0  501    0  0.00000000000E+00 -0.00000000000E+00 -0.83196274840E+03  0.83196274840E+03  0.00000000000E+00 0. -1.
        -24    2    1    2    0    0  0.58020989760E+02  0.78621462687E+02  0.17376094473E+03  0.21387967962E+03  0.77484719733E+02 0.  0.
        254    2    1    2    0    0 -0.58020989760E+02 -0.78621462687E+02 -0.56128864152E+03  0.10625181204E+04  0.89685675970E+03 0.  0.
         23    2    4    4    0    0 -0.13353327594E+01 -0.46567323392E+03 -0.17621447136E+03  0.50597934918E+03  0.90056748624E+02 0.  0.
         23    2    4    4    0    0 -0.56685657001E+02  0.38705177123E+03 -0.38507417016E+03  0.55653877121E+03  0.91820204824E+02 0.  0.
          1    1    3    3  502    0  0.14023237441E+02  0.63253576746E+02  0.50635100085E+02  0.82228824144E+02  0.00000000000E+00 0. -1.
         -2    1    3    3    0  502  0.43997752319E+02  0.15367885941E+02  0.12312584464E+03  0.13165085547E+03  0.00000000000E+00 0.  1.
         11    1    5    5    0    0  0.15293043160E+02 -0.56412335793E+02  0.37933494546E+01  0.58571480251E+02  0.00000000000E+00 0. -1.
        -11    1    5    5    0    0 -0.16628375919E+02 -0.40926089813E+03 -0.18000782082E+03  0.44740786893E+03  0.00000000000E+00 0.  1.
          1    1    6    6  503    0 -0.46378284680E+02  0.69871251877E+02 -0.93216705825E+02  0.12538856157E+03  0.00000000000E+00 0. -1.
         -1    1    6    6    0  503 -0.10307372320E+02  0.31718051936E+03 -0.29185746434E+03  0.43115020964E+03  0.00000000000E+00 0.  1.
<mgrwt>
<rscale>  0 0.12161470E+04</rscale>
<asrwt>0</asrwt>
<pdfrwt beam="1">  1        3 0.12799427E+00 0.12161470E+04</pdfrwt>
<pdfrwt beam="2">  1       -4 0.68374623E-01 0.12161470E+04</pdfrwt>
<totfact> 0.21505445E+00</totfact>
</mgrwt>
</event>
<event>
12    4  0.4280696E-008  0.1299481E+04  0.7818608E-02  0.9029977E-01
         -2   -1    0    0    0  501 -0.00000000000E+00  0.00000000000E+00  0.26947305536E+03  0.26947305536E+03  0.00000000000E+00 0.  1.
          1   -1    0    0  501    0  0.00000000000E+00 -0.00000000000E+00 -0.15666220501E+04  0.15666220501E+04  0.00000000000E+00 0. -1.
        -24    2    1    2    0    0  0.89847149737E+02  0.30977363561E+03 -0.23369711375E+03  0.40661072301E+03  0.81766273367E+02 0.  0.
        254    2    1    2    0    0 -0.89847149737E+02 -0.30977363561E+03 -0.10634518810E+04  0.14294843824E+04  0.89914597303E+03 0.  0.
         23    2    4    4    0    0 -0.50756154366E+02 -0.15905167844E+03  0.12458491238E+03  0.22800903598E+03  0.92698956162E+02 0.  0.
         23    2    4    4    0    0 -0.39090995371E+02 -0.15072195717E+03 -0.11880367934E+04  0.12014753464E+04  0.88692567191E+02 0.  0.
          3    1    3    3  502    0  0.10071942629E+03  0.27273486747E+03 -0.18555926490E+03  0.34490716367E+03  0.00000000000E+00 0. -1.
         -4    1    3    3    0  502 -0.10872276556E+02  0.37038768145E+02 -0.48137848852E+02  0.61703559340E+02  0.00000000000E+00 0.  1.
         11    1    5    5    0    0 -0.42595581137E+02 -0.14080932102E+03  0.13976073493E+03  0.20291552786E+03  0.00000000000E+00 0.  1.
        -11    1    5    5    0    0 -0.81605732287E+01 -0.18242357423E+02 -0.15175822548E+02  0.25093508120E+02  0.00000000000E+00 0. -1.
          4    1    6    6  503    0  0.12152769442E+02 -0.93497852296E+02 -0.47161264783E+03  0.48094493217E+03  0.00000000000E+00 0. -1.
         -4    1    6    6    0  503 -0.51243764813E+02 -0.57224104872E+02 -0.71642414552E+03  0.72053041428E+03  0.00000000000E+00 0.  1.
<mgrwt>
<rscale>  0 0.12994806E+04</rscale>
<asrwt>0</asrwt>
<pdfrwt beam="1">  1        1 0.24101878E+00 0.12994806E+04</pdfrwt>
<pdfrwt beam="2">  1       -2 0.41457392E-01 0.12994806E+04</pdfrwt>
<totfact> 0.27962371E+01</totfact>
</mgrwt>
</event>
<event>
12    4  0.4280696E-008  0.1683701E+04  0.7818608E-02  0.8770715E-01
          1   -1    0    0  501    0  0.00000000000E+00  0.00000000000E+00  0.16776369068E+04  0.16776369068E+04  0.00000000000E+00 0. -1.
         -2   -1    0    0    0  501 -0.00000000000E+00 -0.00000000000E+00 -0.42244687602E+03  0.42244687602E+03  0.00000000000E+00 0.  1.
        -24    2    1    2    0    0  0.53353177483E+03 -0.18064440410E+03  0.46694541710E+03  0.73591137522E+03  0.78987177123E+02 0.  0.
        254    2    1    2    0    0 -0.53353177483E+03  0.18064440410E+03  0.78824461365E+03  0.13641724076E+04  0.96038962465E+03 0.  0.
         23    2    4    4    0    0 -0.27025645707E+03 -0.32507251931E+03  0.62630936489E+02  0.43699905149E+03  0.91295352549E+02 0.  0.
         23    2    4    4    0    0 -0.26327531776E+03  0.50571692341E+03  0.72561367716E+03  0.92717335608E+03  0.89842774763E+02 0.  0.
          3    1    3    3  502    0  0.43671053702E+03 -0.17169270756E+03  0.36048284612E+03  0.59172828335E+03  0.00000000000E+00 0. -1.
         -4    1    3    3    0  502  0.96821237804E+02 -0.89516965401E+01  0.10646257098E+03  0.14418309187E+03  0.00000000000E+00 0.  1.
         11    1    5    5    0    0 -0.12330205554E+03 -0.17097046181E+03 -0.12575866859E+02  0.21116924051E+03  0.00000000000E+00 0. -1.
        -11    1    5    5    0    0 -0.14695440153E+03 -0.15410205750E+03  0.75206803349E+02  0.22582981098E+03  0.00000000000E+00 0.  1.
          4    1    6    6  503    0 -0.22983776485E+03  0.44780263531E+03  0.58687816720E+03  0.77316142006E+03  0.00000000000E+00 0. -1.
         -4    1    6    6    0  503 -0.33437552906E+02  0.57914288100E+02  0.13873550996E+03  0.15401193602E+03  0.00000000000E+00 0.  1.
<mgrwt>
<rscale>  0 0.16837012E+04</rscale>
<asrwt>0</asrwt>
<pdfrwt beam="1">  1        1 0.25809798E+00 0.16837012E+04</pdfrwt>
<pdfrwt beam="2">  1       -2 0.64991828E-01 0.16837012E+04</pdfrwt>
<totfact> 0.90165641E+00</totfact>
</mgrwt>
</event>
<event>
12    4  0.4280696E-008  0.1962834E+04  0.7818608E-02  0.8624197E-01
         -2   -1    0    0    0  501 -0.00000000000E+00  0.00000000000E+00  0.43987418016E+03  0.43987418016E+03  0.00000000000E+00 0.  1.
          1   -1    0    0  501    0  0.00000000000E+00 -0.00000000000E+00 -0.21896699781E+04  0.21896699781E+04  0.00000000000E+00 0. -1.
        -24    2    1    2    0    0  0.22649010655E+03  0.61315677764E+03 -0.12374998404E+04  0.14017337404E+04  0.78693211050E+02 0.  0.
        254    2    1    2    0    0 -0.22649010655E+03 -0.61315677764E+03 -0.51229595753E+03  0.12278104179E+04  0.90432973629E+03 0.  0.
         23    2    4    4    0    0 -0.15730638502E+03  0.15838871683E+03  0.76417680343E+02  0.25122603269E+03  0.86270349733E+02 0.  0.
         23    2    4    4    0    0 -0.69183721533E+02 -0.77154549447E+03 -0.58871363788E+03  0.97658438524E+03  0.84050441455E+02 0.  0.
          1    1    3    3  502    0  0.17796958063E+03  0.50750378771E+03 -0.95087136038E+03  0.10924237320E+04  0.00000000000E+00 0. -1.
         -2    1    3    3    0  502  0.48520525924E+02  0.10565298993E+03 -0.28662848005E+03  0.30931000839E+03  0.00000000000E+00 0.  1.
         11    1    5    5    0    0 -0.16555073928E+03  0.16031374182E+03  0.70860818258E+02  0.24109914695E+03  0.00000000000E+00 0.  1.
        -11    1    5    5    0    0  0.82443542678E+01 -0.19250249904E+01  0.55568620848E+01  0.10126885737E+02  0.00000000000E+00 0. -1.
          2    1    6    6  503    0 -0.40271145501E+02 -0.18821851715E+03 -0.11204772833E+03  0.22271656603E+03  0.00000000000E+00 0. -1.
         -2    1    6    6    0  503 -0.28912576033E+02 -0.58332697732E+03 -0.47666590955E+03  0.75386781921E+03  0.00000000000E+00 0.  1.
<mgrwt>
<rscale>  0 0.19628340E+04</rscale>
<asrwt>0</asrwt>
<pdfrwt beam="1">  1        1 0.33687231E+00 0.19628340E+04</pdfrwt>
<pdfrwt beam="2">  1       -2 0.67672950E-01 0.19628340E+04</pdfrwt>
<totfact> 0.36218820E+00</totfact>
</mgrwt>
</event>
<event>
12    4  0.4280696E-008  0.1579649E+04  0.7818608E-02  0.8833149E-01
          1   -1    0    0  501    0  0.00000000000E+00  0.00000000000E+00  0.81870092565E+03  0.81870092565E+03  0.00000000000E+00 0. -1.
         -2   -1    0    0    0  501 -0.00000000000E+00 -0.00000000000E+00 -0.76196700191E+03  0.76196700191E+03  0.00000000000E+00 0.  1.
        -24    2    1    2    0    0  0.43837282036E+03  0.20304073227E+03 -0.20735261347E+03  0.53207787749E+03  0.81948110431E+02 0.  0.
        254    2    1    2    0    0 -0.43837282036E+03 -0.20304073227E+03  0.26408653720E+03  0.10485900501E+04  0.89241421178E+03 0.  0.
         23    2    4    4    0    0 -0.54621365391E+02 -0.15237198412E+02 -0.30954346622E+03  0.32690231202E+03  0.88500273160E+02 0.  0.
         23    2    4    4    0    0 -0.38375145497E+03 -0.18780353386E+03  0.57363000343E+03  0.72168773806E+03  0.96158535271E+02 0.  0.
          1    1    3    3  502    0  0.24357721602E+02  0.15085029997E+02 -0.36393343830E+02  0.46317731019E+02  0.00000000000E+00 0. -1.
         -4    1    3    3    0  502  0.41401509876E+03  0.18795570228E+03 -0.17095926964E+03  0.48576014647E+03  0.00000000000E+00 0.  1.
         11    1    5    5    0    0 -0.13352648161E+01 -0.24066620649E+01 -0.23160573644E+03  0.23162208899E+03  0.00000000000E+00 0. -1.
        -11    1    5    5    0    0 -0.53286100575E+02 -0.12830536347E+02 -0.77937729782E+02  0.95280223032E+02  0.00000000000E+00 0.  1.
          1    1    6    6  503    0 -0.26104873565E+03 -0.76150062180E+02  0.34871282970E+03  0.44220573487E+03  0.00000000000E+00 0. -1.
         -1    1    6    6    0  503 -0.12270271932E+03 -0.11165347168E+03  0.22491717373E+03  0.27948200318E+03  0.00000000000E+00 0.  1.
<mgrwt>
<rscale>  0 0.15796494E+04</rscale>
<asrwt>0</asrwt>
<pdfrwt beam="1">  1        1 0.12595399E+00 0.15796494E+04</pdfrwt>
<pdfrwt beam="2">  1       -2 0.11722569E+00 0.15796494E+04</pdfrwt>
<totfact> 0.10088548E+01</totfact>
</mgrwt>
</event>
<event>
12    4  0.4280696E-008  0.2231456E+04  0.7818608E-02  0.8505449E-01
          1   -1    0    0  501    0  0.00000000000E+00  0.00000000000E+00  0.32110497861E+04  0.32110497861E+04  0.00000000000E+00 0. -1.
         -2   -1    0    0    0  501 -0.00000000000E+00 -0.00000000000E+00 -0.38767648600E+03  0.38767648600E+03  0.00000000000E+00 0.  1.
        -24    2    1    2    0    0 -0.12388139317E+03 -0.50521128442E+03  0.24165053796E+04  0.24731548486E+04  0.80072553615E+02 0.  0.
        254    2    1    2    0    0  0.12388139317E+03  0.50521128442E+03  0.40686792049E+03  0.11255714235E+04  0.91147379736E+03 0.  0.
         23    2    4    4    0    0 -0.12749618190E+03  0.61961178194E+03  0.50965814189E+03  0.81736819551E+03  0.90362097747E+02 0.  0.
         23    2    4    4    0    0  0.25137757506E+03 -0.11440049752E+03 -0.10279022139E+03  0.30820322803E+03  0.90250989352E+02 0.  0.
          3    1    3    3  502    0 -0.47384855492E+02 -0.89734373893E+02  0.56752027541E+03  0.57652133125E+03  0.00000000000E+00 0. -1.
         -4    1    3    3    0  502 -0.76496537674E+02 -0.41547691053E+03  0.18489851042E+04  0.18966335173E+04  0.00000000000E+00 0.  1.
         11    1    5    5    0    0 -0.12516601357E+03  0.45832992261E+03  0.34736856005E+03  0.58855566042E+03  0.00000000000E+00 0. -1.
        -11    1    5    5    0    0 -0.23301683273E+01  0.16128185934E+03  0.16228958184E+03  0.22881253508E+03  0.00000000000E+00 0.  1.
          2    1    6    6  503    0  0.22546970999E+03 -0.64834015008E+02 -0.81505721791E+02  0.24836107245E+03  0.00000000000E+00 0. -1.
         -2    1    6    6    0  503  0.25907865072E+02 -0.49566482512E+02 -0.21284499603E+02  0.59842155580E+02  0.00000000000E+00 0.  1.
<mgrwt>
<rscale>  0 0.22314556E+04</rscale>
<asrwt>0</asrwt>
<pdfrwt beam="1">  1        1 0.49400764E+00 0.22314556E+04</pdfrwt>
<pdfrwt beam="2">  1       -2 0.59642538E-01 0.22314556E+04</pdfrwt>
<totfact> 0.87530560E-01</totfact>
</mgrwt>
</event>
<event>
12    4  0.4280696E-008  0.1792445E+04  0.7818608E-02  0.8710328E-01
          1   -1    0    0  501    0  0.00000000000E+00  0.00000000000E+00  0.12148680279E+04  0.12148680279E+04  0.00000000000E+00 0. -1.
         -2   -1    0    0    0  501 -0.00000000000E+00 -0.00000000000E+00 -0.66115366637E+03  0.66115366637E+03  0.00000000000E+00 0.  1.
        -24    2    1    2    0    0  0.53253668636E+03  0.40887134415E+03  0.20794161037E+03  0.70734542728E+03  0.79540818403E+02 0.  0.
        254    2    1    2    0    0 -0.53253668636E+03 -0.40887134415E+03  0.34577275113E+03  0.11686762670E+04  0.89189367256E+03 0.  0.
         23    2    4    4    0    0 -0.12105373774E+03  0.10305944894E+03  0.46124200176E+03  0.49614050343E+03  0.90199542814E+02 0.  0.
         23    2    4    4    0    0 -0.41148294861E+03 -0.51193079309E+03 -0.11546925063E+03  0.67253576353E+03  0.87062342380E+02 0.  0.
          3    1    3    3  502    0  0.46558533045E+03  0.38648946654E+03  0.19355461198E+03  0.63530087006E+03  0.00000000000E+00 0. -1.
         -4    1    3    3    0  502  0.66951355906E+02  0.22381877607E+02  0.14386998390E+02  0.72044557224E+02  0.00000000000E+00 0.  1.
         11    1    5    5    0    0 -0.55272039337E+02  0.19183086550E+02  0.73114076410E+02  0.93641109089E+02  0.00000000000E+00 0. -1.
        -11    1    5    5    0    0 -0.65781698407E+02  0.83876362393E+02  0.38812792535E+03  0.40249939435E+03  0.00000000000E+00 0.  1.
          1    1    6    6  503    0 -0.13069244874E+02 -0.23598338303E+02 -0.23195569260E+02  0.35576975216E+02  0.00000000000E+00 0. -1.
         -1    1    6    6    0  503 -0.39841370374E+03 -0.48833245479E+03 -0.92273681370E+02  0.63695878831E+03  0.00000000000E+00 0.  1.
<mgrwt>
<rscale>  0 0.17924446E+04</rscale>
<asrwt>0</asrwt>
<pdfrwt beam="1">  1        1 0.18690277E+00 0.17924446E+04</pdfrwt>
<pdfrwt beam="2">  1       -2 0.10171595E+00 0.17924446E+04</pdfrwt>
<totfact> 0.68466690E+00</totfact>
</mgrwt>
</event>
<event>
12    4  0.4280696E-008  0.2653575E+04  0.7818608E-02  0.8350228E-01
          1   -1    0    0  501    0  0.00000000000E+00  0.00000000000E+00  0.22143980540E+04  0.22143980540E+04  0.00000000000E+00 0. -1.
         -2   -1    0    0    0  501 -0.00000000000E+00 -0.00000000000E+00 -0.79496295922E+03  0.79496295922E+03  0.00000000000E+00 0.  1.
        -24    2    1    2    0    0  0.84859169383E+03 -0.50104453417E+03 -0.91760043372E+02  0.99270308752E+03  0.76720442937E+02 0.  0.
        254    2    1    2    0    0 -0.84859169383E+03  0.50104453417E+03  0.15111951382E+04  0.20166579257E+04  0.90113537032E+03 0.  0.
         23    2    4    4    0    0 -0.76542551707E+03  0.19545686100E+03  0.46778894025E+03  0.92242479129E+03  0.89226656730E+02 0.  0.
         23    2    4    4    0    0 -0.83166176761E+02  0.30558767317E+03  0.10434061979E+04  0.10942331344E+04  0.91374064492E+02 0.  0.
          3    1    3    3  502    0  0.36804039534E+03 -0.20544432700E+03 -0.25602434270E+01  0.42150641625E+03  0.00000000000E+00 0. -1.
         -4    1    3    3    0  502  0.48055129849E+03 -0.29560020717E+03 -0.89199799945E+02  0.57119667127E+03  0.00000000000E+00 0.  1.
         11    1    5    5    0    0 -0.42430460843E+03  0.12957265023E+03  0.30756967708E+03  0.53983569601E+03  0.00000000000E+00 0. -1.
        -11    1    5    5    0    0 -0.34112090863E+03  0.65884210769E+02  0.16021926317E+03  0.38258909528E+03  0.00000000000E+00 0.  1.
          4    1    6    6  503    0  0.83921240561E+01  0.10679455110E+02  0.13984862772E+02  0.19494996649E+02  0.00000000000E+00 0. -1.
         -4    1    6    6    0  503 -0.91558300817E+02  0.29490821806E+03  0.10294213351E+04  0.10747381378E+04  0.00000000000E+00 0.  1.
<mgrwt>
<rscale>  0 0.26535745E+04</rscale>
<asrwt>0</asrwt>
<pdfrwt beam="1">  1        1 0.34067662E+00 0.26535745E+04</pdfrwt>
<pdfrwt beam="2">  1       -2 0.12230199E+00 0.26535745E+04</pdfrwt>
<totfact> 0.83114358E-01</totfact>
</mgrwt>
</event>
<event>
12    4  0.4280696E-008  0.2128886E+04  0.7818608E-02  0.8548625E-01
          1   -1    0    0  501    0  0.00000000000E+00  0.00000000000E+00  0.39367171688E+03  0.39367171688E+03  0.00000000000E+00 0. -1.
         -2   -1    0    0    0  501 -0.00000000000E+00 -0.00000000000E+00 -0.28781307069E+04  0.28781307069E+04  0.00000000000E+00 0.  1.
        -24    2    1    2    0    0  0.15425249096E+03  0.63644308436E+03 -0.12872091355E+03  0.67206611724E+03  0.79057964524E+02 0.  0.
        254    2    1    2    0    0 -0.15425249096E+03 -0.63644308436E+03 -0.23557380764E+04  0.25997363065E+04  0.88333082593E+03 0.  0.
         23    2    4    4    0    0 -0.31384193790E+02  0.88142135076E+02 -0.13191160853E+04  0.13257436538E+04  0.93674892788E+02 0.  0.
         23    2    4    4    0    0 -0.12286829717E+03 -0.72458521944E+03 -0.10366219912E+04  0.12739926527E+04  0.91388007803E+02 0.  0.
          3    1    3    3  502    0  0.15287466552E+03  0.53155381863E+03 -0.90688326544E+02  0.56048594811E+03  0.00000000000E+00 0. -1.
         -4    1    3    3    0  502  0.13778254487E+01  0.10488926573E+03 -0.38032587002E+02  0.11158016913E+03  0.00000000000E+00 0.  1.
         11    1    5    5    0    0 -0.61683246458E+02  0.79292932632E+02 -0.10442263114E+04  0.10490475592E+04  0.00000000000E+00 0. -1.
        -11    1    5    5    0    0  0.30299052668E+02  0.88492024442E+01 -0.27488977387E+03  0.27669609458E+03  0.00000000000E+00 0.  1.
          3    1    6    6  503    0 -0.76784037521E+02 -0.47754430882E+03 -0.60541545711E+03  0.77490143310E+03  0.00000000000E+00 0. -1.
         -3    1    6    6    0  503 -0.46084259653E+02 -0.24704091062E+03 -0.43120653407E+03  0.49909121965E+03  0.00000000000E+00 0.  1.
<mgrwt>
<rscale>  0 0.21288858E+04</rscale>
<asrwt>0</asrwt>
<pdfrwt beam="1">  1        1 0.60564881E-01 0.21288858E+04</pdfrwt>
<pdfrwt beam="2">  1       -2 0.44278933E+00 0.21288858E+04</pdfrwt>
<totfact> 0.19081292E-01</totfact>
</mgrwt>
</event>
<event>
12    4  0.4280696E-008  0.1287431E+04  0.7818608E-02  0.9039593E-01
          1   -1    0    0  501    0  0.00000000000E+00  0.00000000000E+00  0.44586963274E+03  0.44586963274E+03  0.00000000000E+00 0. -1.
         -2   -1    0    0    0  501 -0.00000000000E+00 -0.00000000000E+00 -0.92935105384E+03  0.92935105384E+03  0.00000000000E+00 0.  1.
        -24    2    1    2    0    0  0.67884991727E+02  0.14331441419E+03 -0.42268693616E+03  0.45868805687E+03  0.81136268664E+02 0.  0.
        254    2    1    2    0    0 -0.67884991727E+02 -0.14331441419E+03 -0.60794484938E+02  0.91653262971E+03  0.90066014595E+03 0.  0.
         23    2    4    4    0    0 -0.35676692076E+03  0.22935561026E+03 -0.32730630783E+02  0.43536581617E+03  0.92657800457E+02 0.  0.
         23    2    4    4    0    0  0.28888192904E+03 -0.37267002445E+03 -0.28063854155E+02  0.48116681354E+03  0.91641729003E+02 0.  0.
          1    1    3    3  502    0 -0.12868098965E+02  0.49424511659E+02 -0.86955844190E+02  0.10084487673E+03  0.00000000000E+00 0. -1.
         -2    1    3    3    0  502  0.80753090692E+02  0.93889902535E+02 -0.33573109197E+03  0.35784318014E+03  0.00000000000E+00 0.  1.
         11    1    5    5    0    0 -0.30988033194E+03  0.15604732097E+03 -0.30901900065E+02  0.34832673445E+03  0.00000000000E+00 0. -1.
        -11    1    5    5    0    0 -0.46886588823E+02  0.73308289285E+02 -0.18287307180E+01  0.87039081713E+02  0.00000000000E+00 0.  1.
          4    1    6    6  503    0  0.80361100356E+02 -0.46867086315E+02 -0.14141859421E+02  0.94097940561E+02  0.00000000000E+00 0. -1.
         -4    1    6    6    0  503  0.20852082868E+03 -0.32580293814E+03 -0.13921994735E+02  0.38706887298E+03  0.00000000000E+00 0.  1.
<mgrwt>
<rscale>  0 0.12874306E+04</rscale>
<asrwt>0</asrwt>
<pdfrwt beam="1">  1        1 0.68595329E-01 0.12874306E+04</pdfrwt>
<pdfrwt beam="2">  1       -2 0.14297708E+00 0.12874306E+04</pdfrwt>
<totfact> 0.15140101E+01</totfact>
</mgrwt>
</event>
<event>
12    4  0.4280696E-008  0.1469956E+04  0.7818608E-02  0.8904681E-01
         -2   -1    0    0    0  501 -0.00000000000E+00  0.00000000000E+00  0.14626343863E+04  0.14626343863E+04  0.00000000000E+00 0.  1.
          1   -1    0    0  501    0  0.00000000000E+00 -0.00000000000E+00 -0.36932854044E+03  0.36932854044E+03  0.00000000000E+00 0. -1.
        -24    2    1    2    0    0 -0.30679280986E+03  0.29877107079E+03  0.15714345786E+03  0.46335130374E+03  0.81328859599E+02 0.  0.
        254    2    1    2    0    0  0.30679280986E+03 -0.29877107079E+03  0.93616238798E+03  0.13686116230E+04  0.90183799929E+03 0.  0.
         23    2    4    4    0    0  0.19025627833E+03 -0.37017243353E+03  0.71955698100E+01  0.42535494562E+03  0.87464115754E+02 0.  0.
         23    2    4    4    0    0  0.11653653153E+03  0.71401362738E+02  0.92896681817E+03  0.94325667737E+03  0.89860404793E+02 0.  0.
          1    1    3    3  502    0 -0.22605387524E+03  0.26513997174E+03  0.12496640898E+03  0.37015694306E+03  0.00000000000E+00 0. -1.
         -2    1    3    3    0  502 -0.80738934623E+02  0.33631099058E+02  0.32177048884E+02  0.93194360681E+02  0.00000000000E+00 0.  1.
         11    1    5    5    0    0  0.60463707468E+02 -0.97808756742E+02 -0.36175549628E+02  0.12054494269E+03  0.00000000000E+00 0.  1.
        -11    1    5    5    0    0  0.12979257086E+03 -0.27236367679E+03  0.43371119438E+02  0.30481000293E+03  0.00000000000E+00 0. -1.
          1    1    6    6  503    0  0.21158238187E+02  0.62367092493E+02  0.45094021369E+03  0.45572404106E+03  0.00000000000E+00 0. -1.
         -1    1    6    6    0  503  0.95378293341E+02  0.90342702451E+01  0.47802660448E+03  0.48753263631E+03  0.00000000000E+00 0.  1.
<mgrwt>
<rscale>  0 0.14699559E+04</rscale>
<asrwt>0</asrwt>
<pdfrwt beam="1">  1        1 0.56819776E-01 0.14699559E+04</pdfrwt>
<pdfrwt beam="2">  1       -2 0.22502067E+00 0.14699559E+04</pdfrwt>
<totfact> 0.51913460E+00</totfact>
</mgrwt>
</event>
<event>
12    4  0.4280696E-008  0.1264240E+04  0.7818608E-02  0.9058414E-01
         -2   -1    0    0    0  501 -0.00000000000E+00  0.00000000000E+00  0.47204621294E+03  0.47204621294E+03  0.00000000000E+00 0.  1.
          1   -1    0    0  501    0  0.00000000000E+00 -0.00000000000E+00 -0.84647563124E+03  0.84647563124E+03  0.00000000000E+00 0. -1.
        -24    2    1    2    0    0  0.14985004900E+03  0.19627862176E+03 -0.30873935555E+03  0.40330705255E+03  0.79726121374E+02 0.  0.
        254    2    1    2    0    0 -0.14985004900E+03 -0.19627862176E+03 -0.65690062757E+02  0.91521479163E+03  0.87881886411E+03 0.  0.
         23    2    4    4    0    0 -0.13571777232E+03 -0.88373067728E+02 -0.46026571286E+03  0.49657612411E+03  0.92272464892E+02 0.  0.
         23    2    4    4    0    0 -0.14132276680E+02 -0.10790555403E+03  0.39457565011E+03  0.41863866751E+03  0.87892323009E+02 0.  0.
          1    1    3    3  502    0  0.15295466060E+03  0.20141059799E+03 -0.30509714428E+03  0.39628982403E+03  0.00000000000E+00 0. -1.
         -2    1    3    3    0  502 -0.31046116021E+01 -0.51319762287E+01 -0.36422112664E+01  0.70172285214E+01  0.00000000000E+00 0.  1.
         11    1    5    5    0    0 -0.30047198301E+02 -0.73831826630E+02 -0.19349918438E+03  0.20927471683E+03  0.00000000000E+00 0. -1.
        -11    1    5    5    0    0 -0.10567057402E+03 -0.14541241098E+02 -0.26676652848E+03  0.28730140728E+03  0.00000000000E+00 0.  1.
          4    1    6    6  503    0 -0.30839808776E+02 -0.73039331227E+01  0.15590739922E+03  0.15909606650E+03  0.00000000000E+00 0. -1.
         -4    1    6    6    0  503  0.16707532096E+02 -0.10060162091E+03  0.23866825089E+03  0.25954260101E+03  0.00000000000E+00 0.  1.
<mgrwt>
<rscale>  0 0.12642399E+04</rscale>
<asrwt>0</asrwt>
<pdfrwt beam="1">  1        1 0.13022702E+00 0.12642399E+04</pdfrwt>
<pdfrwt beam="2">  1       -2 0.72622496E-01 0.12642399E+04</pdfrwt>
<totfact> 0.29855017E+01</totfact>
</mgrwt>
</event>
<event>
12    4  0.4280696E-008  0.1357335E+04  0.7818608E-02  0.8985294E-01
         -2   -1    0    0    0  501 -0.00000000000E+00  0.00000000000E+00  0.51102092655E+03  0.51102092655E+03  0.00000000000E+00 0.  1.
          1   -1    0    0  501    0  0.00000000000E+00 -0.00000000000E+00 -0.90131300509E+03  0.90131300509E+03  0.00000000000E+00 0. -1.
        -24    2    1    2    0    0 -0.27100218471E+03  0.14967781330E+03  0.11389173122E+03  0.33933617721E+03  0.79574385391E+02 0.  0.
        254    2    1    2    0    0  0.27100218471E+03 -0.14967781330E+03 -0.50418380975E+03  0.10729977544E+04  0.89514090237E+03 0.  0.
         23    2    4    4    0    0 -0.48811684338E+02  0.33408612294E+03 -0.26841939798E+03  0.44082066563E+03  0.90982239856E+02 0.  0.
         23    2    4    4    0    0  0.31981386905E+03 -0.48376393624E+03 -0.23576441177E+03  0.63217708880E+03  0.88059962006E+02 0.  0.
          1    1    3    3  502    0 -0.30454038958E+02  0.42046773126E+02 -0.81749465457E+00  0.51923481361E+02  0.00000000000E+00 0. -1.
         -2    1    3    3    0  502 -0.24054814575E+03  0.10763104018E+03  0.11470922587E+03  0.28741269585E+03  0.00000000000E+00 0.  1.
         11    1    5    5    0    0 -0.42833135653E+02  0.55230105226E+02 -0.41769978661E+02  0.81423418932E+02  0.00000000000E+00 0.  1.
        -11    1    5    5    0    0 -0.59785486843E+01  0.27885601771E+03 -0.22664941932E+03  0.35939724670E+03  0.00000000000E+00 0. -1.
          3    1    6    6  503    0  0.22366198040E+03 -0.33765605232E+03 -0.11995452240E+03  0.42240428334E+03  0.00000000000E+00 0. -1.
         -3    1    6    6    0  503  0.96151888650E+02 -0.14610788392E+03 -0.11580988937E+03  0.20977280546E+03  0.00000000000E+00 0.  1.
<mgrwt>
<rscale>  0 0.13573353E+04</rscale>
<asrwt>0</asrwt>
<pdfrwt beam="1">  1        1 0.13866354E+00 0.13573353E+04</pdfrwt>
<pdfrwt beam="2">  1       -2 0.78618605E-01 0.13573353E+04</pdfrwt>
<totfact> 0.22373384E+01</totfact>
</mgrwt>
</event>
<event>
12    4  0.4280696E-008  0.3216800E+04  0.7818608E-02  0.8184394E-01
          1   -1    0    0  501    0  0.00000000000E+00  0.00000000000E+00  0.27784067166E+04  0.27784067166E+04  0.00000000000E+00 0. -1.
         -2   -1    0    0    0  501 -0.00000000000E+00 -0.00000000000E+00 -0.93109163893E+03  0.93109163893E+03  0.00000000000E+00 0.  1.
        -24    2    1    2    0    0 -0.18794240718E+03  0.10454534750E+04  0.20416672700E+04  0.23027970838E+04  0.78573856250E+02 0.  0.
        254    2    1    2    0    0  0.18794240718E+03 -0.10454534750E+04 -0.19435219238E+03  0.14067012717E+04  0.90152114585E+03 0.  0.
         23    2    4    4    0    0  0.34553122101E+03 -0.78717132986E+03  0.21430753446E+03  0.89030267738E+03  0.87639093920E+02 0.  0.
         23    2    4    4    0    0 -0.15758881383E+03 -0.25828214511E+03 -0.40865972685E+03  0.51639859433E+03  0.90115676504E+02 0.  0.
          1    1    3    3  502    0 -0.17529428734E+03  0.10154810257E+04  0.19502911076E+04  0.22058026215E+04  0.00000000000E+00 0. -1.
         -4    1    3    3    0  502 -0.12648119841E+02  0.29972449237E+02  0.91376162405E+02  0.96994462237E+02  0.00000000000E+00 0.  1.
         11    1    5    5    0    0  0.25625177249E+03 -0.64494969704E+03  0.14697816607E+03  0.70938541282E+03  0.00000000000E+00 0.  1.
        -11    1    5    5    0    0  0.89279448518E+02 -0.14222163282E+03  0.67329368396E+02  0.18091726456E+03  0.00000000000E+00 0. -1.
          4    1    6    6  503    0 -0.85035799012E+02 -0.20920470875E+03 -0.32098687687E+03  0.39246690612E+03  0.00000000000E+00 0. -1.
         -4    1    6    6    0  503 -0.72553014820E+02 -0.49077436353E+02 -0.87672849972E+02  0.12393168820E+03  0.00000000000E+00 0.  1.
<mgrwt>
<rscale>  0 0.32168004E+04</rscale>
<asrwt>0</asrwt>
<pdfrwt beam="1">  1        1 0.42744718E+00 0.32168004E+04</pdfrwt>
<pdfrwt beam="2">  1       -2 0.14324487E+00 0.32168004E+04</pdfrwt>
<totfact> 0.21469113E-01</totfact>
</mgrwt>
</event>
<event>
12    4  0.4280696E-008  0.2036717E+04  0.7818608E-02  0.8589644E-01
          1   -1    0    0  501    0  0.00000000000E+00  0.00000000000E+00  0.57762263467E+03  0.57762263467E+03  0.00000000000E+00 0. -1.
         -2   -1    0    0    0  501 -0.00000000000E+00 -0.00000000000E+00 -0.17953835754E+04  0.17953835754E+04  0.00000000000E+00 0.  1.
        -24    2    1    2    0    0  0.78807759849E+03 -0.17898919622E+03 -0.49302246748E+03  0.95005505788E+03  0.80187442599E+02 0.  0.
        254    2    1    2    0    0 -0.78807759849E+03  0.17898919622E+03 -0.72473847321E+03  0.14229511521E+04  0.92002211562E+03 0.  0.
         23    2    4    4    0    0 -0.47649179054E+03  0.30981058532E+03 -0.87097879266E+03  0.10441325459E+04  0.92637415959E+02 0.  0.
         23    2    4    4    0    0 -0.31158580795E+03 -0.13082138910E+03  0.14624031945E+03  0.37881860628E+03  0.88979513775E+02 0.  0.
          3    1    3    3  502    0  0.51103579214E+03 -0.92668993670E+02 -0.35207702876E+03  0.62745785310E+03  0.00000000000E+00 0. -1.
         -4    1    3    3    0  502  0.27704180635E+03 -0.86320202550E+02 -0.14094543873E+03  0.32259720478E+03  0.00000000000E+00 0.  1.
         11    1    5    5    0    0 -0.25389563121E+03  0.11470031808E+03 -0.38798408683E+03  0.47765134371E+03  0.00000000000E+00 0.  1.
        -11    1    5    5    0    0 -0.22259615933E+03  0.19511026724E+03 -0.48299470583E+03  0.56648120215E+03  0.00000000000E+00 0. -1.
          2    1    6    6  503    0 -0.27479412104E+03 -0.11436976657E+03  0.92582797951E+02  0.31171112739E+03  0.00000000000E+00 0. -1.
         -2    1    6    6    0  503 -0.36791686907E+02 -0.16451622529E+02  0.53657521500E+02  0.67107478889E+02  0.00000000000E+00 0.  1.
<mgrwt>
<rscale>  0 0.20367172E+04</rscale>
<asrwt>0</asrwt>
<pdfrwt beam="1">  1        1 0.88865021E-01 0.20367172E+04</pdfrwt>
<pdfrwt beam="2">  1       -2 0.27621286E+00 0.20367172E+04</pdfrwt>
<totfact> 0.13014799E+00</totfact>
</mgrwt>
</event>
<event>
12    4  0.4280696E-008  0.1745358E+04  0.7818608E-02  0.8735910E-01
         -2   -1    0    0    0  501 -0.00000000000E+00  0.00000000000E+00  0.41187443467E+03  0.41187443467E+03  0.00000000000E+00 0.  1.
          1   -1    0    0  501    0  0.00000000000E+00 -0.00000000000E+00 -0.18490300924E+04  0.18490300924E+04  0.00000000000E+00 0. -1.
        -24    2    1    2    0    0 -0.39666972403E+03  0.73276040719E+02  0.10869682181E+03  0.42521830304E+03  0.79242400664E+02 0.  0.
        254    2    1    2    0    0  0.39666972403E+03 -0.73276040719E+02 -0.15458524796E+04  0.18356862241E+04  0.90408394327E+03 0.  0.
         23    2    4    4    0    0  0.68194351733E+03 -0.66947690891E+02 -0.11308034791E+04  0.13255689575E+04  0.94274061252E+02 0.  0.
         23    2    4    4    0    0 -0.28527379330E+03 -0.63283498288E+01 -0.41504900043E+03  0.51011726651E+03  0.80825538517E+02 0.  0.
          1    1    3    3  502    0 -0.13475323017E+03  0.54518276094E+02  0.13832365870E+02  0.14602058011E+03  0.00000000000E+00 0. -1.
         -2    1    3    3    0  502 -0.26191649386E+03  0.18757764625E+02  0.94864455937E+02  0.27919772293E+03  0.00000000000E+00 0.  1.
         11    1    5    5    0    0  0.43094753266E+03 -0.23471096619E+02 -0.62925670139E+03  0.76304040818E+03  0.00000000000E+00 0.  1.
        -11    1    5    5    0    0  0.25099598467E+03 -0.43476594272E+02 -0.50154677775E+03  0.56252854936E+03  0.00000000000E+00 0. -1.
          3    1    6    6  503    0 -0.14634422461E+03  0.27725958947E+02 -0.25623799953E+03  0.29638365893E+03  0.00000000000E+00 0. -1.
         -3    1    6    6    0  503 -0.13892956869E+03 -0.34054308776E+02 -0.15881100090E+03  0.21373360758E+03  0.00000000000E+00 0.  1.
<mgrwt>
<rscale>  0 0.17453575E+04</rscale>
<asrwt>0</asrwt>
<pdfrwt beam="1">  1        1 0.28446617E+00 0.17453575E+04</pdfrwt>
<pdfrwt beam="2">  1       -2 0.63365297E-01 0.17453575E+04</pdfrwt>
<totfact> 0.72411838E+00</totfact>
</mgrwt>
</event>
<event>
12    4  0.4280696E-008  0.1163208E+04  0.7818608E-02  0.9145685E-01
         -4   -1    0    0    0  501 -0.00000000000E+00  0.00000000000E+00  0.76488804949E+03  0.76488804949E+03  0.00000000000E+00 0.  1.
          3   -1    0    0  501    0  0.00000000000E+00 -0.00000000000E+00 -0.44223865721E+03  0.44223865721E+03  0.00000000000E+00 0. -1.
        -24    2    1    2    0    0  0.51252941829E+02  0.54705016097E+02  0.15447151382E+03  0.18929309457E+03  0.79692686238E+02 0.  0.
        254    2    1    2    0    0 -0.51252941829E+02 -0.54705016097E+02  0.16817787845E+03  0.10178336121E+04  0.10010404389E+04 0.  0.
         23    2    4    4    0    0 -0.12685451352E+03 -0.49314234434E+03  0.21756757242E+03  0.56082312300E+03  0.88912807517E+02 0.  0.
         23    2    4    4    0    0  0.75601571692E+02  0.43843732824E+03 -0.49389693964E+02  0.45701048913E+03  0.92067132373E+02 0.  0.
          3    1    3    3  502    0 -0.72599060811E+01  0.11233432139E+02 -0.47380710637E+01  0.14189628302E+02  0.00000000000E+00 0. -1.
         -4    1    3    3    0  502  0.58512847910E+02  0.43471583958E+02  0.15920958488E+03  0.17510346627E+03  0.00000000000E+00 0.  1.
         11    1    5    5    0    0 -0.11821029284E+03 -0.38308878738E+03  0.13522613492E+03  0.42310376967E+03  0.00000000000E+00 0.  1.
        -11    1    5    5    0    0 -0.86442206853E+01 -0.11005355696E+03  0.82341437495E+02  0.13771935333E+03  0.00000000000E+00 0. -1.
          1    1    6    6  503    0  0.65499312164E+01  0.15394723132E+03  0.22085165804E+02  0.15566119034E+03  0.00000000000E+00 0. -1.
         -1    1    6    6    0  503  0.69051640475E+02  0.28449009692E+03 -0.71474859768E+02  0.30134929878E+03  0.00000000000E+00 0.  1.
<mgrwt>
<rscale>  0 0.11632077E+04</rscale>
<asrwt>0</asrwt>
<pdfrwt beam="1">  1        3 0.68036716E-01 0.11632077E+04</pdfrwt>
<pdfrwt beam="2">  1       -4 0.11767508E+00 0.11632077E+04</pdfrwt>
<totfact> 0.26084147E+00</totfact>
</mgrwt>
</event>
<event>
12    4  0.4280696E-008  0.2426646E+04  0.7818608E-02  0.8429595E-01
          1   -1    0    0  501    0  0.00000000000E+00  0.00000000000E+00  0.12379176706E+04  0.12379176706E+04  0.00000000000E+00 0. -1.
         -2   -1    0    0    0  501 -0.00000000000E+00 -0.00000000000E+00 -0.11892170739E+04  0.11892170739E+04  0.00000000000E+00 0.  1.
        -24    2    1    2    0    0 -0.80223909003E+03  0.58834211224E+03  0.34427022424E+03  0.10560517958E+04  0.83602688804E+02 0.  0.
        254    2    1    2    0    0  0.80223909003E+03 -0.58834211224E+03 -0.29556962747E+03  0.13710829487E+04  0.89597603137E+03 0.  0.
         23    2    4    4    0    0  0.39947036072E+03  0.19518904006E+03 -0.11218599228E+03  0.46663645849E+03  0.86536449414E+02 0.  0.
         23    2    4    4    0    0  0.40276872932E+03 -0.78353115230E+03 -0.18338363519E+03  0.90444649016E+03  0.90830501322E+02 0.  0.
          1    1    3    3  502    0 -0.51728397773E+03  0.40820440068E+03  0.26135322443E+03  0.70888578365E+03  0.00000000000E+00 0. -1.
         -2    1    3    3    0  502 -0.28495511231E+03  0.18013771156E+03  0.82916999807E+02  0.34716601218E+03  0.00000000000E+00 0.  1.
         11    1    5    5    0    0  0.68680712829E+02  0.18751974847E+02  0.10946011558E+02  0.72031187998E+02  0.00000000000E+00 0. -1.
        -11    1    5    5    0    0  0.33078964789E+03  0.17643706522E+03 -0.12313200384E+03  0.39460527049E+03  0.00000000000E+00 0.  1.
          2    1    6    6  503    0  0.12016515546E+03 -0.16353689631E+03 -0.21176032306E+02  0.20404020531E+03  0.00000000000E+00 0. -1.
         -2    1    6    6    0  503  0.28260357386E+03 -0.61999425599E+03 -0.16220760288E+03  0.70040628485E+03  0.00000000000E+00 0.  1.
<mgrwt>
<rscale>  0 0.24266461E+04</rscale>
<asrwt>0</asrwt>
<pdfrwt beam="1">  1        1 0.19044887E+00 0.24266461E+04</pdfrwt>
<pdfrwt beam="2">  1       -2 0.18295647E+00 0.24266461E+04</pdfrwt>
<totfact> 0.13610738E+00</totfact>
</mgrwt>
</event>
<event>
12    4  0.4280696E-008  0.1147287E+04  0.7818608E-02  0.9160290E-01
         -2   -1    0    0    0  501 -0.00000000000E+00  0.00000000000E+00  0.82479574304E+03  0.82479574304E+03  0.00000000000E+00 0.  1.
          1   -1    0    0  501    0  0.00000000000E+00 -0.00000000000E+00 -0.39896798912E+03  0.39896798912E+03  0.00000000000E+00 0. -1.
        -24    2    1    2    0    0 -0.10548318306E+03  0.13950311474E+03  0.19345127082E+03  0.27296658713E+03  0.80619740600E+02 0.  0.
        254    2    1    2    0    0  0.10548318306E+03 -0.13950311474E+03  0.23237648310E+03  0.95079714504E+03  0.90522293397E+03 0.  0.
         23    2    4    4    0    0 -0.32795421641E+03  0.80595367841E+01  0.32878320611E+03  0.47399075768E+03  0.94604003894E+02 0.  0.
         23    2    4    4    0    0  0.43343739947E+03 -0.14756265152E+03 -0.96406723007E+02  0.47680638736E+03  0.91691653934E+02 0.  0.
          1    1    3    3  502    0 -0.11626682936E+03  0.12713862498E+03  0.15741033421E+03  0.23336713327E+03  0.00000000000E+00 0. -1.
         -2    1    3    3    0  502  0.10783646301E+02  0.12364489763E+02  0.36040936606E+02  0.39599453861E+02  0.00000000000E+00 0.  1.
         11    1    5    5    0    0 -0.30318213310E+03  0.34510686434E+02  0.29614170632E+03  0.42521794826E+03  0.00000000000E+00 0. -1.
        -11    1    5    5    0    0 -0.24772083314E+02 -0.26451149650E+02  0.32641499791E+02  0.48772809414E+02  0.00000000000E+00 0.  1.
          3    1    6    6  503    0  0.42187564831E+03 -0.14068638734E+03 -0.74228778314E+02  0.45086764549E+03  0.00000000000E+00 0. -1.
         -3    1    6    6    0  503  0.11561751164E+02 -0.68762641845E+01 -0.22177944694E+02  0.25938741873E+02  0.00000000000E+00 0.  1.
<mgrwt>
<rscale>  0 0.11472874E+04</rscale>
<asrwt>0</asrwt>
<pdfrwt beam="1">  1        1 0.61379691E-01 0.11472874E+04</pdfrwt>
<pdfrwt beam="2">  1       -2 0.12689165E+00 0.11472874E+04</pdfrwt>
<totfact> 0.24108640E+01</totfact>
</mgrwt>
</event>
<event>
12    4  0.4280696E-008  0.1382735E+04  0.7818608E-02  0.8966411E-01
         -2   -1    0    0    0  501 -0.00000000000E+00  0.00000000000E+00  0.14013613973E+04  0.14013613973E+04  0.00000000000E+00 0.  1.
          1   -1    0    0  501    0  0.00000000000E+00 -0.00000000000E+00 -0.34108905907E+03  0.34108905907E+03  0.00000000000E+00 0. -1.
        -24    2    1    2    0    0 -0.34545896290E+03  0.99843386005E+02  0.48858530689E+03  0.61191239591E+03  0.80066106312E+02 0.  0.
        254    2    1    2    0    0  0.34545896290E+03 -0.99843386005E+02  0.57168703134E+03  0.11305380605E+04  0.90663093238E+03 0.  0.
         23    2    4    4    0    0 -0.19723957994E+03  0.14395277767E+03 -0.50450217744E+02  0.26495373221E+03  0.89606928569E+02 0.  0.
         23    2    4    4    0    0  0.54269854285E+03 -0.24379616368E+03  0.62213724908E+03  0.86558432824E+03  0.90681832652E+02 0.  0.
          1    1    3    3  502    0 -0.27629820967E+03  0.64340551327E+02  0.32915635243E+03  0.43453919450E+03  0.00000000000E+00 0. -1.
         -2    1    3    3    0  502 -0.69160753231E+02  0.35502834678E+02  0.15942895446E+03  0.17737320141E+03  0.00000000000E+00 0.  1.
         11    1    5    5    0    0 -0.54323487833E+02  0.25216481633E+02 -0.51739524545E+02  0.79144745097E+02  0.00000000000E+00 0. -1.
        -11    1    5    5    0    0 -0.14291609211E+03  0.11873629604E+03  0.12893068014E+01  0.18580898712E+03  0.00000000000E+00 0.  1.
          1    1    6    6  503    0  0.15868950497E+03 -0.45728489092E+02  0.22194994483E+03  0.27665001665E+03  0.00000000000E+00 0. -1.
         -1    1    6    6    0  503  0.38400903788E+03 -0.19806767458E+03  0.40018730425E+03  0.58893431159E+03  0.00000000000E+00 0.  1.
<mgrwt>
<rscale>  0 0.13827350E+04</rscale>
<asrwt>0</asrwt>
<pdfrwt beam="1">  1        1 0.52475241E-01 0.13827350E+04</pdfrwt>
<pdfrwt beam="2">  1       -2 0.21559406E+00 0.13827350E+04</pdfrwt>
<totfact> 0.66582018E+00</totfact>
</mgrwt>
</event>
<event>
12    4  0.4280696E-008  0.2034781E+04  0.7818608E-02  0.8590530E-01
         -2   -1    0    0    0  501 -0.00000000000E+00  0.00000000000E+00  0.13806546237E+04  0.13806546237E+04  0.00000000000E+00 0.  1.
          1   -1    0    0  501    0  0.00000000000E+00 -0.00000000000E+00 -0.74970499970E+03  0.74970499970E+03  0.00000000000E+00 0. -1.
        -24    2    1    2    0    0 -0.27884226292E+03  0.16150800574E+03 -0.53188806700E+03  0.62717624306E+03  0.81285180242E+02 0.  0.
        254    2    1    2    0    0  0.27884226292E+03 -0.16150800574E+03  0.11628376910E+04  0.15031833803E+04  0.89639887091E+03 0.  0.
         23    2    4    4    0    0  0.16354653251E+02 -0.33877719728E+03  0.11168880455E+04  0.11706899644E+04  0.89658365502E+02 0.  0.
         23    2    4    4    0    0  0.26248760967E+03  0.17726919154E+03  0.45949645470E+02  0.33249341590E+03  0.90091010620E+02 0.  0.
          3    1    3    3  502    0 -0.18960168383E+03  0.14980648071E+03 -0.40496550104E+03  0.47158014930E+03  0.00000000000E+00 0. -1.
         -4    1    3    3    0  502 -0.89240579091E+02  0.11701525030E+02 -0.12692256596E+03  0.15559609376E+03  0.00000000000E+00 0.  1.
         11    1    5    5    0    0  0.45845522827E+01 -0.12692688348E+03  0.28234165728E+03  0.30959370682E+03  0.00000000000E+00 0.  1.
        -11    1    5    5    0    0  0.11770100968E+02 -0.21185031380E+03  0.83454638822E+03  0.86109625759E+03  0.00000000000E+00 0. -1.
          4    1    6    6  503    0  0.12292892926E+03  0.33193251749E+02  0.30297315884E+01  0.12736755036E+03  0.00000000000E+00 0. -1.
         -4    1    6    6    0  503  0.13955868041E+03  0.14407593979E+03  0.42919913882E+02  0.20512586554E+03  0.00000000000E+00 0.  1.
<mgrwt>
<rscale>  0 0.20347812E+04</rscale>
<asrwt>0</asrwt>
<pdfrwt beam="1">  1        1 0.11533923E+00 0.20347812E+04</pdfrwt>
<pdfrwt beam="2">  1       -2 0.21240840E+00 0.20347812E+04</pdfrwt>
<totfact> 0.21931726E+00</totfact>
</mgrwt>
</event>
<event>
12    4  0.4280696E-008  0.2855206E+04  0.7818608E-02  0.8286331E-01
         -2   -1    0    0    0  501 -0.00000000000E+00  0.00000000000E+00  0.11136695672E+04  0.11136695672E+04  0.00000000000E+00 0.  1.
          1   -1    0    0  501    0  0.00000000000E+00 -0.00000000000E+00 -0.18300308273E+04  0.18300308273E+04  0.00000000000E+00 0. -1.
        -24    2    1    2    0    0 -0.53217171406E+03 -0.23378123454E+03  0.82381112273E+03  0.10113355797E+04  0.79211678581E+02 0.  0.
        254    2    1    2    0    0  0.53217171406E+03  0.23378123454E+03 -0.15401723828E+04  0.19323648147E+04  0.10119498058E+04 0.  0.
         23    2    4    4    0    0  0.64056797213E+03  0.10570099228E+03 -0.16018364756E+04  0.17308870051E+04  0.92680652679E+02 0.  0.
         23    2    4    4    0    0 -0.10839625807E+03  0.12808024226E+03  0.61664092770E+02  0.20147780957E+03  0.92933041435E+02 0.  0.
          3    1    3    3  502    0 -0.36434536540E+03 -0.17536770271E+03  0.51166997448E+03  0.65215606968E+03  0.00000000000E+00 0. -1.
         -4    1    3    3    0  502 -0.16782634866E+03 -0.58413531835E+02  0.31214114825E+03  0.35917951004E+03  0.00000000000E+00 0.  1.
         11    1    5    5    0    0  0.37278305902E+03  0.60819908636E+02 -0.10499836569E+04  0.11158548069E+04  0.00000000000E+00 0. -1.
        -11    1    5    5    0    0  0.26778491311E+03  0.44881083644E+02 -0.55185281868E+03  0.61503219822E+03  0.00000000000E+00 0.  1.
          3    1    6    6  503    0 -0.42510687020E+02  0.72902130122E+02  0.76930064612E+02  0.11419331823E+03  0.00000000000E+00 0. -1.
         -3    1    6    6    0  503 -0.65885571052E+02  0.55178112142E+02 -0.15265971843E+02  0.87284491341E+02  0.00000000000E+00 0.  1.
<mgrwt>
<rscale>  0 0.28552055E+04</rscale>
<asrwt>0</asrwt>
<pdfrwt beam="1">  1        1 0.28154321E+00 0.28552055E+04</pdfrwt>
<pdfrwt beam="2">  1       -2 0.17133378E+00 0.28552055E+04</pdfrwt>
<totfact> 0.61380641E-01</totfact>
</mgrwt>
</event>
<event>
12    4  0.4280696E-008  0.1504565E+04  0.7818608E-02  0.8881423E-01
          1   -1    0    0  501    0  0.00000000000E+00  0.00000000000E+00  0.21482959713E+04  0.21482959713E+04  0.00000000000E+00 0. -1.
         -2   -1    0    0    0  501 -0.00000000000E+00 -0.00000000000E+00 -0.26343167492E+03  0.26343167492E+03  0.00000000000E+00 0.  1.
        -24    2    1    2    0    0 -0.97494351226E+02 -0.49322031639E+02  0.13505956268E+04  0.13568177751E+04  0.70057949741E+02 0.  0.
        254    2    1    2    0    0  0.97494351226E+02  0.49322031639E+02  0.53426866955E+03  0.10549098711E+04  0.90302492411E+03 0.  0.
         23    2    4    4    0    0  0.39473033620E+03 -0.21575213050E+03  0.12255584800E+03  0.47580363795E+03  0.94911252625E+02 0.  0.
         23    2    4    4    0    0 -0.29723598497E+03  0.26507416214E+03  0.41171282155E+03  0.57910623316E+03  0.85106049467E+02 0.  0.
          1    1    3    3  502    0 -0.94850783885E+02 -0.41847468541E+02  0.86976965467E+03  0.87592644327E+03  0.00000000000E+00 0. -1.
         -2    1    3    3    0  502 -0.26435673404E+01 -0.74745630980E+01  0.48082597212E+03  0.48089133181E+03  0.00000000000E+00 0.  1.
         11    1    5    5    0    0  0.28410565035E+03 -0.14551937510E+03  0.12975553934E+03  0.34456988998E+03  0.00000000000E+00 0. -1.
        -11    1    5    5    0    0  0.11062468585E+03 -0.70232755407E+02 -0.71996913431E+01  0.13123374797E+03  0.00000000000E+00 0.  1.
          3    1    6    6  503    0 -0.12768204335E+03  0.13921631947E+03  0.14070611588E+03  0.23554638364E+03  0.00000000000E+00 0. -1.
         -3    1    6    6    0  503 -0.16955394162E+03  0.12585784267E+03  0.27100670566E+03  0.34355984951E+03  0.00000000000E+00 0.  1.
<mgrwt>
<rscale>  0 0.15045653E+04</rscale>
<asrwt>0</asrwt>
<pdfrwt beam="1">  1        1 0.33050706E+00 0.15045653E+04</pdfrwt>
<pdfrwt beam="2">  1       -2 0.40527951E-01 0.15045653E+04</pdfrwt>
<totfact> 0.11574292E+01</totfact>
</mgrwt>
</event>
<event>
12    4  0.4280696E-008  0.1292716E+04  0.7818608E-02  0.9035362E-01
         -2   -1    0    0    0  501 -0.00000000000E+00  0.00000000000E+00  0.55165373403E+03  0.55165373403E+03  0.00000000000E+00 0.  1.
          1   -1    0    0  501    0  0.00000000000E+00 -0.00000000000E+00 -0.75732033742E+03  0.75732033742E+03  0.00000000000E+00 0. -1.
        -24    2    1    2    0    0 -0.96792054627E+02 -0.20863129620E+03  0.13007092845E+03  0.27602121365E+03  0.79834481013E+02 0.  0.
        254    2    1    2    0    0  0.96792054627E+02  0.20863129620E+03 -0.33573753184E+03  0.10329528578E+04  0.94940834026E+03 0.  0.
         23    2    4    4    0    0 -0.22443870702E+03  0.82053734938E+02  0.24296961170E+03  0.35283513882E+03  0.91393951373E+02 0.  0.
         23    2    4    4    0    0  0.32123076165E+03  0.12657756127E+03 -0.57870714355E+03  0.68011771899E+03  0.91907956351E+02 0.  0.
          1    1    3    3  502    0  0.93584299501E+01 -0.12949751604E+02 -0.35672677565E+01  0.16370756762E+02  0.00000000000E+00 0. -1.
         -2    1    3    3    0  502 -0.10615048458E+03 -0.19568154460E+03  0.13363819621E+03  0.25965045688E+03  0.00000000000E+00 0.  1.
         11    1    5    5    0    0 -0.22274406783E+03  0.94847515785E+02  0.22358196708E+03  0.32954493928E+03  0.00000000000E+00 0.  1.
        -11    1    5    5    0    0 -0.16946391919E+01 -0.12793780847E+02  0.19387644626E+02  0.23290199538E+02  0.00000000000E+00 0. -1.
          3    1    6    6  503    0  0.90620483593E+02  0.57294352732E+02 -0.11254503030E+03  0.15543840821E+03  0.00000000000E+00 0. -1.
         -3    1    6    6    0  503  0.23061027805E+03  0.69283208535E+02 -0.46616211325E+03  0.52467931077E+03  0.00000000000E+00 0.  1.
<mgrwt>
<rscale>  0 0.12927159E+04</rscale>
<asrwt>0</asrwt>
<pdfrwt beam="1">  1        1 0.11651082E+00 0.12927159E+04</pdfrwt>
<pdfrwt beam="2">  1       -2 0.84869805E-01 0.12927159E+04</pdfrwt>
<totfact> 0.25120289E+01</totfact>
</mgrwt>
</event>
<event>
12    4  0.4280696E-008  0.1970576E+04  0.7818608E-02  0.8620502E-01
          1   -1    0    0  501    0  0.00000000000E+00  0.00000000000E+00  0.13642903651E+04  0.13642903651E+04  0.00000000000E+00 0. -1.
         -2   -1    0    0    0  501 -0.00000000000E+00 -0.00000000000E+00 -0.71157309375E+03  0.71157309375E+03  0.00000000000E+00 0.  1.
        -24    2    1    2    0    0 -0.12119569066E+02 -0.42464608681E+03  0.94162076977E+03  0.10361729264E+04  0.80829922892E+02 0.  0.
        254    2    1    2    0    0  0.12119569066E+02  0.42464608681E+03 -0.28890349843E+03  0.10396905324E+04  0.90389158021E+03 0.  0.
         23    2    4    4    0    0 -0.34467593511E+03  0.10268856581E+03 -0.39068593888E+03  0.53974015855E+03  0.96630710041E+02 0.  0.
         23    2    4    4    0    0  0.35679550417E+03  0.32195752099E+03  0.10178244045E+03  0.49995037385E+03  0.92903358428E+02 0.  0.
          1    1    3    3  502    0 -0.14602021251E+02 -0.42580863336E+03  0.94151513650E+03  0.10334297090E+04  0.00000000000E+00 0. -1.
         -2    1    3    3    0  502  0.24824521849E+01  0.11625465537E+01  0.10563327323E+00  0.27432174045E+01  0.00000000000E+00 0.  1.
         11    1    5    5    0    0 -0.10999714899E+03  0.31120530875E+02 -0.19446764409E+03  0.22557820113E+03  0.00000000000E+00 0. -1.
        -11    1    5    5    0    0 -0.23467878612E+03  0.71568034936E+02 -0.19621829479E+03  0.31416195742E+03  0.00000000000E+00 0.  1.
          4    1    6    6  503    0  0.70111170620E+02  0.10910366300E+03  0.50718495340E+02  0.13925355038E+03  0.00000000000E+00 0. -1.
         -4    1    6    6    0  503  0.28668433355E+03  0.21285385800E+03  0.51063945112E+02  0.36069682347E+03  0.00000000000E+00 0.  1.
<mgrwt>
<rscale>  0 0.19705759E+04</rscale>
<asrwt>0</asrwt>
<pdfrwt beam="1">  1        1 0.20989082E+00 0.19705759E+04</pdfrwt>
<pdfrwt beam="2">  1       -2 0.10947278E+00 0.19705759E+04</pdfrwt>
<totfact> 0.44164969E+00</totfact>
</mgrwt>
</event>
<event>
12    4  0.4280696E-008  0.1118212E+04  0.7818608E-02  0.9187621E-01
         -4   -1    0    0    0  501 -0.00000000000E+00  0.00000000000E+00  0.35764649916E+03  0.35764649916E+03  0.00000000000E+00 0.  1.
          1   -1    0    0  501    0  0.00000000000E+00 -0.00000000000E+00 -0.87404646504E+03  0.87404646504E+03  0.00000000000E+00 0. -1.
        -24    2    1    2    0    0 -0.13507450093E+03  0.68722016222E+02 -0.20265762968E+03  0.26565362016E+03  0.80832510275E+02 0.  0.
        254    2    1    2    0    0  0.13507450093E+03 -0.68722016222E+02 -0.31374233619E+03  0.96603934404E+03  0.90101605113E+03 0.  0.
         23    2    4    4    0    0  0.11595014595E+03  0.61185062059E+00 -0.62061393448E+03  0.63761359602E+03  0.89132662044E+02 0.  0.
         23    2    4    4    0    0  0.19124354978E+02 -0.69333866843E+02  0.30687159829E+03  0.32842574802E+03  0.92305839918E+02 0.  0.
          1    1    3    3  502    0 -0.52918135662E+02  0.79312020136E+01 -0.12905113714E+03  0.13970479248E+03  0.00000000000E+00 0. -1.
         -2    1    3    3    0  502 -0.82156365269E+02  0.60790814208E+02 -0.73606492549E+02  0.12594882767E+03  0.00000000000E+00 0.  1.
         11    1    5    5    0    0  0.58901460159E+02 -0.44167344792E+02 -0.30051387701E+03  0.30940059249E+03  0.00000000000E+00 0. -1.
        -11    1    5    5    0    0  0.57048685794E+02  0.44779195413E+02 -0.32010005747E+03  0.32821300353E+03  0.00000000000E+00 0.  1.
          3    1    6    6  503    0 -0.13037101476E+01 -0.46918078627E+01  0.21072863933E+03  0.21078489546E+03  0.00000000000E+00 0. -1.
         -3    1    6    6    0  503  0.20428065125E+02 -0.64642058980E+02  0.96142958965E+02  0.11764085257E+03  0.00000000000E+00 0.  1.
<mgrwt>
<rscale>  0 0.11182122E+04</rscale>
<asrwt>0</asrwt>
<pdfrwt beam="1">  1        1 0.13446868E+00 0.11182122E+04</pdfrwt>
<pdfrwt beam="2">  1       -4 0.55022539E-01 0.11182122E+04</pdfrwt>
<totfact> 0.29194839E+01</totfact>
</mgrwt>
</event>
<event>
12    4  0.4280696E-008  0.1654111E+04  0.7818608E-02  0.8787978E-01
          1   -1    0    0  501    0  0.00000000000E+00  0.00000000000E+00  0.16430867239E+04  0.16430867239E+04  0.00000000000E+00 0. -1.
         -2   -1    0    0    0  501 -0.00000000000E+00 -0.00000000000E+00 -0.41630250255E+03  0.41630250255E+03  0.00000000000E+00 0.  1.
        -24    2    1    2    0    0  0.51841871235E+03  0.12986664447E+03  0.15429219267E+03  0.56201332860E+03  0.80184750096E+02 0.  0.
        254    2    1    2    0    0 -0.51841871235E+03 -0.12986664447E+03  0.10724920287E+04  0.14973758979E+04  0.89792656786E+03 0.  0.
         23    2    4    4    0    0 -0.25768145876E+03 -0.32165125459E+03  0.10824877631E+04  0.11617735588E+04  0.89882038874E+02 0.  0.
         23    2    4    4    0    0 -0.26073725359E+03  0.19178461011E+03 -0.99957344260E+01  0.33560233905E+03  0.88112219249E+02 0.  0.
          3    1    3    3  502    0  0.45672667216E+03  0.99902498879E+02  0.15753474424E+03  0.49335277235E+03  0.00000000000E+00 0. -1.
         -2    1    3    3    0  502  0.61692040190E+02  0.29964145594E+02 -0.32425515723E+01  0.68660556251E+02  0.00000000000E+00 0.  1.
         11    1    5    5    0    0 -0.26261303011E+03 -0.29617610711E+03  0.10197947452E+04  0.10939228549E+04  0.00000000000E+00 0. -1.
        -11    1    5    5    0    0  0.49315713518E+01 -0.25475147478E+02  0.62693017909E+02  0.67850703972E+02  0.00000000000E+00 0.  1.
          2    1    6    6  503    0 -0.22524370888E+03  0.11976658373E+03 -0.10279921327E+02  0.25531243556E+03  0.00000000000E+00 0. -1.
         -2    1    6    6    0  503 -0.35493544710E+02  0.72018026379E+02  0.28418690090E+00  0.80289903486E+02  0.00000000000E+00 0.  1.
<mgrwt>
<rscale>  0 0.16541114E+04</rscale>
<asrwt>0</asrwt>
<pdfrwt beam="1">  1        1 0.25278257E+00 0.16541114E+04</pdfrwt>
<pdfrwt beam="2">  1       -2 0.64046539E-01 0.16541114E+04</pdfrwt>
<totfact> 0.98493027E+00</totfact>
</mgrwt>
</event>
<event>
12    4  0.4280696E-008  0.1434318E+04  0.7818608E-02  0.8929345E-01
         -2   -1    0    0    0  501 -0.00000000000E+00  0.00000000000E+00  0.18037825931E+03  0.18037825931E+03  0.00000000000E+00 0.  1.
          1   -1    0    0  501    0  0.00000000000E+00 -0.00000000000E+00 -0.28513252562E+04  0.28513252562E+04  0.00000000000E+00 0. -1.
        -24    2    1    2    0    0 -0.22597971831E+03 -0.82355173956E+02 -0.61676536209E+02  0.26075286112E+03  0.79616905853E+02 0.  0.
        254    2    1    2    0    0  0.22597971831E+03  0.82355173956E+02 -0.26092704607E+04  0.27709506544E+04  0.90112484391E+03 0.  0.
         23    2    4    4    0    0  0.18496840261E+03  0.28063768991E+02 -0.26438500377E+04  0.26520726015E+04  0.92440125907E+02 0.  0.
         23    2    4    4    0    0  0.41011315701E+02  0.54291404965E+02  0.34579577032E+02  0.11887805284E+03  0.91141426536E+02 0.  0.
          1    1    3    3  502    0 -0.59260050344E+02  0.16467928590E+01  0.11226795834E+02  0.60336609435E+02  0.00000000000E+00 0. -1.
         -2    1    3    3    0  502 -0.16671966797E+03 -0.84001966815E+02 -0.72903332043E+02  0.20041625168E+03  0.00000000000E+00 0.  1.
         11    1    5    5    0    0  0.16070956183E+03  0.66457606597E+01 -0.16807242560E+04  0.16884033150E+04  0.00000000000E+00 0. -1.
        -11    1    5    5    0    0  0.24258840784E+02  0.21418008331E+02 -0.96312578171E+03  0.96366928655E+03  0.00000000000E+00 0.  1.
          1    1    6    6  503    0  0.16980516432E+01  0.28505245711E+02  0.59257811938E+02  0.65779333290E+02  0.00000000000E+00 0. -1.
         -1    1    6    6    0  503  0.39313264058E+02  0.25786159254E+02 -0.24678234906E+02  0.53098719552E+02  0.00000000000E+00 0.  1.
<mgrwt>
<rscale>  0 0.14343181E+04</rscale>
<asrwt>0</asrwt>
<pdfrwt beam="1">  1        1 0.43866544E+00 0.14343181E+04</pdfrwt>
<pdfrwt beam="2">  1       -2 0.27750501E-01 0.14343181E+04</pdfrwt>
<totfact> 0.77956873E+00</totfact>
</mgrwt>
</event>
<event>
12    4  0.4280696E-008  0.1805515E+04  0.7818608E-02  0.8703372E-01
         -2   -1    0    0    0  501 -0.00000000000E+00  0.00000000000E+00  0.15579113241E+04  0.15579113241E+04  0.00000000000E+00 0.  1.
          1   -1    0    0  501    0  0.00000000000E+00 -0.00000000000E+00 -0.52311788440E+03  0.52311788440E+03  0.00000000000E+00 0. -1.
        -24    2    1    2    0    0 -0.33419615628E+03  0.54871998531E+03  0.15791111598E+03  0.66648826905E+03  0.80560530593E+02 0.  0.
        254    2    1    2    0    0  0.33419615628E+03 -0.54871998531E+03  0.87688232374E+03  0.14145409395E+04  0.90510925672E+03 0.  0.
         23    2    4    4    0    0  0.21486334306E+03 -0.46720160689E+03  0.10482805839E+04  0.11712160040E+04  0.91712310460E+02 0.  0.
         23    2    4    4    0    0  0.11933281321E+03 -0.81518378421E+02 -0.17139826012E+03  0.24332493546E+03  0.94573221972E+02 0.  0.
          1    1    3    3  502    0 -0.14895132998E+03  0.29396708459E+03  0.11263732430E+03  0.34826758728E+03  0.00000000000E+00 0. -1.
         -2    1    3    3    0  502 -0.18524482630E+03  0.25475290072E+03  0.45273791673E+02  0.31822068177E+03  0.00000000000E+00 0.  1.
         11    1    5    5    0    0  0.96968761721E+02 -0.29013240775E+03  0.68562234067E+03  0.75077143580E+03  0.00000000000E+00 0. -1.
        -11    1    5    5    0    0  0.11789458134E+03 -0.17706919913E+03  0.36265824319E+03  0.42044456822E+03  0.00000000000E+00 0.  1.
          1    1    6    6  503    0  0.61163181783E+02 -0.52011279023E+02 -0.15728220367E+03  0.17658935285E+03  0.00000000000E+00 0. -1.
         -1    1    6    6    0  503  0.58169631431E+02 -0.29507099398E+02 -0.14116056452E+02  0.66735582603E+02  0.00000000000E+00 0.  1.
<mgrwt>
<rscale>  0 0.18055152E+04</rscale>
<asrwt>0</asrwt>
<pdfrwt beam="1">  1        1 0.80479675E-01 0.18055152E+04</pdfrwt>
<pdfrwt beam="2">  1       -2 0.23967866E+00 0.18055152E+04</pdfrwt>
<totfact> 0.25558318E+00</totfact>
</mgrwt>
</event>
<event>
12    4  0.4280696E-008  0.2275432E+04  0.7818608E-02  0.8487671E-01
          3   -1    0    0  501    0  0.00000000000E+00  0.00000000000E+00  0.11279231728E+04  0.11279231728E+04  0.00000000000E+00 0. -1.
         -4   -1    0    0    0  501 -0.00000000000E+00 -0.00000000000E+00 -0.11475938046E+04  0.11475938046E+04  0.00000000000E+00 0.  1.
        -24    2    1    2    0    0  0.88650603929E+03  0.94924570769E+01 -0.36734678213E+03  0.96299556307E+03  0.80210546047E+02 0.  0.
        254    2    1    2    0    0 -0.88650603929E+03 -0.94924570769E+01  0.34767615030E+03  0.13125214144E+04  0.90324453678E+03 0.  0.
         23    2    4    4    0    0 -0.84151474278E+03 -0.18423529437E+03 -0.48725555102E+02  0.86772033976E+03  0.92058146370E+02 0.  0.
         23    2    4    4    0    0 -0.44991296517E+02  0.17474283729E+03  0.39640170540E+03  0.44480107460E+03  0.90301760634E+02 0.  0.
          3    1    3    3  502    0  0.54398300176E+02  0.18912622798E+02 -0.16601194191E+02  0.59937150513E+02  0.00000000000E+00 0. -1.
         -4    1    3    3    0  502  0.83210773912E+03 -0.94201657213E+01 -0.35074558794E+03  0.90305841255E+03  0.00000000000E+00 0.  1.
         11    1    5    5    0    0 -0.41151384498E+02 -0.22371922037E+02  0.13612790818E+02  0.48777529822E+02  0.00000000000E+00 0. -1.
        -11    1    5    5    0    0 -0.80036335828E+03 -0.16186337233E+03 -0.62338345919E+02  0.81894280994E+03  0.00000000000E+00 0.  1.
          1    1    6    6  503    0 -0.10998944388E+02 -0.93042916846E+01  0.23444313458E+02  0.27516948503E+02  0.00000000000E+00 0. -1.
         -1    1    6    6    0  503 -0.33992352128E+02  0.18404712897E+03  0.37295739195E+03  0.41728412610E+03  0.00000000000E+00 0.  1.
<mgrwt>
<rscale>  0 0.22754320E+04</rscale>
<asrwt>0</asrwt>
<pdfrwt beam="1">  1        3 0.17352664E+00 0.22754320E+04</pdfrwt>
<pdfrwt beam="2">  1       -4 0.17655289E+00 0.22754320E+04</pdfrwt>
<totfact> 0.86599981E-02</totfact>
</mgrwt>
</event>
<event>
12    4  0.4280696E-008  0.1754747E+04  0.7818608E-02  0.8730741E-01
         -2   -1    0    0    0  501 -0.00000000000E+00  0.00000000000E+00  0.11632165371E+04  0.11632165371E+04  0.00000000000E+00 0.  1.
          1   -1    0    0  501    0  0.00000000000E+00 -0.00000000000E+00 -0.66177238394E+03  0.66177238394E+03  0.00000000000E+00 0. -1.
        -24    2    1    2    0    0 -0.15967304523E+03 -0.49912074820E+03  0.57619383596E+03  0.78284563961E+03  0.78936406008E+02 0.  0.
        254    2    1    2    0    0  0.15967304523E+03  0.49912074820E+03 -0.74749682778E+02  0.10421432815E+04  0.89769599607E+03 0.  0.
         23    2    4    4    0    0 -0.38694306862E+02 -0.11307942859E+03 -0.31508780054E+03  0.34902571787E+03  0.90853855913E+02 0.  0.
         23    2    4    4    0    0  0.19836735209E+03  0.61220017680E+03  0.24033811776E+03  0.69311756359E+03  0.92254448460E+02 0.  0.
          1    1    3    3  502    0 -0.37358202344E+02 -0.75979993631E+02  0.13546492413E+03  0.15974773984E+03  0.00000000000E+00 0. -1.
         -2    1    3    3    0  502 -0.12231484289E+03 -0.42314075457E+03  0.44072891183E+03  0.62309789976E+03  0.00000000000E+00 0.  1.
         11    1    5    5    0    0 -0.67474216787E+02 -0.66291017585E+02 -0.21411939356E+03  0.23408200196E+03  0.00000000000E+00 0. -1.
        -11    1    5    5    0    0  0.28779909925E+02 -0.46788411007E+02 -0.10096840698E+03  0.11494371591E+03  0.00000000000E+00 0.  1.
          4    1    6    6  503    0  0.15007544903E+03  0.55490265348E+03  0.21971196687E+03  0.61539657427E+03  0.00000000000E+00 0. -1.
         -4    1    6    6    0  503  0.48291903066E+02  0.57297523322E+02  0.20626150890E+02  0.77720989321E+02  0.00000000000E+00 0.  1.
<mgrwt>
<rscale>  0 0.17547474E+04</rscale>
<asrwt>0</asrwt>
<pdfrwt beam="1">  1        1 0.10181114E+00 0.17547474E+04</pdfrwt>
<pdfrwt beam="2">  1       -2 0.17895639E+00 0.17547474E+04</pdfrwt>
<totfact> 0.45308881E+00</totfact>
</mgrwt>
</event>
<event>
12    4  0.4280696E-008  0.1445606E+04  0.7818608E-02  0.8921453E-01
          1   -1    0    0  501    0  0.00000000000E+00  0.00000000000E+00  0.94918189192E+03  0.94918189192E+03  0.00000000000E+00 0. -1.
         -2   -1    0    0    0  501 -0.00000000000E+00 -0.00000000000E+00 -0.55041486602E+03  0.55041486602E+03  0.00000000000E+00 0.  1.
        -24    2    1    2    0    0  0.16379787082E+02  0.43187603846E+03  0.14165026312E+03  0.46287644273E+03  0.86049951609E+02 0.  0.
        254    2    1    2    0    0 -0.16379787082E+02 -0.43187603846E+03  0.25711676278E+03  0.10367203152E+04  0.90658412309E+03 0.  0.
         23    2    4    4    0    0 -0.29508114998E+03 -0.90123653203E+02  0.44355635694E+03  0.54821673946E+03  0.92758793107E+02 0.  0.
         23    2    4    4    0    0  0.27870136290E+03 -0.34175238526E+03 -0.18643959416E+03  0.48850357574E+03  0.96989064992E+02 0.  0.
          3    1    3    3  502    0 -0.22321715301E+01  0.30574099361E+03  0.60313825687E+02  0.31164129272E+03  0.00000000000E+00 0. -1.
         -4    1    3    3    0  502  0.18611958612E+02  0.12613504486E+03  0.81336437431E+02  0.15123515001E+03  0.00000000000E+00 0.  1.
         11    1    5    5    0    0 -0.23923737131E+03 -0.86621565166E+02  0.29553422645E+03  0.38997217130E+03  0.00000000000E+00 0.  1.
        -11    1    5    5    0    0 -0.55843778671E+02 -0.35020880368E+01  0.14802213050E+03  0.15824456816E+03  0.00000000000E+00 0. -1.
          2    1    6    6  503    0  0.16130031825E+03 -0.12163248830E+03 -0.86444275501E+02  0.21973817977E+03  0.00000000000E+00 0.  1.
         -2    1    6    6    0  503  0.11740104465E+03 -0.22011989696E+03 -0.99995318661E+02  0.26876539598E+03  0.00000000000E+00 0. -1.
<mgrwt>
<rscale>  0 0.14456055E+04</rscale>
<asrwt>0</asrwt>
<pdfrwt beam="1">  1        1 0.14602798E+00 0.14456055E+04</pdfrwt>
<pdfrwt beam="2">  1       -2 0.84679210E-01 0.14456055E+04</pdfrwt>
<totfact> 0.17181869E+01</totfact>
</mgrwt>
</event>
<event>
12    4  0.4280696E-008  0.1836714E+04  0.7818608E-02  0.8687015E-01
         -2   -1    0    0    0  501 -0.00000000000E+00  0.00000000000E+00  0.61736379995E+03  0.61736379995E+03  0.00000000000E+00 0.  1.
          1   -1    0    0  501    0  0.00000000000E+00 -0.00000000000E+00 -0.13660986911E+04  0.13660986911E+04  0.00000000000E+00 0. -1.
        -24    2    1    2    0    0 -0.33645650240E+03  0.43104266285E+03  0.17723960094E+03  0.58060292753E+03  0.81762632767E+02 0.  0.
        254    2    1    2    0    0  0.33645650240E+03 -0.43104266285E+03 -0.92597449210E+03  0.14028595635E+04  0.90088036928E+03 0.  0.
         23    2    4    4    0    0 -0.59406074585E+02 -0.35834434656E+03  0.16597665858E+02  0.37390627556E+03  0.87124439656E+02 0.  0.
         23    2    4    4    0    0  0.39586257698E+03 -0.72698316291E+02 -0.94257215796E+03  0.10289532880E+04  0.91161235222E+02 0.  0.
          1    1    3    3  502    0 -0.46082344123E+02  0.24674063187E+02  0.60219899671E+01  0.52618021600E+02  0.00000000000E+00 0. -1.
         -2    1    3    3    0  502 -0.29037415827E+03  0.40636859966E+03  0.17121761097E+03  0.52798490593E+03  0.00000000000E+00 0.  1.
         11    1    5    5    0    0 -0.17128665493E+02 -0.29073775422E+03  0.30970699824E+02  0.29288396534E+03  0.00000000000E+00 0. -1.
        -11    1    5    5    0    0 -0.42277409093E+02 -0.67606592342E+02 -0.14373033967E+02  0.81022310218E+02  0.00000000000E+00 0.  1.
          4    1    6    6  503    0  0.30148988150E+03 -0.49943596456E+02 -0.80080138571E+03  0.85713089480E+03  0.00000000000E+00 0. -1.
         -4    1    6    6    0  503  0.94372695483E+02 -0.22754719834E+02 -0.14177077226E+03  0.17182239317E+03  0.00000000000E+00 0.  1.
<mgrwt>
<rscale>  0 0.18367143E+04</rscale>
<asrwt>0</asrwt>
<pdfrwt beam="1">  1        1 0.21016903E+00 0.18367143E+04</pdfrwt>
<pdfrwt beam="2">  1       -2 0.94979047E-01 0.18367143E+04</pdfrwt>
<totfact> 0.62476917E+00</totfact>
</mgrwt>
</event>
<event>
12    4  0.4280696E-008  0.1661038E+04  0.7818608E-02  0.8783903E-01
          1   -1    0    0  501    0  0.00000000000E+00  0.00000000000E+00  0.84960306026E+03  0.84960306026E+03  0.00000000000E+00 0. -1.
         -2   -1    0    0    0  501 -0.00000000000E+00 -0.00000000000E+00 -0.81186351749E+03  0.81186351749E+03  0.00000000000E+00 0.  1.
        -24    2    1    2    0    0  0.17908293807E+03 -0.16851587892E+03  0.53634378190E+03  0.59534590597E+03  0.79396443330E+02 0.  0.
        254    2    1    2    0    0 -0.17908293807E+03  0.16851587892E+03 -0.49860423913E+03  0.10661206718E+04  0.90969159574E+03 0.  0.
         23    2    4    4    0    0  0.32579588467E+03  0.21076053476E+03 -0.34926723866E+03  0.53007240079E+03  0.91794251459E+02 0.  0.
         23    2    4    4    0    0 -0.50487882274E+03 -0.42244655847E+02 -0.14933700048E+03  0.53604827099E+03  0.91427416697E+02 0.  0.
          3    1    3    3  502    0  0.16825915605E+03 -0.12213049551E+03  0.46731513282E+03  0.51147867491E+03  0.00000000000E+00 0. -1.
         -4    1    3    3    0  502  0.10823782021E+02 -0.46385383403E+02  0.69028649078E+02  0.83867231052E+02  0.00000000000E+00 0.  1.
         11    1    5    5    0    0  0.24336440710E+03  0.13215088160E+03 -0.29252513035E+03  0.40281638750E+03  0.00000000000E+00 0. -1.
        -11    1    5    5    0    0  0.82431477571E+02  0.78609653160E+02 -0.56742108310E+02  0.12725601330E+03  0.00000000000E+00 0.  1.
          4    1    6    6  503    0 -0.49997497761E+03 -0.50576278729E+02 -0.15360805889E+03  0.52547918509E+03  0.00000000000E+00 0. -1.
         -4    1    6    6    0  503 -0.49038451329E+01  0.83316228823E+01  0.42710584119E+01  0.10569085906E+02  0.00000000000E+00 0.  1.
<mgrwt>
<rscale>  0 0.16610379E+04</rscale>
<asrwt>0</asrwt>
<pdfrwt beam="1">  1        1 0.13070816E+00 0.16610379E+04</pdfrwt>
<pdfrwt beam="2">  1       -2 0.12490208E+00 0.16610379E+04</pdfrwt>
<totfact> 0.80535332E+00</totfact>
</mgrwt>
</event>
<event>
12    4  0.4280696E-008  0.1578086E+04  0.7818608E-02  0.8834125E-01
         -4   -1    0    0    0  501 -0.00000000000E+00  0.00000000000E+00  0.51181165102E+03  0.51181165102E+03  0.00000000000E+00 0.  1.
          3   -1    0    0  501    0  0.00000000000E+00 -0.00000000000E+00 -0.12164414588E+04  0.12164414588E+04  0.00000000000E+00 0. -1.
        -24    2    1    2    0    0  0.67421361490E+02 -0.37218704856E+03 -0.63688627058E+03  0.74472302590E+03  0.76937796618E+02 0.  0.
        254    2    1    2    0    0 -0.67421361490E+02  0.37218704856E+03 -0.67743537175E+02  0.98353008389E+03  0.90535816116E+03 0.  0.
         23    2    4    4    0    0 -0.30245345639E+03 -0.17033830417E+03  0.83526119546E+02  0.36796435153E+03  0.89038869035E+02 0.  0.
         23    2    4    4    0    0  0.23503209490E+03  0.54252535274E+03 -0.15126965672E+03  0.61556573236E+03  0.80404090809E+02 0.  0.
          3    1    3    3  502    0  0.73633181248E+02 -0.29997000995E+03 -0.46566540951E+03  0.55879166589E+03  0.00000000000E+00 0. -1.
         -4    1    3    3    0  502 -0.62118197574E+01 -0.72217038611E+02 -0.17122086107E+03  0.18593136001E+03  0.00000000000E+00 0.  1.
         11    1    5    5    0    0 -0.20607658878E+03 -0.12397457583E+03  0.98670653362E+02  0.25994836743E+03  0.00000000000E+00 0.  1.
        -11    1    5    5    0    0 -0.96376867603E+02 -0.46363728347E+02 -0.15144533816E+02  0.10801598409E+03  0.00000000000E+00 0. -1.
          4    1    6    6  503    0  0.12667746118E+03  0.21414207161E+03 -0.38008480740E+02  0.25169157835E+03  0.00000000000E+00 0. -1.
         -4    1    6    6    0  503  0.10835463371E+03  0.32838328113E+03 -0.11326117598E+03  0.36387415401E+03  0.00000000000E+00 0.  1.
<mgrwt>
<rscale>  0 0.15780861E+04</rscale>
<asrwt>0</asrwt>
<pdfrwt beam="1">  1        3 0.18714484E+00 0.15780861E+04</pdfrwt>
<pdfrwt beam="2">  1       -4 0.78740255E-01 0.15780861E+04</pdfrwt>
<totfact> 0.56407268E-01</totfact>
</mgrwt>
</event>
<event>
12    4  0.4280696E-008  0.1390893E+04  0.7818608E-02  0.8960437E-01
          1   -1    0    0  501    0  0.00000000000E+00  0.00000000000E+00  0.49057904897E+03  0.49057904897E+03  0.00000000000E+00 0. -1.
         -4   -1    0    0    0  501 -0.00000000000E+00 -0.00000000000E+00 -0.98586666505E+03  0.98586666505E+03  0.00000000000E+00 0.  1.
        -24    2    1    2    0    0  0.20183170603E+02  0.35523612462E+03  0.47267474359E+02  0.36782366511E+03  0.80373937759E+02 0.  0.
        254    2    1    2    0    0 -0.20183170603E+02 -0.35523612462E+03 -0.54255509044E+03  0.11086220489E+04  0.89893089643E+03 0.  0.
         23    2    4    4    0    0 -0.92202958545E+02 -0.61906937408E+03 -0.51505489950E+03  0.81546125680E+03  0.89147273407E+02 0.  0.
         23    2    4    4    0    0  0.72019787943E+02  0.26383324946E+03 -0.27500190945E+02  0.29316079211E+03  0.10194192538E+03 0.  0.
          1    1    3    3  502    0  0.15356651127E+01  0.28480889688E+03  0.66500574243E+02  0.29247357553E+03  0.00000000000E+00 0. -1.
         -2    1    3    3    0  502  0.18647505490E+02  0.70427227741E+02 -0.19233099884E+02  0.75350089578E+02  0.00000000000E+00 0.  1.
         11    1    5    5    0    0  0.98024519925E+01 -0.20351465414E+03 -0.18253699442E+03  0.27355814162E+03  0.00000000000E+00 0.  1.
        -11    1    5    5    0    0 -0.10200541054E+03 -0.41555471994E+03 -0.33251790508E+03  0.54190311518E+03  0.00000000000E+00 0. -1.
          1    1    6    6  503    0  0.25566374608E+02  0.84187090863E+01 -0.19848305930E+02  0.33443525854E+02  0.00000000000E+00 0. -1.
         -1    1    6    6    0  503  0.46453413335E+02  0.25541454038E+03 -0.76518850149E+01  0.25971726625E+03  0.00000000000E+00 0.  1.
<mgrwt>
<rscale>  0 0.13908926E+04</rscale>
<asrwt>0</asrwt>
<pdfrwt beam="1">  1        1 0.75473700E-01 0.13908926E+04</pdfrwt>
<pdfrwt beam="2">  1       -4 0.15167179E+00 0.13908926E+04</pdfrwt>
<totfact> 0.61482744E+00</totfact>
</mgrwt>
</event>
<event>
12    4  0.4280696E-008  0.1491638E+04  0.7818608E-02  0.8890033E-01
          1   -1    0    0  501    0  0.00000000000E+00  0.00000000000E+00  0.16810185181E+04  0.16810185181E+04  0.00000000000E+00 0. -1.
         -2   -1    0    0    0  501 -0.00000000000E+00 -0.00000000000E+00 -0.33089828609E+03  0.33089828609E+03  0.00000000000E+00 0.  1.
        -24    2    1    2    0    0  0.34774159870E+03  0.11829145839E+03  0.40551441536E+02  0.37813055131E+03  0.80132426825E+02 0.  0.
        254    2    1    2    0    0 -0.34774159870E+03 -0.11829145839E+03  0.13095687905E+04  0.16337862529E+04  0.90519059567E+03 0.  0.
         23    2    4    4    0    0 -0.11184795848E+02 -0.95204661202E+02  0.12758929748E+04  0.12826703177E+04  0.90284182649E+02 0.  0.
         23    2    4    4    0    0 -0.33655680285E+03 -0.23086797190E+02  0.33675815691E+02  0.35111593517E+03  0.91350192222E+02 0.  0.
          1    1    3    3  502    0  0.34780155363E+02  0.40381147990E+02  0.93889990919E+01  0.54115151520E+02  0.00000000000E+00 0. -1.
         -2    1    3    3    0  502  0.31296144333E+03  0.77910310402E+02  0.31162442444E+02  0.32401539979E+03  0.00000000000E+00 0.  1.
         11    1    5    5    0    0  0.31742101902E+02 -0.15987734366E+02  0.21098877898E+03  0.21396128981E+03  0.00000000000E+00 0.  1.
        -11    1    5    5    0    0 -0.42926897750E+02 -0.79216926836E+02  0.10649041958E+04  0.10687090279E+04  0.00000000000E+00 0. -1.
          1    1    6    6  503    0 -0.30671626485E+03 -0.40609488325E+02  0.10699621551E+02  0.30957790549E+03  0.00000000000E+00 0. -1.
         -1    1    6    6    0  503 -0.29840538004E+02  0.17522691135E+02  0.22976194140E+02  0.41538029685E+02  0.00000000000E+00 0.  1.
<mgrwt>
<rscale>  0 0.14916382E+04</rscale>
<asrwt>0</asrwt>
<pdfrwt beam="1">  1        1 0.25861823E+00 0.14916382E+04</pdfrwt>
<pdfrwt beam="2">  1       -2 0.50907430E-01 0.14916382E+04</pdfrwt>
<totfact> 0.15217750E+01</totfact>
</mgrwt>
</event>
<event>
12    4  0.4280696E-008  0.1595913E+04  0.7818608E-02  0.8823063E-01
         -2   -1    0    0    0  501 -0.00000000000E+00  0.00000000000E+00  0.88798585643E+03  0.88798585643E+03  0.00000000000E+00 0.  1.
          1   -1    0    0  501    0  0.00000000000E+00 -0.00000000000E+00 -0.71705517197E+03  0.71705517197E+03  0.00000000000E+00 0. -1.
        -24    2    1    2    0    0 -0.22550524337E+03  0.34960346614E+03  0.39854270156E+03  0.58148788223E+03  0.78845886961E+02 0.  0.
        254    2    1    2    0    0  0.22550524337E+03 -0.34960346614E+03 -0.22761201710E+03  0.10235531462E+04  0.90707144943E+03 0.  0.
         23    2    4    4    0    0 -0.33697672749E+03 -0.76715272636E+02 -0.14546491377E+03  0.38692140916E+03  0.95444160661E+02 0.  0.
         23    2    4    4    0    0  0.56248197086E+03 -0.27288819350E+03 -0.82147103336E+02  0.63663173700E+03  0.87737610414E+02 0.  0.
          3    1    3    3  502    0 -0.57171765731E+02  0.78214853151E+02  0.50953229569E+02  0.10946417521E+03  0.00000000000E+00 0. -1.
         -4    1    3    3    0  502 -0.16833347764E+03  0.27138861299E+03  0.34758947199E+03  0.47202370703E+03  0.00000000000E+00 0.  1.
         11    1    5    5    0    0 -0.95023431709E+02 -0.66121999161E+02 -0.57473919276E+02  0.12924713824E+03  0.00000000000E+00 0.  1.
        -11    1    5    5    0    0 -0.24195329578E+03 -0.10593273475E+02 -0.87990994492E+02  0.25767427092E+03  0.00000000000E+00 0. -1.
          4    1    6    6  503    0  0.13796943128E+03 -0.47840275970E+02  0.13766496306E+02  0.14667573893E+03  0.00000000000E+00 0.  1.
         -4    1    6    6    0  503  0.42451253958E+03 -0.22504791753E+03 -0.95913599641E+02  0.48995599807E+03  0.00000000000E+00 0. -1.
<mgrwt>
<rscale>  0 0.15959133E+04</rscale>
<asrwt>0</asrwt>
<pdfrwt beam="1">  1        1 0.11031618E+00 0.15959133E+04</pdfrwt>
<pdfrwt beam="2">  1       -2 0.13661321E+00 0.15959133E+04</pdfrwt>
<totfact> 0.84430042E+00</totfact>
</mgrwt>
</event>
<event>
12    4  0.4640326E-008  0.2042966E+04  0.7818608E-02  0.8586792E-01
         -2   -1    0    0    0  501 -0.00000000000E+00  0.00000000000E+00  0.82802180009E+03  0.82802180009E+03  0.00000000000E+00 0.  1.
          1   -1    0    0  501    0  0.00000000000E+00 -0.00000000000E+00 -0.12601455923E+04  0.12601455923E+04  0.00000000000E+00 0. -1.
        -24    2    1    2    0    0 -0.46154457777E+03 -0.14233915662E+03 -0.85297237924E+03  0.98351552294E+03  0.80355904133E+02 0.  0.
        254    2    1    2    0    0  0.46154457777E+03  0.14233915662E+03  0.42084858698E+03  0.11046518695E+04  0.89992132259E+03 0.  0.
         23    2    4    4    0    0  0.45620597592E+03 -0.64104381010E+02  0.63731283328E+03  0.79181953763E+03  0.92613544204E+02 0.  0.
         23    2    4    4    0    0  0.53386018522E+01  0.20644353763E+03 -0.21646424630E+03  0.31283233187E+03  0.91432286632E+02 0.  0.
          1    1    3    3  502    0 -0.46487602507E+03 -0.14179435236E+03 -0.84410020262E+03  0.97402284835E+03  0.00000000000E+00 0. -1.
         -2    1    3    3    0  502  0.33314472978E+01 -0.54480425744E+00 -0.88721766177E+01  0.94926745817E+01  0.00000000000E+00 0.  1.
         11    1    5    5    0    0  0.22096695890E+03 -0.64630831846E+02  0.26099349556E+03  0.34802463429E+03  0.00000000000E+00 0. -1.
        -11    1    5    5    0    0  0.23523901702E+03  0.52645083684E+00  0.37631933773E+03  0.44379490333E+03  0.00000000000E+00 0.  1.
          3    1    6    6  503    0 -0.48721814907E+01  0.60678370613E+02 -0.12855055228E+02  0.62216197711E+02  0.00000000000E+00 0. -1.
         -3    1    6    6    0  503  0.10210783343E+02  0.14576516702E+03 -0.20360919107E+03  0.25061613416E+03  0.00000000000E+00 0.  1.
<mgrwt>
<rscale>  0 0.20429665E+04</rscale>
<asrwt>0</asrwt>
<pdfrwt beam="1">  1        1 0.19386855E+00 0.20429665E+04</pdfrwt>
<pdfrwt beam="2">  1       -2 0.12738797E+00 0.20429665E+04</pdfrwt>
<totfact> 0.35819605E+00</totfact>
</mgrwt>
</event>
<event>
12    4  0.4280696E-008  0.1327618E+04  0.7818608E-02  0.9007946E-01
          1   -1    0    0  501    0  0.00000000000E+00  0.00000000000E+00  0.13177031778E+04  0.13177031778E+04  0.00000000000E+00 0. -1.
         -2   -1    0    0    0  501 -0.00000000000E+00 -0.00000000000E+00 -0.33440182178E+03  0.33440182178E+03  0.00000000000E+00 0.  1.
        -24    2    1    2    0    0  0.30626724661E+03  0.85312497007E+02  0.73106418223E+02  0.33432065860E+03  0.73129377756E+02 0.  0.
        254    2    1    2    0    0 -0.30626724661E+03 -0.85312497007E+02  0.91019493781E+03  0.13177843410E+04  0.89834453082E+03 0.  0.
         23    2    4    4    0    0  0.24984244987E+02 -0.47752880246E+02 -0.15995959072E+03  0.19312789890E+03  0.93844363721E+02 0.  0.
         23    2    4    4    0    0 -0.33125149160E+03 -0.37559616761E+02  0.10701545285E+04  0.11246564421E+04  0.92103866979E+02 0.  0.
          3    1    3    3  502    0  0.70295708552E+02  0.42476743770E+02  0.42710882293E+02  0.92574185756E+02  0.00000000000E+00 0. -1.
         -4    1    3    3    0  502  0.23597153806E+03  0.42835753237E+02  0.30395535930E+02  0.24174647285E+03  0.00000000000E+00 0.  1.
         11    1    5    5    0    0  0.43069832676E+02 -0.16336772890E+02 -0.23066700979E+02  0.51516728634E+02  0.00000000000E+00 0.  1.
        -11    1    5    5    0    0 -0.18085587689E+02 -0.31416107357E+02 -0.13689288974E+03  0.14161117027E+03  0.00000000000E+00 0. -1.
          4    1    6    6  503    0 -0.25013956584E+03 -0.16185320529E+02  0.90965866025E+03  0.94356274045E+03  0.00000000000E+00 0. -1.
         -4    1    6    6    0  503 -0.81111925759E+02 -0.21374296231E+02  0.16049586827E+03  0.18109370164E+03  0.00000000000E+00 0.  1.
<mgrwt>
<rscale>  0 0.13276179E+04</rscale>
<asrwt>0</asrwt>
<pdfrwt beam="1">  1        1 0.20272356E+00 0.13276179E+04</pdfrwt>
<pdfrwt beam="2">  1       -2 0.51446435E-01 0.13276179E+04</pdfrwt>
<totfact> 0.26971833E+01</totfact>
</mgrwt>
</event>
<event>
12    4  0.4280696E-008  0.1097071E+04  0.7818608E-02  0.9208051E-01
          1   -1    0    0  501    0  0.00000000000E+00  0.00000000000E+00  0.10768065929E+04  0.10768065929E+04  0.00000000000E+00 0. -1.
         -2   -1    0    0    0  501 -0.00000000000E+00 -0.00000000000E+00 -0.27942919415E+03  0.27942919415E+03  0.00000000000E+00 0.  1.
        -24    2    1    2    0    0  0.70990404808E+02 -0.45688131098E+02  0.28998019673E+03  0.30656239537E+03  0.52582742985E+02 0.  0.
        254    2    1    2    0    0 -0.70990404808E+02  0.45688131098E+02  0.50739720206E+03  0.10496733917E+04  0.91500560968E+03 0.  0.
         23    2    4    4    0    0 -0.17608755089E+03 -0.26997015135E+03 -0.10140512102E+03  0.34999542288E+03  0.91230966606E+02 0.  0.
         23    2    4    4    0    0  0.10509714608E+03  0.31565828244E+03  0.60880232308E+03  0.69967796885E+03  0.90683130272E+02 0.  0.
          3    1    3    3  502    0  0.16395553032E+02 -0.33850614118E+02  0.17145544746E+03  0.17553247192E+03  0.00000000000E+00 0. -1.
         -4    1    3    3    0  502  0.54594851776E+02 -0.11837516980E+02  0.11852474928E+03  0.13102992345E+03  0.00000000000E+00 0.  1.
         11    1    5    5    0    0 -0.11872999361E+03 -0.10852674264E+03 -0.26574954864E+02  0.16303709233E+03  0.00000000000E+00 0. -1.
        -11    1    5    5    0    0 -0.57357557282E+02 -0.16144340871E+03 -0.74830166156E+02  0.18695833054E+03  0.00000000000E+00 0.  1.
          4    1    6    6  503    0  0.17053146018E+02  0.10399435383E+02  0.11264838052E+02  0.22931520267E+02  0.00000000000E+00 0. -1.
         -4    1    6    6    0  503  0.88044000063E+02  0.30525884706E+03  0.59753748503E+03  0.67674644858E+03  0.00000000000E+00 0.  1.
<mgrwt>
<rscale>  0 0.10970710E+04</rscale>
<asrwt>0</asrwt>
<pdfrwt beam="1">  1        1 0.16566255E+00 0.10970710E+04</pdfrwt>
<pdfrwt beam="2">  1       -2 0.42989107E-01 0.10970710E+04</pdfrwt>
<totfact> 0.59169196E+01</totfact>
</mgrwt>
</event>
<event>
12    4  0.4280696E-008  0.1845430E+04  0.7818608E-02  0.8682507E-01
         -2   -1    0    0    0  501 -0.00000000000E+00  0.00000000000E+00  0.70692022758E+03  0.70692022758E+03  0.00000000000E+00 0.  1.
          1   -1    0    0  501    0  0.00000000000E+00 -0.00000000000E+00 -0.12043832136E+04  0.12043832136E+04  0.00000000000E+00 0. -1.
        -24    2    1    2    0    0  0.72161420666E+02  0.19227309740E+03  0.50426828899E+03  0.55014968075E+03  0.78752456052E+02 0.  0.
        254    2    1    2    0    0 -0.72161420666E+02 -0.19227309740E+03 -0.10017312750E+04  0.13611537604E+04  0.89838621849E+03 0.  0.
         23    2    4    4    0    0 -0.29159674444E+02 -0.49729935580E+03 -0.88489103004E+03  0.10196096747E+04  0.91732315695E+02 0.  0.
         23    2    4    4    0    0 -0.43001746222E+02  0.30502625841E+03 -0.11684024499E+03  0.34154408577E+03  0.90058598584E+02 0.  0.
          3    1    3    3  502    0 -0.10393903371E+02  0.15864184300E+02  0.95314703496E+02  0.97183323021E+02  0.00000000000E+00 0. -1.
         -4    1    3    3    0  502  0.82555324038E+02  0.17640891310E+03  0.40895358549E+03  0.45296635773E+03  0.00000000000E+00 0.  1.
         11    1    5    5    0    0 -0.48081360739E+02 -0.12781789070E+03 -0.23959178230E+03  0.27577790445E+03  0.00000000000E+00 0.  1.
        -11    1    5    5    0    0  0.18921686295E+02 -0.36948146510E+03 -0.64529924774E+03  0.74383177023E+03  0.00000000000E+00 0. -1.
          3    1    6    6  503    0 -0.59856166454E+02  0.28298142703E+03 -0.89958305073E+02  0.30290880700E+03  0.00000000000E+00 0. -1.
         -3    1    6    6    0  503  0.16854420232E+02  0.22044831373E+02 -0.26881939917E+02  0.38635278766E+02  0.00000000000E+00 0.  1.
<mgrwt>
<rscale>  0 0.18454299E+04</rscale>
<asrwt>0</asrwt>
<pdfrwt beam="1">  1        1 0.18528972E+00 0.18454299E+04</pdfrwt>
<pdfrwt beam="2">  1       -2 0.10875696E+00 0.18454299E+04</pdfrwt>
<totfact> 0.59063267E+00</totfact>
</mgrwt>
</event>
<event>
12    4  0.4280696E-008  0.1621865E+04  0.7818608E-02  0.8807227E-01
          1   -1    0    0  501    0  0.00000000000E+00  0.00000000000E+00  0.13138001438E+04  0.13138001438E+04  0.00000000000E+00 0. -1.
         -2   -1    0    0    0  501 -0.00000000000E+00 -0.00000000000E+00 -0.50054123823E+03  0.50054123823E+03  0.00000000000E+00 0.  1.
        -24    2    1    2    0    0  0.51463650823E+03  0.90654152177E+02  0.50934649569E+03  0.73447566437E+03  0.83377083042E+02 0.  0.
        254    2    1    2    0    0 -0.51463650823E+03 -0.90654152177E+02  0.30391240991E+03  0.10798657177E+04  0.89480629436E+03 0.  0.
         23    2    4    4    0    0  0.64812564892E+02 -0.12499762851E+03 -0.23089734733E+03  0.28545157127E+03  0.91345163173E+02 0.  0.
         23    2    4    4    0    0 -0.57944907312E+03  0.34343476337E+02  0.53480975724E+03  0.79441414642E+03  0.90175700072E+02 0.  0.
          3    1    3    3  502    0  0.13851470515E+03  0.25760790961E+02  0.19172594026E+03  0.23792599283E+03  0.00000000000E+00 0. -1.
         -4    1    3    3    0  502  0.37612180308E+03  0.64893361216E+02  0.31762055542E+03  0.49654967154E+03  0.00000000000E+00 0.  1.
         11    1    5    5    0    0 -0.19070593413E+02 -0.44748146122E+02 -0.44886323844E+02  0.66188112095E+02  0.00000000000E+00 0. -1.
        -11    1    5    5    0    0  0.83883158305E+02 -0.80249482391E+02 -0.18601102349E+03  0.21926345917E+03  0.00000000000E+00 0.  1.
          3    1    6    6  503    0 -0.11007919572E+03  0.42453761267E+02  0.10590271798E+03  0.15854064732E+03  0.00000000000E+00 0. -1.
         -3    1    6    6    0  503 -0.46936987740E+03 -0.81102849309E+01  0.42890703926E+03  0.63587349910E+03  0.00000000000E+00 0.  1.
<mgrwt>
<rscale>  0 0.16218645E+04</rscale>
<asrwt>0</asrwt>
<pdfrwt beam="1">  1        1 0.20212310E+00 0.16218645E+04</pdfrwt>
<pdfrwt beam="2">  1       -2 0.77006345E-01 0.16218645E+04</pdfrwt>
<totfact> 0.11186936E+01</totfact>
</mgrwt>
</event>
<event>
12    4  0.4280696E-008  0.1863573E+04  0.7818608E-02  0.8673204E-01
         -2   -1    0    0    0  501 -0.00000000000E+00  0.00000000000E+00  0.35555879585E+03  0.35555879585E+03  0.00000000000E+00 0.  1.
          1   -1    0    0  501    0  0.00000000000E+00 -0.00000000000E+00 -0.24418641623E+04  0.24418641623E+04  0.00000000000E+00 0. -1.
        -24    2    1    2    0    0  0.55346488946E+03  0.43120415334E+03 -0.62454860035E+03  0.94266718424E+03  0.79372919291E+02 0.  0.
        254    2    1    2    0    0 -0.55346488946E+03 -0.43120415334E+03 -0.14617567661E+04  0.18547557739E+04  0.90062518946E+03 0.  0.
         23    2    4    4    0    0 -0.37544890589E+03  0.22807839034E+03 -0.49891074057E+03  0.67103831785E+03  0.91645315767E+02 0.  0.
         23    2    4    4    0    0 -0.17801598357E+03 -0.65928254369E+03 -0.96284602556E+03  0.11837174561E+04  0.88155454029E+02 0.  0.
          3    1    3    3  502    0  0.13780415087E+03  0.11274396236E+03 -0.11453689632E+03  0.21170707514E+03  0.00000000000E+00 0. -1.
         -4    1    3    3    0  502  0.41566073860E+03  0.31846019099E+03 -0.51001170404E+03  0.73096010911E+03  0.00000000000E+00 0.  1.
         11    1    5    5    0    0 -0.37402487696E+03  0.21577405994E+03 -0.49720797964E+03  0.65853536621E+03  0.00000000000E+00 0.  1.
        -11    1    5    5    0    0 -0.14240289248E+01  0.12304330400E+02 -0.17027609214E+01  0.12502951640E+02  0.00000000000E+00 0. -1.
          1    1    6    6  503    0 -0.38295569741E+02 -0.69482334758E+02 -0.15088504067E+03  0.17047181880E+03  0.00000000000E+00 0. -1.
         -1    1    6    6    0  503 -0.13972041383E+03 -0.58980020893E+03 -0.81196098488E+03  0.10132456373E+04  0.00000000000E+00 0.  1.
<mgrwt>
<rscale>  0 0.18635732E+04</rscale>
<asrwt>0</asrwt>
<pdfrwt beam="1">  1        1 0.37567141E+00 0.18635732E+04</pdfrwt>
<pdfrwt beam="2">  1       -2 0.54701354E-01 0.18635732E+04</pdfrwt>
<totfact> 0.38554855E+00</totfact>
</mgrwt>
</event>
<event>
12    4  0.4280696E-008  0.1085432E+04  0.7818608E-02  0.9219508E-01
          1   -1    0    0  501    0  0.00000000000E+00  0.00000000000E+00  0.45021384461E+03  0.45021384461E+03  0.00000000000E+00 0. -1.
         -2   -1    0    0    0  501 -0.00000000000E+00 -0.00000000000E+00 -0.65422365392E+03  0.65422365392E+03  0.00000000000E+00 0.  1.
        -24    2    1    2    0    0 -0.84414506964E+02  0.13214849340E+03 -0.36282828984E+02  0.18534162955E+03  0.91902353999E+02 0.  0.
        254    2    1    2    0    0  0.84414506964E+02 -0.13214849340E+03 -0.16772698033E+03  0.91909586898E+03  0.88995271962E+03 0.  0.
         23    2    4    4    0    0  0.25106627621E+03  0.14580253584E+03  0.24064513452E+03  0.38994907752E+03  0.99285184116E+02 0.  0.
         23    2    4    4    0    0 -0.16665176924E+03 -0.27795102924E+03 -0.40837211485E+03  0.52914679146E+03  0.90548086017E+02 0.  0.
          3    1    3    3  502    0 -0.58936483578E+01 -0.13209503441E+02  0.45436798654E+01  0.15161500547E+02  0.00000000000E+00 0. -1.
         -4    1    3    3    0  502 -0.78520858606E+02  0.14535799684E+03 -0.40826508849E+02  0.17018012900E+03  0.00000000000E+00 0.  1.
         11    1    5    5    0    0  0.20440209623E+03  0.15697719034E+03  0.19006018563E+03  0.32022637211E+03  0.00000000000E+00 0.  1.
        -11    1    5    5    0    0  0.46664179972E+02 -0.11174654499E+02  0.50584948894E+02  0.69722705414E+02  0.00000000000E+00 0. -1.
          3    1    6    6  503    0 -0.47945613021E+02 -0.12481940202E+03 -0.22863320536E+03  0.26486186498E+03  0.00000000000E+00 0. -1.
         -3    1    6    6    0  503 -0.11870615622E+03 -0.15313162723E+03 -0.17973890949E+03  0.26428492648E+03  0.00000000000E+00 0.  1.
<mgrwt>
<rscale>  0 0.10854318E+04</rscale>
<asrwt>0</asrwt>
<pdfrwt beam="1">  1        1 0.69263668E-01 0.10854318E+04</pdfrwt>
<pdfrwt beam="2">  1       -2 0.10064979E+00 0.10854318E+04</pdfrwt>
<totfact> 0.36293860E+01</totfact>
</mgrwt>
</event>
<event>
12    4  0.4280696E-008  0.2233236E+04  0.7818608E-02  0.8504721E-01
         -4   -1    0    0    0  501 -0.00000000000E+00  0.00000000000E+00  0.10679029951E+04  0.10679029951E+04  0.00000000000E+00 0.  1.
          3   -1    0    0  501    0  0.00000000000E+00 -0.00000000000E+00 -0.11675549770E+04  0.11675549770E+04  0.00000000000E+00 0. -1.
        -24    2    1    2    0    0 -0.31706753327E+03 -0.76458344784E+02 -0.91891711520E+03  0.97831575799E+03  0.79469230491E+02 0.  0.
        254    2    1    2    0    0  0.31706753327E+03  0.76458344784E+02  0.81926513326E+03  0.12571422141E+04  0.89600975934E+03 0.  0.
         23    2    4    4    0    0  0.50956339673E+03 -0.19472618137E+03  0.28749669090E+03  0.62365437284E+03  0.93366420537E+02 0.  0.
         23    2    4    4    0    0 -0.19249586346E+03  0.27118452615E+03  0.53176844236E+03  0.63348784130E+03  0.89069995572E+02 0.  0.
          3    1    3    3  502    0 -0.18221914119E+03 -0.62464207571E+02 -0.63711051694E+03  0.66559402298E+03  0.00000000000E+00 0. -1.
         -4    1    3    3    0  502 -0.13484839208E+03 -0.13994137212E+02 -0.28180659826E+03  0.31272173501E+03  0.00000000000E+00 0.  1.
         11    1    5    5    0    0  0.18164679677E+02 -0.28139065678E+02  0.85916854383E+01  0.34577155228E+02  0.00000000000E+00 0. -1.
        -11    1    5    5    0    0  0.49139871705E+03 -0.16658711569E+03  0.27890500547E+03  0.58907721761E+03  0.00000000000E+00 0.  1.
          3    1    6    6  503    0 -0.88121309535E+02  0.13171372374E+03  0.17268494909E+03  0.23437995191E+03  0.00000000000E+00 0. -1.
         -3    1    6    6    0  503 -0.10437455393E+03  0.13947080241E+03  0.35908349327E+03  0.39910788939E+03  0.00000000000E+00 0.  1.
<mgrwt>
<rscale>  0 0.22332357E+04</rscale>
<asrwt>0</asrwt>
<pdfrwt beam="1">  1        3 0.17962384E+00 0.22332357E+04</pdfrwt>
<pdfrwt beam="2">  1       -4 0.16429277E+00 0.22332357E+04</pdfrwt>
<totfact> 0.96775295E-02</totfact>
</mgrwt>
</event>
<event>
12    4  0.4280696E-008  0.1962950E+04  0.7818608E-02  0.8624141E-01
          1   -1    0    0  501    0  0.00000000000E+00  0.00000000000E+00  0.58820450859E+03  0.58820450859E+03  0.00000000000E+00 0. -1.
         -2   -1    0    0    0  501 -0.00000000000E+00 -0.00000000000E+00 -0.16376842867E+04  0.16376842867E+04  0.00000000000E+00 0.  1.
        -24    2    1    2    0    0  0.44213596378E+03  0.30186228274E+03  0.21507167368E+03  0.58415706104E+03  0.91534687043E+02 0.  0.
        254    2    1    2    0    0 -0.44213596378E+03 -0.30186228274E+03 -0.12645514518E+04  0.16417317342E+04  0.89977089572E+03 0.  0.
         23    2    4    4    0    0 -0.51956083890E+02 -0.24380546872E+03  0.47049753914E+02  0.26914691637E+03  0.89921310155E+02 0.  0.
         23    2    4    4    0    0 -0.39017987989E+03 -0.58056814029E+02 -0.13116012057E+04  0.13725848178E+04  0.89891196124E+02 0.  0.
          3    1    3    3  502    0  0.36469406929E+03  0.20955090901E+03  0.14576068299E+03  0.44515112529E+03  0.00000000000E+00 0. -1.
         -4    1    3    3    0  502  0.77441894490E+02  0.92311373738E+02  0.69310990688E+02  0.13900593575E+03  0.00000000000E+00 0.  1.
         11    1    5    5    0    0 -0.35763480965E+02 -0.23619925735E+03  0.24181403921E+02  0.24011217387E+03  0.00000000000E+00 0. -1.
        -11    1    5    5    0    0 -0.16192602925E+02 -0.76062113638E+01  0.22868349993E+02  0.29034742503E+02  0.00000000000E+00 0.  1.
          1    1    6    6  503    0 -0.34512406867E+03 -0.32732906987E+02 -0.10444761931E+04  0.11005056038E+04  0.00000000000E+00 0. -1.
         -1    1    6    6    0  503 -0.45055811221E+02 -0.25323907042E+02 -0.26712501255E+03  0.27207921406E+03  0.00000000000E+00 0.  1.
<mgrwt>
<rscale>  0 0.19629501E+04</rscale>
<asrwt>0</asrwt>
<pdfrwt beam="1">  1        1 0.90493004E-01 0.19629501E+04</pdfrwt>
<pdfrwt beam="2">  1       -2 0.25195142E+00 0.19629501E+04</pdfrwt>
<totfact> 0.17949697E+00</totfact>
</mgrwt>
</event>
<event>
12    4  0.4280696E-008  0.1763234E+04  0.7818608E-02  0.8726099E-01
         -2   -1    0    0    0  501 -0.00000000000E+00  0.00000000000E+00  0.16990054408E+03  0.16990054408E+03  0.00000000000E+00 0.  1.
          1   -1    0    0  501    0  0.00000000000E+00 -0.00000000000E+00 -0.45747267417E+04  0.45747267417E+04  0.00000000000E+00 0. -1.
        -24    2    1    2    0    0  0.52321950409E+03  0.28693864284E+03 -0.93535206673E+03  0.11124292194E+04  0.80764133849E+02 0.  0.
        254    2    1    2    0    0 -0.52321950409E+03 -0.28693864284E+03 -0.34694741309E+04  0.36321980664E+04  0.89415860675E+03 0.  0.
         23    2    4    4    0    0 -0.76367495112E+03 -0.19843527435E+03 -0.23699369818E+04  0.24994866449E+04  0.90863642000E+02 0.  0.
         23    2    4    4    0    0  0.24045544704E+03 -0.88503368493E+02 -0.10995371492E+04  0.11327114215E+04  0.91659989688E+02 0.  0.
          3    1    3    3  502    0  0.30632925938E+03  0.12273617844E+03 -0.52446398643E+03  0.61964849529E+03  0.00000000000E+00 0. -1.
         -4    1    3    3    0  502  0.21689024471E+03  0.16420246440E+03 -0.41088808029E+03  0.49278072415E+03  0.00000000000E+00 0.  1.
         11    1    5    5    0    0 -0.11936145806E+03 -0.24103179759E+02 -0.27422593314E+03  0.30004663530E+03  0.00000000000E+00 0. -1.
        -11    1    5    5    0    0 -0.64431349307E+03 -0.17433209459E+03 -0.20957110486E+04  0.21994400096E+04  0.00000000000E+00 0.  1.
          1    1    6    6  503    0  0.20475557977E+02 -0.22231825627E+00 -0.24666170305E+03  0.24751018899E+03  0.00000000000E+00 0. -1.
         -1    1    6    6    0  503  0.21997988906E+03 -0.88281050237E+02 -0.85287544610E+03  0.88520123248E+03  0.00000000000E+00 0.  1.
<mgrwt>
<rscale>  0 0.17632340E+04</rscale>
<asrwt>0</asrwt>
<pdfrwt beam="1">  1        1 0.70380409E+00 0.17632340E+04</pdfrwt>
<pdfrwt beam="2">  1       -2 0.26138546E-01 0.17632340E+04</pdfrwt>
<totfact> 0.30249278E-01</totfact>
</mgrwt>
</event>
<event>
12    4  0.4280696E-008  0.1062928E+04  0.7818608E-02  0.9242098E-01
          1   -1    0    0  501    0  0.00000000000E+00  0.00000000000E+00  0.12751367588E+04  0.12751367588E+04  0.00000000000E+00 0. -1.
         -2   -1    0    0    0  501 -0.00000000000E+00 -0.00000000000E+00 -0.22150859327E+03  0.22150859327E+03  0.00000000000E+00 0.  1.
        -24    2    1    2    0    0  0.30017505388E+02  0.89917548395E+02  0.29408445825E+03  0.31960241903E+03  0.81693460759E+02 0.  0.
        254    2    1    2    0    0 -0.30017505388E+02 -0.89917548395E+02  0.75954370730E+03  0.11770429331E+04  0.89416844431E+03 0.  0.
         23    2    4    4    0    0  0.90564805520E+02  0.12508845465E+03 -0.14771944352E+03  0.23256536094E+03  0.91741526199E+02 0.  0.
         23    2    4    4    0    0 -0.12058231091E+03 -0.21500600304E+03  0.90726315082E+03  0.94447757211E+03  0.90242918481E+02 0.  0.
          1    1    3    3  502    0  0.16131802112E+02  0.34258733079E+02  0.23201257237E+03  0.23508238890E+03  0.00000000000E+00 0. -1.
         -2    1    3    3    0  502  0.13885703276E+02  0.55658815316E+02  0.62071885871E+02  0.84520030132E+02  0.00000000000E+00 0.  1.
         11    1    5    5    0    0  0.62757606549E+02  0.13597158121E+03 -0.12404641940E+03  0.19445899887E+03  0.00000000000E+00 0.  1.
        -11    1    5    5    0    0  0.27807198971E+02 -0.10883126569E+02 -0.23673024124E+02  0.38106362063E+02  0.00000000000E+00 0. -1.
          3    1    6    6  503    0 -0.12075876885E+02 -0.24963518467E+02  0.32339185759E+02  0.42600786287E+02  0.00000000000E+00 0. -1.
         -3    1    6    6    0  503 -0.10850643402E+03 -0.19004248457E+03  0.87492396507E+03  0.90187678583E+03  0.00000000000E+00 0.  1.
<mgrwt>
<rscale>  0 0.10629276E+04</rscale>
<asrwt>0</asrwt>
<pdfrwt beam="1">  1        1 0.19617488E+00 0.10629276E+04</pdfrwt>
<pdfrwt beam="2">  1       -2 0.34078246E-01 0.10629276E+04</pdfrwt>
<totfact> 0.66537503E+01</totfact>
</mgrwt>
</event>
<event>
12    4  0.4280696E-008  0.1199678E+04  0.7818608E-02  0.9113139E-01
         -2   -1    0    0    0  501 -0.00000000000E+00  0.00000000000E+00  0.39004591621E+03  0.39004591621E+03  0.00000000000E+00 0.  1.
          1   -1    0    0  501    0  0.00000000000E+00 -0.00000000000E+00 -0.92247250549E+03  0.92247250549E+03  0.00000000000E+00 0. -1.
        -24    2    1    2    0    0  0.23390381843E+03 -0.50719290695E+02 -0.21243857352E+03  0.32991656854E+03  0.80195710302E+02 0.  0.
        254    2    1    2    0    0 -0.23390381843E+03  0.50719290695E+02 -0.31998801576E+03  0.98260185317E+03  0.89768069429E+03 0.  0.
         23    2    4    4    0    0 -0.37839026024E+03  0.36380062680E+02 -0.56349096906E+03  0.68534940281E+03  0.87630095921E+02 0.  0.
         23    2    4    4    0    0  0.14448644181E+03  0.14339228014E+02  0.24350295330E+03  0.29725245036E+03  0.89349793809E+02 0.  0.
          3    1    3    3  502    0  0.20974682598E+03 -0.68809410149E+02 -0.17418837652E+03  0.28119398367E+03  0.00000000000E+00 0. -1.
         -4    1    3    3    0  502  0.24156992447E+02  0.18090119454E+02 -0.38250196999E+02  0.48722584870E+02  0.00000000000E+00 0.  1.
         11    1    5    5    0    0 -0.32485640843E+03  0.52057929861E+02 -0.43611877174E+03  0.54629781001E+03  0.00000000000E+00 0.  1.
        -11    1    5    5    0    0 -0.53533851811E+02 -0.15677867181E+02 -0.12737219732E+03  0.13905159280E+03  0.00000000000E+00 0. -1.
          2    1    6    6  503    0 -0.42673335396E+01  0.70837598490E+01 -0.33744906708E+01  0.89317958118E+01  0.00000000000E+00 0. -1.
         -2    1    6    6    0  503  0.14875377535E+03  0.72554681655E+01  0.24687744397E+03  0.28832065455E+03  0.00000000000E+00 0.  1.
<mgrwt>
<rscale>  0 0.11996777E+04</rscale>
<asrwt>0</asrwt>
<pdfrwt beam="1">  1        1 0.14191885E+00 0.11996777E+04</pdfrwt>
<pdfrwt beam="2">  1       -2 0.60007064E-01 0.11996777E+04</pdfrwt>
<totfact> 0.39186020E+01</totfact>
</mgrwt>
</event>
<event>
12    4  0.4363421E-008  0.1839320E+04  0.7818608E-02  0.8685665E-01
         -2   -1    0    0    0  501 -0.00000000000E+00  0.00000000000E+00  0.58856701227E+03  0.58856701227E+03  0.00000000000E+00 0.  1.
          1   -1    0    0  501    0  0.00000000000E+00 -0.00000000000E+00 -0.14370060422E+04  0.14370060422E+04  0.00000000000E+00 0. -1.
        -24    2    1    2    0    0 -0.32299837082E+03  0.28517004501E+03 -0.92587114492E+03  0.10243050104E+04  0.79457379515E+02 0.  0.
        254    2    1    2    0    0  0.32299837082E+03 -0.28517004501E+03  0.77432114961E+02  0.10012680441E+04  0.90049545342E+03 0.  0.
         23    2    4    4    0    0 -0.25752019097E+03  0.16991523523E+02  0.18683925173E+03  0.33153203301E+03  0.91647271085E+02 0.  0.
         23    2    4    4    0    0  0.58051856179E+03 -0.30216156853E+03 -0.10940713677E+03  0.66973601110E+03  0.90955972412E+02 0.  0.
          1    1    3    3  502    0 -0.31715281916E+03  0.29053929088E+03 -0.90624281954E+03  0.10031326125E+04  0.00000000000E+00 0. -1.
         -2    1    3    3    0  502 -0.58455516612E+01 -0.53692458747E+01 -0.19628325381E+02  0.21172397898E+02  0.00000000000E+00 0.  1.
         11    1    5    5    0    0 -0.18465871132E+02 -0.25071820484E+02  0.21862923554E+02  0.38046971041E+02  0.00000000000E+00 0.  1.
        -11    1    5    5    0    0 -0.23905431984E+03  0.42063344007E+02  0.16497632818E+03  0.29348506197E+03  0.00000000000E+00 0. -1.
          1    1    6    6  503    0  0.53517597556E+03 -0.27695255641E+03 -0.12529337081E+03  0.61547905902E+03  0.00000000000E+00 0. -1.
         -1    1    6    6    0  503  0.45342586224E+02 -0.25209012119E+02  0.15886234040E+02  0.54256952084E+02  0.00000000000E+00 0.  1.
<mgrwt>
<rscale>  0 0.18393198E+04</rscale>
<asrwt>0</asrwt>
<pdfrwt beam="1">  1        1 0.22107785E+00 0.18393198E+04</pdfrwt>
<pdfrwt beam="2">  1       -2 0.90548771E-01 0.18393198E+04</pdfrwt>
<totfact> 0.62238983E+00</totfact>
</mgrwt>
</event>
<event>
12    4  0.4280696E-008  0.1995721E+04  0.7818608E-02  0.8608624E-01
          1   -1    0    0  501    0  0.00000000000E+00  0.00000000000E+00  0.75440284077E+03  0.75440284077E+03  0.00000000000E+00 0. -1.
         -2   -1    0    0    0  501 -0.00000000000E+00 -0.00000000000E+00 -0.13198861461E+04  0.13198861461E+04  0.00000000000E+00 0.  1.
        -24    2    1    2    0    0  0.17229674870E+03 -0.37383746053E+03 -0.93161943346E+03  0.10215894021E+04  0.79306501418E+02 0.  0.
        254    2    1    2    0    0 -0.17229674870E+03  0.37383746053E+03  0.36613612809E+03  0.10526995848E+04  0.89703965078E+03 0.  0.
         23    2    4    4    0    0  0.33059806074E+03  0.16433313784E+03 -0.17250746287E+02  0.38076183941E+03  0.91550708067E+02 0.  0.
         23    2    4    4    0    0 -0.50289480944E+03  0.20950432269E+03  0.38338687437E+03  0.67193774540E+03  0.87861184069E+02 0.  0.
          1    1    3    3  502    0  0.24532340338E+02 -0.90027052712E+02 -0.14554914845E+03  0.17289089206E+03  0.00000000000E+00 0. -1.
         -2    1    3    3    0  502  0.14776440836E+03 -0.28381040782E+03 -0.78607028500E+03  0.84869851003E+03  0.00000000000E+00 0.  1.
         11    1    5    5    0    0  0.37579809714E+02  0.44731598377E+02 -0.26472740444E+02  0.64140190038E+02  0.00000000000E+00 0. -1.
        -11    1    5    5    0    0  0.29301825102E+03  0.11960153947E+03  0.92219941571E+01  0.31662164937E+03  0.00000000000E+00 0.  1.
          4    1    6    6  503    0 -0.11106076193E+03  0.37858469739E+02  0.12835354657E+03  0.17390339125E+03  0.00000000000E+00 0. -1.
         -4    1    6    6    0  503 -0.39183404751E+03  0.17164585295E+03  0.25503332780E+03  0.49803435415E+03  0.00000000000E+00 0.  1.
<mgrwt>
<rscale>  0 0.19957213E+04</rscale>
<asrwt>0</asrwt>
<pdfrwt beam="1">  1        1 0.11606198E+00 0.19957213E+04</pdfrwt>
<pdfrwt beam="2">  1       -2 0.20305941E+00 0.19957213E+04</pdfrwt>
<totfact> 0.25044977E+00</totfact>
</mgrwt>
</event>
<event>
12    4  0.4280696E-008  0.1659035E+04  0.7818608E-02  0.8785080E-01
          1   -1    0    0  501    0  0.00000000000E+00  0.00000000000E+00  0.10516323312E+04  0.10516323312E+04  0.00000000000E+00 0. -1.
         -2   -1    0    0    0  501 -0.00000000000E+00 -0.00000000000E+00 -0.65431510120E+03  0.65431510120E+03  0.00000000000E+00 0.  1.
        -24    2    1    2    0    0 -0.19720801595E+03  0.53877752398E+03  0.52956110505E+02  0.58159142703E+03  0.79196063353E+02 0.  0.
        254    2    1    2    0    0  0.19720801595E+03 -0.53877752398E+03  0.34436111949E+03  0.11243560054E+04  0.90355941934E+03 0.  0.
         23    2    4    4    0    0  0.51631630563E+03 -0.13068121250E+03  0.12662210167E+03  0.55483384921E+03  0.90262599333E+02 0.  0.
         23    2    4    4    0    0 -0.31910828968E+03 -0.40809631148E+03  0.21773901782E+03  0.56952215616E+03  0.92587831199E+02 0.  0.
          3    1    3    3  502    0 -0.69000098864E+01  0.83497740445E+02 -0.89949197439E+01  0.84263820096E+02  0.00000000000E+00 0. -1.
         -4    1    3    3    0  502 -0.19030800607E+03  0.45527978354E+03  0.61951030249E+02  0.49732760694E+03  0.00000000000E+00 0.  1.
         11    1    5    5    0    0  0.65545741183E+02 -0.48097449564E+02  0.96667452444E+01  0.81872185786E+02  0.00000000000E+00 0. -1.
        -11    1    5    5    0    0  0.45077056444E+03 -0.82583762937E+02  0.11695535642E+03  0.47296166342E+03  0.00000000000E+00 0.  1.
          4    1    6    6  503    0  0.27358486265E+01 -0.10581012638E+02 -0.45463589020E+01  0.11836894669E+02  0.00000000000E+00 0. -1.
         -4    1    6    6    0  503 -0.32184413830E+03 -0.39751529885E+03  0.22228537673E+03  0.55768526149E+03  0.00000000000E+00 0.  1.
<mgrwt>
<rscale>  0 0.16590346E+04</rscale>
<asrwt>0</asrwt>
<pdfrwt beam="1">  1        1 0.16178959E+00 0.16590346E+04</pdfrwt>
<pdfrwt beam="2">  1       -2 0.10066386E+00 0.16590346E+04</pdfrwt>
<totfact> 0.93939943E+00</totfact>
</mgrwt>
</event>
<event>
12    4  0.4280696E-008  0.2622182E+04  0.7818608E-02  0.8360705E-01
          1   -1    0    0  501    0  0.00000000000E+00  0.00000000000E+00  0.22444866988E+04  0.22444866988E+04  0.00000000000E+00 0. -1.
         -2   -1    0    0    0  501 -0.00000000000E+00 -0.00000000000E+00 -0.76585889271E+03  0.76585889271E+03  0.00000000000E+00 0.  1.
        -24    2    1    2    0    0  0.28867026939E+03 -0.41212644644E+03  0.18463981651E+04  0.19156590820E+04  0.85934869770E+02 0.  0.
        254    2    1    2    0    0 -0.28867026939E+03  0.41212644644E+03 -0.36777035908E+03  0.10946865095E+04  0.89994710111E+03 0.  0.
         23    2    4    4    0    0 -0.59282574903E+03  0.17909076611E+03 -0.30327136717E+03  0.69508547084E+03  0.87489533173E+02 0.  0.
         23    2    4    4    0    0  0.30415547963E+03  0.23303568033E+03 -0.64498991907E+02  0.39960103867E+03  0.93298907010E+02 0.  0.
          3    1    3    3  502    0  0.25984810608E+03 -0.31271119305E+03  0.14418916144E+04  0.14981190728E+04  0.00000000000E+00 0. -1.
         -4    1    3    3    0  502  0.28822163309E+02 -0.99415253393E+02  0.40450655072E+03  0.41754000920E+03  0.00000000000E+00 0.  1.
         11    1    5    5    0    0 -0.54911949491E+03  0.14147883160E+03 -0.28467866693E+03  0.63450013624E+03  0.00000000000E+00 0.  1.
        -11    1    5    5    0    0 -0.43706254114E+02  0.37611934514E+02 -0.18592700237E+02  0.60585334600E+02  0.00000000000E+00 0. -1.
          1    1    6    6  503    0  0.83044652350E+02  0.17277100078E+02 -0.23030710946E+02  0.87893834355E+02  0.00000000000E+00 0. -1.
         -1    1    6    6    0  503  0.22111082728E+03  0.21575858025E+03 -0.41468280961E+02  0.31170720431E+03  0.00000000000E+00 0.  1.
<mgrwt>
<rscale>  0 0.26221824E+04</rscale>
<asrwt>0</asrwt>
<pdfrwt beam="1">  1        1 0.34530564E+00 0.26221824E+04</pdfrwt>
<pdfrwt beam="2">  1       -2 0.11782445E+00 0.26221824E+04</pdfrwt>
<totfact> 0.87207499E-01</totfact>
</mgrwt>
</event>
<event>
12    4  0.4280696E-008  0.1611557E+04  0.7818608E-02  0.8813479E-01
          1   -1    0    0  501    0  0.00000000000E+00  0.00000000000E+00  0.17609473716E+04  0.17609473716E+04  0.00000000000E+00 0. -1.
         -2   -1    0    0    0  501 -0.00000000000E+00 -0.00000000000E+00 -0.36870998741E+03  0.36870998741E+03  0.00000000000E+00 0.  1.
        -24    2    1    2    0    0 -0.54703967718E+03 -0.26345617554E+02  0.50536619072E+03  0.74958766285E+03  0.80871364514E+02 0.  0.
        254    2    1    2    0    0  0.54703967718E+03  0.26345617554E+02  0.88687119344E+03  0.13800696961E+04  0.90449176473E+03 0.  0.
         23    2    4    4    0    0  0.13319273469E+03 -0.34230188593E+03  0.64032968784E+02  0.38398367592E+03  0.91827863948E+02 0.  0.
         23    2    4    4    0    0  0.41384694249E+03  0.36864750349E+03  0.82283822465E+03  0.99608602021E+03  0.89187118302E+02 0.  0.
          1    1    3    3  502    0 -0.80469648473E+02 -0.10342689308E+02  0.11669312083E+03  0.14212536718E+03  0.00000000000E+00 0. -1.
         -2    1    3    3    0  502 -0.46657002871E+03 -0.16002928246E+02  0.38867306990E+03  0.60746229567E+03  0.00000000000E+00 0.  1.
         11    1    5    5    0    0  0.23959479989E+02 -0.93237224752E+01  0.15969278645E+02  0.30265596683E+02  0.00000000000E+00 0.  1.
        -11    1    5    5    0    0  0.10923325471E+03 -0.33297816346E+03  0.48063690139E+02  0.35371807924E+03  0.00000000000E+00 0. -1.
          3    1    6    6  503    0  0.20606160988E+03  0.19025386124E+03  0.33757322475E+03  0.43887766046E+03  0.00000000000E+00 0. -1.
         -3    1    6    6    0  503  0.20778533260E+03  0.17839364224E+03  0.48526499990E+03  0.55720835974E+03  0.00000000000E+00 0.  1.
<mgrwt>
<rscale>  0 0.16115569E+04</rscale>
<asrwt>0</asrwt>
<pdfrwt beam="1">  1        1 0.27091498E+00 0.16115569E+04</pdfrwt>
<pdfrwt beam="2">  1       -2 0.56724614E-01 0.16115569E+04</pdfrwt>
<totfact> 0.10623796E+01</totfact>
</mgrwt>
</event>
<event>
12    4  0.4280696E-008  0.2187632E+04  0.7818608E-02  0.8523594E-01
          1   -1    0    0  501    0  0.00000000000E+00  0.00000000000E+00  0.74841902196E+03  0.74841902196E+03  0.00000000000E+00 0. -1.
         -2   -1    0    0    0  501 -0.00000000000E+00 -0.00000000000E+00 -0.15986141293E+04  0.15986141293E+04  0.00000000000E+00 0.  1.
        -24    2    1    2    0    0 -0.13932805911E+03 -0.70710958592E+03 -0.94725781640E+03  0.11929102065E+04  0.79505443891E+02 0.  0.
        254    2    1    2    0    0  0.13932805911E+03  0.70710958592E+03  0.97062709092E+02  0.11541229447E+04  0.89619324221E+03 0.  0.
         23    2    4    4    0    0 -0.31757930624E+03  0.19541846651E+03  0.23217664051E+03  0.44878727324E+03  0.91972992850E+02 0.  0.
         23    2    4    4    0    0  0.45690736535E+03  0.51169111941E+03 -0.13511393142E+03  0.70533567144E+03  0.93008025174E+02 0.  0.
          1    1    3    3  502    0  0.54853733986E+01 -0.74558222678E+01 -0.22233322847E+02  0.24083173625E+02  0.00000000000E+00 0. -1.
         -2    1    3    3    0  502 -0.14481343251E+03 -0.69965376365E+03 -0.92502449355E+03  0.11688270329E+04  0.00000000000E+00 0.  1.
         11    1    5    5    0    0 -0.53274808193E+02  0.64362066288E+02  0.84670813359E+02  0.11895304704E+03  0.00000000000E+00 0. -1.
        -11    1    5    5    0    0 -0.26430449805E+03  0.13105640023E+03  0.14750582715E+03  0.32983422620E+03  0.00000000000E+00 0.  1.
          3    1    6    6  503    0  0.25543522302E+03  0.26898266251E+03 -0.11871227156E+03  0.38947583918E+03  0.00000000000E+00 0. -1.
         -3    1    6    6    0  503  0.20147214234E+03  0.24270845689E+03 -0.16401659861E+02  0.31585983225E+03  0.00000000000E+00 0.  1.
<mgrwt>
<rscale>  0 0.21876318E+04</rscale>
<asrwt>0</asrwt>
<pdfrwt beam="1">  1        1 0.11514139E+00 0.21876318E+04</pdfrwt>
<pdfrwt beam="2">  1       -2 0.24594063E+00 0.21876318E+04</pdfrwt>
<totfact> 0.13375836E+00</totfact>
</mgrwt>
</event>
<event>
12    4  0.4280696E-008  0.1949469E+04  0.7818608E-02  0.8630617E-01
         -2   -1    0    0    0  501 -0.00000000000E+00  0.00000000000E+00  0.10502415445E+04  0.10502415445E+04  0.00000000000E+00 0.  1.
          1   -1    0    0  501    0  0.00000000000E+00 -0.00000000000E+00 -0.90465603594E+03  0.90465603594E+03  0.00000000000E+00 0. -1.
        -24    2    1    2    0    0 -0.51510382565E+03  0.89496635432E+00 -0.49306242918E+03  0.71816945102E+03  0.85580658757E+02 0.  0.
        254    2    1    2    0    0  0.51510382565E+03 -0.89496635432E+00  0.63864793772E+03  0.12367281294E+04  0.92536075426E+03 0.  0.
         23    2    4    4    0    0  0.15612588011E+03 -0.93611671105E+02  0.79704100538E+03  0.82284158575E+03  0.93034808420E+02 0.  0.
         23    2    4    4    0    0  0.35897794553E+03  0.92716704750E+02 -0.15839306766E+03  0.41388654365E+03  0.93552949778E+02 0.  0.
          3    1    3    3  502    0 -0.43856729270E+03 -0.29187512079E+02 -0.40495602613E+03  0.59764752504E+03  0.00000000000E+00 0. -1.
         -4    1    3    3    0  502 -0.76536532945E+02  0.30082478434E+02 -0.88106403048E+02  0.12052192598E+03  0.00000000000E+00 0.  1.
         11    1    5    5    0    0  0.98783237399E+02 -0.10298151417E+03  0.49021091383E+03  0.51055857675E+03  0.00000000000E+00 0. -1.
        -11    1    5    5    0    0  0.57342642715E+02  0.93698430671E+01  0.30683009155E+03  0.31228300900E+03  0.00000000000E+00 0.  1.
          2    1    6    6  503    0  0.10061195290E+03  0.65236522296E+02 -0.27805255420E+02  0.12309224646E+03  0.00000000000E+00 0. -1.
         -2    1    6    6    0  503  0.25836599263E+03  0.27480182454E+02 -0.13058781224E+03  0.29079429719E+03  0.00000000000E+00 0.  1.
<mgrwt>
<rscale>  0 0.19494690E+04</rscale>
<asrwt>0</asrwt>
<pdfrwt beam="1">  1        1 0.13917785E+00 0.19494690E+04</pdfrwt>
<pdfrwt beam="2">  1       -2 0.16157562E+00 0.19494690E+04</pdfrwt>
<totfact> 0.36109212E+00</totfact>
</mgrwt>
</event>
<event>
12    4  0.4280696E-008  0.1370664E+04  0.7818608E-02  0.8975331E-01
         -2   -1    0    0    0  501 -0.00000000000E+00  0.00000000000E+00  0.39801364445E+03  0.39801364445E+03  0.00000000000E+00 0.  1.
          1   -1    0    0  501    0  0.00000000000E+00 -0.00000000000E+00 -0.11800606293E+04  0.11800606293E+04  0.00000000000E+00 0. -1.
        -24    2    1    2    0    0  0.60182812732E+02  0.32308235103E+03 -0.46299610093E+03  0.57358174239E+03  0.81403005042E+02 0.  0.
        254    2    1    2    0    0 -0.60182812732E+02 -0.32308235103E+03 -0.31905088392E+03  0.10044925314E+04  0.89398411761E+03 0.  0.
         23    2    4    4    0    0 -0.16978749389E+03 -0.15055878321E+03  0.27606495521E+03  0.36868915573E+03  0.90686789438E+02 0.  0.
         23    2    4    4    0    0  0.10960468115E+03 -0.17252356782E+03 -0.59511583913E+03  0.63580337563E+03  0.91134531888E+02 0.  0.
          3    1    3    3  502    0  0.74655097889E+02  0.29425636316E+03 -0.39374527686E+03  0.49718762450E+03  0.00000000000E+00 0. -1.
         -4    1    3    3    0  502 -0.14472285157E+02  0.28825987869E+02 -0.69250824075E+02  0.76394117898E+02  0.00000000000E+00 0.  1.
         11    1    5    5    0    0 -0.14112480652E+03 -0.14348133005E+03  0.27277516593E+03  0.33898288192E+03  0.00000000000E+00 0.  1.
        -11    1    5    5    0    0 -0.28662687365E+02 -0.70774531632E+01  0.32897892792E+01  0.29706273812E+02  0.00000000000E+00 0. -1.
          2    1    6    6  503    0 -0.51982710784E+01 -0.60700984897E+02 -0.12365916369E+03  0.13785216848E+03  0.00000000000E+00 0. -1.
         -2    1    6    6    0  503  0.11480295223E+03 -0.11182258292E+03 -0.47145667544E+03  0.49795120716E+03  0.00000000000E+00 0.  1.
<mgrwt>
<rscale>  0 0.13706644E+04</rscale>
<asrwt>0</asrwt>
<pdfrwt beam="1">  1        1 0.18154779E+00 0.13706644E+04</pdfrwt>
<pdfrwt beam="2">  1       -2 0.61232870E-01 0.13706644E+04</pdfrwt>
<totfact> 0.23496988E+01</totfact>
</mgrwt>
</event>
<event>
12    4  0.4280696E-008  0.1759581E+04  0.7818608E-02  0.8728094E-01
          1   -1    0    0  501    0  0.00000000000E+00  0.00000000000E+00  0.16402575563E+04  0.16402575563E+04  0.00000000000E+00 0. -1.
         -2   -1    0    0    0  501 -0.00000000000E+00 -0.00000000000E+00 -0.47189608315E+03  0.47189608315E+03  0.00000000000E+00 0.  1.
        -24    2    1    2    0    0  0.37008981721E+03  0.53897788006E+03  0.45280410970E+03  0.79923868238E+03  0.79292380804E+02 0.  0.
        254    2    1    2    0    0 -0.37008981721E+03 -0.53897788006E+03  0.71555736341E+03  0.13129149570E+04  0.88558439239E+03 0.  0.
         23    2    4    4    0    0  0.18159232522E+03 -0.13087778333E+03 -0.82447124382E+02  0.25594254251E+03  0.92759312202E+02 0.  0.
         23    2    4    4    0    0 -0.55168214242E+03 -0.40810009673E+03  0.79800448779E+03  0.10569724145E+04  0.97368615510E+02 0.  0.
          1    1    3    3  502    0  0.85813312959E+02  0.14320196084E+03  0.15712882570E+03  0.22926010149E+03  0.00000000000E+00 0. -1.
         -4    1    3    3    0  502  0.28427650425E+03  0.39577591923E+03  0.29567528400E+03  0.56997858089E+03  0.00000000000E+00 0.  1.
         11    1    5    5    0    0  0.17037898548E+03 -0.14532977315E+03 -0.74621614827E+02  0.23604687470E+03  0.00000000000E+00 0.  1.
        -11    1    5    5    0    0  0.11213339735E+02  0.14451989818E+02 -0.78255095548E+01  0.19895667807E+02  0.00000000000E+00 0. -1.
          3    1    6    6  503    0 -0.14793176021E+03 -0.15543069298E+03  0.20964102871E+03  0.29998644455E+03  0.00000000000E+00 0. -1.
         -3    1    6    6    0  503 -0.40375038221E+03 -0.25266940375E+03  0.58836345908E+03  0.75698596996E+03  0.00000000000E+00 0.  1.
<mgrwt>
<rscale>  0 0.17595808E+04</rscale>
<asrwt>0</asrwt>
<pdfrwt beam="1">  1        1 0.25234731E+00 0.17595808E+04</pdfrwt>
<pdfrwt beam="2">  1       -2 0.72599399E-01 0.17595808E+04</pdfrwt>
<totfact> 0.74669468E+00</totfact>
</mgrwt>
</event>
<event>
12    4  0.4280696E-008  0.1740728E+04  0.7818608E-02  0.8738471E-01
          1   -1    0    0  501    0  0.00000000000E+00  0.00000000000E+00  0.17080940126E+04  0.17080940126E+04  0.00000000000E+00 0. -1.
         -2   -1    0    0    0  501 -0.00000000000E+00 -0.00000000000E+00 -0.44349628424E+03  0.44349628424E+03  0.00000000000E+00 0.  1.
        -24    2    1    2    0    0 -0.27254761139E+03  0.42847626815E+03  0.93065212639E+03  0.10647551295E+04  0.98569734667E+02 0.  0.
        254    2    1    2    0    0  0.27254761139E+03 -0.42847626815E+03  0.33394560201E+03  0.10868351674E+04  0.90100882523E+03 0.  0.
         23    2    4    4    0    0  0.61952916693E+02 -0.10725473626E+03  0.59495357891E+03  0.61445733672E+03  0.90809224464E+02 0.  0.
         23    2    4    4    0    0  0.21059469469E+03 -0.32122153189E+03 -0.26100797690E+03  0.47237783068E+03  0.86500016906E+02 0.  0.
          3    1    3    3  502    0 -0.22499782150E+03  0.29020728012E+03  0.72135240887E+03  0.80944028989E+03  0.00000000000E+00 0. -1.
         -4    1    3    3    0  502 -0.47549789886E+02  0.13826898803E+03  0.20929971753E+03  0.25531483961E+03  0.00000000000E+00 0.  1.
         11    1    5    5    0    0  0.39364456830E+02 -0.11788967691E+03  0.42918299922E+03  0.44681716977E+03  0.00000000000E+00 0. -1.
        -11    1    5    5    0    0  0.22588459863E+02  0.10634940653E+02  0.16577057969E+03  0.16764016694E+03  0.00000000000E+00 0.  1.
          4    1    6    6  503    0  0.11821028395E+02 -0.80354365393E+02 -0.60142029166E+02  0.10106247782E+03  0.00000000000E+00 0.  1.
         -4    1    6    6    0  503  0.19877366630E+03 -0.24086716650E+03 -0.20086594774E+03  0.37131535286E+03  0.00000000000E+00 0. -1.
<mgrwt>
<rscale>  0 0.17407278E+04</rscale>
<asrwt>0</asrwt>
<pdfrwt beam="1">  1        1 0.26278369E+00 0.17407278E+04</pdfrwt>
<pdfrwt beam="2">  1       -2 0.68230199E-01 0.17407278E+04</pdfrwt>
<totfact> 0.77000771E+00</totfact>
</mgrwt>
</event>
<event>
12    4  0.4280696E-008  0.1954714E+04  0.7818608E-02  0.8628091E-01
          3   -1    0    0  501    0  0.00000000000E+00  0.00000000000E+00  0.11224299641E+04  0.11224299641E+04  0.00000000000E+00 0. -1.
         -4   -1    0    0    0  501 -0.00000000000E+00 -0.00000000000E+00 -0.85103458427E+03  0.85103458427E+03  0.00000000000E+00 0.  1.
        -24    2    1    2    0    0  0.25810270394E+03  0.35933781988E+02 -0.63412239937E+03  0.69014649078E+03  0.79263603784E+02 0.  0.
        254    2    1    2    0    0 -0.25810270394E+03 -0.35933781988E+02  0.90551777917E+03  0.12833180576E+04  0.87122588688E+03 0.  0.
         23    2    4    4    0    0 -0.35244114077E+03 -0.37751342623E+03  0.40299054241E+03  0.66137337226E+03  0.91006678703E+02 0.  0.
         23    2    4    4    0    0  0.94338436836E+02  0.34157964424E+03  0.50252723676E+03  0.62194468529E+03  0.93301521149E+02 0.  0.
          1    1    3    3  502    0  0.17567307212E+03 -0.84261258580E+01 -0.36395283756E+03  0.40421986076E+03  0.00000000000E+00 0. -1.
         -2    1    3    3    0  502  0.82429631819E+02  0.44359907846E+02 -0.27016956181E+03  0.28592663002E+03  0.00000000000E+00 0.  1.
         11    1    5    5    0    0 -0.28423486887E+03 -0.34482096888E+03  0.32368187291E+03  0.55177977139E+03  0.00000000000E+00 0. -1.
        -11    1    5    5    0    0 -0.68206271899E+02 -0.32692457352E+02  0.79308669505E+02  0.10959360087E+03  0.00000000000E+00 0.  1.
          2    1    6    6  503    0 -0.41399597394E+01  0.98637073554E+02  0.18929235169E+03  0.21349006055E+03  0.00000000000E+00 0. -1.
         -2    1    6    6    0  503  0.98478396575E+02  0.24294257069E+03  0.31323488507E+03  0.40845462474E+03  0.00000000000E+00 0.  1.
<mgrwt>
<rscale>  0 0.19547140E+04</rscale>
<asrwt>0</asrwt>
<pdfrwt beam="1">  1        3 0.17268153E+00 0.19547140E+04</pdfrwt>
<pdfrwt beam="2">  1       -4 0.13092840E+00 0.19547140E+04</pdfrwt>
<totfact> 0.20180898E-01</totfact>
</mgrwt>
</event>
<event>
12    4  0.4280696E-008  0.1186714E+04  0.7818608E-02  0.9124566E-01
          1   -1    0    0  501    0  0.00000000000E+00  0.00000000000E+00  0.19582668485E+04  0.19582668485E+04  0.00000000000E+00 0. -1.
         -2   -1    0    0    0  501 -0.00000000000E+00 -0.00000000000E+00 -0.17978770376E+03  0.17978770376E+03  0.00000000000E+00 0.  1.
        -24    2    1    2    0    0  0.99239656589E+02 -0.19297381863E+03  0.59072307328E+03  0.63508286831E+03  0.85376203959E+02 0.  0.
        254    2    1    2    0    0 -0.99239656589E+02  0.19297381863E+03  0.11877560715E+04  0.15029716840E+04  0.89502625290E+03 0.  0.
         23    2    4    4    0    0  0.13656179154E+03 -0.27362594638E+03  0.18568068072E+03  0.36913570770E+03  0.90904202683E+02 0.  0.
         23    2    4    4    0    0 -0.23580144812E+03  0.46659976501E+03  0.10020753908E+04  0.11338359763E+04  0.90062582042E+02 0.  0.
          1    1    3    3  502    0  0.11044115373E+03 -0.18228907093E+03  0.57400922528E+03  0.61230151439E+03  0.00000000000E+00 0. -1.
         -2    1    3    3    0  502 -0.11201497138E+02 -0.10684747704E+02  0.16713847997E+02  0.22781353922E+02  0.00000000000E+00 0.  1.
         11    1    5    5    0    0  0.11115900416E+03 -0.15620414739E+03  0.75260744549E+02  0.20596174290E+03  0.00000000000E+00 0.  1.
        -11    1    5    5    0    0  0.25402787374E+02 -0.11742179899E+03  0.11041993617E+03  0.16317396480E+03  0.00000000000E+00 0. -1.
          1    1    6    6  503    0 -0.16799041456E+03  0.27432520225E+03  0.53598293913E+03  0.62510223724E+03  0.00000000000E+00 0. -1.
         -1    1    6    6    0  503 -0.67811033560E+02  0.19227456277E+03  0.46609245164E+03  0.50873373904E+03  0.00000000000E+00 0.  1.
<mgrwt>
<rscale>  0 0.11867136E+04</rscale>
<asrwt>0</asrwt>
<pdfrwt beam="1">  1        1 0.30127181E+00 0.11867136E+04</pdfrwt>
<pdfrwt beam="2">  1       -2 0.27659648E-01 0.11867136E+04</pdfrwt>
<totfact> 0.33038657E+01</totfact>
</mgrwt>
</event>
<event>
12    4  0.4280696E-008  0.3040776E+04  0.7818608E-02  0.8232182E-01
          1   -1    0    0  501    0  0.00000000000E+00  0.00000000000E+00  0.24729309914E+04  0.24729309914E+04  0.00000000000E+00 0. -1.
         -2   -1    0    0    0  501 -0.00000000000E+00 -0.00000000000E+00 -0.93475297714E+03  0.93475297714E+03  0.00000000000E+00 0.  1.
        -24    2    1    2    0    0 -0.82858020612E+03 -0.47991185023E+03  0.18247715399E+04  0.20622863404E+04  0.79832542371E+02 0.  0.
        254    2    1    2    0    0  0.82858020612E+03  0.47991185023E+03 -0.28659352565E+03  0.13453976282E+04  0.90061000825E+03 0.  0.
         23    2    4    4    0    0  0.63771988093E+03  0.23774045357E+03 -0.58819091739E+03  0.90417182379E+03  0.91383597245E+02 0.  0.
         23    2    4    4    0    0  0.19086032520E+03  0.24217139667E+03  0.30159739174E+03  0.44122580438E+03  0.92976204749E+02 0.  0.
          1    1    3    3  502    0 -0.31481306532E+03 -0.19309993217E+03  0.62404281251E+03  0.72513742266E+03  0.00000000000E+00 0. -1.
         -2    1    3    3    0  502 -0.51376714080E+03 -0.28681191806E+03  0.12007287274E+04  0.13371489177E+04  0.00000000000E+00 0.  1.
         11    1    5    5    0    0  0.52225830127E+03  0.16380369482E+03 -0.43988186069E+03  0.70219757551E+03  0.00000000000E+00 0. -1.
        -11    1    5    5    0    0  0.11546157965E+03  0.73936758750E+02 -0.14830905670E+03  0.20197424828E+03  0.00000000000E+00 0.  1.
          1    1    6    6  503    0  0.49924926855E+01  0.26093446124E+02  0.42846359015E+00  0.26570218194E+02  0.00000000000E+00 0.  1.
         -1    1    6    6    0  503  0.18586783251E+03  0.21607795054E+03  0.30116892815E+03  0.41465558618E+03  0.00000000000E+00 0. -1.
<mgrwt>
<rscale>  0 0.30407760E+04</rscale>
<asrwt>0</asrwt>
<pdfrwt beam="1">  1        1 0.38045092E+00 0.30407760E+04</pdfrwt>
<pdfrwt beam="2">  1       -2 0.14380815E+00 0.30407760E+04</pdfrwt>
<totfact> 0.35331928E-01</totfact>
</mgrwt>
</event>
<event>
12    4  0.4280696E-008  0.1834984E+04  0.7818608E-02  0.8687913E-01
          1   -1    0    0  501    0  0.00000000000E+00  0.00000000000E+00  0.18906636135E+04  0.18906636135E+04  0.00000000000E+00 0. -1.
         -2   -1    0    0    0  501 -0.00000000000E+00 -0.00000000000E+00 -0.44523617711E+03  0.44523617711E+03  0.00000000000E+00 0.  1.
        -24    2    1    2    0    0 -0.30656324958E+02 -0.53973424522E+03  0.10974717756E+04  0.12259739324E+04  0.79466464470E+02 0.  0.
        254    2    1    2    0    0  0.30656324958E+02  0.53973424522E+03  0.34795566083E+03  0.11099258582E+04  0.90477035936E+03 0.  0.
         23    2    4    4    0    0  0.28425132751E+03  0.17444350375E+03  0.52052677620E+03  0.62440585979E+03  0.87779267552E+02 0.  0.
         23    2    4    4    0    0 -0.25359500255E+03  0.36529074146E+03 -0.17257111537E+03  0.48551999845E+03  0.90560079023E+02 0.  0.
          3    1    3    3  502    0  0.16823187559E+01 -0.44498975579E+03  0.86136034851E+03  0.96951553001E+03  0.00000000000E+00 0. -1.
         -4    1    3    3    0  502 -0.32338643714E+02 -0.94744489428E+02  0.23611142706E+03  0.25645840236E+03  0.00000000000E+00 0.  1.
         11    1    5    5    0    0  0.86149179377E+01  0.24831194108E+02  0.17352350666E+02  0.31494588195E+02  0.00000000000E+00 0. -1.
        -11    1    5    5    0    0  0.27563640957E+03  0.14961230964E+03  0.50317442553E+03  0.59291127160E+03  0.00000000000E+00 0.  1.
          2    1    6    6  503    0 -0.12635080485E+03  0.19158454580E+03 -0.40861375135E+02  0.23310687689E+03  0.00000000000E+00 0. -1.
         -2    1    6    6    0  503 -0.12724419771E+03  0.17370619566E+03 -0.13170974024E+03  0.25241312156E+03  0.00000000000E+00 0.  1.
<mgrwt>
<rscale>  0 0.18349843E+04</rscale>
<asrwt>0</asrwt>
<pdfrwt beam="1">  1        1 0.29087132E+00 0.18349843E+04</pdfrwt>
<pdfrwt beam="2">  1       -2 0.68497875E-01 0.18349843E+04</pdfrwt>
<totfact> 0.56916570E+00</totfact>
</mgrwt>
</event>
<event>
12    4  0.4280696E-008  0.1317563E+04  0.7818608E-02  0.9015752E-01
          1   -1    0    0  501    0  0.00000000000E+00  0.00000000000E+00  0.17043468420E+04  0.17043468420E+04  0.00000000000E+00 0. -1.
         -2   -1    0    0    0  501 -0.00000000000E+00 -0.00000000000E+00 -0.25463894439E+03  0.25463894439E+03  0.00000000000E+00 0.  1.
        -24    2    1    2    0    0  0.64284958368E+02  0.32491027482E+03  0.20343103252E+03  0.40219640617E+03  0.10333693233E+03 0.  0.
        254    2    1    2    0    0 -0.64284958368E+02 -0.32491027482E+03  0.12462768651E+04  0.15567893802E+04  0.87217424140E+03 0.  0.
         23    2    4    4    0    0 -0.28450535518E+03 -0.40341578246E+03  0.12015194825E+04  0.13021373251E+04  0.90691543970E+02 0.  0.
         23    2    4    4    0    0  0.22022039682E+03  0.78505507638E+02  0.44757382602E+02  0.25465205506E+03  0.90467165006E+02 0.  0.
          1    1    3    3  502    0  0.27928634219E+01  0.13725389501E+02  0.45980438027E+02  0.48066486081E+02  0.00000000000E+00 0. -1.
         -2    1    3    3    0  502  0.61492094946E+02  0.31118488532E+03  0.15745059449E+03  0.35412992008E+03  0.00000000000E+00 0.  1.
         11    1    5    5    0    0 -0.47010122530E+02 -0.30503540450E+02  0.91322801065E+02  0.10714602930E+03  0.00000000000E+00 0.  1.
        -11    1    5    5    0    0 -0.23749523265E+03 -0.37291224201E+03  0.11101966814E+04  0.11949912958E+04  0.00000000000E+00 0. -1.
          3    1    6    6  503    0  0.21867188530E+03  0.80921227928E+02  0.24788850208E+02  0.23447841189E+03  0.00000000000E+00 0. -1.
         -3    1    6    6    0  503  0.15485115152E+01 -0.24157202902E+01  0.19968532394E+02  0.20173643162E+02  0.00000000000E+00 0.  1.
<mgrwt>
<rscale>  0 0.13175630E+04</rscale>
<asrwt>0</asrwt>
<pdfrwt beam="1">  1        1 0.26220720E+00 0.13175630E+04</pdfrwt>
<pdfrwt beam="2">  1       -2 0.39175223E-01 0.13175630E+04</pdfrwt>
<totfact> 0.25118694E+01</totfact>
</mgrwt>
</event>
<event>
12    4  0.4280696E-008  0.1192480E+04  0.7818608E-02  0.9119464E-01
         -2   -1    0    0    0  501 -0.00000000000E+00  0.00000000000E+00  0.20465637362E+03  0.20465637362E+03  0.00000000000E+00 0.  1.
          1   -1    0    0  501    0  0.00000000000E+00 -0.00000000000E+00 -0.17370696493E+04  0.17370696493E+04  0.00000000000E+00 0. -1.
        -24    2    1    2    0    0 -0.19386359855E+03 -0.85960211252E+02 -0.13738052214E+03  0.26487907867E+03  0.79468645974E+02 0.  0.
        254    2    1    2    0    0  0.19386359855E+03  0.85960211252E+02 -0.13950327536E+04  0.16768469443E+04  0.90593986460E+03 0.  0.
         23    2    4    4    0    0  0.50831211248E+03  0.48550628436E+02 -0.11660878356E+04  0.12762870601E+04  0.91703065460E+02 0.  0.
         23    2    4    4    0    0 -0.31444851393E+03  0.37409582815E+02 -0.22894491795E+03  0.40055988418E+03  0.88063048780E+02 0.  0.
          3    1    3    3  502    0 -0.62637548666E+02 -0.62234484797E+02 -0.81938340534E+02  0.12045947555E+03  0.00000000000E+00 0. -1.
         -4    1    3    3    0  502 -0.13122604988E+03 -0.23725726454E+02 -0.55442181610E+02  0.14441960312E+03  0.00000000000E+00 0.  1.
         11    1    5    5    0    0  0.42633197998E+03  0.21876769790E+02 -0.89062664158E+03  0.98765042647E+03  0.00000000000E+00 0. -1.
        -11    1    5    5    0    0  0.81980132494E+02  0.26673858646E+02 -0.27546119403E+03  0.28863663363E+03  0.00000000000E+00 0.  1.
          4    1    6    6  503    0 -0.24721364604E+03 -0.82306082367E+01 -0.17587190234E+03  0.30350165689E+03  0.00000000000E+00 0. -1.
         -4    1    6    6    0  503 -0.67234867889E+02  0.45640191052E+02 -0.53073015611E+02  0.97058227294E+02  0.00000000000E+00 0.  1.
<mgrwt>
<rscale>  0 0.11924804E+04</rscale>
<asrwt>0</asrwt>
<pdfrwt beam="1">  1        1 0.26724149E+00 0.11924804E+04</pdfrwt>
<pdfrwt beam="2">  1       -2 0.31485595E-01 0.11924804E+04</pdfrwt>
<totfact> 0.36621988E+01</totfact>
</mgrwt>
</event>
<event>
12    4  0.4280696E-008  0.1076324E+04  0.7818608E-02  0.9228581E-01
          1   -1    0    0  501    0  0.00000000000E+00  0.00000000000E+00  0.66445840608E+03  0.66445840608E+03  0.00000000000E+00 0. -1.
         -2   -1    0    0    0  501 -0.00000000000E+00 -0.00000000000E+00 -0.43587089498E+03  0.43587089498E+03  0.00000000000E+00 0.  1.
        -24    2    1    2    0    0  0.77286222668E+02 -0.11662565308E+03  0.24250062607E+02  0.16175391002E+03  0.77469727636E+02 0.  0.
        254    2    1    2    0    0 -0.77286222668E+02  0.11662565308E+03  0.20433744850E+03  0.93857539105E+03  0.90531501073E+03 0.  0.
         23    2    4    4    0    0 -0.41148174482E+03  0.16922083214E+03  0.33541669426E+03  0.56490752817E+03  0.93076528948E+02 0.  0.
         23    2    4    4    0    0  0.33419552215E+03 -0.52595179062E+02 -0.13107924577E+03  0.37366786288E+03  0.89403597187E+02 0.  0.
          1    1    3    3  502    0  0.81463082951E+02 -0.12436889531E+03  0.29409755997E+02  0.15155457681E+03  0.00000000000E+00 0. -1.
         -2    1    3    3    0  502 -0.41768602830E+01  0.77432422301E+01 -0.51596933896E+01  0.10199333210E+02  0.00000000000E+00 0.  1.
         11    1    5    5    0    0 -0.17843835963E+03  0.24852615997E+02  0.14225846958E+03  0.22955472741E+03  0.00000000000E+00 0.  1.
        -11    1    5    5    0    0 -0.23304338519E+03  0.14436821615E+03  0.19315822468E+03  0.33535280075E+03  0.00000000000E+00 0. -1.
          1    1    6    6  503    0  0.25761391113E+03 -0.70694562429E+02 -0.12443152230E+03  0.29469620307E+03  0.00000000000E+00 0. -1.
         -1    1    6    6    0  503  0.76581611020E+02  0.18099383366E+02 -0.66477234691E+01  0.78971659803E+02  0.00000000000E+00 0.  1.
<mgrwt>
<rscale>  0 0.10763235E+04</rscale>
<asrwt>0</asrwt>
<pdfrwt beam="1">  1        1 0.10222437E+00 0.10763235E+04</pdfrwt>
<pdfrwt beam="2">  1       -2 0.67057060E-01 0.10763235E+04</pdfrwt>
<totfact> 0.52591712E+01</totfact>
</mgrwt>
</event>
<event>
12    4  0.4280696E-008  0.1693413E+04  0.7818608E-02  0.8765130E-01
          1   -1    0    0  501    0  0.00000000000E+00  0.00000000000E+00  0.20338519131E+04  0.20338519131E+04  0.00000000000E+00 0. -1.
         -2   -1    0    0    0  501 -0.00000000000E+00 -0.00000000000E+00 -0.35248965619E+03  0.35248965619E+03  0.00000000000E+00 0.  1.
        -24    2    1    2    0    0  0.11311581345E+03 -0.33142270243E+03  0.13212898495E+04  0.13684911647E+04  0.65764781436E+02 0.  0.
        254    2    1    2    0    0 -0.11311581345E+03  0.33142270243E+03  0.36007240736E+03  0.10178504046E+04  0.88528589313E+03 0.  0.
         23    2    4    4    0    0 -0.27641448533E+03  0.10630106862E+02  0.53369180211E+03  0.60822274590E+03  0.92682264299E+02 0.  0.
         23    2    4    4    0    0  0.16329867188E+03  0.32079259557E+03 -0.17361939476E+03  0.40962765865E+03  0.89870901233E+02 0.  0.
          1    1    3    3  502    0  0.42975854846E+02 -0.22106824173E+03  0.86487200539E+03  0.89371230119E+03  0.00000000000E+00 0. -1.
         -2    1    3    3    0  502  0.70139958607E+02 -0.11035446070E+03  0.45641784413E+03  0.47477886350E+03  0.00000000000E+00 0.  1.
         11    1    5    5    0    0 -0.24907934218E+03  0.13746608132E+02  0.52157426866E+03  0.57816019031E+03  0.00000000000E+00 0.  1.
        -11    1    5    5    0    0 -0.27335143154E+02 -0.31165012700E+01  0.12117533451E+02  0.30062555586E+02  0.00000000000E+00 0. -1.
          2    1    6    6  503    0  0.15208326643E+03  0.21569511839E+03 -0.10761578514E+03  0.28501729989E+03  0.00000000000E+00 0.  1.
         -2    1    6    6    0  503  0.11215405449E+02  0.10509747718E+03 -0.66003609614E+02  0.12461035876E+03  0.00000000000E+00 0. -1.
<mgrwt>
<rscale>  0 0.16934128E+04</rscale>
<asrwt>0</asrwt>
<pdfrwt beam="1">  1        1 0.31290029E+00 0.16934128E+04</pdfrwt>
<pdfrwt beam="2">  1       -2 0.54229179E-01 0.16934128E+04</pdfrwt>
<totfact> 0.75671373E+00</totfact>
</mgrwt>
</event>
<event>
12    4  0.4280696E-008  0.2332035E+04  0.7818608E-02  0.8465396E-01
          1   -1    0    0  501    0  0.00000000000E+00  0.00000000000E+00  0.17358400159E+04  0.17358400159E+04  0.00000000000E+00 0. -1.
         -2   -1    0    0    0  501 -0.00000000000E+00 -0.00000000000E+00 -0.78325005723E+03  0.78325005723E+03  0.00000000000E+00 0.  1.
        -24    2    1    2    0    0  0.85023613313E+03 -0.48664579945E+03  0.50427869557E+03  0.11046620129E+04  0.79091995967E+02 0.  0.
        254    2    1    2    0    0 -0.85023613313E+03  0.48664579945E+03  0.44831126310E+03  0.14144280602E+04  0.91645956408E+03 0.  0.
         23    2    4    4    0    0 -0.88330714966E+03  0.47066819017E+02  0.28353914187E+03  0.93326017409E+03  0.90184818463E+02 0.  0.
         23    2    4    4    0    0  0.33071016528E+02  0.43957898043E+03  0.16477212122E+03  0.48116788609E+03  0.10024624928E+03 0.  0.
          1    1    3    3  502    0  0.13452053324E+03 -0.46816160650E+02  0.83619589069E+02  0.16516586342E+03  0.00000000000E+00 0. -1.
         -2    1    3    3    0  502  0.71571559989E+03 -0.43982963880E+03  0.42065910650E+03  0.93949614952E+03  0.00000000000E+00 0.  1.
         11    1    5    5    0    0 -0.42965546223E+02 -0.99274732421E+01  0.31137201872E+02  0.53982573370E+02  0.00000000000E+00 0. -1.
        -11    1    5    5    0    0 -0.84034160343E+03  0.56994292260E+02  0.25240194000E+03  0.87927760072E+03  0.00000000000E+00 0.  1.
          2    1    6    6  503    0 -0.91976611496E+00  0.25675881447E+02  0.39986461319E+02  0.47529085270E+02  0.00000000000E+00 0. -1.
         -2    1    6    6    0  503  0.33990782643E+02  0.41390309899E+03  0.12478565990E+03  0.43363880082E+03  0.00000000000E+00 0.  1.
<mgrwt>
<rscale>  0 0.23320350E+04</rscale>
<asrwt>0</asrwt>
<pdfrwt beam="1">  1        1 0.26705231E+00 0.23320350E+04</pdfrwt>
<pdfrwt beam="2">  1       -2 0.12050001E+00 0.23320350E+04</pdfrwt>
<totfact> 0.18744451E+00</totfact>
</mgrwt>
</event>
<event>
12    4  0.4280696E-008  0.2728443E+04  0.7818608E-02  0.8325835E-01
         -2   -1    0    0    0  501 -0.00000000000E+00  0.00000000000E+00  0.71848767852E+03  0.71848767852E+03  0.00000000000E+00 0.  1.
          1   -1    0    0  501    0  0.00000000000E+00 -0.00000000000E+00 -0.25903016170E+04  0.25903016170E+04  0.00000000000E+00 0. -1.
        -24    2    1    2    0    0  0.34991851801E+03  0.55595939810E+03  0.40398420803E+03  0.77539272674E+03  0.80602845858E+02 0.  0.
        254    2    1    2    0    0 -0.34991851801E+03 -0.55595939810E+03 -0.22757981465E+04  0.25333965688E+04  0.89850272647E+03 0.  0.
         23    2    4    4    0    0  0.11883804100E+03 -0.99262090107E+02 -0.17583512764E+02  0.18048007434E+03  0.91040841349E+02 0.  0.
         23    2    4    4    0    0 -0.46875655901E+03 -0.45669730799E+03 -0.22582146337E+04  0.23529164944E+04  0.91528984516E+02 0.  0.
          3    1    3    3  502    0 -0.35973128280E+01  0.11927696036E+02  0.12405942402E+02  0.17581751881E+02  0.00000000000E+00 0. -1.
         -4    1    3    3    0  502  0.35351583084E+03  0.54403170206E+03  0.39157826563E+03  0.75781097486E+03  0.00000000000E+00 0.  1.
         11    1    5    5    0    0  0.48750273114E+02  0.98815201643E+01 -0.83965697078E+01  0.50445375926E+02  0.00000000000E+00 0. -1.
        -11    1    5    5    0    0  0.70087767883E+02 -0.10914361027E+03 -0.91869430560E+01  0.13003469842E+03  0.00000000000E+00 0.  1.
          2    1    6    6  503    0 -0.69047334512E+02 -0.10251137687E+03 -0.34097146746E+03  0.36268120769E+03  0.00000000000E+00 0. -1.
         -2    1    6    6    0  503 -0.39970922450E+03 -0.35418593113E+03 -0.19172431663E+04  0.19902352867E+04  0.00000000000E+00 0.  1.
<mgrwt>
<rscale>  0 0.27284426E+04</rscale>
<asrwt>0</asrwt>
<pdfrwt beam="1">  1        1 0.39850794E+00 0.27284426E+04</pdfrwt>
<pdfrwt beam="2">  1       -2 0.11053657E+00 0.27284426E+04</pdfrwt>
<totfact> 0.58277209E-01</totfact>
</mgrwt>
</event>
<event>
12    4  0.4280696E-008  0.1731947E+04  0.7818608E-02  0.8743351E-01
          1   -1    0    0  501    0  0.00000000000E+00  0.00000000000E+00  0.22424219375E+04  0.22424219375E+04  0.00000000000E+00 0. -1.
         -2   -1    0    0    0  501 -0.00000000000E+00 -0.00000000000E+00 -0.33441962057E+03  0.33441962057E+03  0.00000000000E+00 0.  1.
        -24    2    1    2    0    0 -0.55234830627E+03  0.61128491710E+02  0.25736725851E+03  0.61757216891E+03  0.79574707809E+02 0.  0.
        254    2    1    2    0    0  0.55234830627E+03 -0.61128491710E+02  0.16506350585E+04  0.19592693892E+04  0.89739350301E+03 0.  0.
         23    2    4    4    0    0 -0.15834892704E+03 -0.14585855949E+03  0.11042409733E+03  0.25838115954E+03  0.90654510412E+02 0.  0.
         23    2    4    4    0    0  0.71069723332E+03  0.84730067780E+02  0.15402109611E+04  0.17008882296E+04  0.92202077839E+02 0.  0.
          1    1    3    3  502    0 -0.48867358066E+03  0.74279776385E+02  0.20958838658E+03  0.53688606371E+03  0.00000000000E+00 0. -1.
         -2    1    3    3    0  502 -0.63674725613E+02 -0.13151284675E+02  0.47778871926E+02  0.80686105204E+02  0.00000000000E+00 0.  1.
         11    1    5    5    0    0 -0.93252663388E+02 -0.86143826775E+02  0.14177419809E+02  0.12774121243E+03  0.00000000000E+00 0. -1.
        -11    1    5    5    0    0 -0.65096263656E+02 -0.59714732716E+02  0.96246677525E+02  0.13063994711E+03  0.00000000000E+00 0.  1.
          4    1    6    6  503    0  0.67546844929E+03  0.71336859314E+02  0.14947541483E+04  0.16418393763E+04  0.00000000000E+00 0. -1.
         -4    1    6    6    0  503  0.35228784032E+02  0.13393208466E+02  0.45456812790E+02  0.59048853388E+02  0.00000000000E+00 0.  1.
<mgrwt>
<rscale>  0 0.17319468E+04</rscale>
<asrwt>0</asrwt>
<pdfrwt beam="1">  1        1 0.34498798E+00 0.17319468E+04</pdfrwt>
<pdfrwt beam="2">  1       -2 0.51449174E-01 0.17319468E+04</pdfrwt>
<totfact> 0.60658557E+00</totfact>
</mgrwt>
</event>
<event>
12    4  0.4280696E-008  0.1587659E+04  0.7818608E-02  0.8828166E-01
          1   -1    0    0  501    0  0.00000000000E+00  0.00000000000E+00  0.44118291095E+03  0.44118291095E+03  0.00000000000E+00 0. -1.
         -2   -1    0    0    0  501 -0.00000000000E+00 -0.00000000000E+00 -0.14283535834E+04  0.14283535834E+04  0.00000000000E+00 0.  1.
        -24    2    1    2    0    0 -0.45976611932E+03  0.48752978024E+02 -0.63754849075E+03  0.79204067888E+03  0.84253318043E+02 0.  0.
        254    2    1    2    0    0  0.45976611932E+03 -0.48752978024E+02 -0.34962218169E+03  0.10774958154E+04  0.90829500992E+03 0.  0.
         23    2    4    4    0    0  0.22172936311E+03  0.40881146608E+03 -0.56701387346E+02  0.47751517438E+03  0.92276590630E+02 0.  0.
         23    2    4    4    0    0  0.23803675621E+03 -0.45756444410E+03 -0.29292079434E+03  0.59998064107E+03  0.90263282040E+02 0.  0.
          1    1    3    3  502    0 -0.21565719761E+02  0.22193363656E+02 -0.43118222055E+02  0.53073597319E+02  0.00000000000E+00 0. -1.
         -2    1    3    3    0  502 -0.43820039956E+03  0.26559614368E+02 -0.59443026870E+03  0.73896708156E+03  0.00000000000E+00 0.  1.
         11    1    5    5    0    0  0.10417152617E+03  0.15111820028E+03  0.18462694406E+02  0.18447029139E+03  0.00000000000E+00 0. -1.
        -11    1    5    5    0    0  0.11755783693E+03  0.25769326580E+03 -0.75164081752E+02  0.29304488299E+03  0.00000000000E+00 0.  1.
          3    1    6    6  503    0  0.60016640874E+02 -0.20891222299E+03 -0.13393457605E+03  0.25531311121E+03  0.00000000000E+00 0. -1.
         -3    1    6    6    0  503  0.17802011534E+03 -0.24865222112E+03 -0.15898621829E+03  0.34466752985E+03  0.00000000000E+00 0.  1.
<mgrwt>
<rscale>  0 0.15876589E+04</rscale>
<asrwt>0</asrwt>
<pdfrwt beam="1">  1        1 0.67874294E-01 0.15876589E+04</pdfrwt>
<pdfrwt beam="2">  1       -2 0.21974671E+00 0.15876589E+04</pdfrwt>
<totfact> 0.43793881E+00</totfact>
</mgrwt>
</event>
<event>
12    4  0.4280696E-008  0.1485988E+04  0.7818608E-02  0.8893825E-01
         -2   -1    0    0    0  501 -0.00000000000E+00  0.00000000000E+00  0.29811345720E+03  0.29811345720E+03  0.00000000000E+00 0.  1.
          1   -1    0    0  501    0  0.00000000000E+00 -0.00000000000E+00 -0.18517781577E+04  0.18517781577E+04  0.00000000000E+00 0. -1.
        -24    2    1    2    0    0  0.31630284110E+03  0.55276832627E+02 -0.94760615820E+03  0.10036744037E+04  0.79384268085E+02 0.  0.
        254    2    1    2    0    0 -0.31630284110E+03 -0.55276832627E+02 -0.60605854235E+03  0.11462172113E+04  0.91837025384E+03 0.  0.
         23    2    4    4    0    0 -0.10754155829E+03  0.23452174741E+02  0.23300031945E+03  0.27319576076E+03  0.90728074888E+02 0.  0.
         23    2    4    4    0    0 -0.20876128281E+03 -0.78729007368E+02 -0.83905886180E+03  0.87302145051E+03  0.91472125219E+02 0.  0.
          3    1    3    3  502    0  0.23109498215E+03  0.24325458010E+02 -0.76955838856E+03  0.80387606762E+03  0.00000000000E+00 0. -1.
         -4    1    3    3    0  502  0.85207858957E+02  0.30951374617E+02 -0.17804776964E+03  0.19979833606E+03  0.00000000000E+00 0.  1.
         11    1    5    5    0    0  0.64534145040E+01  0.28927329791E+01  0.84815900160E+02  0.85110230776E+02  0.00000000000E+00 0. -1.
        -11    1    5    5    0    0 -0.11399497280E+03  0.20559441762E+02  0.14818441929E+03  0.18808552998E+03  0.00000000000E+00 0.  1.
          4    1    6    6  503    0 -0.12377709411E+03 -0.50061937327E+02 -0.32769197576E+03  0.35384883436E+03  0.00000000000E+00 0. -1.
         -4    1    6    6    0  503 -0.84984188696E+02 -0.28667070042E+02 -0.51136688604E+03  0.51917261616E+03  0.00000000000E+00 0.  1.
<mgrwt>
<rscale>  0 0.14859879E+04</rscale>
<asrwt>0</asrwt>
<pdfrwt beam="1">  1        1 0.28488895E+00 0.14859879E+04</pdfrwt>
<pdfrwt beam="2">  1       -2 0.45863608E-01 0.14859879E+04</pdfrwt>
<totfact> 0.14401930E+01</totfact>
</mgrwt>
</event>
<event>
12    4  0.4280696E-008  0.1732344E+04  0.7818608E-02  0.8743129E-01
          1   -1    0    0  501    0  0.00000000000E+00  0.00000000000E+00  0.21650682119E+04  0.21650682119E+04  0.00000000000E+00 0. -1.
         -2   -1    0    0    0  501 -0.00000000000E+00 -0.00000000000E+00 -0.34652680443E+03  0.34652680443E+03  0.00000000000E+00 0.  1.
        -24    2    1    2    0    0  0.12787251090E+03  0.58360505222E+03  0.20697372556E+03  0.63730136675E+03  0.79803965893E+02 0.  0.
        254    2    1    2    0    0 -0.12787251090E+03 -0.58360505222E+03  0.16115676819E+04  0.18742936496E+04  0.74758280841E+03 0.  0.
         23    2    4    4    0    0  0.49319138085E+02 -0.23949619793E+03  0.13999189359E+04  0.14238804056E+04  0.88721903159E+02 0.  0.
         23    2    4    4    0    0 -0.17719164899E+03 -0.34410885429E+03  0.21164874596E+03  0.45041324395E+03  0.90934672078E+02 0.  0.
          3    1    3    3  502    0  0.11387471634E+03  0.48383309234E+03  0.20168712687E+03  0.53641365513E+03  0.00000000000E+00 0. -1.
         -4    1    3    3    0  502  0.13997794562E+02  0.99771959876E+02  0.52865986897E+01  0.10088771162E+03  0.00000000000E+00 0.  1.
         11    1    5    5    0    0  0.10437943679E+02 -0.44365618550E+02  0.11593569043E+03  0.12457264183E+03  0.00000000000E+00 0.  1.
        -11    1    5    5    0    0  0.38881194406E+02 -0.19513057938E+03  0.12839832455E+04  0.12993077638E+04  0.00000000000E+00 0. -1.
          2    1    6    6  503    0 -0.65348365762E+02 -0.17786622333E+03  0.14717522779E+03  0.23993196950E+03  0.00000000000E+00 0. -1.
         -2    1    6    6    0  503 -0.11184328323E+03 -0.16624263095E+03  0.64473518168E+02  0.21048127445E+03  0.00000000000E+00 0.  1.
<mgrwt>
<rscale>  0 0.17323443E+04</rscale>
<asrwt>0</asrwt>
<pdfrwt beam="1">  1        1 0.33308741E+00 0.17323443E+04</pdfrwt>
<pdfrwt beam="2">  1       -2 0.53311817E-01 0.17323443E+04</pdfrwt>
<totfact> 0.63640928E+00</totfact>
</mgrwt>
</event>
<event>
12    4  0.4280696E-008  0.2972689E+04  0.7818608E-02  0.8251573E-01
         -2   -1    0    0    0  501 -0.00000000000E+00  0.00000000000E+00  0.14381515298E+04  0.14381515298E+04  0.00000000000E+00 0.  1.
          1   -1    0    0  501    0  0.00000000000E+00 -0.00000000000E+00 -0.15361525253E+04  0.15361525253E+04  0.00000000000E+00 0. -1.
        -24    2    1    2    0    0 -0.20051936296E+03 -0.11359640728E+03  0.12864039333E+04  0.13098929162E+04  0.88725496173E+02 0.  0.
        254    2    1    2    0    0  0.20051936296E+03  0.11359640728E+03 -0.13844049288E+04  0.16644111389E+04  0.89474872099E+03 0.  0.
         23    2    4    4    0    0  0.33878955900E+02  0.22939340964E+03 -0.14170495917E+04  0.14389994058E+04  0.94449057497E+02 0.  0.
         23    2    4    4    0    0  0.16664040706E+03 -0.11579700236E+03  0.32644662928E+02  0.22541173309E+03  0.92557033094E+02 0.  0.
          1    1    3    3  502    0 -0.18052237160E+02  0.11860868616E+02  0.62724316410E+02  0.66339304638E+02  0.00000000000E+00 0. -1.
         -2    1    3    3    0  502 -0.18246712580E+03 -0.12545727589E+03  0.12236796169E+04  0.12435536116E+04  0.00000000000E+00 0.  1.
         11    1    5    5    0    0 -0.83843533503E+01  0.72167975203E+02 -0.24036665075E+03  0.25110683148E+03  0.00000000000E+00 0.  1.
        -11    1    5    5    0    0  0.42263309251E+02  0.15722543443E+03 -0.11766829410E+04  0.11878925743E+04  0.00000000000E+00 0. -1.
          4    1    6    6  503    0  0.16686847854E+03 -0.12832442708E+03  0.30975281558E+02  0.21277151074E+03  0.00000000000E+00 0. -1.
         -4    1    6    6    0  503 -0.22807147941E+00  0.12527424722E+02  0.16693813699E+01  0.12640222345E+02  0.00000000000E+00 0.  1.
<mgrwt>
<rscale>  0 0.29726891E+04</rscale>
<asrwt>0</asrwt>
<pdfrwt beam="1">  1        1 0.23633116E+00 0.29726891E+04</pdfrwt>
<pdfrwt beam="2">  1       -2 0.22125408E+00 0.29726891E+04</pdfrwt>
<totfact> 0.44902095E-01</totfact>
</mgrwt>
</event>
<event>
12    4  0.4280696E-008  0.1324270E+04  0.7818608E-02  0.9010537E-01
          1   -1    0    0  501    0  0.00000000000E+00  0.00000000000E+00  0.19217763912E+04  0.19217763912E+04  0.00000000000E+00 0. -1.
         -2   -1    0    0    0  501 -0.00000000000E+00 -0.00000000000E+00 -0.22813425422E+03  0.22813425422E+03  0.00000000000E+00 0.  1.
        -24    2    1    2    0    0 -0.34649627131E+03 -0.47526732931E+01  0.55892294915E+03  0.66243656836E+03  0.79656073689E+02 0.  0.
        254    2    1    2    0    0  0.34649627131E+03  0.47526732931E+01  0.11347191879E+04  0.14874740771E+04  0.89716734269E+03 0.  0.
         23    2    4    4    0    0  0.58479028106E+03 -0.15692626230E+03  0.95035035459E+03  0.11303223062E+04  0.88640818514E+02 0.  0.
         23    2    4    4    0    0 -0.23829400975E+03  0.16167893560E+03  0.18436883328E+03  0.35715177094E+03  0.10315719802E+03 0.  0.
          3    1    3    3  502    0 -0.92990146943E+02 -0.19233732305E+02  0.21406959079E+03  0.23418559646E+03  0.00000000000E+00 0. -1.
         -4    1    3    3    0  502 -0.25350612437E+03  0.14481059012E+02  0.34485335836E+03  0.42825097190E+03  0.00000000000E+00 0.  1.
         11    1    5    5    0    0  0.10525992074E+03 -0.13452743018E+02  0.22820960381E+03  0.25167489044E+03  0.00000000000E+00 0. -1.
        -11    1    5    5    0    0  0.47953036032E+03 -0.14347351928E+03  0.72214075078E+03  0.87864741571E+03  0.00000000000E+00 0.  1.
          4    1    6    6  503    0  0.23266968900E+01 -0.51882005763E+01  0.21180307025E+02  0.21930261040E+02  0.00000000000E+00 0. -1.
         -4    1    6    6    0  503 -0.24062070664E+03  0.16686713617E+03  0.16318852626E+03  0.33522150990E+03  0.00000000000E+00 0.  1.
<mgrwt>
<rscale>  0 0.13242704E+04</rscale>
<asrwt>0</asrwt>
<pdfrwt beam="1">  1        1 0.29565790E+00 0.13242704E+04</pdfrwt>
<pdfrwt beam="2">  1       -2 0.35097579E-01 0.13242704E+04</pdfrwt>
<totfact> 0.22110847E+01</totfact>
</mgrwt>
</event>
<event>
12    4  0.4280696E-008  0.1404212E+04  0.7818608E-02  0.8950775E-01
         -2   -1    0    0    0  501 -0.00000000000E+00  0.00000000000E+00  0.23031808143E+03  0.23031808143E+03  0.00000000000E+00 0.  1.
          1   -1    0    0  501    0  0.00000000000E+00 -0.00000000000E+00 -0.21403140064E+04  0.21403140064E+04  0.00000000000E+00 0. -1.
        -24    2    1    2    0    0  0.35632820101E+03 -0.18025881113E+03 -0.66404706409E+03  0.77926577718E+03  0.82665726537E+02 0.  0.
        254    2    1    2    0    0 -0.35632820101E+03  0.18025881113E+03 -0.12459488609E+04  0.15913663106E+04  0.90586706801E+03 0.  0.
         23    2    4    4    0    0 -0.76557701177E+02 -0.20780713547E+03  0.13990262470E+02  0.24051065433E+03  0.92761846884E+02 0.  0.
         23    2    4    4    0    0 -0.27977049983E+03  0.38806594660E+03 -0.12599391233E+04  0.13508556563E+04  0.92182960394E+02 0.  0.
          3    1    3    3  502    0  0.23637694455E+03 -0.15425076744E+03 -0.50297401526E+03  0.57675837159E+03  0.00000000000E+00 0. -1.
         -4    1    3    3    0  502  0.11995125646E+03 -0.26008043686E+02 -0.16107304883E+03  0.20250740560E+03  0.00000000000E+00 0.  1.
         11    1    5    5    0    0 -0.80722270617E+02 -0.87201779702E+02 -0.15373780279E+01  0.11883854126E+03  0.00000000000E+00 0. -1.
        -11    1    5    5    0    0  0.41645694406E+01 -0.12060535577E+03  0.15527640498E+02  0.12167211307E+03  0.00000000000E+00 0.  1.
          4    1    6    6  503    0 -0.51815752380E+02  0.33884892980E+02 -0.22829356016E+03  0.23653965371E+03  0.00000000000E+00 0. -1.
         -4    1    6    6    0  503 -0.22795474745E+03  0.35418105362E+03 -0.10316455632E+04  0.11143160026E+04  0.00000000000E+00 0.  1.
<mgrwt>
<rscale>  0 0.14042123E+04</rscale>
<asrwt>0</asrwt>
<pdfrwt beam="1">  1        1 0.32927909E+00 0.14042123E+04</pdfrwt>
<pdfrwt beam="2">  1       -2 0.35433550E-01 0.14042123E+04</pdfrwt>
<totfact> 0.15340894E+01</totfact>
</mgrwt>
</event>
<event>
12    4  0.4280696E-008  0.2421082E+04  0.7818608E-02  0.8431653E-01
         -2   -1    0    0    0  501 -0.00000000000E+00  0.00000000000E+00  0.38565740721E+03  0.38565740721E+03  0.00000000000E+00 0.  1.
          1   -1    0    0  501    0  0.00000000000E+00 -0.00000000000E+00 -0.37997707500E+04  0.37997707500E+04  0.00000000000E+00 0. -1.
        -24    2    1    2    0    0  0.47238559027E+03 -0.87790562057E+03 -0.95663051030E+03  0.13839540011E+04  0.79500437028E+02 0.  0.
        254    2    1    2    0    0 -0.47238559027E+03  0.87790562057E+03 -0.24574828325E+04  0.28014741561E+04  0.90286718333E+03 0.  0.
         23    2    4    4    0    0 -0.60802354826E+03  0.83305763089E+03 -0.24133385710E+04  0.26260318152E+04  0.90345916386E+02 0.  0.
         23    2    4    4    0    0  0.13563795800E+03  0.44847989681E+02 -0.44144261532E+02  0.17544234092E+03  0.91773096994E+02 0.  0.
          3    1    3    3  502    0  0.21448165033E+03 -0.46745944897E+03 -0.52382151684E+03  0.73410469026E+03  0.00000000000E+00 0. -1.
         -4    1    3    3    0  502  0.25790393994E+03 -0.41044617160E+03 -0.43280899346E+03  0.64984931087E+03  0.00000000000E+00 0.  1.
         11    1    5    5    0    0 -0.29990552643E+03  0.33809788238E+03 -0.10213148329E+04  0.11168426437E+04  0.00000000000E+00 0. -1.
        -11    1    5    5    0    0 -0.30811802184E+03  0.49495974851E+03 -0.13920237380E+04  0.15091891715E+04  0.00000000000E+00 0.  1.
          3    1    6    6  503    0  0.38908973624E+01  0.88079686815E+01 -0.37474682849E+02  0.38692004978E+02  0.00000000000E+00 0. -1.
         -3    1    6    6    0  503  0.13174706063E+03  0.36040020999E+02 -0.66695786836E+01  0.13675033594E+03  0.00000000000E+00 0.  1.
<mgrwt>
<rscale>  0 0.24210822E+04</rscale>
<asrwt>0</asrwt>
<pdfrwt beam="1">  1        1 0.58458014E+00 0.24210822E+04</pdfrwt>
<pdfrwt beam="2">  1       -2 0.59331906E-01 0.24210822E+04</pdfrwt>
<totfact> 0.29809919E-01</totfact>
</mgrwt>
</event>
<event>
12    4  0.4280696E-008  0.3224867E+04  0.7818608E-02  0.8182280E-01
          1   -1    0    0  501    0  0.00000000000E+00  0.00000000000E+00  0.21038972441E+04  0.21038972441E+04  0.00000000000E+00 0. -1.
         -2   -1    0    0    0  501 -0.00000000000E+00 -0.00000000000E+00 -0.12357743551E+04  0.12357743551E+04  0.00000000000E+00 0.  1.
        -24    2    1    2    0    0 -0.53718854122E+03 -0.13666556497E+04  0.63803948901E+03  0.16027593886E+04  0.73648316153E+02 0.  0.
        254    2    1    2    0    0  0.53718854122E+03  0.13666556497E+04  0.23008339995E+03  0.17369122106E+04  0.89866927317E+03 0.  0.
         23    2    4    4    0    0  0.37066046640E+03  0.10523879029E+04 -0.23539025326E+03  0.11439876394E+04  0.91595131568E+02 0.  0.
         23    2    4    4    0    0  0.16652807482E+03  0.31426774683E+03  0.46547365321E+03  0.59292457122E+03  0.91640651056E+02 0.  0.
          1    1    3    3  502    0 -0.46654160964E+03 -0.12128015525E+04  0.54047375408E+03  0.14073594275E+04  0.00000000000E+00 0. -1.
         -2    1    3    3    0  502 -0.70646931573E+02 -0.15385409727E+03  0.97565734935E+02  0.19539996116E+03  0.00000000000E+00 0.  1.
         11    1    5    5    0    0  0.14948948740E+03  0.55972503256E+03 -0.11298929389E+03  0.59025909519E+03  0.00000000000E+00 0. -1.
        -11    1    5    5    0    0  0.22117097899E+03  0.49266287035E+03 -0.12240095937E+03  0.55372854417E+03  0.00000000000E+00 0.  1.
          3    1    6    6  503    0  0.15141905188E+03  0.27152561867E+03  0.34608724978E+03  0.46522067379E+03  0.00000000000E+00 0. -1.
         -3    1    6    6    0  503  0.15109022945E+02  0.42742128153E+02  0.11938640343E+03  0.12770389743E+03  0.00000000000E+00 0.  1.
<mgrwt>
<rscale>  0 0.32248673E+04</rscale>
<asrwt>0</asrwt>
<pdfrwt beam="1">  1        1 0.32367650E+00 0.32248673E+04</pdfrwt>
<pdfrwt beam="2">  1       -2 0.19011913E+00 0.32248673E+04</pdfrwt>
<totfact> 0.28771343E-01</totfact>
</mgrwt>
</event>
<event>
12    4  0.4280696E-008  0.2638257E+04  0.7818608E-02  0.8355321E-01
          1   -1    0    0  501    0  0.00000000000E+00  0.00000000000E+00  0.11366305822E+04  0.11366305822E+04  0.00000000000E+00 0. -1.
         -2   -1    0    0    0  501 -0.00000000000E+00 -0.00000000000E+00 -0.15309281711E+04  0.15309281711E+04  0.00000000000E+00 0.  1.
        -24    2    1    2    0    0 -0.58406222586E+03  0.98292989344E+03  0.30638611967E+02  0.11465346499E+04  0.79518047041E+02 0.  0.
        254    2    1    2    0    0  0.58406222586E+03 -0.98292989344E+03 -0.42493620089E+03  0.15210241033E+04  0.90866038153E+03 0.  0.
         23    2    4    4    0    0  0.71674939131E+03 -0.74579912125E+03 -0.58705615757E+03  0.11925847985E+04  0.87621631583E+02 0.  0.
         23    2    4    4    0    0 -0.13268716545E+03 -0.23713077219E+03  0.16211995668E+03  0.32843930480E+03  0.88048904524E+02 0.  0.
          1    1    3    3  502    0 -0.56779051302E+03  0.92698301828E+03  0.38543263684E+02  0.10877357979E+04  0.00000000000E+00 0. -1.
         -2    1    3    3    0  502 -0.16271712840E+02  0.55946875167E+02 -0.79046517167E+01  0.58798852017E+02  0.00000000000E+00 0.  1.
         11    1    5    5    0    0  0.35922027002E+03 -0.31638394535E+03 -0.29164505374E+03  0.56053085610E+03  0.00000000000E+00 0.  1.
        -11    1    5    5    0    0  0.35752912128E+03 -0.42941517590E+03 -0.29541110383E+03  0.63205394242E+03  0.00000000000E+00 0. -1.
          1    1    6    6  503    0 -0.52544847618E+02 -0.23691496146E+02  0.31587662937E+02  0.65726923332E+02  0.00000000000E+00 0. -1.
         -1    1    6    6    0  503 -0.80142317828E+02 -0.21343927604E+03  0.13053229375E+03  0.26271238147E+03  0.00000000000E+00 0.  1.
<mgrwt>
<rscale>  0 0.26382568E+04</rscale>
<asrwt>0</asrwt>
<pdfrwt beam="1">  1        1 0.17486624E+00 0.26382568E+04</pdfrwt>
<pdfrwt beam="2">  1       -2 0.23552741E+00 0.26382568E+04</pdfrwt>
<totfact> 0.72387199E-01</totfact>
</mgrwt>
</event>
<event>
12    4  0.4280696E-008  0.2958010E+04  0.7818608E-02  0.8255824E-01
          1   -1    0    0  501    0  0.00000000000E+00  0.00000000000E+00  0.33047503104E+04  0.33047503104E+04  0.00000000000E+00 0. -1.
         -2   -1    0    0    0  501 -0.00000000000E+00 -0.00000000000E+00 -0.66191239798E+03  0.66191239798E+03  0.00000000000E+00 0.  1.
        -24    2    1    2    0    0  0.35663940192E+03  0.12345906931E+04  0.17090658925E+04  0.21398413020E+04  0.81294096730E+02 0.  0.
        254    2    1    2    0    0 -0.35663940192E+03 -0.12345906931E+04  0.93377201992E+03  0.18268214064E+04  0.90218646811E+03 0.  0.
         23    2    4    4    0    0  0.23035146287E+03 -0.77741111334E+03  0.55842394968E+03  0.98873216712E+03  0.91236808035E+02 0.  0.
         23    2    4    4    0    0 -0.58699086479E+03 -0.45717957978E+03  0.37534807025E+03  0.83808923930E+03  0.89083981076E+02 0.  0.
          1    1    3    3  502    0  0.33670842252E+03  0.11794996394E+04  0.16005398448E+04  0.20165117793E+04  0.00000000000E+00 0. -1.
         -2    1    3    3    0  502  0.19930979400E+02  0.55091053734E+02  0.10852604772E+03  0.12332952272E+03  0.00000000000E+00 0.  1.
         11    1    5    5    0    0  0.15082724435E+03 -0.63286117500E+03  0.43334111373E+03  0.78169472642E+03  0.00000000000E+00 0. -1.
        -11    1    5    5    0    0  0.79524218517E+02 -0.14454993834E+03  0.12508283595E+03  0.20703744070E+03  0.00000000000E+00 0.  1.
          4    1    6    6  503    0 -0.30323351772E+03 -0.21735509322E+03  0.14109334900E+03  0.39887483745E+03  0.00000000000E+00 0. -1.
         -4    1    6    6    0  503 -0.28375734706E+03 -0.23982448655E+03  0.23425472125E+03  0.43921440185E+03  0.00000000000E+00 0.  1.
<mgrwt>
<rscale>  0 0.29580096E+04</rscale>
<asrwt>0</asrwt>
<pdfrwt beam="1">  1        1 0.50842311E+00 0.29580096E+04</pdfrwt>
<pdfrwt beam="2">  1       -2 0.10183268E+00 0.29580096E+04</pdfrwt>
<totfact> 0.21044187E-01</totfact>
</mgrwt>
</event>
<event>
12    4  0.4280696E-008  0.1621734E+04  0.7818608E-02  0.8807306E-01
         -4   -1    0    0    0  501 -0.00000000000E+00  0.00000000000E+00  0.34731083373E+03  0.34731083373E+03  0.00000000000E+00 0.  1.
          3   -1    0    0  501    0  0.00000000000E+00 -0.00000000000E+00 -0.18931317218E+04  0.18931317218E+04  0.00000000000E+00 0. -1.
        -24    2    1    2    0    0  0.26651859881E+03 -0.41088784989E+03 -0.16380586292E+03  0.52254895796E+03  0.79775084115E+02 0.  0.
        254    2    1    2    0    0 -0.26651859881E+03  0.41088784989E+03 -0.13820150251E+04  0.17178935975E+04  0.89517143280E+03 0.  0.
         23    2    4    4    0    0 -0.13301517922E+03  0.18749648283E+03 -0.14192771145E+04  0.14406722161E+04  0.91328732070E+02 0.  0.
         23    2    4    4    0    0 -0.13350341959E+03  0.22339136705E+03  0.37262089414E+02  0.27722138148E+03  0.87956609335E+02 0.  0.
          1    1    3    3  502    0  0.71515530219E+02 -0.16530532725E+03 -0.34697294928E+02  0.18342362050E+03  0.00000000000E+00 0. -1.
         -2    1    3    3    0  502  0.19500306859E+03 -0.24558252263E+03 -0.12910856799E+03  0.33912533746E+03  0.00000000000E+00 0.  1.
         11    1    5    5    0    0 -0.12889803377E+03  0.19789936653E+03 -0.13556502828E+04  0.13760692394E+04  0.00000000000E+00 0. -1.
        -11    1    5    5    0    0 -0.41171454528E+01 -0.10402883694E+02 -0.63626831751E+02  0.64602976669E+02  0.00000000000E+00 0.  1.
          4    1    6    6  503    0 -0.11399915225E+03  0.10711114325E+03  0.14055804466E+02  0.15705466997E+03  0.00000000000E+00 0. -1.
         -4    1    6    6    0  503 -0.19504267339E+02  0.11628022381E+03  0.23206284948E+02  0.12016671150E+03  0.00000000000E+00 0.  1.
<mgrwt>
<rscale>  0 0.16217338E+04</rscale>
<asrwt>0</asrwt>
<pdfrwt beam="1">  1        3 0.29125104E+00 0.16217338E+04</pdfrwt>
<pdfrwt beam="2">  1       -4 0.53432435E-01 0.16217338E+04</pdfrwt>
<totfact> 0.31969038E-01</totfact>
</mgrwt>
</event>
<event>
12    4  0.4280696E-008  0.9999558E+03  0.7818608E-02  0.9308593E-01
          1   -1    0    0  501    0  0.00000000000E+00  0.00000000000E+00  0.58519939380E+03  0.58519939380E+03  0.00000000000E+00 0. -1.
         -2   -1    0    0    0  501 -0.00000000000E+00 -0.00000000000E+00 -0.42716703040E+03  0.42716703040E+03  0.00000000000E+00 0.  1.
        -24    2    1    2    0    0  0.19482418666E+01 -0.60123589684E+02  0.50746504459E+02  0.11258458509E+03  0.80507387255E+02 0.  0.
        254    2    1    2    0    0 -0.19482418666E+01  0.60123589684E+02  0.10728585894E+03  0.89978183912E+03  0.89133521236E+03 0.  0.
         23    2    4    4    0    0 -0.42892130702E+03 -0.55607191132E+02  0.52556586927E+02  0.44475276546E+03  0.89315061636E+02 0.  0.
         23    2    4    4    0    0  0.42697306515E+03  0.11573078082E+03  0.54729272014E+02  0.45502907366E+03  0.91414181958E+02 0.  0.
          3    1    3    3  502    0 -0.25620961956E+02 -0.28095103126E+02  0.58350800918E+02  0.69646137574E+02  0.00000000000E+00 0. -1.
         -4    1    3    3    0  502  0.27569203823E+02 -0.32028486557E+02 -0.76042964588E+01  0.42938447517E+02  0.00000000000E+00 0.  1.
         11    1    5    5    0    0 -0.10865559078E+03  0.19716388419E+02  0.32611179915E+02  0.11514452847E+03  0.00000000000E+00 0. -1.
        -11    1    5    5    0    0 -0.32026571624E+03 -0.75323579551E+02  0.19945407012E+02  0.32960823699E+03  0.00000000000E+00 0.  1.
          1    1    6    6  503    0  0.21807966687E+03  0.37063347774E+02 -0.13501978420E+02  0.22161844750E+03  0.00000000000E+00 0. -1.
         -1    1    6    6    0  503  0.20889339828E+03  0.78667433042E+02  0.68231250435E+02  0.23341062616E+03  0.00000000000E+00 0.  1.
<mgrwt>
<rscale>  0 0.99995577E+03</rscale>
<asrwt>0</asrwt>
<pdfrwt beam="1">  1        1 0.90030676E-01 0.99995577E+03</pdfrwt>
<pdfrwt beam="2">  1       -2 0.65718005E-01 0.99995577E+03</pdfrwt>
<totfact> 0.66466130E+01</totfact>
</mgrwt>
</event>
<event>
12    4  0.4280696E-008  0.1538904E+04  0.7818608E-02  0.8858987E-01
          1   -1    0    0  501    0  0.00000000000E+00  0.00000000000E+00  0.25752255758E+04  0.25752255758E+04  0.00000000000E+00 0. -1.
         -2   -1    0    0    0  501 -0.00000000000E+00 -0.00000000000E+00 -0.22990457908E+03  0.22990457908E+03  0.00000000000E+00 0.  1.
        -24    2    1    2    0    0  0.29297820680E+03  0.30705599791E+03  0.12577169986E+04  0.13297774928E+04  0.79602238034E+02 0.  0.
        254    2    1    2    0    0 -0.29297820680E+03 -0.30705599791E+03  0.10876039981E+04  0.14753526620E+04  0.90203292913E+03 0.  0.
         23    2    4    4    0    0  0.20177973974E+03 -0.13658528387E+02  0.79181592443E+03  0.82220200866E+03  0.90233397879E+02 0.  0.
         23    2    4    4    0    0 -0.49475794655E+03 -0.29339746952E+03  0.29578807365E+03  0.65315065338E+03  0.90816797497E+02 0.  0.
          1    1    3    3  502    0  0.16298232670E+03  0.21174687558E+03  0.86283431022E+03  0.90326243419E+03  0.00000000000E+00 0. -1.
         -2    1    3    3    0  502  0.12999588011E+03  0.95309122323E+02  0.39488268842E+03  0.42651505865E+03  0.00000000000E+00 0.  1.
         11    1    5    5    0    0  0.90984405605E+02  0.35262623729E+02  0.28997310100E+03  0.30595099935E+03  0.00000000000E+00 0. -1.
        -11    1    5    5    0    0  0.11079533414E+03 -0.48921152116E+02  0.50184282343E+03  0.51625100931E+03  0.00000000000E+00 0.  1.
          1    1    6    6  503    0 -0.90806380150E+01 -0.22798749618E+02  0.23905501600E+02  0.34259509302E+02  0.00000000000E+00 0. -1.
         -1    1    6    6    0  503 -0.48567730853E+03 -0.27059871990E+03  0.27188257205E+03  0.61889114408E+03  0.00000000000E+00 0.  1.
<mgrwt>
<rscale>  0 0.15389037E+04</rscale>
<asrwt>0</asrwt>
<pdfrwt beam="1">  1        1 0.39618853E+00 0.15389037E+04</pdfrwt>
<pdfrwt beam="2">  1       -2 0.35369937E-01 0.15389037E+04</pdfrwt>
<totfact> 0.76552097E+00</totfact>
</mgrwt>
</event>
<event>
12    4  0.4280696E-008  0.1519126E+04  0.7818608E-02  0.8871833E-01
          1   -1    0    0  501    0  0.00000000000E+00  0.00000000000E+00  0.48856286456E+03  0.48856286456E+03  0.00000000000E+00 0. -1.
         -2   -1    0    0    0  501 -0.00000000000E+00 -0.00000000000E+00 -0.11808831504E+04  0.11808831504E+04  0.00000000000E+00 0.  1.
        -24    2    1    2    0    0 -0.12838710774E+03  0.84118358173E+02 -0.71472599872E+03  0.73534082644E+03  0.79584735709E+02 0.  0.
        254    2    1    2    0    0  0.12838710774E+03 -0.84118358173E+02  0.22405712872E+02  0.93410518853E+03  0.92113589641E+03 0.  0.
         23    2    4    4    0    0 -0.25589378749E+03 -0.31218157458E+03  0.18187669251E+03  0.45108139015E+03  0.86350004507E+02 0.  0.
         23    2    4    4    0    0  0.38428089523E+03  0.22806321641E+03 -0.15947097964E+03  0.48302379837E+03  0.90533746895E+02 0.  0.
          3    1    3    3  502    0 -0.20410782429E+02 -0.14900997091E+02 -0.78624746647E+02  0.82586261200E+02  0.00000000000E+00 0. -1.
         -4    1    3    3    0  502 -0.10797632531E+03  0.99019355264E+02 -0.63610125208E+03  0.65275456524E+03  0.00000000000E+00 0.  1.
         11    1    5    5    0    0 -0.28948564977E+02 -0.61263670533E+01  0.17755018117E+01  0.29642945100E+02  0.00000000000E+00 0.  1.
        -11    1    5    5    0    0 -0.22694522252E+03 -0.30605520753E+03  0.18010119070E+03  0.42143844506E+03  0.00000000000E+00 0. -1.
          4    1    6    6  503    0  0.18721301547E+03  0.71600733958E+02 -0.10207918403E+03  0.22493451953E+03  0.00000000000E+00 0.  1.
         -4    1    6    6    0  503  0.19706787976E+03  0.15646248245E+03 -0.57391795610E+02  0.25808927884E+03  0.00000000000E+00 0. -1.
<mgrwt>
<rscale>  0 0.15191256E+04</rscale>
<asrwt>0</asrwt>
<pdfrwt beam="1">  1        1 0.75163518E-01 0.15191256E+04</pdfrwt>
<pdfrwt beam="2">  1       -2 0.18167433E+00 0.15191256E+04</pdfrwt>
<totfact> 0.68182493E+00</totfact>
</mgrwt>
</event>
<event>
12    4  0.4280696E-008  0.1289396E+04  0.7818608E-02  0.9038017E-01
         -2   -1    0    0    0  501 -0.00000000000E+00  0.00000000000E+00  0.63785753076E+03  0.63785753076E+03  0.00000000000E+00 0.  1.
          1   -1    0    0  501    0  0.00000000000E+00 -0.00000000000E+00 -0.65161181136E+03  0.65161181136E+03  0.00000000000E+00 0. -1.
        -24    2    1    2    0    0  0.41015771390E+01 -0.59921743189E+01  0.32209960532E+03  0.33190880935E+03  0.79765737559E+02 0.  0.
        254    2    1    2    0    0 -0.41015771390E+01  0.59921743189E+01 -0.33585388592E+03  0.95756053278E+03  0.89670040267E+03 0.  0.
         23    2    4    4    0    0 -0.14614435378E+03  0.40895336343E+03 -0.82124312961E+02  0.45129755752E+03  0.91236270402E+02 0.  0.
         23    2    4    4    0    0  0.14204277664E+03 -0.40296118911E+03 -0.25372957296E+03  0.50626297526E+03  0.96796867693E+02 0.  0.
          1    1    3    3  502    0 -0.17544182670E+02  0.78097710436E+01  0.16751335891E+02  0.25483291064E+02  0.00000000000E+00 0. -1.
         -2    1    3    3    0  502  0.21645759809E+02 -0.13801945363E+02  0.30534826943E+03  0.30642551829E+03  0.00000000000E+00 0.  1.
         11    1    5    5    0    0 -0.15254614617E+03  0.40771376150E+03 -0.85973586005E+02  0.44372547315E+03  0.00000000000E+00 0. -1.
        -11    1    5    5    0    0  0.64017923894E+01  0.12396019321E+01  0.38492730446E+01  0.75720843708E+01  0.00000000000E+00 0.  1.
          1    1    6    6  503    0  0.13529788391E+03 -0.31921150189E+03 -0.23865363035E+03  0.42090029176E+03  0.00000000000E+00 0. -1.
         -1    1    6    6    0  503  0.67448927369E+01 -0.83749687223E+02 -0.15075942615E+02  0.85362683497E+02  0.00000000000E+00 0.  1.
<mgrwt>
<rscale>  0 0.12893960E+04</rscale>
<asrwt>0</asrwt>
<pdfrwt beam="1">  1        1 0.10024797E+00 0.12893960E+04</pdfrwt>
<pdfrwt beam="2">  1       -2 0.98131928E-01 0.12893960E+04</pdfrwt>
<totfact> 0.22561775E+01</totfact>
</mgrwt>
</event>
<event>
12    4  0.4280696E-008  0.2999261E+04  0.7818608E-02  0.8243942E-01
          1   -1    0    0  501    0  0.00000000000E+00  0.00000000000E+00  0.23983119046E+04  0.23983119046E+04  0.00000000000E+00 0. -1.
         -2   -1    0    0    0  501 -0.00000000000E+00 -0.00000000000E+00 -0.93769750033E+03  0.93769750033E+03  0.00000000000E+00 0.  1.
        -24    2    1    2    0    0 -0.31005861709E+03 -0.18906934522E+03 -0.79831336021E+03  0.88057097388E+03  0.78850844122E+02 0.  0.
        254    2    1    2    0    0  0.31005861709E+03  0.18906934522E+03  0.22589277644E+04  0.24554384310E+04  0.89136955309E+03 0.  0.
         23    2    4    4    0    0  0.49742880786E+03  0.34656931956E+03  0.10288301111E+04  0.11976525028E+04  0.91292977277E+02 0.  0.
         23    2    4    4    0    0 -0.18737019077E+03 -0.15749997434E+03  0.12300976533E+04  0.12577859282E+04  0.94717338719E+02 0.  0.
          3    1    3    3  502    0 -0.79570698493E+02 -0.29834044061E+02 -0.12344593386E+03  0.14986815816E+03  0.00000000000E+00 0. -1.
         -4    1    3    3    0  502 -0.23048791860E+03 -0.15923530116E+03 -0.67486742635E+03  0.73070281572E+03  0.00000000000E+00 0.  1.
         11    1    5    5    0    0  0.32136660246E+03  0.26849456899E+03  0.66190553606E+03  0.78325268300E+03  0.00000000000E+00 0. -1.
        -11    1    5    5    0    0  0.17606220541E+03  0.78074750570E+02  0.36692457508E+03  0.41439981980E+03  0.00000000000E+00 0.  1.
          2    1    6    6  503    0 -0.11270915874E+03 -0.94916659115E+02  0.94698168292E+03  0.95837718797E+03  0.00000000000E+00 0. -1.
         -2    1    6    6    0  503 -0.74661032031E+02 -0.62583315229E+02  0.28311597037E+03  0.29940874024E+03  0.00000000000E+00 0.  1.
<mgrwt>
<rscale>  0 0.29992606E+04</rscale>
<asrwt>0</asrwt>
<pdfrwt beam="1">  1        1 0.36897106E+00 0.29992606E+04</pdfrwt>
<pdfrwt beam="2">  1       -2 0.14426115E+00 0.29992606E+04</pdfrwt>
<totfact> 0.39597397E-01</totfact>
</mgrwt>
</event>
<event>
12    4  0.4280696E-008  0.1988158E+04  0.7818608E-02  0.8612177E-01
          1   -1    0    0  501    0  0.00000000000E+00  0.00000000000E+00  0.22538975806E+04  0.22538975806E+04  0.00000000000E+00 0. -1.
         -2   -1    0    0    0  501 -0.00000000000E+00 -0.00000000000E+00 -0.43843738602E+03  0.43843738602E+03  0.00000000000E+00 0.  1.
        -24    2    1    2    0    0  0.23684453390E+03  0.73027581144E+03  0.44513784367E+03  0.89106408912E+03  0.80308262629E+02 0.  0.
        254    2    1    2    0    0 -0.23684453390E+03 -0.73027581144E+03  0.13703223509E+04  0.18012708775E+04  0.88170025219E+03 0.  0.
         23    2    4    4    0    0  0.12366164040E+03 -0.72451138444E+03  0.11523517619E+04  0.13701795394E+04  0.96272735015E+02 0.  0.
         23    2    4    4    0    0 -0.36050617430E+03 -0.57644270013E+01  0.21797058902E+03  0.43109133812E+03  0.91272305744E+02 0.  0.
          1    1    3    3  502    0  0.10526655567E+03  0.41501103865E+03  0.28037623510E+03  0.51178710726E+03  0.00000000000E+00 0. -1.
         -2    1    3    3    0  502  0.13157797823E+03  0.31526477279E+03  0.16476160857E+03  0.37927698187E+03  0.00000000000E+00 0.  1.
         11    1    5    5    0    0  0.11654149423E+02 -0.31453444282E+02  0.23979311051E+02  0.41232823266E+02  0.00000000000E+00 0. -1.
        -11    1    5    5    0    0  0.11200749098E+03 -0.69305794016E+03  0.11283724509E+04  0.13289467161E+04  0.00000000000E+00 0.  1.
          2    1    6    6  503    0 -0.58444546523E+01  0.12980853551E+02  0.19803565337E+02  0.24389370823E+02  0.00000000000E+00 0. -1.
         -2    1    6    6    0  503 -0.35466171965E+03 -0.18745280552E+02  0.19816702368E+03  0.40670196729E+03  0.00000000000E+00 0.  1.
<mgrwt>
<rscale>  0 0.19881579E+04</rscale>
<asrwt>0</asrwt>
<pdfrwt beam="1">  1        1 0.34675347E+00 0.19881579E+04</pdfrwt>
<pdfrwt beam="2">  1       -2 0.67451907E-01 0.19881579E+04</pdfrwt>
<totfact> 0.32904372E+00</totfact>
</mgrwt>
</event>
<event>
12    4  0.4280696E-008  0.1963122E+04  0.7818608E-02  0.8624059E-01
          1   -1    0    0  501    0  0.00000000000E+00  0.00000000000E+00  0.17751770926E+04  0.17751770926E+04  0.00000000000E+00 0. -1.
         -2   -1    0    0    0  501 -0.00000000000E+00 -0.00000000000E+00 -0.54274154768E+03  0.54274154768E+03  0.00000000000E+00 0.  1.
        -24    2    1    2    0    0 -0.47265586573E+03  0.48730681176E+03  0.92138499280E+03  0.11472668260E+04  0.79996055757E+02 0.  0.
        254    2    1    2    0    0  0.47265586573E+03 -0.48730681176E+03  0.31105055213E+03  0.11706518143E+04  0.90155517196E+03 0.  0.
         23    2    4    4    0    0  0.57648236112E+03 -0.18807446479E+03  0.49710803800E+03  0.78921103068E+03  0.89631091264E+02 0.  0.
         23    2    4    4    0    0 -0.10382649538E+03 -0.29923234697E+03 -0.18605748587E+03  0.38144078359E+03  0.10276061853E+03 0.  0.
          1    1    3    3  502    0 -0.24989110317E+03  0.20772324519E+03  0.47188938838E+03  0.57295209652E+03  0.00000000000E+00 0. -1.
         -2    1    3    3    0  502 -0.22276476256E+03  0.27958356658E+03  0.44949560442E+03  0.57431472951E+03  0.00000000000E+00 0.  1.
         11    1    5    5    0    0  0.23440055874E+03 -0.11294183245E+03  0.24774438790E+03  0.35927254444E+03  0.00000000000E+00 0. -1.
        -11    1    5    5    0    0  0.34208180237E+03 -0.75132632346E+02  0.24936365011E+03  0.42993848624E+03  0.00000000000E+00 0.  1.
          4    1    6    6  503    0 -0.27144021686E+02 -0.13047815315E+03 -0.13381622360E+03  0.18886007535E+03  0.00000000000E+00 0. -1.
         -4    1    6    6    0  503 -0.76682473698E+02 -0.16875419381E+03 -0.52241262278E+02  0.19258070824E+03  0.00000000000E+00 0.  1.
<mgrwt>
<rscale>  0 0.19631224E+04</rscale>
<asrwt>0</asrwt>
<pdfrwt beam="1">  1        1 0.27310416E+00 0.19631224E+04</pdfrwt>
<pdfrwt beam="2">  1       -2 0.83498701E-01 0.19631224E+04</pdfrwt>
<totfact> 0.43422000E+00</totfact>
</mgrwt>
</event>
<event>
12    4  0.4280696E-008  0.1771543E+04  0.7818608E-02  0.8721581E-01
         -4   -1    0    0    0  501 -0.00000000000E+00  0.00000000000E+00  0.76680446213E+03  0.76680446213E+03  0.00000000000E+00 0.  1.
          3   -1    0    0  501    0  0.00000000000E+00 -0.00000000000E+00 -0.10231952833E+04  0.10231952833E+04  0.00000000000E+00 0. -1.
        -24    2    1    2    0    0 -0.13827951869E+03  0.34569188238E+03  0.44706732064E+03  0.58696942990E+03  0.77716276452E+02 0.  0.
        254    2    1    2    0    0  0.13827951869E+03 -0.34569188238E+03 -0.70345814185E+03  0.12030303156E+04  0.90211112398E+03 0.  0.
         23    2    4    4    0    0  0.27872800926E+03 -0.26481529466E+03  0.75236210419E+02  0.40250708709E+03  0.92385195632E+02 0.  0.
         23    2    4    4    0    0 -0.14044849056E+03 -0.80876587716E+02 -0.77869435227E+03  0.80052322847E+03  0.90585562440E+02 0.  0.
          1    1    3    3  502    0 -0.38463649597E+02  0.54327998219E+02  0.12324372294E+03  0.14007140670E+03  0.00000000000E+00 0. -1.
         -2    1    3    3    0  502 -0.99815869097E+02  0.29136388416E+03  0.32382359769E+03  0.44689802320E+03  0.00000000000E+00 0.  1.
         11    1    5    5    0    0  0.18645791619E+03 -0.14154806955E+03  0.82890665900E+02  0.24834104171E+03  0.00000000000E+00 0. -1.
        -11    1    5    5    0    0  0.92270093065E+02 -0.12326722511E+03 -0.76544554808E+01  0.15416604538E+03  0.00000000000E+00 0.  1.
          1    1    6    6  503    0 -0.46302114821E+02 -0.60004923115E+02 -0.20059294201E+03  0.21443415078E+03  0.00000000000E+00 0. -1.
         -1    1    6    6    0  503 -0.94146375743E+02 -0.20871664602E+02 -0.57810141026E+03  0.58608907770E+03  0.00000000000E+00 0.  1.
<mgrwt>
<rscale>  0 0.17715425E+04</rscale>
<asrwt>0</asrwt>
<pdfrwt beam="1">  1        3 0.15741466E+00 0.17715425E+04</pdfrwt>
<pdfrwt beam="2">  1       -4 0.11796992E+00 0.17715425E+04</pdfrwt>
<totfact> 0.34142506E-01</totfact>
</mgrwt>
</event>
<event>
12    4  0.4280696E-008  0.1823022E+04  0.7818608E-02  0.8694152E-01
          1   -1    0    0  501    0  0.00000000000E+00  0.00000000000E+00  0.13004113275E+04  0.13004113275E+04  0.00000000000E+00 0. -1.
         -2   -1    0    0    0  501 -0.00000000000E+00 -0.00000000000E+00 -0.63891502411E+03  0.63891502411E+03  0.00000000000E+00 0.  1.
        -24    2    1    2    0    0  0.50967216482E+03 -0.37102762959E+03  0.53059378194E+03  0.82798616479E+03  0.81265676298E+02 0.  0.
        254    2    1    2    0    0 -0.50967216482E+03  0.37102762959E+03  0.13090252146E+03  0.11113401868E+04  0.90582245681E+03 0.  0.
         23    2    4    4    0    0 -0.53172217368E+03 -0.15113219683E+03  0.14942537895E+03  0.57986682150E+03  0.91368352830E+02 0.  0.
         23    2    4    4    0    0  0.22050008866E+02  0.52215982642E+03 -0.18522857492E+02  0.53147336534E+03  0.94782670314E+02 0.  0.
          3    1    3    3  502    0  0.40817194604E+03 -0.27587421199E+03  0.37414645285E+03  0.61862467341E+03  0.00000000000E+00 0. -1.
         -4    1    3    3    0  502  0.10150021878E+03 -0.95153417596E+02  0.15644732910E+03  0.20936149138E+03  0.00000000000E+00 0.  1.
         11    1    5    5    0    0 -0.68061136637E+02 -0.22382024622E+02 -0.11294376633E+02  0.72531622690E+02  0.00000000000E+00 0. -1.
        -11    1    5    5    0    0 -0.46366103705E+03 -0.12875017221E+03  0.16071975559E+03  0.50733519881E+03  0.00000000000E+00 0.  1.
          2    1    6    6  503    0  0.26116224304E+02  0.36622559828E+02 -0.87313204093E+01  0.45820355916E+02  0.00000000000E+00 0. -1.
         -2    1    6    6    0  503 -0.40662154377E+01  0.48553726660E+03 -0.97915370825E+01  0.48565300942E+03  0.00000000000E+00 0.  1.
<mgrwt>
<rscale>  0 0.18230220E+04</rscale>
<asrwt>0</asrwt>
<pdfrwt beam="1">  1        1 0.20006328E+00 0.18230220E+04</pdfrwt>
<pdfrwt beam="2">  1       -2 0.98294620E-01 0.18230220E+04</pdfrwt>
<totfact> 0.64253303E+00</totfact>
</mgrwt>
</event>
<event>
12    4  0.4280696E-008  0.2494837E+04  0.7818608E-02  0.8404827E-01
         -2   -1    0    0    0  501 -0.00000000000E+00  0.00000000000E+00  0.10039656088E+04  0.10039656088E+04  0.00000000000E+00 0.  1.
          1   -1    0    0  501    0  0.00000000000E+00 -0.00000000000E+00 -0.15499066874E+04  0.15499066874E+04  0.00000000000E+00 0. -1.
        -24    2    1    2    0    0 -0.11328823908E+03  0.96278587570E+03 -0.67719370047E+03  0.11851994764E+04  0.79470895832E+02 0.  0.
        254    2    1    2    0    0  0.11328823908E+03 -0.96278587570E+03  0.13125262196E+03  0.13686728198E+04  0.95720800738E+03 0.  0.
         23    2    4    4    0    0  0.30217865623E+02 -0.11400298677E+04  0.13432165162E+03  0.11519395185E+04  0.91329785042E+02 0.  0.
         23    2    4    4    0    0  0.83070373459E+02  0.17724399199E+03 -0.30690296576E+01  0.21673330129E+03  0.92993469144E+02 0.  0.
          3    1    3    3  502    0 -0.68473298432E+02  0.74460024526E+03 -0.55445527762E+03  0.93088064365E+03  0.00000000000E+00 0. -1.
         -4    1    3    3    0  502 -0.44814940651E+02  0.21818563044E+03 -0.12273842285E+03  0.25431883272E+03  0.00000000000E+00 0.  1.
         11    1    5    5    0    0  0.46713383193E+02 -0.77614897742E+03  0.57533458032E+02  0.77967908406E+03  0.00000000000E+00 0. -1.
        -11    1    5    5    0    0 -0.16495517569E+02 -0.36388089027E+03  0.76788193584E+02  0.37226043447E+03  0.00000000000E+00 0.  1.
          2    1    6    6  503    0  0.76883416987E+02  0.91215421798E+02  0.32177762496E+02  0.12355857470E+03  0.00000000000E+00 0. -1.
         -2    1    6    6    0  503  0.61869564724E+01  0.86028570192E+02 -0.35246792154E+02  0.93174726599E+02  0.00000000000E+00 0.  1.
<mgrwt>
<rscale>  0 0.24948371E+04</rscale>
<asrwt>0</asrwt>
<pdfrwt beam="1">  1        1 0.23844718E+00 0.24948371E+04</pdfrwt>
<pdfrwt beam="2">  1       -2 0.15445625E+00 0.24948371E+04</pdfrwt>
<totfact> 0.13068241E+00</totfact>
</mgrwt>
</event>
<event>
12    4  0.4280696E-008  0.1597278E+04  0.7818608E-02  0.8822222E-01
          1   -1    0    0  501    0  0.00000000000E+00  0.00000000000E+00  0.21326142232E+04  0.21326142232E+04  0.00000000000E+00 0. -1.
         -2   -1    0    0    0  501 -0.00000000000E+00 -0.00000000000E+00 -0.29908104497E+03  0.29908104497E+03  0.00000000000E+00 0.  1.
        -24    2    1    2    0    0 -0.93692573363E+02  0.12343710355E+03 -0.15415979060E+03  0.24430719605E+03  0.10911346465E+03 0.  0.
        254    2    1    2    0    0  0.93692573363E+02 -0.12343710355E+03  0.19876929688E+04  0.21873880721E+04  0.89984900001E+03 0.  0.
         23    2    4    4    0    0  0.21893975454E+03  0.22795905039E+03  0.25871831384E+03  0.41647281368E+03  0.81329538556E+02 0.  0.
         23    2    4    4    0    0 -0.12524718118E+03 -0.35139615394E+03  0.17289746550E+04  0.17709152584E+04  0.87300524271E+02 0.  0.
          1    1    3    3  502    0  0.19403432346E+02  0.57320571066E+01 -0.66915234899E+00  0.20243454012E+02  0.00000000000E+00 0. -1.
         -2    1    3    3    0  502 -0.11309600571E+03  0.11770504644E+03 -0.15349063825E+03  0.22406374204E+03  0.00000000000E+00 0.  1.
         11    1    5    5    0    0  0.17698989555E+03  0.13059291417E+03  0.18403146672E+03  0.28678827225E+03  0.00000000000E+00 0.  1.
        -11    1    5    5    0    0  0.41949858998E+02  0.97366136225E+02  0.74686847122E+02  0.12968454143E+03  0.00000000000E+00 0. -1.
          4    1    6    6  503    0 -0.88623551558E+02 -0.28629162704E+03  0.15127568383E+04  0.15421576707E+04  0.00000000000E+00 0. -1.
         -4    1    6    6    0  503 -0.36623629622E+02 -0.65104526898E+02  0.21621781666E+03  0.22875758766E+03  0.00000000000E+00 0.  1.
<mgrwt>
<rscale>  0 0.15972783E+04</rscale>
<asrwt>0</asrwt>
<pdfrwt beam="1">  1        1 0.32809449E+00 0.15972783E+04</pdfrwt>
<pdfrwt beam="2">  1       -2 0.46012470E-01 0.15972783E+04</pdfrwt>
<totfact> 0.91454692E+00</totfact>
</mgrwt>
</event>
<event>
12    4  0.4280696E-008  0.1731722E+04  0.7818608E-02  0.8743476E-01
          1   -1    0    0  501    0  0.00000000000E+00  0.00000000000E+00  0.10896977346E+04  0.10896977346E+04  0.00000000000E+00 0. -1.
         -2   -1    0    0    0  501 -0.00000000000E+00 -0.00000000000E+00 -0.68800265101E+03  0.68800265101E+03  0.00000000000E+00 0.  1.
        -24    2    1    2    0    0  0.28696080007E+02  0.62125184731E+03  0.20626271055E+03  0.66023297403E+03  0.81153875084E+02 0.  0.
        254    2    1    2    0    0 -0.28696080007E+02 -0.62125184731E+03  0.19543237305E+03  0.11174674116E+04  0.90761350847E+03 0.  0.
         23    2    4    4    0    0 -0.23135080947E+03 -0.17193396088E+03 -0.29141288322E+03  0.41878750238E+03  0.85889578540E+02 0.  0.
         23    2    4    4    0    0  0.20265472946E+03 -0.44931788643E+03  0.48684525627E+03  0.69867990921E+03  0.90442299553E+02 0.  0.
          3    1    3    3  502    0 -0.17427440693E+02  0.37925035463E+03  0.14477421848E+03  0.40631775929E+03  0.00000000000E+00 0. -1.
         -4    1    3    3    0  502  0.46123520700E+02  0.24200149268E+03  0.61488492067E+02  0.25391521475E+03  0.00000000000E+00 0.  1.
         11    1    5    5    0    0 -0.40143878228E+02 -0.75812159669E+01 -0.12322638993E+02  0.42671456812E+02  0.00000000000E+00 0. -1.
        -11    1    5    5    0    0 -0.19120693124E+03 -0.16435274491E+03 -0.27909024422E+03  0.37611604557E+03  0.00000000000E+00 0.  1.
          2    1    6    6  503    0  0.27162712745E+02 -0.91034190084E+02  0.14473947702E+03  0.17313160582E+03  0.00000000000E+00 0. -1.
         -2    1    6    6    0  503  0.17549201672E+03 -0.35828369634E+03  0.34210577925E+03  0.52554830339E+03  0.00000000000E+00 0.  1.
<mgrwt>
<rscale>  0 0.17317216E+04</rscale>
<asrwt>0</asrwt>
<pdfrwt beam="1">  1        1 0.16764580E+00 0.17317216E+04</pdfrwt>
<pdfrwt beam="2">  1       -2 0.10584656E+00 0.17317216E+04</pdfrwt>
<totfact> 0.77456066E+00</totfact>
</mgrwt>
</event>
<event>
12    4  0.4280696E-008  0.1550214E+04  0.7818608E-02  0.8851731E-01
          1   -1    0    0  501    0  0.00000000000E+00  0.00000000000E+00  0.21338491220E+04  0.21338491220E+04  0.00000000000E+00 0. -1.
         -2   -1    0    0    0  501 -0.00000000000E+00 -0.00000000000E+00 -0.28155278515E+03  0.28155278515E+03  0.00000000000E+00 0.  1.
        -24    2    1    2    0    0  0.39010478672E+03 -0.32928606299E+03  0.77904170488E+03  0.93487359142E+03  0.80446243527E+02 0.  0.
        254    2    1    2    0    0 -0.39010478672E+03  0.32928606299E+03  0.10732546319E+04  0.14805283157E+04  0.88288024823E+03 0.  0.
         23    2    4    4    0    0  0.31598350002E+02  0.37390424302E+03  0.95547781164E+03  0.10305617545E+04  0.91196725089E+02 0.  0.
         23    2    4    4    0    0 -0.42170313672E+03 -0.44618180031E+02  0.11777682030E+03  0.44996656119E+03  0.93670749299E+02 0.  0.
          1    1    3    3  502    0  0.29081873190E+02 -0.74409837767E+01  0.74274010400E+02  0.80110874472E+02  0.00000000000E+00 0. -1.
         -2    1    3    3    0  502  0.36102291353E+03 -0.32184507921E+03  0.70476769448E+03  0.85476271695E+03  0.00000000000E+00 0.  1.
         11    1    5    5    0    0  0.28820887678E+02  0.30930421536E+03  0.86702704287E+03  0.92099708700E+03  0.00000000000E+00 0.  1.
        -11    1    5    5    0    0  0.27774623239E+01  0.64600027666E+02  0.88450768773E+02  0.10956466752E+03  0.00000000000E+00 0. -1.
          1    1    6    6  503    0 -0.61839917314E+02 -0.12427978002E+02  0.54098118748E+02  0.83097752453E+02  0.00000000000E+00 0. -1.
         -1    1    6    6    0  503 -0.35986321941E+03 -0.32190202029E+02  0.63678701555E+02  0.36686880873E+03  0.00000000000E+00 0.  1.
<mgrwt>
<rscale>  0 0.15502144E+04</rscale>
<asrwt>0</asrwt>
<pdfrwt beam="1">  1        1 0.32828447E+00 0.15502144E+04</pdfrwt>
<pdfrwt beam="2">  1       -2 0.43315815E-01 0.15502144E+04</pdfrwt>
<totfact> 0.10340252E+01</totfact>
</mgrwt>
</event>
<event>
12    4  0.4280696E-008  0.1109514E+04  0.7818608E-02  0.9195969E-01
          1   -1    0    0  501    0  0.00000000000E+00  0.00000000000E+00  0.90168566922E+03  0.90168566922E+03  0.00000000000E+00 0. -1.
         -2   -1    0    0    0  501 -0.00000000000E+00 -0.00000000000E+00 -0.34131085364E+03  0.34131085364E+03  0.00000000000E+00 0.  1.
        -24    2    1    2    0    0  0.14366964432E+03  0.52376824621E+02  0.14514344375E+01  0.17153772404E+03  0.77709623934E+02 0.  0.
        254    2    1    2    0    0 -0.14366964432E+03 -0.52376824621E+02  0.55892338113E+03  0.10714587988E+04  0.90124597815E+03 0.  0.
         23    2    4    4    0    0 -0.26631659005E+03 -0.20557391920E+03 -0.11267551455E+03  0.36632636147E+03  0.91181517504E+02 0.  0.
         23    2    4    4    0    0  0.12264694573E+03  0.15319709458E+03  0.67159889569E+03  0.70513243735E+03  0.87493167941E+02 0.  0.
          1    1    3    3  502    0 -0.81091620057E+01 -0.46037631273E+00 -0.68293638708E+01  0.10611817265E+02  0.00000000000E+00 0. -1.
         -2    1    3    3    0  502  0.15177880632E+03  0.52837200934E+02  0.82807983083E+01  0.16092590678E+03  0.00000000000E+00 0.  1.
         11    1    5    5    0    0 -0.25773204180E+03 -0.16297028709E+03 -0.94763878809E+02  0.31932007856E+03  0.00000000000E+00 0. -1.
        -11    1    5    5    0    0 -0.85845482490E+01 -0.42603632109E+02 -0.17911635742E+02  0.47006282904E+02  0.00000000000E+00 0.  1.
          1    1    6    6  503    0  0.11271503521E+03  0.16301068801E+03  0.64883562000E+03  0.67842820206E+03  0.00000000000E+00 0. -1.
         -1    1    6    6    0  503  0.99319105277E+01 -0.98135934313E+01  0.22763275687E+02  0.26704235296E+02  0.00000000000E+00 0.  1.
<mgrwt>
<rscale>  0 0.11095136E+04</rscale>
<asrwt>0</asrwt>
<pdfrwt beam="1">  1        1 0.13872087E+00 0.11095136E+04</pdfrwt>
<pdfrwt beam="2">  1       -2 0.52509362E-01 0.11095136E+04</pdfrwt>
<totfact> 0.54181280E+01</totfact>
</mgrwt>
</event>
<event>
12    4  0.4280696E-008  0.3663454E+04  0.7818608E-02  0.8076110E-01
         -2   -1    0    0    0  501 -0.00000000000E+00  0.00000000000E+00  0.16685178685E+04  0.16685178685E+04  0.00000000000E+00 0.  1.
          1   -1    0    0  501    0  0.00000000000E+00 -0.00000000000E+00 -0.20109002916E+04  0.20109002916E+04  0.00000000000E+00 0. -1.
        -24    2    1    2    0    0  0.12815858678E+04  0.11226955195E+04 -0.39301068479E+03  0.17503741987E+04  0.80279954672E+02 0.  0.
        254    2    1    2    0    0 -0.12815858678E+04 -0.11226955195E+04  0.50628261693E+02  0.19290439614E+04  0.90318315867E+03 0.  0.
         23    2    4    4    0    0 -0.12362844473E+02  0.63086395763E+02  0.14886245850E+03  0.18705512272E+03  0.93256925377E+02 0.  0.
         23    2    4    4    0    0 -0.12692230233E+04 -0.11857819153E+04 -0.98234196803E+02  0.17419888387E+04  0.88709205781E+02 0.  0.
          3    1    3    3  502    0  0.12191755887E+04  0.10662974807E+04 -0.35533495722E+03  0.16582045607E+04  0.00000000000E+00 0. -1.
         -4    1    3    3    0  502  0.62410279155E+02  0.56398038792E+02 -0.37675727565E+02  0.92169638013E+02  0.00000000000E+00 0.  1.
         11    1    5    5    0    0 -0.41137985032E+02  0.45943634497E+02  0.13911450944E+03  0.15217095025E+03  0.00000000000E+00 0. -1.
        -11    1    5    5    0    0  0.28775140559E+02  0.17142761266E+02  0.97479490601E+01  0.34884172469E+02  0.00000000000E+00 0.  1.
          1    1    6    6  503    0 -0.10492463897E+04 -0.97490358134E+03 -0.11451455745E+03  0.14368258638E+04  0.00000000000E+00 0. -1.
         -1    1    6    6    0  503 -0.21997663367E+03 -0.21087833394E+03  0.16280360651E+02  0.30516297487E+03  0.00000000000E+00 0.  1.
<mgrwt>
<rscale>  0 0.36634536E+04</rscale>
<asrwt>0</asrwt>
<pdfrwt beam="1">  1        1 0.30936927E+00 0.36634536E+04</pdfrwt>
<pdfrwt beam="2">  1       -2 0.25669506E+00 0.36634536E+04</pdfrwt>
<totfact> 0.12117483E-01</totfact>
</mgrwt>
</event>
<event>
12    4  0.4280696E-008  0.1398959E+04  0.7818608E-02  0.8954573E-01
          1   -1    0    0  501    0  0.00000000000E+00  0.00000000000E+00  0.93802566192E+03  0.93802566192E+03  0.00000000000E+00 0. -1.
         -2   -1    0    0    0  501 -0.00000000000E+00 -0.00000000000E+00 -0.52159693726E+03  0.52159693726E+03  0.00000000000E+00 0.  1.
        -24    2    1    2    0    0 -0.21034558458E+03  0.67362059423E+01  0.48580576485E+03  0.53538106239E+03  0.79592709386E+02 0.  0.
        254    2    1    2    0    0  0.21034558458E+03 -0.67362059423E+01 -0.69377040184E+02  0.92424153678E+03  0.89728401478E+03 0.  0.
         23    2    4    4    0    0  0.84235156767E+02 -0.33905432569E+03 -0.31786239133E+03  0.48111023346E+03  0.91526824010E+02 0.  0.
         23    2    4    4    0    0  0.12611042782E+03  0.33231811975E+03  0.24848535115E+03  0.44313130332E+03  0.91001151270E+02 0.  0.
          3    1    3    3  502    0 -0.21054186232E+03  0.19424584801E+01  0.48688730271E+03  0.53046290585E+03  0.00000000000E+00 0. -1.
         -4    1    3    3    0  502  0.19627774117E+00  0.47937474623E+01 -0.10815378647E+01  0.49181565486E+01  0.00000000000E+00 0.  1.
         11    1    5    5    0    0  0.69418720413E+02 -0.13439564608E+03 -0.97289486204E+02  0.17985102878E+03  0.00000000000E+00 0. -1.
        -11    1    5    5    0    0  0.14816436354E+02 -0.20465867961E+03 -0.22057290513E+03  0.30125920468E+03  0.00000000000E+00 0.  1.
          3    1    6    6  503    0  0.84293673925E+02  0.22532009291E+03  0.11386605800E+03  0.26615793600E+03  0.00000000000E+00 0. -1.
         -3    1    6    6    0  503  0.41816753891E+02  0.10699802684E+03  0.13461929315E+03  0.17697336732E+03  0.00000000000E+00 0.  1.
<mgrwt>
<rscale>  0 0.13989586E+04</rscale>
<asrwt>0</asrwt>
<pdfrwt beam="1">  1        1 0.14431164E+00 0.13989586E+04</pdfrwt>
<pdfrwt beam="2">  1       -2 0.80245683E-01 0.13989586E+04</pdfrwt>
<totfact> 0.19885087E+01</totfact>
</mgrwt>
</event>
<event>
12    4  0.4280696E-008  0.2195517E+04  0.7818608E-02  0.8520296E-01
          1   -1    0    0  501    0  0.00000000000E+00  0.00000000000E+00  0.53046592901E+03  0.53046592901E+03  0.00000000000E+00 0. -1.
         -2   -1    0    0    0  501 -0.00000000000E+00 -0.00000000000E+00 -0.22717265560E+04  0.22717265560E+04  0.00000000000E+00 0.  1.
        -24    2    1    2    0    0  0.34877667978E+03  0.23030254894E+03 -0.17566083033E+04  0.18073805835E+04  0.79166948286E+02 0.  0.
        254    2    1    2    0    0 -0.34877667978E+03 -0.23030254894E+03  0.15347676331E+02  0.99481190156E+03  0.90262435814E+03 0.  0.
         23    2    4    4    0    0 -0.40715573096E+03  0.25649506722E+03  0.67259111704E+02  0.49354889076E+03  0.86609530126E+02 0.  0.
         23    2    4    4    0    0  0.58379051174E+02 -0.48679761616E+03 -0.51911435373E+02  0.50126301080E+03  0.90497382067E+02 0.  0.
          1    1    3    3  502    0  0.27049900497E+02  0.21982787177E+02 -0.26643284740E+03  0.26870318611E+03  0.00000000000E+00 0. -1.
         -2    1    3    3    0  502  0.32172677928E+03  0.20831976176E+03 -0.14901754559E+04  0.15386773974E+04  0.00000000000E+00 0.  1.
         11    1    5    5    0    0 -0.16889636224E+03  0.13485082811E+03  0.66174888102E+02  0.22603062366E+03  0.00000000000E+00 0. -1.
        -11    1    5    5    0    0 -0.23825936872E+03  0.12164423911E+03  0.10842236021E+01  0.26751826710E+03  0.00000000000E+00 0.  1.
          3    1    6    6  503    0 -0.22395351918E+01 -0.12237133760E+02 -0.17687143629E+02  0.21624014667E+02  0.00000000000E+00 0. -1.
         -3    1    6    6    0  503  0.60618586366E+02 -0.47456048240E+03 -0.34224291744E+02  0.47963899613E+03  0.00000000000E+00 0.  1.
<mgrwt>
<rscale>  0 0.21955168E+04</rscale>
<asrwt>0</asrwt>
<pdfrwt beam="1">  1        1 0.81610141E-01 0.21955168E+04</pdfrwt>
<pdfrwt beam="2">  1       -2 0.34949640E+00 0.21955168E+04</pdfrwt>
<totfact> 0.51172448E-01</totfact>
</mgrwt>
</event>
<event>
12    4  0.4280696E-008  0.1929311E+04  0.7818608E-02  0.8640402E-01
         -2   -1    0    0    0  501 -0.00000000000E+00  0.00000000000E+00  0.39459943323E+03  0.39459943323E+03  0.00000000000E+00 0.  1.
          1   -1    0    0  501    0  0.00000000000E+00 -0.00000000000E+00 -0.23582409054E+04  0.23582409054E+04  0.00000000000E+00 0. -1.
        -24    2    1    2    0    0 -0.55128639994E+03  0.74502142186E+02 -0.15092422659E+04  0.16104876443E+04  0.79943550776E+02 0.  0.
        254    2    1    2    0    0  0.55128639994E+03 -0.74502142186E+02 -0.45439920631E+03  0.11423526944E+04  0.88827010288E+03 0.  0.
         23    2    4    4    0    0  0.63726058542E+03 -0.14855032023E+03 -0.63100035343E+03  0.91365606218E+03  0.91856967970E+02 0.  0.
         23    2    4    4    0    0 -0.85974185483E+02  0.74048178044E+02  0.17660114711E+03  0.22869663218E+03  0.90771642981E+02 0.  0.
          3    1    3    3  502    0 -0.47318117693E+03  0.38524253087E+02 -0.13145354055E+04  0.13976365324E+04  0.00000000000E+00 0. -1.
         -2    1    3    3    0  502 -0.78105223007E+02  0.35977889099E+02 -0.19470686031E+03  0.21285111185E+03  0.00000000000E+00 0.  1.
         11    1    5    5    0    0  0.50364521760E+03 -0.91968488221E+02 -0.44961858878E+03  0.68137624219E+03  0.00000000000E+00 0.  1.
        -11    1    5    5    0    0  0.13361536782E+03 -0.56581832010E+02 -0.18138176464E+03  0.23227981999E+03  0.00000000000E+00 0. -1.
          2    1    6    6  503    0 -0.56875018491E+01 -0.14132115395E+02  0.60026062037E+02  0.61928930933E+02  0.00000000000E+00 0. -1.
         -2    1    6    6    0  503 -0.80286683634E+02  0.88180293439E+02  0.11657508508E+03  0.16676770125E+03  0.00000000000E+00 0.  1.
<mgrwt>
<rscale>  0 0.19293113E+04</rscale>
<asrwt>0</asrwt>
<pdfrwt beam="1">  1        1 0.36280630E+00 0.19293113E+04</pdfrwt>
<pdfrwt beam="2">  1       -2 0.60707604E-01 0.19293113E+04</pdfrwt>
<totfact> 0.35168153E+00</totfact>
</mgrwt>
</event>
<event>
12    4  0.4280696E-008  0.2344882E+04  0.7818608E-02  0.8460432E-01
         -2   -1    0    0    0  501 -0.00000000000E+00  0.00000000000E+00  0.75966460655E+03  0.75966460655E+03  0.00000000000E+00 0.  1.
          1   -1    0    0  501    0  0.00000000000E+00 -0.00000000000E+00 -0.18095063036E+04  0.18095063036E+04  0.00000000000E+00 0. -1.
        -24    2    1    2    0    0  0.70301363058E+03 -0.99135534492E+02 -0.12210446064E+04  0.14149932313E+04  0.84852195153E+02 0.  0.
        254    2    1    2    0    0 -0.70301363058E+03  0.99135534492E+02  0.17120290928E+03  0.11541776789E+04  0.89373355048E+03 0.  0.
         23    2    4    4    0    0 -0.87710341552E+03  0.17751351105E+03  0.30717240440E+02  0.90016401613E+03  0.92359400987E+02 0.  0.
         23    2    4    4    0    0  0.17408978494E+03 -0.78377976555E+02  0.14048566884E+03  0.25401366273E+03  0.91303654220E+02 0.  0.
          3    1    3    3  502    0  0.69977220472E+03 -0.10377730953E+03 -0.12180721702E+04  0.14085988358E+04  0.00000000000E+00 0. -1.
         -4    1    3    3    0  502  0.32414258541E+01  0.46417750414E+01 -0.29724361470E+01  0.63943954953E+01  0.00000000000E+00 0.  1.
         11    1    5    5    0    0 -0.11117624185E+03  0.50382151661E+02  0.19976485760E+02  0.12368337779E+03  0.00000000000E+00 0. -1.
        -11    1    5    5    0    0 -0.76592717367E+03  0.12713135939E+03  0.10740754680E+02  0.77648063834E+03  0.00000000000E+00 0.  1.
          1    1    6    6  503    0  0.81307300774E+01  0.17905301334E+02  0.15347542486E+02  0.24945052572E+02  0.00000000000E+00 0. -1.
         -1    1    6    6    0  503  0.16595905486E+03 -0.96283277888E+02  0.12513812635E+03  0.22906861016E+03  0.00000000000E+00 0.  1.
<mgrwt>
<rscale>  0 0.23448820E+04</rscale>
<asrwt>0</asrwt>
<pdfrwt beam="1">  1        1 0.27838559E+00 0.23448820E+04</pdfrwt>
<pdfrwt beam="2">  1       -2 0.11687148E+00 0.23448820E+04</pdfrwt>
<totfact> 0.17993696E+00</totfact>
</mgrwt>
</event>
<event>
12    4  0.4280696E-008  0.1005657E+04  0.7818608E-02  0.9302362E-01
         -2   -1    0    0    0  501 -0.00000000000E+00  0.00000000000E+00  0.29592802552E+03  0.29592802552E+03  0.00000000000E+00 0.  1.
          1   -1    0    0  501    0  0.00000000000E+00 -0.00000000000E+00 -0.85438489139E+03  0.85438489139E+03  0.00000000000E+00 0. -1.
        -24    2    1    2    0    0 -0.38387382280E+02  0.59635316752E+02 -0.15191713106E+03  0.18550992212E+03  0.79405002198E+02 0.  0.
        254    2    1    2    0    0  0.38387382280E+02 -0.59635316752E+02 -0.40653973481E+03  0.96480299479E+03  0.87208961733E+03 0.  0.
         23    2    4    4    0    0  0.32838399729E+03  0.26350641850E+03 -0.20471828110E+03  0.47708756887E+03  0.91822064241E+02 0.  0.
         23    2    4    4    0    0 -0.28999661501E+03 -0.32314173525E+03 -0.20182145370E+03  0.48771542592E+03  0.92821440026E+02 0.  0.
          3    1    3    3  502    0 -0.51771183543E+01  0.23130290260E+02 -0.12888923759E+03  0.13105055684E+03  0.00000000000E+00 0. -1.
         -4    1    3    3    0  502 -0.33210263925E+02  0.36505026492E+02 -0.23027893470E+02  0.54459365282E+02  0.00000000000E+00 0.  1.
         11    1    5    5    0    0  0.33194025636E+03  0.26539396624E+03 -0.19710408520E+03  0.46847445129E+03  0.00000000000E+00 0. -1.
        -11    1    5    5    0    0 -0.35562590677E+01 -0.18875477466E+01 -0.76141959069E+01  0.86131175750E+01  0.00000000000E+00 0.  1.
          1    1    6    6  503    0 -0.15542980398E+03 -0.23901310333E+03 -0.13648858907E+03  0.31609305983E+03  0.00000000000E+00 0. -1.
         -1    1    6    6    0  503 -0.13456681104E+03 -0.84128631918E+02 -0.65332864636E+02  0.17162236609E+03  0.00000000000E+00 0.  1.
<mgrwt>
<rscale>  0 0.10056569E+04</rscale>
<asrwt>0</asrwt>
<pdfrwt beam="1">  1        1 0.13144383E+00 0.10056569E+04</pdfrwt>
<pdfrwt beam="2">  1       -2 0.45527389E-01 0.10056569E+04</pdfrwt>
<totfact> 0.79782932E+01</totfact>
</mgrwt>
</event>
<event>
12    4  0.4280696E-008  0.1312313E+04  0.7818608E-02  0.9019857E-01
         -2   -1    0    0    0  501 -0.00000000000E+00  0.00000000000E+00  0.49596336045E+03  0.49596336045E+03  0.00000000000E+00 0.  1.
          1   -1    0    0  501    0  0.00000000000E+00 -0.00000000000E+00 -0.86809169144E+03  0.86809169144E+03  0.00000000000E+00 0. -1.
        -24    2    1    2    0    0  0.11664744659E+03  0.28488521098E+03  0.13869802440E+03  0.34714890542E+03  0.80678437851E+02 0.  0.
        254    2    1    2    0    0 -0.11664744659E+03 -0.28488521098E+03 -0.51082635539E+03  0.10169061465E+04  0.82364333004E+03 0.  0.
         23    2    4    4    0    0 -0.19399465537E+03 -0.73934641934E+02 -0.68282313151E+03  0.71962614371E+03  0.92271881924E+02 0.  0.
         23    2    4    4    0    0  0.77347208782E+02 -0.21095056905E+03  0.17199677613E+03  0.29728000275E+03  0.91157971389E+02 0.  0.
          1    1    3    3  502    0  0.39327753635E+02  0.24021510227E+02  0.22724817628E+02  0.51382122336E+02  0.00000000000E+00 0. -1.
         -2    1    3    3    0  502  0.77319692950E+02  0.26086370076E+03  0.11597320677E+03  0.29576678309E+03  0.00000000000E+00 0.  1.
         11    1    5    5    0    0 -0.96340384462E+02  0.93845686273E+01 -0.34183559853E+03  0.35527611267E+03  0.00000000000E+00 0. -1.
        -11    1    5    5    0    0 -0.97654270905E+02 -0.83319210561E+02 -0.34098753298E+03  0.36435003104E+03  0.00000000000E+00 0.  1.
          4    1    6    6  503    0  0.64743380546E+01 -0.88682509543E+02  0.22841205857E+02  0.91805366059E+02  0.00000000000E+00 0.  1.
         -4    1    6    6    0  503  0.70872870727E+02 -0.12226805951E+03  0.14915557027E+03  0.20547463669E+03  0.00000000000E+00 0. -1.
<mgrwt>
<rscale>  0 0.13123135E+04</rscale>
<asrwt>0</asrwt>
<pdfrwt beam="1">  1        1 0.13355257E+00 0.13123135E+04</pdfrwt>
<pdfrwt beam="2">  1       -2 0.76302056E-01 0.13123135E+04</pdfrwt>
<totfact> 0.25570045E+01</totfact>
</mgrwt>
</event>
<event>
12    4  0.4280696E-008  0.1301063E+04  0.7818608E-02  0.9028722E-01
         -2   -1    0    0    0  501 -0.00000000000E+00  0.00000000000E+00  0.54809838840E+03  0.54809838840E+03  0.00000000000E+00 0.  1.
          1   -1    0    0  501    0  0.00000000000E+00 -0.00000000000E+00 -0.77210848429E+03  0.77210848429E+03  0.00000000000E+00 0. -1.
        -24    2    1    2    0    0  0.28375252322E+03  0.85859806378E+02  0.10568578778E+03  0.32428740774E+03  0.78137291339E+02 0.  0.
        254    2    1    2    0    0 -0.28375252322E+03 -0.85859806378E+02 -0.32969588367E+03  0.99591946494E+03  0.89177845015E+03 0.  0.
         23    2    4    4    0    0  0.57125155293E+02 -0.28809137103E+02 -0.56048602153E+03  0.57140575957E+03  0.90921460558E+02 0.  0.
         23    2    4    4    0    0 -0.34087767851E+03 -0.57050669274E+02  0.23079013786E+03  0.42451370537E+03  0.86576138412E+02 0.  0.
          3    1    3    3  502    0  0.76923299113E+02 -0.90403367692E+01  0.12821668776E+02  0.78506794773E+02  0.00000000000E+00 0. -1.
         -4    1    3    3    0  502  0.20682922411E+03  0.94900143147E+02  0.92864119008E+02  0.24578061297E+03  0.00000000000E+00 0.  1.
         11    1    5    5    0    0  0.70144175853E+02 -0.50094247029E+02 -0.42913329545E+03  0.43770426575E+03  0.00000000000E+00 0. -1.
        -11    1    5    5    0    0 -0.13019020559E+02  0.21285109926E+02 -0.13135272608E+03  0.13370149382E+03  0.00000000000E+00 0.  1.
          4    1    6    6  503    0 -0.21198100882E+03 -0.75970736208E+02  0.16006888574E+03  0.27627802852E+03  0.00000000000E+00 0.  1.
         -4    1    6    6    0  503 -0.12889666969E+03  0.18920066933E+02  0.70721252120E+02  0.14823567685E+03  0.00000000000E+00 0. -1.
<mgrwt>
<rscale>  0 0.13010633E+04</rscale>
<asrwt>0</asrwt>
<pdfrwt beam="1">  1        1 0.11878592E+00 0.13010633E+04</pdfrwt>
<pdfrwt beam="2">  1       -2 0.84322828E-01 0.13010633E+04</pdfrwt>
<totfact> 0.24713409E+01</totfact>
</mgrwt>
</event>
<event>
12    4  0.4280696E-008  0.1544067E+04  0.7818608E-02  0.8855666E-01
         -2   -1    0    0    0  501 -0.00000000000E+00  0.00000000000E+00  0.46112578933E+03  0.46112578933E+03  0.00000000000E+00 0.  1.
          1   -1    0    0  501    0  0.00000000000E+00 -0.00000000000E+00 -0.12925662191E+04  0.12925662191E+04  0.00000000000E+00 0. -1.
        -24    2    1    2    0    0  0.18589564060E+03  0.41673533385E+03 -0.51526448644E+03  0.69308313162E+03  0.81493611263E+02 0.  0.
        254    2    1    2    0    0 -0.18589564060E+03 -0.41673533385E+03 -0.31617594331E+03  0.10606088768E+04  0.90371369068E+03 0.  0.
         23    2    4    4    0    0 -0.49675219731E+03 -0.35903061461E+03 -0.37783283180E+03  0.72584450109E+03  0.91797947729E+02 0.  0.
         23    2    4    4    0    0  0.31085655671E+03 -0.57704719238E+02  0.61656888491E+02  0.33476437570E+03  0.91126186522E+02 0.  0.
          1    1    3    3  502    0  0.81780457091E+02  0.14441018123E+03 -0.13511070885E+03  0.21400291412E+03  0.00000000000E+00 0. -1.
         -2    1    3    3    0  502  0.10411518351E+03  0.27232515262E+03 -0.38015377759E+03  0.47908021750E+03  0.00000000000E+00 0.  1.
         11    1    5    5    0    0 -0.16511707809E+03 -0.81683369566E+02 -0.79863391916E+02  0.20078342488E+03  0.00000000000E+00 0. -1.
        -11    1    5    5    0    0 -0.33163511923E+03 -0.27734724504E+03 -0.29796943989E+03  0.52506107620E+03  0.00000000000E+00 0.  1.
          3    1    6    6  503    0  0.25884120919E+03 -0.74287201456E+02  0.28270319798E+02  0.27077032861E+03  0.00000000000E+00 0. -1.
         -3    1    6    6    0  503  0.52015347519E+02  0.16582482217E+02  0.33386568693E+02  0.63994047091E+02  0.00000000000E+00 0.  1.
<mgrwt>
<rscale>  0 0.15440669E+04</rscale>
<asrwt>0</asrwt>
<pdfrwt beam="1">  1        1 0.19885634E+00 0.15440669E+04</pdfrwt>
<pdfrwt beam="2">  1       -2 0.70942429E-01 0.15440669E+04</pdfrwt>
<totfact> 0.13977858E+01</totfact>
</mgrwt>
</event>
<event>
12    4  0.6941581E-008  0.2226949E+04  0.7818608E-02  0.8507294E-01
         -2   -1    0    0    0  501 -0.00000000000E+00  0.00000000000E+00  0.54349963560E+03  0.54349963560E+03  0.00000000000E+00 0.  1.
          1   -1    0    0  501    0  0.00000000000E+00 -0.00000000000E+00 -0.22811900738E+04  0.22811900738E+04  0.00000000000E+00 0. -1.
        -24    2    1    2    0    0 -0.46140697098E+03  0.41242085982E+03 -0.16110950099E+04  0.17277133726E+04  0.79868694403E+02 0.  0.
        254    2    1    2    0    0  0.46140697098E+03 -0.41242085982E+03 -0.12659542825E+03  0.10969763368E+04  0.89685189553E+03 0.  0.
         23    2    4    4    0    0 -0.20582478723E+03 -0.24557190670E+03  0.13082903250E+03  0.35700750812E+03  0.87571232193E+02 0.  0.
         23    2    4    4    0    0  0.66723175821E+03 -0.16684895312E+03 -0.25742446075E+03  0.73996882866E+03  0.90827980693E+02 0.  0.
          3    1    3    3  502    0 -0.44075364461E+03  0.36566109864E+03 -0.14902552919E+04  0.15965063887E+04  0.00000000000E+00 0. -1.
         -4    1    3    3    0  502 -0.20653326363E+02  0.46759761174E+02 -0.12083971806E+03  0.13120698387E+03  0.00000000000E+00 0.  1.
         11    1    5    5    0    0 -0.17100702021E+02 -0.11479273242E+02 -0.12298263603E+02  0.23988643385E+02  0.00000000000E+00 0. -1.
        -11    1    5    5    0    0 -0.18872408521E+03 -0.23409263346E+03  0.14312729611E+03  0.33301886473E+03  0.00000000000E+00 0.  1.
          3    1    6    6  503    0  0.71954973985E+02 -0.18238606656E+01 -0.34263976803E+01  0.72059593046E+02  0.00000000000E+00 0. -1.
         -3    1    6    6    0  503  0.59527678422E+03 -0.16502509245E+03 -0.25399806307E+03  0.66790923561E+03  0.00000000000E+00 0.  1.
<mgrwt>
<rscale>  0 0.22269495E+04</rscale>
<asrwt>0</asrwt>
<pdfrwt beam="1">  1        1 0.35095232E+00 0.22269495E+04</pdfrwt>
<pdfrwt beam="2">  1       -2 0.83615328E-01 0.22269495E+04</pdfrwt>
<totfact> 0.19164001E+00</totfact>
</mgrwt>
</event>
<event>
12    4  0.4280696E-008  0.2030749E+04  0.7818608E-02  0.8592378E-01
         -2   -1    0    0    0  501 -0.00000000000E+00  0.00000000000E+00  0.39384693639E+03  0.39384693639E+03  0.00000000000E+00 0.  1.
          1   -1    0    0  501    0  0.00000000000E+00 -0.00000000000E+00 -0.26177311526E+04  0.26177311526E+04  0.00000000000E+00 0. -1.
        -24    2    1    2    0    0  0.80889723476E+03 -0.52676669683E+02 -0.91951068790E+03  0.12272352759E+04  0.59303871775E+02 0.  0.
        254    2    1    2    0    0 -0.80889723476E+03  0.52676669683E+02 -0.13043735283E+04  0.17843428131E+04  0.90851494509E+03 0.  0.
         23    2    4    4    0    0 -0.52470119487E+03  0.18954210414E+03 -0.13402644590E+04  0.14545712066E+04  0.90724980057E+02 0.  0.
         23    2    4    4    0    0 -0.28419603990E+03 -0.13686543446E+03  0.35890930716E+02  0.32977160646E+03  0.89227895160E+02 0.  0.
          3    1    3    3  502    0  0.57844142028E+03 -0.20074150135E+02 -0.68581733560E+03  0.89740897366E+03  0.00000000000E+00 0. -1.
         -4    1    3    3    0  502  0.23045581449E+03 -0.32602519548E+02 -0.23369335230E+03  0.32982630220E+03  0.00000000000E+00 0.  1.
         11    1    5    5    0    0 -0.84081337303E+02  0.26116831230E+02 -0.13769326881E+03  0.16343560332E+03  0.00000000000E+00 0.  1.
        -11    1    5    5    0    0 -0.44061985756E+03  0.16342527291E+03 -0.12025711902E+04  0.12911356033E+04  0.00000000000E+00 0. -1.
          4    1    6    6  503    0 -0.24674933013E+03 -0.93012586652E+02  0.54316376098E+02  0.26923380529E+03  0.00000000000E+00 0. -1.
         -4    1    6    6    0  503 -0.37446709764E+02 -0.43852847808E+02 -0.18425445382E+02  0.60537801171E+02  0.00000000000E+00 0.  1.
<mgrwt>
<rscale>  0 0.20307490E+04</rscale>
<asrwt>0</asrwt>
<pdfrwt beam="1">  1        1 0.40272788E+00 0.20307490E+04</pdfrwt>
<pdfrwt beam="2">  1       -2 0.60591835E-01 0.20307490E+04</pdfrwt>
<totfact> 0.23134452E+00</totfact>
</mgrwt>
</event>
<event>
12    4  0.4280696E-008  0.1874703E+04  0.7818608E-02  0.8667552E-01
          3   -1    0    0  501    0  0.00000000000E+00  0.00000000000E+00  0.12009724239E+04  0.12009724239E+04  0.00000000000E+00 0. -1.
         -4   -1    0    0    0  501 -0.00000000000E+00 -0.00000000000E+00 -0.73159667078E+03  0.73159667078E+03  0.00000000000E+00 0.  1.
        -24    2    1    2    0    0 -0.21346546537E+03 -0.24001898623E+03  0.85256138186E+03  0.91474275476E+03  0.81955957088E+02 0.  0.
        254    2    1    2    0    0  0.21346546537E+03  0.24001898623E+03 -0.38318562874E+03  0.10178263399E+04  0.88654532512E+03 0.  0.
         23    2    4    4    0    0  0.43273371856E+03  0.12411387920E+03  0.97085270342E+02  0.46950483009E+03  0.91359233654E+02 0.  0.
         23    2    4    4    0    0 -0.21926825319E+03  0.11590510703E+03 -0.48027089908E+03  0.54832150982E+03  0.92107442360E+02 0.  0.
          1    1    3    3  502    0 -0.17441119578E+01 -0.14817246447E+02  0.11987008582E+02  0.19138471557E+02  0.00000000000E+00 0. -1.
         -2    1    3    3    0  502 -0.21172135341E+03 -0.22520173978E+03  0.84057437328E+03  0.89560428321E+03  0.00000000000E+00 0.  1.
         11    1    5    5    0    0  0.26524947813E+03  0.62943098854E+02  0.10215658970E+03  0.29112727142E+03  0.00000000000E+00 0. -1.
        -11    1    5    5    0    0  0.16748424043E+03  0.61170780347E+02 -0.50713193550E+01  0.17837755868E+03  0.00000000000E+00 0.  1.
          3    1    6    6  503    0 -0.21761291263E+03  0.12465015813E+03 -0.47687077572E+03  0.53879381808E+03  0.00000000000E+00 0. -1.
         -3    1    6    6    0  503 -0.16553405623E+01 -0.87450510991E+01 -0.34001233601E+01  0.95276917439E+01  0.00000000000E+00 0.  1.
<mgrwt>
<rscale>  0 0.18747026E+04</rscale>
<asrwt>0</asrwt>
<pdfrwt beam="1">  1        3 0.18476499E+00 0.18747026E+04</pdfrwt>
<pdfrwt beam="2">  1       -4 0.11255333E+00 0.18747026E+04</pdfrwt>
<totfact> 0.24605628E-01</totfact>
</mgrwt>
</event>
<event>
12    4  0.4280696E-008  0.1769692E+04  0.7818608E-02  0.8722585E-01
         -2   -1    0    0    0  501 -0.00000000000E+00  0.00000000000E+00  0.62584074572E+03  0.62584074572E+03  0.00000000000E+00 0.  1.
          1   -1    0    0  501    0  0.00000000000E+00 -0.00000000000E+00 -0.12510410625E+04  0.12510410625E+04  0.00000000000E+00 0. -1.
        -24    2    1    2    0    0  0.29125125241E+03 -0.46988558669E+03  0.13314965651E+03  0.57408297536E+03  0.78883933442E+02 0.  0.
        254    2    1    2    0    0 -0.29125125241E+03  0.46988558669E+03 -0.75834997332E+03  0.13027988329E+04  0.90364282784E+03 0.  0.
         23    2    4    4    0    0 -0.27719189917E+03  0.24886357257E+03 -0.93261339230E+03  0.10080945767E+04  0.87855047149E+02 0.  0.
         23    2    4    4    0    0 -0.14059353243E+02  0.22102201412E+03  0.17426341897E+03  0.29470425621E+03  0.86223333834E+02 0.  0.
          3    1    3    3  502    0  0.71890439320E+02 -0.67503602200E+02  0.76089554864E+01  0.98908380733E+02  0.00000000000E+00 0. -1.
         -4    1    3    3    0  502  0.21936081309E+03 -0.40238198449E+03  0.12554070102E+03  0.47517459463E+03  0.00000000000E+00 0.  1.
         11    1    5    5    0    0 -0.20339967737E+03  0.21558673802E+03 -0.65539651156E+03  0.71930081171E+03  0.00000000000E+00 0.  1.
        -11    1    5    5    0    0 -0.73792221799E+02  0.33276834556E+02 -0.27721688074E+03  0.28879376496E+03  0.00000000000E+00 0. -1.
          1    1    6    6  503    0  0.55302550885E+01  0.11804327076E+03  0.40847078989E+02  0.12503312103E+03  0.00000000000E+00 0. -1.
         -1    1    6    6    0  503 -0.19589608331E+02  0.10297874336E+03  0.13341633998E+03  0.16967113518E+03  0.00000000000E+00 0.  1.
<mgrwt>
<rscale>  0 0.17696920E+04</rscale>
<asrwt>0</asrwt>
<pdfrwt beam="1">  1        1 0.19246785E+00 0.17696920E+04</pdfrwt>
<pdfrwt beam="2">  1       -2 0.96283192E-01 0.17696920E+04</pdfrwt>
<totfact> 0.73527868E+00</totfact>
</mgrwt>
</event>
<event>
12    4  0.4280696E-008  0.1799736E+04  0.7818608E-02  0.8706440E-01
         -2   -1    0    0    0  501 -0.00000000000E+00  0.00000000000E+00  0.59881992362E+03  0.59881992362E+03  0.00000000000E+00 0.  1.
          1   -1    0    0  501    0  0.00000000000E+00 -0.00000000000E+00 -0.13522637483E+04  0.13522637483E+04  0.00000000000E+00 0. -1.
        -24    2    1    2    0    0 -0.34737082733E+03 -0.14001877172E+03  0.31075436177E+03  0.49443667968E+03  0.87336182294E+02 0.  0.
        254    2    1    2    0    0  0.34737082733E+03  0.14001877172E+03 -0.10641981864E+04  0.14566469922E+04  0.92142874484E+03 0.  0.
         23    2    4    4    0    0  0.27835995175E+02 -0.20562143832E+03 -0.93246785696E+03  0.95954783418E+03  0.90447350912E+02 0.  0.
         23    2    4    4    0    0  0.31953483216E+03  0.34564021004E+03 -0.13173032948E+03  0.49709915804E+03  0.90471152658E+02 0.  0.
          1    1    3    3  502    0 -0.15778746798E+03 -0.26191926127E+02  0.98027221971E+02  0.18759594424E+03  0.00000000000E+00 0. -1.
         -2    1    3    3    0  502 -0.18958335935E+03 -0.11382684560E+03  0.21272713980E+03  0.30684073545E+03  0.00000000000E+00 0.  1.
         11    1    5    5    0    0 -0.12351042522E+02 -0.30117990515E+02 -0.30582775791E+03  0.30755529440E+03  0.00000000000E+00 0.  1.
        -11    1    5    5    0    0  0.40187037697E+02 -0.17550344781E+03 -0.62664009905E+03  0.65199253978E+03  0.00000000000E+00 0. -1.
          3    1    6    6  503    0  0.28856540244E+01  0.34514893817E+02 -0.23794955946E+01  0.34716953980E+02  0.00000000000E+00 0. -1.
         -3    1    6    6    0  503  0.31664917813E+03  0.31112531623E+03 -0.12935083388E+03  0.46238220406E+03  0.00000000000E+00 0.  1.
<mgrwt>
<rscale>  0 0.17997361E+04</rscale>
<asrwt>0</asrwt>
<pdfrwt beam="1">  1        1 0.20804057E+00 0.17997361E+04</pdfrwt>
<pdfrwt beam="2">  1       -2 0.92126143E-01 0.17997361E+04</pdfrwt>
<totfact> 0.68822617E+00</totfact>
</mgrwt>
</event>
<event>
12    4  0.4280696E-008  0.2209292E+04  0.7818608E-02  0.8514570E-01
          1   -1    0    0  501    0  0.00000000000E+00  0.00000000000E+00  0.27633232482E+04  0.27633232482E+04  0.00000000000E+00 0. -1.
         -2   -1    0    0    0  501 -0.00000000000E+00 -0.00000000000E+00 -0.44158533781E+03  0.44158533781E+03  0.00000000000E+00 0.  1.
        -24    2    1    2    0    0  0.40701040996E+03 -0.73508386890E+03  0.12249198227E+04  0.14874765648E+04  0.78435900418E+02 0.  0.
        254    2    1    2    0    0 -0.40701040996E+03  0.73508386890E+03  0.10968180876E+04  0.17174320212E+04  0.10200769883E+04 0.  0.
         23    2    4    4    0    0 -0.34687483152E+03  0.95681008937E+03  0.10530255091E+04  0.14672738979E+04  0.90676748593E+02 0.  0.
         23    2    4    4    0    0 -0.60135578437E+02 -0.22172622048E+03  0.43792578512E+02  0.25015812332E+03  0.88783399840E+02 0.  0.
          1    1    3    3  502    0  0.46867088407E+02 -0.53411482918E+02  0.13331772757E+03  0.15107258841E+03  0.00000000000E+00 0. -1.
         -2    1    3    3    0  502  0.36014332155E+03 -0.68167238598E+03  0.10916020952E+04  0.13364039764E+04  0.00000000000E+00 0.  1.
         11    1    5    5    0    0 -0.34179703648E+03  0.89141992452E+03  0.10035097889E+04  0.13850944344E+04  0.00000000000E+00 0.  1.
        -11    1    5    5    0    0 -0.50777950424E+01  0.65390164853E+02  0.49515720260E+02  0.82179463462E+02  0.00000000000E+00 0. -1.
          3    1    6    6  503    0  0.10778567701E+02 -0.62644756266E+02  0.41609341116E+02  0.75972891727E+02  0.00000000000E+00 0. -1.
         -3    1    6    6    0  503 -0.70914146138E+02 -0.15908146421E+03  0.21832373963E+01  0.17418523159E+03  0.00000000000E+00 0.  1.
<mgrwt>
<rscale>  0 0.22092922E+04</rscale>
<asrwt>0</asrwt>
<pdfrwt beam="1">  1        1 0.42512664E+00 0.22092922E+04</pdfrwt>
<pdfrwt beam="2">  1       -2 0.67936208E-01 0.22092922E+04</pdfrwt>
<totfact> 0.14064739E+00</totfact>
</mgrwt>
</event>
<event>
12    4  0.4280696E-008  0.1409584E+04  0.7818608E-02  0.8946910E-01
         -2   -1    0    0    0  501 -0.00000000000E+00  0.00000000000E+00  0.27650637240E+03  0.27650637240E+03  0.00000000000E+00 0.  1.
          1   -1    0    0  501    0  0.00000000000E+00 -0.00000000000E+00 -0.17964579991E+04  0.17964579991E+04  0.00000000000E+00 0. -1.
        -24    2    1    2    0    0  0.24160038376E+03  0.35806909248E+03 -0.38444599878E+03  0.58431338920E+03  0.83899883163E+02 0.  0.
        254    2    1    2    0    0 -0.24160038376E+03 -0.35806909248E+03 -0.11355056279E+04  0.14886509823E+04  0.86030488527E+03 0.  0.
         23    2    4    4    0    0  0.20312340771E+03  0.15104217149E+03 -0.43341303452E+03  0.50968756778E+03  0.88666238967E+02 0.  0.
         23    2    4    4    0    0 -0.44472379147E+03 -0.50911126397E+03 -0.70209259339E+03  0.97896341451E+03  0.91988191880E+02 0.  0.
          3    1    3    3  502    0  0.22688551290E+03  0.35949242395E+03 -0.36874046360E+03  0.56274449650E+03  0.00000000000E+00 0. -1.
         -4    1    3    3    0  502  0.14714870863E+02 -0.14233314739E+01 -0.15705535177E+02  0.21568892697E+02  0.00000000000E+00 0.  1.
         11    1    5    5    0    0  0.13727246519E+03  0.52664622232E+02 -0.20312372728E+03  0.25075195058E+03  0.00000000000E+00 0.  1.
        -11    1    5    5    0    0  0.65850942519E+02  0.98377549257E+02 -0.23028930724E+03  0.25893561720E+03  0.00000000000E+00 0. -1.
          1    1    6    6  503    0 -0.36130075794E+03 -0.43499439890E+03 -0.53794487097E+03  0.78047616810E+03  0.00000000000E+00 0. -1.
         -1    1    6    6    0  503 -0.83423033535E+02 -0.74116865065E+02 -0.16414772242E+03  0.19848724641E+03  0.00000000000E+00 0.  1.
<mgrwt>
<rscale>  0 0.14095845E+04</rscale>
<asrwt>0</asrwt>
<pdfrwt beam="1">  1        1 0.27637816E+00 0.14095845E+04</pdfrwt>
<pdfrwt beam="2">  1       -2 0.42539440E-01 0.14095845E+04</pdfrwt>
<totfact> 0.18359105E+01</totfact>
</mgrwt>
</event>
<event>
12    4  0.4280696E-008  0.1167421E+04  0.7818608E-02  0.9141861E-01
         -2   -1    0    0    0  501 -0.00000000000E+00  0.00000000000E+00  0.30966692012E+03  0.30966692012E+03  0.00000000000E+00 0.  1.
          1   -1    0    0  501    0  0.00000000000E+00 -0.00000000000E+00 -0.11002724629E+04  0.11002724629E+04  0.00000000000E+00 0. -1.
        -24    2    1    2    0    0  0.16807187314E+03  0.12423442042E+03 -0.82837551052E+02  0.24130753151E+03  0.87663670604E+02 0.  0.
        254    2    1    2    0    0 -0.16807187314E+03 -0.12423442042E+03 -0.70776799171E+03  0.11686318515E+04  0.90613604303E+03 0.  0.
         23    2    4    4    0    0 -0.20572323844E+03 -0.17000978425E+03 -0.90262184496E+03  0.94564515176E+03  0.91066901149E+02 0.  0.
         23    2    4    4    0    0  0.37651365297E+02  0.45775363835E+02  0.19485385325E+03  0.22298669973E+03  0.90785653540E+02 0.  0.
          1    1    3    3  502    0  0.11547351877E+03  0.69841156108E+02 -0.94500098369E+02  0.16474886711E+03  0.00000000000E+00 0. -1.
         -2    1    3    3    0  502  0.52598354373E+02  0.54393264312E+02  0.11662547317E+02  0.76558664403E+02  0.00000000000E+00 0.  1.
         11    1    5    5    0    0 -0.16547531235E+03 -0.12691866713E+03 -0.55160795105E+03  0.58971328518E+03  0.00000000000E+00 0. -1.
        -11    1    5    5    0    0 -0.40247926089E+02 -0.43091117120E+02 -0.35101389391E+03  0.35593186658E+03  0.00000000000E+00 0.  1.
          3    1    6    6  503    0  0.29170970818E+02 -0.91149127750E+00  0.16356545086E+03  0.16614882807E+03  0.00000000000E+00 0. -1.
         -3    1    6    6    0  503  0.84803944793E+01  0.46686855113E+02  0.31288402389E+02  0.56837871660E+02  0.00000000000E+00 0.  1.
<mgrwt>
<rscale>  0 0.11674211E+04</rscale>
<asrwt>0</asrwt>
<pdfrwt beam="1">  1        1 0.16927268E+00 0.11674211E+04</pdfrwt>
<pdfrwt beam="2">  1       -2 0.47641065E-01 0.11674211E+04</pdfrwt>
<totfact> 0.46014506E+01</totfact>
</mgrwt>
</event>
<event>
12    4  0.4280696E-008  0.2131191E+04  0.7818608E-02  0.8547627E-01
          1   -1    0    0  501    0  0.00000000000E+00  0.00000000000E+00  0.19810258608E+04  0.19810258608E+04  0.00000000000E+00 0. -1.
         -2   -1    0    0    0  501 -0.00000000000E+00 -0.00000000000E+00 -0.57318469270E+03  0.57318469270E+03  0.00000000000E+00 0.  1.
        -24    2    1    2    0    0  0.21443892025E+03 -0.23645203037E+03 -0.39527947690E+03  0.51412822542E+03  0.78666092652E+02 0.  0.
        254    2    1    2    0    0 -0.21443892025E+03  0.23645203037E+03  0.18031206450E+04  0.20400823281E+04  0.89933210315E+03 0.  0.
         23    2    4    4    0    0 -0.51386548116E+03  0.30064791242E+03  0.90807150686E+03  0.10897057567E+04  0.91748976840E+02 0.  0.
         23    2    4    4    0    0  0.29942656091E+03 -0.64195882045E+02  0.89504913811E+03  0.95037657131E+03  0.91243032692E+02 0.  0.
          1    1    3    3  502    0  0.48266553357E+01 -0.92521290612E+01  0.21283183225E+01  0.10650269141E+02  0.00000000000E+00 0. -1.
         -2    1    3    3    0  502  0.20961226491E+03 -0.22719990131E+03 -0.39740779522E+03  0.50347795628E+03  0.00000000000E+00 0.  1.
         11    1    5    5    0    0 -0.26699729459E+03  0.18217172163E+03  0.41884726964E+03  0.52906249797E+03  0.00000000000E+00 0. -1.
        -11    1    5    5    0    0 -0.24686818657E+03  0.11847619079E+03  0.48922423721E+03  0.56064325877E+03  0.00000000000E+00 0.  1.
          3    1    6    6  503    0  0.20738845714E+03 -0.64797545166E+02  0.72699133800E+03  0.75876551025E+03  0.00000000000E+00 0. -1.
         -3    1    6    6    0  503  0.92038103767E+02  0.60166312100E+00  0.16805780011E+03  0.19161106106E+03  0.00000000000E+00 0.  1.
<mgrwt>
<rscale>  0 0.21311909E+04</rscale>
<asrwt>0</asrwt>
<pdfrwt beam="1">  1        1 0.30477321E+00 0.21311909E+04</pdfrwt>
<pdfrwt beam="2">  1       -2 0.88182261E-01 0.21311909E+04</pdfrwt>
<totfact> 0.27391391E+00</totfact>
</mgrwt>
</event>
<event>
12    4  0.4280696E-008  0.2092573E+04  0.7818608E-02  0.8564522E-01
         -2   -1    0    0    0  501 -0.00000000000E+00  0.00000000000E+00  0.77138858156E+03  0.77138858156E+03  0.00000000000E+00 0.  1.
          1   -1    0    0  501    0  0.00000000000E+00 -0.00000000000E+00 -0.14191492528E+04  0.14191492528E+04  0.00000000000E+00 0. -1.
        -24    2    1    2    0    0 -0.40551374531E+03  0.59276752560E+03 -0.73836868381E+03  0.10332335119E+04  0.81045911852E+02 0.  0.
        254    2    1    2    0    0  0.40551374531E+03 -0.59276752560E+03  0.90608012581E+02  0.11573043225E+04  0.90295556136E+03 0.  0.
         23    2    4    4    0    0 -0.12952095679E+03 -0.45466650080E+03 -0.20597840442E+03  0.52371163962E+03  0.91375451825E+02 0.  0.
         23    2    4    4    0    0  0.53503470210E+03 -0.13810102481E+03  0.29658641700E+03  0.63359268284E+03  0.90233915421E+02 0.  0.
          1    1    3    3  502    0 -0.32594981378E+03  0.42666194231E+03 -0.51838502187E+03  0.74632883170E+03  0.00000000000E+00 0. -1.
         -2    1    3    3    0  502 -0.79563931536E+02  0.16610558329E+03 -0.21998366193E+03  0.28690468020E+03  0.00000000000E+00 0.  1.
         11    1    5    5    0    0 -0.74479310983E+01 -0.10376424851E+03 -0.12374691490E+02  0.10476461204E+03  0.00000000000E+00 0.  1.
        -11    1    5    5    0    0 -0.12207302569E+03 -0.35090225229E+03 -0.19360371293E+03  0.41894702758E+03  0.00000000000E+00 0. -1.
          1    1    6    6  503    0  0.49052301426E+03 -0.13357400946E+03  0.29713160696E+03  0.58884805797E+03  0.00000000000E+00 0. -1.
         -1    1    6    6    0  503  0.44511687838E+02 -0.45270153519E+01 -0.54518996193E+00  0.44744624865E+02  0.00000000000E+00 0.  1.
<mgrwt>
<rscale>  0 0.20925731E+04</rscale>
<asrwt>0</asrwt>
<pdfrwt beam="1">  1        1 0.21833065E+00 0.20925731E+04</pdfrwt>
<pdfrwt beam="2">  1       -2 0.11867517E+00 0.20925731E+04</pdfrwt>
<totfact> 0.32840729E+00</totfact>
</mgrwt>
</event>
<event>
12    4  0.4280696E-008  0.1230449E+04  0.7818608E-02  0.9086615E-01
          1   -1    0    0  501    0  0.00000000000E+00  0.00000000000E+00  0.14468449291E+04  0.14468449291E+04  0.00000000000E+00 0. -1.
         -2   -1    0    0    0  501 -0.00000000000E+00 -0.00000000000E+00 -0.26160434325E+03  0.26160434325E+03  0.00000000000E+00 0.  1.
        -24    2    1    2    0    0  0.79016036188E+02 -0.19565986201E+03  0.49248600822E+03  0.54177596888E+03  0.80326935590E+02 0.  0.
        254    2    1    2    0    0 -0.79016036188E+02  0.19565986201E+03  0.69275457760E+03  0.11666733034E+04  0.91470835603E+03 0.  0.
         23    2    4    4    0    0  0.22085186118E+03 -0.21757137937E+03  0.29744388544E+02  0.32487421207E+03  0.92442821862E+02 0.  0.
         23    2    4    4    0    0 -0.29986789737E+03  0.41323124138E+03  0.66301018906E+03  0.84179909137E+03  0.91446075399E+02 0.  0.
          3    1    3    3  502    0  0.35868173399E+02 -0.82144543476E+02  0.30903928486E+03  0.32177559179E+03  0.00000000000E+00 0. -1.
         -4    1    3    3    0  502  0.43147862790E+02 -0.11351531854E+03  0.18344672336E+03  0.22000037708E+03  0.00000000000E+00 0.  1.
         11    1    5    5    0    0  0.22953908041E+03 -0.21182427535E+03  0.24746638041E+02  0.31332109593E+03  0.00000000000E+00 0.  1.
        -11    1    5    5    0    0 -0.86872192265E+01 -0.57471040151E+01  0.49977505036E+01  0.11553116140E+02  0.00000000000E+00 0. -1.
          1    1    6    6  503    0 -0.86170123991E+02  0.17240159059E+03  0.29997589647E+03  0.35655734064E+03  0.00000000000E+00 0. -1.
         -1    1    6    6    0  503 -0.21369777338E+03  0.24082965079E+03  0.36303429259E+03  0.48524175072E+03  0.00000000000E+00 0.  1.
<mgrwt>
<rscale>  0 0.12304486E+04</rscale>
<asrwt>0</asrwt>
<pdfrwt beam="1">  1        1 0.22259152E+00 0.12304486E+04</pdfrwt>
<pdfrwt beam="2">  1       -2 0.40246823E-01 0.12304486E+04</pdfrwt>
<totfact> 0.36061835E+01</totfact>
</mgrwt>
</event>
<event>
12    4  0.4280696E-008  0.1796920E+04  0.7818608E-02  0.8707939E-01
          1   -1    0    0  501    0  0.00000000000E+00  0.00000000000E+00  0.24204870754E+04  0.24204870754E+04  0.00000000000E+00 0. -1.
         -2   -1    0    0    0  501 -0.00000000000E+00 -0.00000000000E+00 -0.33349920145E+03  0.33349920145E+03  0.00000000000E+00 0.  1.
        -24    2    1    2    0    0 -0.39020798122E+03 -0.27829039138E+03  0.63244041744E+02  0.48963136467E+03  0.77661148052E+02 0.  0.
        254    2    1    2    0    0  0.39020798122E+03  0.27829039138E+03  0.20237438322E+04  0.22643549122E+04  0.89557593727E+03 0.  0.
         23    2    4    4    0    0  0.42597043674E+03 -0.40150646871E+02  0.18225990270E+04  0.18749893233E+04  0.10322239054E+03 0.  0.
         23    2    4    4    0    0 -0.35762455527E+02  0.31844103825E+03  0.20114480528E+03  0.38936558894E+03  0.91992831750E+02 0.  0.
          1    1    3    3  502    0 -0.86908347135E+02 -0.89519557973E+02 -0.92285941469E+01  0.12510786950E+03  0.00000000000E+00 0. -1.
         -2    1    3    3    0  502 -0.30329963408E+03 -0.18877083340E+03  0.72472635890E+02  0.36452349517E+03  0.00000000000E+00 0.  1.
         11    1    5    5    0    0  0.40745467522E+03 -0.14623011089E+02  0.16578447097E+04  0.17072440442E+04  0.00000000000E+00 0.  1.
        -11    1    5    5    0    0  0.18515761522E+02 -0.25527635782E+02  0.16475431725E+03  0.16774527911E+03  0.00000000000E+00 0. -1.
          2    1    6    6  503    0  0.25048400322E+02  0.38803658835E+02  0.38998086379E+02  0.60448300546E+02  0.00000000000E+00 0. -1.
         -2    1    6    6    0  503 -0.60810855849E+02  0.27963737941E+03  0.16214671890E+03  0.32891728839E+03  0.00000000000E+00 0.  1.
<mgrwt>
<rscale>  0 0.17969202E+04</rscale>
<asrwt>0</asrwt>
<pdfrwt beam="1">  1        1 0.37238261E+00 0.17969202E+04</pdfrwt>
<pdfrwt beam="2">  1       -2 0.51307571E-01 0.17969202E+04</pdfrwt>
<totfact> 0.45796250E+00</totfact>
</mgrwt>
</event>
<event>
12    4  0.4280696E-008  0.1668564E+04  0.7818608E-02  0.8779499E-01
         -2   -1    0    0    0  501 -0.00000000000E+00  0.00000000000E+00  0.10279068801E+04  0.10279068801E+04  0.00000000000E+00 0.  1.
          1   -1    0    0  501    0  0.00000000000E+00 -0.00000000000E+00 -0.67713012809E+03  0.67713012809E+03  0.00000000000E+00 0. -1.
        -24    2    1    2    0    0 -0.31960083480E+03 -0.14409861890E+03  0.61099110730E+03  0.70901873632E+03  0.80550168700E+02 0.  0.
        254    2    1    2    0    0  0.31960083480E+03  0.14409861890E+03 -0.26021435524E+03  0.99601827191E+03  0.89522722352E+03 0.  0.
         23    2    4    4    0    0  0.20936364850E+03 -0.36230260611E+03 -0.17629692859E+03  0.46294757995E+03  0.90241559429E+02 0.  0.
         23    2    4    4    0    0  0.11023718630E+03  0.50640122501E+03 -0.83917426651E+02  0.53307069196E+03  0.92346035077E+02 0.  0.
          3    1    3    3  502    0  0.74085040980E+00 -0.13906741316E+02  0.22942319908E+02  0.26838337433E+02  0.00000000000E+00 0. -1.
         -4    1    3    3    0  502 -0.32034168521E+03 -0.13019187759E+03  0.58804878739E+03  0.68218039889E+03  0.00000000000E+00 0.  1.
         11    1    5    5    0    0  0.18835633848E+03 -0.31679204286E+03 -0.18449365246E+03  0.41215678627E+03  0.00000000000E+00 0.  1.
        -11    1    5    5    0    0  0.21007310019E+02 -0.45510563245E+02  0.81967238703E+01  0.50790793686E+02  0.00000000000E+00 0. -1.
          2    1    6    6  503    0  0.72145250112E+02  0.16326418148E+03 -0.32341920041E+01  0.17852336000E+03  0.00000000000E+00 0. -1.
         -2    1    6    6    0  503  0.38091936187E+02  0.34313704354E+03 -0.80683234647E+02  0.35454733196E+03  0.00000000000E+00 0.  1.
<mgrwt>
<rscale>  0 0.16685643E+04</rscale>
<asrwt>0</asrwt>
<pdfrwt beam="1">  1        1 0.10417387E+00 0.16685643E+04</pdfrwt>
<pdfrwt beam="2">  1       -2 0.15813952E+00 0.16685643E+04</pdfrwt>
<totfact> 0.62194682E+00</totfact>
</mgrwt>
</event>
<event>
12    4  0.4280696E-008  0.1756389E+04  0.7818608E-02  0.8729841E-01
          1   -1    0    0  501    0  0.00000000000E+00  0.00000000000E+00  0.14757568655E+04  0.14757568655E+04  0.00000000000E+00 0. -1.
         -2   -1    0    0    0  501 -0.00000000000E+00 -0.00000000000E+00 -0.52259668350E+03  0.52259668350E+03  0.00000000000E+00 0.  1.
        -24    2    1    2    0    0  0.66490537238E+02 -0.56694625622E+03  0.86255399712E+01  0.57650321954E+03  0.80202950143E+02 0.  0.
        254    2    1    2    0    0 -0.66490537238E+02  0.56694625622E+03  0.94453464205E+03  0.14218503295E+04  0.89647287768E+03 0.  0.
         23    2    4    4    0    0 -0.46998919845E+03  0.28791050185E+03  0.57187837817E+03  0.79935328002E+03  0.90213541789E+02 0.  0.
         23    2    4    4    0    0  0.40349866121E+03  0.27903575437E+03  0.37265626388E+03  0.62249704946E+03  0.89206298914E+02 0.  0.
          3    1    3    3  502    0  0.32697480511E+01 -0.65849674057E+02 -0.24532284382E+02  0.70347024122E+02  0.00000000000E+00 0. -1.
         -4    1    3    3    0  502  0.63220789187E+02 -0.50109658216E+03  0.33157824354E+02  0.50615619542E+03  0.00000000000E+00 0.  1.
         11    1    5    5    0    0 -0.24004750295E+03  0.94461673250E+02  0.25930223341E+03  0.36576421317E+03  0.00000000000E+00 0. -1.
        -11    1    5    5    0    0 -0.22994169550E+03  0.19344882860E+03  0.31257614476E+03  0.43358906685E+03  0.00000000000E+00 0.  1.
          3    1    6    6  503    0  0.22200575491E+03  0.19459528363E+03  0.18686560010E+03  0.34938894105E+03  0.00000000000E+00 0. -1.
         -3    1    6    6    0  503  0.18149290630E+03  0.84440470743E+02  0.18579066377E+03  0.27310810841E+03  0.00000000000E+00 0.  1.
<mgrwt>
<rscale>  0 0.17563891E+04</rscale>
<asrwt>0</asrwt>
<pdfrwt beam="1">  1        1 0.22703952E+00 0.17563891E+04</pdfrwt>
<pdfrwt beam="2">  1       -2 0.80399491E-01 0.17563891E+04</pdfrwt>
<totfact> 0.77253608E+00</totfact>
</mgrwt>
</event>
<event>
12    4  0.4280696E-008  0.3384884E+04  0.7818608E-02  0.8141626E-01
          1   -1    0    0  501    0  0.00000000000E+00  0.00000000000E+00  0.30642253852E+04  0.30642253852E+04  0.00000000000E+00 0. -1.
         -2   -1    0    0    0  501 -0.00000000000E+00 -0.00000000000E+00 -0.93477478648E+03  0.93477478648E+03  0.00000000000E+00 0.  1.
        -24    2    1    2    0    0  0.27586580702E+03 -0.32037136121E+03  0.27746065119E+04  0.28077086983E+04  0.77763010773E+02 0.  0.
        254    2    1    2    0    0 -0.27586580702E+03  0.32037136121E+03 -0.64515591316E+03  0.11912914734E+04  0.90785982940E+03 0.  0.
         23    2    4    4    0    0 -0.41255138795E+01  0.26269147319E+03  0.16881384755E+03  0.32651693288E+03  0.95348635955E+02 0.  0.
         23    2    4    4    0    0 -0.27174029314E+03  0.57679888014E+02 -0.81396976070E+03  0.86477454056E+03  0.90102598590E+02 0.  0.
          3    1    3    3  502    0  0.19076104570E+03 -0.27122447994E+03  0.21430747706E+04  0.21685760230E+04  0.00000000000E+00 0. -1.
         -4    1    3    3    0  502  0.85104761323E+02 -0.49146881270E+02  0.63153174129E+03  0.63913267526E+03  0.00000000000E+00 0.  1.
         11    1    5    5    0    0  0.16189532987E+02  0.15825298401E+03  0.14965543618E+03  0.21840983839E+03  0.00000000000E+00 0.  1.
        -11    1    5    5    0    0 -0.20315046867E+02  0.10443848919E+03  0.19158411362E+02  0.10810709449E+03  0.00000000000E+00 0. -1.
          2    1    6    6  503    0 -0.19310924136E+02 -0.76991855074E+01 -0.19117800436E+02  0.28243221169E+02  0.00000000000E+00 0. -1.
         -2    1    6    6    0  503 -0.25242936901E+03  0.65379073521E+02 -0.79485196027E+03  0.83653131940E+03  0.00000000000E+00 0.  1.
<mgrwt>
<rscale>  0 0.33848844E+04</rscale>
<asrwt>0</asrwt>
<pdfrwt beam="1">  1        1 0.47141928E+00 0.33848844E+04</pdfrwt>
<pdfrwt beam="2">  1       -2 0.14381151E+00 0.33848844E+04</pdfrwt>
<totfact> 0.13013849E-01</totfact>
</mgrwt>
</event>
<event>
12    4  0.4280696E-008  0.1440748E+04  0.7818608E-02  0.8924840E-01
          1   -1    0    0  501    0  0.00000000000E+00  0.00000000000E+00  0.13793369120E+04  0.13793369120E+04  0.00000000000E+00 0. -1.
         -2   -1    0    0    0  501 -0.00000000000E+00 -0.00000000000E+00 -0.37622313188E+03  0.37622313188E+03  0.00000000000E+00 0.  1.
        -24    2    1    2    0    0  0.37788750927E+03 -0.99048822437E+02  0.52320430411E+03  0.65756319717E+03  0.77697976441E+02 0.  0.
        254    2    1    2    0    0 -0.37788750927E+03  0.99048822437E+02  0.47990947603E+03  0.10979968467E+04  0.90701396425E+03 0.  0.
         23    2    4    4    0    0 -0.40492332541E+03  0.44662840590E+01  0.71549269509E+03  0.82692848059E+03  0.88871075904E+02 0.  0.
         23    2    4    4    0    0  0.27035816141E+02  0.94582538378E+02 -0.23558321906E+03  0.27106836613E+03  0.91114291380E+02 0.  0.
          1    1    3    3  502    0  0.36667615409E+03 -0.99439020225E+02  0.52289273858E+03  0.64634072809E+03  0.00000000000E+00 0. -1.
         -2    1    3    3    0  502  0.11211355178E+02  0.39019778801E+00  0.31156553051E+00  0.11222469083E+02  0.00000000000E+00 0.  1.
         11    1    5    5    0    0 -0.33150220502E+03  0.10510431605E+02  0.50743431429E+03  0.60621263961E+03  0.00000000000E+00 0.  1.
        -11    1    5    5    0    0 -0.73421120395E+02 -0.60441475458E+01  0.20805838080E+03  0.22071584099E+03  0.00000000000E+00 0. -1.
          4    1    6    6  503    0  0.41006224615E+02  0.36372156810E+02 -0.43811798315E+02  0.70170634312E+02  0.00000000000E+00 0. -1.
         -4    1    6    6    0  503 -0.13970408474E+02  0.58210381568E+02 -0.19177142075E+03  0.20089773182E+03  0.00000000000E+00 0.  1.
<mgrwt>
<rscale>  0 0.14407477E+04</rscale>
<asrwt>0</asrwt>
<pdfrwt beam="1">  1        1 0.21220568E+00 0.14407477E+04</pdfrwt>
<pdfrwt beam="2">  1       -2 0.57880482E-01 0.14407477E+04</pdfrwt>
<totfact> 0.18927514E+01</totfact>
</mgrwt>
</event>
<event>
12    4  0.4280696E-008  0.2884482E+04  0.7818608E-02  0.8277510E-01
          1   -1    0    0  501    0  0.00000000000E+00  0.00000000000E+00  0.12624804750E+04  0.12624804750E+04  0.00000000000E+00 0. -1.
         -2   -1    0    0    0  501 -0.00000000000E+00 -0.00000000000E+00 -0.16475967865E+04  0.16475967865E+04  0.00000000000E+00 0.  1.
        -24    2    1    2    0    0 -0.10769591222E+04 -0.67494861938E+03 -0.45269755404E+03  0.13517450369E+04  0.82963726051E+02 0.  0.
        254    2    1    2    0    0  0.10769591222E+04  0.67494861938E+03  0.67581242592E+02  0.15583322246E+04  0.89913041786E+03 0.  0.
         23    2    4    4    0    0  0.26820947320E+03 -0.20997960406E+03 -0.20746409086E+02  0.35276955726E+03  0.89376682676E+02 0.  0.
         23    2    4    4    0    0  0.80874964896E+03  0.88492822344E+03  0.88327651678E+02  0.12055626673E+04  0.91682143923E+02 0.  0.
          3    1    3    3  502    0 -0.26448250619E+03 -0.16527149618E+03 -0.14948598653E+03  0.34584927887E+03  0.00000000000E+00 0. -1.
         -4    1    3    3    0  502 -0.81247661596E+03 -0.50967712320E+03 -0.30321156751E+03  0.10058957581E+04  0.00000000000E+00 0.  1.
         11    1    5    5    0    0 -0.58678541645E+01 -0.13199828316E+02  0.20856157177E+01  0.14595100993E+02  0.00000000000E+00 0.  1.
        -11    1    5    5    0    0  0.27407732736E+03 -0.19677977575E+03 -0.22832024804E+02  0.33817445627E+03  0.00000000000E+00 0. -1.
          1    1    6    6  503    0  0.79425899296E+03  0.88257568716E+03  0.90187872388E+02  0.11907648986E+04  0.00000000000E+00 0. -1.
         -1    1    6    6    0  503  0.14490656001E+02  0.23525362878E+01 -0.18602207099E+01  0.14797768731E+02  0.00000000000E+00 0.  1.
<mgrwt>
<rscale>  0 0.28844818E+04</rscale>
<asrwt>0</asrwt>
<pdfrwt beam="1">  1        1 0.19422776E+00 0.28844818E+04</pdfrwt>
<pdfrwt beam="2">  1       -2 0.25347643E+00 0.28844818E+04</pdfrwt>
<totfact> 0.44423019E-01</totfact>
</mgrwt>
</event>
<event>
12    4  0.4280696E-008  0.1231726E+04  0.7818608E-02  0.9085532E-01
          1   -1    0    0  501    0  0.00000000000E+00  0.00000000000E+00  0.14582993547E+04  0.14582993547E+04  0.00000000000E+00 0. -1.
         -2   -1    0    0    0  501 -0.00000000000E+00 -0.00000000000E+00 -0.26008852671E+03  0.26008852671E+03  0.00000000000E+00 0.  1.
        -24    2    1    2    0    0  0.49910328162E+01 -0.19797477749E+03  0.57485696081E+03  0.61342215682E+03  0.81285264029E+02 0.  0.
        254    2    1    2    0    0 -0.49910328162E+01  0.19797477749E+03  0.62335386717E+03  0.11049657246E+04  0.89059546701E+03 0.  0.
         23    2    4    4    0    0  0.31674980180E+03  0.35494274626E+02  0.65306050131E+03  0.73202517669E+03  0.88218821523E+02 0.  0.
         23    2    4    4    0    0 -0.32174083461E+03  0.16248050286E+03 -0.29706634134E+02  0.37294054789E+03  0.91022468024E+02 0.  0.
          3    1    3    3  502    0 -0.28601246355E+01 -0.92068307560E+02  0.38516723629E+03  0.39602847559E+03  0.00000000000E+00 0. -1.
         -4    1    3    3    0  502  0.78511574518E+01 -0.10590646993E+03  0.18968972452E+03  0.21739368122E+03  0.00000000000E+00 0.  1.
         11    1    5    5    0    0  0.28321874843E+03  0.19037076953E+02  0.62100158934E+03  0.68280176020E+03  0.00000000000E+00 0.  1.
        -11    1    5    5    0    0  0.33531053361E+02  0.16457197674E+02  0.32058911967E+02  0.49223416494E+02  0.00000000000E+00 0. -1.
          4    1    6    6  503    0 -0.13454627293E+03  0.41225793399E+02  0.25886392497E+02  0.14308169316E+03  0.00000000000E+00 0. -1.
         -4    1    6    6    0  503 -0.18719456168E+03  0.12125470946E+03 -0.55593026630E+02  0.22985885473E+03  0.00000000000E+00 0.  1.
<mgrwt>
<rscale>  0 0.12317255E+04</rscale>
<asrwt>0</asrwt>
<pdfrwt beam="1">  1        1 0.22435374E+00 0.12317255E+04</pdfrwt>
<pdfrwt beam="2">  1       -2 0.40013620E-01 0.12317255E+04</pdfrwt>
<totfact> 0.35807596E+01</totfact>
</mgrwt>
</event>
<event>
12    4  0.4280696E-008  0.2792605E+04  0.7818608E-02  0.8305568E-01
          1   -1    0    0  501    0  0.00000000000E+00  0.00000000000E+00  0.29470915817E+04  0.29470915817E+04  0.00000000000E+00 0. -1.
         -2   -1    0    0    0  501 -0.00000000000E+00 -0.00000000000E+00 -0.66155409764E+03  0.66155409764E+03  0.00000000000E+00 0.  1.
        -24    2    1    2    0    0  0.63072562918E+03 -0.76614368084E+03  0.19976499847E+04  0.22318727491E+04  0.76547682088E+02 0.  0.
        254    2    1    2    0    0 -0.63072562918E+03  0.76614368084E+03  0.28788749935E+03  0.13767729303E+04  0.90985357628E+03 0.  0.
         23    2    4    4    0    0 -0.42532192328E+03  0.42827479279E+03 -0.28592867458E+03  0.67407328743E+03  0.91112860332E+02 0.  0.
         23    2    4    4    0    0 -0.20540370590E+03  0.33786888805E+03  0.57381617393E+03  0.70269964285E+03  0.90419680826E+02 0.  0.
          1    1    3    3  502    0  0.44118295059E+03 -0.53942381836E+03  0.13220265958E+04  0.14944479823E+04  0.00000000000E+00 0. -1.
         -2    1    3    3    0  502  0.18954267859E+03 -0.22671986248E+03  0.67562338889E+03  0.73742476678E+03  0.00000000000E+00 0.  1.
         11    1    5    5    0    0 -0.27723697907E+03  0.21662722930E+03 -0.15474644004E+03  0.38436201652E+03  0.00000000000E+00 0.  1.
        -11    1    5    5    0    0 -0.14808494421E+03  0.21164756349E+03 -0.13118223454E+03  0.28971127091E+03  0.00000000000E+00 0. -1.
          2    1    6    6  503    0 -0.34748691883E+02  0.13298829674E+03  0.16710396889E+03  0.21637258393E+03  0.00000000000E+00 0.  1.
         -2    1    6    6    0  503 -0.17065501401E+03  0.20488059131E+03  0.40671220504E+03  0.48632705892E+03  0.00000000000E+00 0. -1.
<mgrwt>
<rscale>  0 0.27926049E+04</rscale>
<asrwt>0</asrwt>
<pdfrwt beam="1">  1        1 0.45339870E+00 0.27926049E+04</pdfrwt>
<pdfrwt beam="2">  1       -2 0.10177756E+00 0.27926049E+04</pdfrwt>
<totfact> 0.39408269E-01</totfact>
</mgrwt>
</event>
<event>
12    4  0.4280696E-008  0.1352500E+04  0.7818608E-02  0.8988938E-01
          1   -1    0    0  501    0  0.00000000000E+00  0.00000000000E+00  0.70288495414E+03  0.70288495414E+03  0.00000000000E+00 0. -1.
         -2   -1    0    0    0  501 -0.00000000000E+00 -0.00000000000E+00 -0.65062439997E+03  0.65062439997E+03  0.00000000000E+00 0.  1.
        -24    2    1    2    0    0 -0.29648082756E+02  0.46142608010E+03  0.52251076414E+02  0.47221986794E+03  0.80426317106E+02 0.  0.
        254    2    1    2    0    0  0.29648082756E+02 -0.46142608010E+03  0.94777536452E-02  0.88128948616E+03  0.75025203907E+03 0.  0.
         23    2    4    4    0    0  0.78658885985E+02 -0.63394714829E+03  0.11258706341E+03  0.65442926726E+03  0.86750284372E+02 0.  0.
         23    2    4    4    0    0 -0.49010803228E+02  0.17252106819E+03 -0.11257758565E+03  0.22686021890E+03  0.81401893880E+02 0.  0.
          3    1    3    3  502    0 -0.19057354408E+02  0.32405654860E+03  0.73447262649E+02  0.33282176887E+03  0.00000000000E+00 0. -1.
         -4    1    3    3    0  502 -0.10590728349E+02  0.13736953150E+03 -0.21196186235E+02  0.13939809907E+03  0.00000000000E+00 0.  1.
         11    1    5    5    0    0  0.57488206077E+02 -0.23823738511E+03  0.75402916400E+02  0.25641284153E+03  0.00000000000E+00 0. -1.
        -11    1    5    5    0    0  0.21170679908E+02 -0.39570976318E+03  0.37184147007E+02  0.39801642573E+03  0.00000000000E+00 0.  1.
          2    1    6    6  503    0 -0.43556150266E+02  0.79363655441E+02 -0.96232202506E+02  0.13212253718E+03  0.00000000000E+00 0. -1.
         -2    1    6    6    0  503 -0.54546529622E+01  0.93157412745E+02 -0.16345383148E+02  0.94737681724E+02  0.00000000000E+00 0.  1.
<mgrwt>
<rscale>  0 0.13525001E+04</rscale>
<asrwt>0</asrwt>
<pdfrwt beam="1">  1        1 0.10813615E+00 0.13525001E+04</pdfrwt>
<pdfrwt beam="2">  1       -2 0.10009606E+00 0.13525001E+04</pdfrwt>
<totfact> 0.19121735E+01</totfact>
</mgrwt>
</event>
<event>
12    4  0.4280696E-008  0.1517021E+04  0.7818608E-02  0.8873213E-01
         -2   -1    0    0    0  501 -0.00000000000E+00  0.00000000000E+00  0.94104466274E+03  0.94104466274E+03  0.00000000000E+00 0.  1.
          1   -1    0    0  501    0  0.00000000000E+00 -0.00000000000E+00 -0.61138226180E+03  0.61138226180E+03  0.00000000000E+00 0. -1.
        -24    2    1    2    0    0  0.11535584036E+03 -0.13986951194E+03  0.57989476625E+03  0.61353697619E+03  0.85318409233E+02 0.  0.
        254    2    1    2    0    0 -0.11535584036E+03  0.13986951194E+03 -0.25023236532E+03  0.93888994834E+03  0.88658200307E+03 0.  0.
         23    2    4    4    0    0 -0.43277394375E+03  0.57490668423E+02 -0.36853084828E+03  0.57844698901E+03  0.90484637446E+02 0.  0.
         23    2    4    4    0    0  0.31741810339E+03  0.82378843518E+02  0.11829848296E+03  0.36044295933E+03  0.91564565404E+02 0.  0.
          1    1    3    3  502    0 -0.15924180370E+01  0.94925796394E+01  0.44487686343E+02  0.45517019888E+02  0.00000000000E+00 0. -1.
         -2    1    3    3    0  502  0.11694825840E+03 -0.14936209158E+03  0.53540707991E+03  0.56801995631E+03  0.00000000000E+00 0.  1.
         11    1    5    5    0    0 -0.34215588514E+03  0.14736224575E+02 -0.25471749414E+03  0.42681238018E+03  0.00000000000E+00 0. -1.
        -11    1    5    5    0    0 -0.90618058612E+02  0.42754443849E+02 -0.11381335414E+03  0.15163460883E+03  0.00000000000E+00 0.  1.
          1    1    6    6  503    0  0.21087137494E+03  0.33557925021E+02  0.34327458025E+02  0.21626660740E+03  0.00000000000E+00 0. -1.
         -1    1    6    6    0  503  0.10654672845E+03  0.48820918497E+02  0.83971024939E+02  0.14417635193E+03  0.00000000000E+00 0.  1.
<mgrwt>
<rscale>  0 0.15170208E+04</rscale>
<asrwt>0</asrwt>
<pdfrwt beam="1">  1        1 0.94058810E-01 0.15170208E+04</pdfrwt>
<pdfrwt beam="2">  1       -2 0.14477610E+00 0.15170208E+04</pdfrwt>
<totfact> 0.92643580E+00</totfact>
</mgrwt>
</event>
<event>
12    4  0.4280696E-008  0.2310455E+04  0.7818608E-02  0.8473810E-01
          1   -1    0    0  501    0  0.00000000000E+00  0.00000000000E+00  0.11520589488E+04  0.11520589488E+04  0.00000000000E+00 0. -1.
         -2   -1    0    0    0  501 -0.00000000000E+00 -0.00000000000E+00 -0.11584051426E+04  0.11584051426E+04  0.00000000000E+00 0.  1.
        -24    2    1    2    0    0  0.89426368812E+03 -0.18495058876E+02 -0.39984831114E+03  0.98265324085E+03  0.75359861580E+02 0.  0.
        254    2    1    2    0    0 -0.89426368812E+03  0.18495058876E+02  0.39350211734E+03  0.13278108505E+04  0.89899284053E+03 0.  0.
         23    2    4    4    0    0 -0.10400892027E+03  0.29432461488E+03  0.36038678496E+03  0.48513271195E+03  0.89611824066E+02 0.  0.
         23    2    4    4    0    0 -0.79025476785E+03 -0.27582955601E+03  0.33115332377E+02  0.84267813857E+03  0.91789312586E+02 0.  0.
          1    1    3    3  502    0  0.29552738816E+03  0.28928065599E+02 -0.12641205854E+03  0.32272787093E+03  0.00000000000E+00 0. -1.
         -2    1    3    3    0  502  0.59873629997E+03 -0.47423124475E+02 -0.27343625259E+03  0.65992536992E+03  0.00000000000E+00 0.  1.
         11    1    5    5    0    0 -0.24449244598E+02  0.81157163876E+02  0.44209065540E+02  0.95596507707E+02  0.00000000000E+00 0.  1.
        -11    1    5    5    0    0 -0.79559675670E+02  0.21316745101E+03  0.31617771942E+03  0.38953620425E+03  0.00000000000E+00 0. -1.
          3    1    6    6  503    0 -0.68262558033E+03 -0.20942461182E+03  0.46293297683E+02  0.71552737220E+03  0.00000000000E+00 0. -1.
         -3    1    6    6    0  503 -0.10762918752E+03 -0.66404944182E+02 -0.13177965306E+02  0.12715076637E+03  0.00000000000E+00 0.  1.
<mgrwt>
<rscale>  0 0.23104554E+04</rscale>
<asrwt>0</asrwt>
<pdfrwt beam="1">  1        1 0.17723984E+00 0.23104554E+04</pdfrwt>
<pdfrwt beam="2">  1       -2 0.17821618E+00 0.23104554E+04</pdfrwt>
<totfact> 0.17131255E+00</totfact>
</mgrwt>
</event>
<event>
12    4  0.4280696E-008  0.1602303E+04  0.7818608E-02  0.8819134E-01
          1   -1    0    0  501    0  0.00000000000E+00  0.00000000000E+00  0.11161943927E+04  0.11161943927E+04  0.00000000000E+00 0. -1.
         -4   -1    0    0    0  501 -0.00000000000E+00 -0.00000000000E+00 -0.57502877974E+03  0.57502877974E+03  0.00000000000E+00 0.  1.
        -24    2    1    2    0    0 -0.43990719346E+03  0.31171383511E+03  0.86476875589E+02  0.55168905277E+03  0.78731868228E+02 0.  0.
        254    2    1    2    0    0  0.43990719346E+03 -0.31171383511E+03  0.45468873734E+03  0.11395341196E+04  0.89504877414E+03 0.  0.
         23    2    4    4    0    0  0.69287950924E+02  0.11246362169E+03  0.53941027617E+03  0.56261078499E+03  0.90103068779E+02 0.  0.
         23    2    4    4    0    0  0.37061924254E+03 -0.42417745681E+03 -0.84721538833E+02  0.57692333464E+03  0.91529542267E+02 0.  0.
          3    1    3    3  502    0 -0.16063250756E+03  0.15427161840E+03  0.55986823063E+02  0.22964550744E+03  0.00000000000E+00 0. -1.
         -4    1    3    3    0  502 -0.27927468590E+03  0.15744221671E+03  0.30490052526E+02  0.32204354533E+03  0.00000000000E+00 0.  1.
         11    1    5    5    0    0  0.56952157107E+02  0.90734976604E+02  0.52013846393E+03  0.53105593475E+03  0.00000000000E+00 0. -1.
        -11    1    5    5    0    0  0.12335793817E+02  0.21728645090E+02  0.19271812243E+02  0.31554850241E+02  0.00000000000E+00 0.  1.
          3    1    6    6  503    0  0.15178991009E+03 -0.14247975737E+03 -0.70979688853E+02  0.21995175447E+03  0.00000000000E+00 0. -1.
         -3    1    6    6    0  503  0.21882933245E+03 -0.28169769943E+03 -0.13741849980E+02  0.35697158017E+03  0.00000000000E+00 0.  1.
<mgrwt>
<rscale>  0 0.16023032E+04</rscale>
<asrwt>0</asrwt>
<pdfrwt beam="1">  1        1 0.17172221E+00 0.16023032E+04</pdfrwt>
<pdfrwt beam="2">  1       -4 0.88465967E-01 0.16023032E+04</pdfrwt>
<totfact> 0.63490859E+00</totfact>
</mgrwt>
</event>
<event>
12    4  0.4280696E-008  0.1154115E+04  0.7818608E-02  0.9153995E-01
         -2   -1    0    0    0  501 -0.00000000000E+00  0.00000000000E+00  0.47210674644E+03  0.47210674644E+03  0.00000000000E+00 0.  1.
          1   -1    0    0  501    0  0.00000000000E+00 -0.00000000000E+00 -0.70533938953E+03  0.70533938953E+03  0.00000000000E+00 0. -1.
        -24    2    1    2    0    0  0.14490538056E+03  0.36369016297E+01 -0.20433422523E+03  0.26277150399E+03  0.79281721355E+02 0.  0.
        254    2    1    2    0    0 -0.14490538056E+03 -0.36369016297E+01 -0.28898417865E+02  0.91467463198E+03  0.90265373620E+03 0.  0.
         23    2    4    4    0    0 -0.25650645315E+03 -0.20301691381E+03 -0.36495398064E+03  0.49813247114E+03  0.89068080777E+02 0.  0.
         23    2    4    4    0    0  0.11160107259E+03  0.19938001218E+03  0.33605556278E+03  0.41654216085E+03  0.91470442366E+02 0.  0.
          1    1    3    3  502    0  0.14125606851E+03 -0.14102451811E+02 -0.19790368528E+03  0.24355291967E+03  0.00000000000E+00 0. -1.
         -2    1    3    3    0  502  0.36493120503E+01  0.17739353441E+02 -0.64305399552E+01  0.19218584315E+02  0.00000000000E+00 0.  1.
         11    1    5    5    0    0 -0.26192806262E+03 -0.18701340587E+03 -0.34189047383E+03  0.46954171280E+03  0.00000000000E+00 0. -1.
        -11    1    5    5    0    0  0.54216094741E+01 -0.16003507939E+02 -0.23063506816E+02  0.28590758337E+02  0.00000000000E+00 0.  1.
          1    1    6    6  503    0  0.75273075509E+02  0.12606378621E+03  0.28358420542E+03  0.31934012535E+03  0.00000000000E+00 0. -1.
         -1    1    6    6    0  503  0.36327997083E+02  0.73316225970E+02  0.52471357354E+02  0.97202035499E+02  0.00000000000E+00 0.  1.
<mgrwt>
<rscale>  0 0.11541152E+04</rscale>
<asrwt>0</asrwt>
<pdfrwt beam="1">  1        1 0.10851375E+00 0.11541152E+04</pdfrwt>
<pdfrwt beam="2">  1       -2 0.72631808E-01 0.11541152E+04</pdfrwt>
<totfact> 0.40154975E+01</totfact>
</mgrwt>
</event>
<event>
12    4  0.4280696E-008  0.1909208E+04  0.7818608E-02  0.8650286E-01
         -2   -1    0    0    0  501 -0.00000000000E+00  0.00000000000E+00  0.33812946254E+03  0.33812946254E+03  0.00000000000E+00 0.  1.
          1   -1    0    0  501    0  0.00000000000E+00 -0.00000000000E+00 -0.26950299793E+04  0.26950299793E+04  0.00000000000E+00 0. -1.
        -24    2    1    2    0    0 -0.70652170730E+03  0.20970041982E+03 -0.95429533488E+03  0.12084931034E+04  0.81417479250E+02 0.  0.
        254    2    1    2    0    0  0.70652170730E+03 -0.20970041982E+03 -0.14026051819E+04  0.18246663384E+04  0.90496340332E+03 0.  0.
         23    2    4    4    0    0  0.91403281504E+03 -0.18400067788E+03 -0.11060324649E+04  0.14493288644E+04  0.89073605642E+02 0.  0.
         23    2    4    4    0    0 -0.20751110774E+03 -0.25699741940E+02 -0.29657271702E+03  0.37533747408E+03  0.95924482797E+02 0.  0.
          1    1    3    3  502    0 -0.44756527373E+03  0.13454028769E+03 -0.53971479280E+03  0.71393824721E+03  0.00000000000E+00 0. -1.
         -2    1    3    3    0  502 -0.25895643356E+03  0.75160132130E+02 -0.41458054208E+03  0.49455485622E+03  0.00000000000E+00 0.  1.
         11    1    5    5    0    0  0.22912122848E+03 -0.71972017821E+01 -0.27440057082E+03  0.35755280774E+03  0.00000000000E+00 0.  1.
        -11    1    5    5    0    0  0.68491158655E+03 -0.17680347610E+03 -0.83163189408E+03  0.10917760566E+04  0.00000000000E+00 0. -1.
          1    1    6    6  503    0 -0.11130474079E+03  0.13555181486E+02 -0.88799352162E+02  0.14303081211E+03  0.00000000000E+00 0. -1.
         -1    1    6    6    0  503 -0.96206366952E+02 -0.39254923426E+02 -0.20777336486E+03  0.23230666198E+03  0.00000000000E+00 0.  1.
<mgrwt>
<rscale>  0 0.19092083E+04</rscale>
<asrwt>0</asrwt>
<pdfrwt beam="1">  1        1 0.41462000E+00 0.19092083E+04</pdfrwt>
<pdfrwt beam="2">  1       -2 0.52019916E-01 0.19092083E+04</pdfrwt>
<totfact> 0.28383065E+00</totfact>
</mgrwt>
</event>
<event>
12    4  0.4280696E-008  0.3177397E+04  0.7818608E-02  0.8194812E-01
          1   -1    0    0  501    0  0.00000000000E+00  0.00000000000E+00  0.20805018687E+04  0.20805018687E+04  0.00000000000E+00 0. -1.
         -2   -1    0    0    0  501 -0.00000000000E+00 -0.00000000000E+00 -0.12131508000E+04  0.12131508000E+04  0.00000000000E+00 0.  1.
        -24    2    1    2    0    0 -0.72219885926E+03 -0.89359643222E+03  0.13344716040E+04  0.17627387254E+04  0.79671675492E+02 0.  0.
        254    2    1    2    0    0  0.72219885926E+03  0.89359643222E+03 -0.46712053531E+03  0.15309139433E+04  0.89744645044E+03 0.  0.
         23    2    4    4    0    0  0.13009233340E+03  0.68460358219E+03  0.61151559788E+02  0.70531657733E+03  0.90143668810E+02 0.  0.
         23    2    4    4    0    0  0.59210652586E+03  0.20899285003E+03 -0.52827209510E+03  0.82559736601E+03  0.90947539704E+02 0.  0.
          3    1    3    3  502    0 -0.59336116080E+03 -0.77697559343E+03  0.11185523206E+04  0.14855732341E+04  0.00000000000E+00 0. -1.
         -4    1    3    3    0  502 -0.12883769846E+03 -0.11662083879E+03  0.21591928344E+03  0.27716549126E+03  0.00000000000E+00 0.  1.
         11    1    5    5    0    0  0.27382470927E+02  0.27333674105E+03  0.61102347669E+02  0.28141831961E+03  0.00000000000E+00 0. -1.
        -11    1    5    5    0    0  0.10270986247E+03  0.41126684114E+03  0.49212119064E-01  0.42389825771E+03  0.00000000000E+00 0.  1.
          3    1    6    6  503    0  0.30730253408E+03  0.12274765858E+03 -0.22144978686E+03  0.39817313224E+03  0.00000000000E+00 0. -1.
         -3    1    6    6    0  503  0.28480399178E+03  0.86245191448E+02 -0.30682230824E+03  0.42742423377E+03  0.00000000000E+00 0.  1.
<mgrwt>
<rscale>  0 0.31773967E+04</rscale>
<asrwt>0</asrwt>
<pdfrwt beam="1">  1        1 0.32007721E+00 0.31773967E+04</pdfrwt>
<pdfrwt beam="2">  1       -2 0.18663858E+00 0.31773967E+04</pdfrwt>
<totfact> 0.31628906E-01</totfact>
</mgrwt>
</event>
<event>
12    4  0.4280696E-008  0.1166889E+04  0.7818608E-02  0.9142343E-01
          3   -1    0    0  501    0  0.00000000000E+00  0.00000000000E+00  0.28247859729E+03  0.28247859729E+03  0.00000000000E+00 0. -1.
         -4   -1    0    0    0  501 -0.00000000000E+00 -0.00000000000E+00 -0.12050729422E+04  0.12050729422E+04  0.00000000000E+00 0.  1.
        -24    2    1    2    0    0  0.16270698300E+03  0.71454978675E+02 -0.25130878905E+03  0.31802206349E+03  0.80015930406E+02 0.  0.
        254    2    1    2    0    0 -0.16270698300E+03 -0.71454978675E+02 -0.67128555584E+03  0.11695294760E+04  0.94106084893E+03 0.  0.
         23    2    4    4    0    0 -0.54623919748E+03 -0.26680820048E+02 -0.45479310519E+03  0.71731691594E+03  0.92831365042E+02 0.  0.
         23    2    4    4    0    0  0.38353221448E+03 -0.44774158627E+02 -0.21649245065E+03  0.45221256003E+03  0.92333815230E+02 0.  0.
          1    1    3    3  502    0  0.59270048830E+02  0.20877951346E+02 -0.32449445351E+02  0.70723362790E+02  0.00000000000E+00 0. -1.
         -2    1    3    3    0  502  0.10343693417E+03  0.50577027329E+02 -0.21885934370E+03  0.24729870070E+03  0.00000000000E+00 0.  1.
         11    1    5    5    0    0 -0.41876014346E+03 -0.54606013244E+02 -0.37187015200E+03  0.56269821786E+03  0.00000000000E+00 0. -1.
        -11    1    5    5    0    0 -0.12747905402E+03  0.27925193196E+02 -0.82922953190E+02  0.15461869808E+03  0.00000000000E+00 0.  1.
          3    1    6    6  503    0  0.33139383808E+03 -0.16632048556E+02 -0.20983077535E+03  0.39259069683E+03  0.00000000000E+00 0. -1.
         -3    1    6    6    0  503  0.52138376404E+02 -0.28142110071E+02 -0.66616752959E+01  0.59621863197E+02  0.00000000000E+00 0.  1.
<mgrwt>
<rscale>  0 0.11668887E+04</rscale>
<asrwt>0</asrwt>
<pdfrwt beam="1">  1        3 0.43458245E-01 0.11668887E+04</pdfrwt>
<pdfrwt beam="2">  1       -4 0.18539584E+00 0.11668887E+04</pdfrwt>
<totfact> 0.19660514E+00</totfact>
</mgrwt>
</event>
<event>
12    4  0.4280696E-008  0.3113216E+04  0.7818608E-02  0.8212120E-01
          1   -1    0    0  501    0  0.00000000000E+00  0.00000000000E+00  0.19601924169E+04  0.19601924169E+04  0.00000000000E+00 0. -1.
         -2   -1    0    0    0  501 -0.00000000000E+00 -0.00000000000E+00 -0.12361176494E+04  0.12361176494E+04  0.00000000000E+00 0.  1.
        -24    2    1    2    0    0  0.18618532352E+03 -0.83186146611E+03  0.15009965394E+04  0.17278844916E+04  0.77043700309E+02 0.  0.
        254    2    1    2    0    0 -0.18618532352E+03  0.83186146611E+03 -0.77692177187E+03  0.14684255747E+04  0.90884968804E+03 0.  0.
         23    2    4    4    0    0  0.24437461284E+03  0.55956517571E+03 -0.71927914876E+03  0.94788313569E+03  0.91037397961E+02 0.  0.
         23    2    4    4    0    0 -0.43055993636E+03  0.27229629040E+03 -0.57642623116E+02  0.52054243905E+03  0.90081242662E+02 0.  0.
          3    1    3    3  502    0  0.17332618237E+03 -0.73676528532E+03  0.13744364566E+04  0.15690572406E+04  0.00000000000E+00 0. -1.
         -4    1    3    3    0  502  0.12859141155E+02 -0.95096180783E+02  0.12656008275E+03  0.15882725099E+03  0.00000000000E+00 0.  1.
         11    1    5    5    0    0  0.79077159427E+02  0.24850092391E+03 -0.36203449742E+03  0.44617808513E+03  0.00000000000E+00 0. -1.
        -11    1    5    5    0    0  0.16529745342E+03  0.31106425180E+03 -0.35724465133E+03  0.50170505056E+03  0.00000000000E+00 0.  1.
          2    1    6    6  503    0 -0.36734700025E+03  0.19005667692E+03 -0.47609632476E+02  0.41633164201E+03  0.00000000000E+00 0. -1.
         -2    1    6    6    0  503 -0.63212936116E+02  0.82239613480E+02 -0.10032990640E+02  0.10421079704E+03  0.00000000000E+00 0.  1.
<mgrwt>
<rscale>  0 0.31132160E+04</rscale>
<asrwt>0</asrwt>
<pdfrwt beam="1">  1        1 0.30156806E+00 0.31132160E+04</pdfrwt>
<pdfrwt beam="2">  1       -2 0.19017195E+00 0.31132160E+04</pdfrwt>
<totfact> 0.36327940E-01</totfact>
</mgrwt>
</event>
<event>
12    4  0.4280696E-008  0.3335537E+04  0.7818608E-02  0.8153911E-01
         -4   -1    0    0    0  501 -0.00000000000E+00  0.00000000000E+00  0.12648819861E+04  0.12648819861E+04  0.00000000000E+00 0.  1.
          1   -1    0    0  501    0  0.00000000000E+00 -0.00000000000E+00 -0.21989813281E+04  0.21989813281E+04  0.00000000000E+00 0. -1.
        -24    2    1    2    0    0 -0.25007574782E+03  0.10856117744E+04  0.67731855342E+03  0.13063026396E+04  0.81088587379E+02 0.  0.
        254    2    1    2    0    0  0.25007574782E+03 -0.10856117744E+04 -0.16114178954E+04  0.21575606746E+04  0.90405178324E+03 0.  0.
         23    2    4    4    0    0  0.19604882253E+03 -0.14027603976E+03  0.33431006138E+02  0.25755822521E+03  0.84297681190E+02 0.  0.
         23    2    4    4    0    0  0.54026925298E+02 -0.94533573463E+03 -0.16448489015E+04  0.19000024494E+04  0.88897914220E+02 0.  0.
          1    1    3    3  502    0 -0.19930924169E+02  0.81524303309E+02  0.27372556524E+02  0.88276331023E+02  0.00000000000E+00 0. -1.
         -2    1    3    3    0  502 -0.23014482366E+03  0.10040874711E+04  0.64994599690E+03  0.12180263086E+04  0.00000000000E+00 0.  1.
         11    1    5    5    0    0  0.11122328152E+03 -0.33288073369E+02  0.34167727863E+02  0.12102127007E+03  0.00000000000E+00 0.  1.
        -11    1    5    5    0    0  0.84825541006E+02 -0.10698796639E+03 -0.73672172543E+00  0.13653695514E+03  0.00000000000E+00 0. -1.
          2    1    6    6  503    0 -0.18942634402E+02 -0.20219800123E+03 -0.39284122372E+03  0.44222967127E+03  0.00000000000E+00 0. -1.
         -2    1    6    6    0  503  0.72969559700E+02 -0.74313773339E+03 -0.12520076778E+04  0.14577727781E+04  0.00000000000E+00 0.  1.
<mgrwt>
<rscale>  0 0.33355371E+04</rscale>
<asrwt>0</asrwt>
<pdfrwt beam="1">  1        1 0.33830481E+00 0.33355371E+04</pdfrwt>
<pdfrwt beam="2">  1       -4 0.19459723E+00 0.33355371E+04</pdfrwt>
<totfact> 0.12595643E-01</totfact>
</mgrwt>
</event>
<event>
12    4  0.4280696E-008  0.4299082E+04  0.7818608E-02  0.7946788E-01
          1   -1    0    0  501    0  0.00000000000E+00  0.00000000000E+00  0.29829712662E+04  0.29829712662E+04  0.00000000000E+00 0. -1.
         -2   -1    0    0    0  501 -0.00000000000E+00 -0.00000000000E+00 -0.15489675059E+04  0.15489675059E+04  0.00000000000E+00 0.  1.
        -24    2    1    2    0    0  0.14756699208E+03  0.87121485507E+03 -0.12696925033E+04  0.15490196002E+04  0.80940274363E+02 0.  0.
        254    2    1    2    0    0 -0.14756699208E+03 -0.87121485507E+03  0.27036962636E+04  0.29829191720E+04  0.89835514137E+03 0.  0.
         23    2    4    4    0    0  0.25105361634E+03 -0.36558522774E+03  0.18776554645E+04  0.19315601197E+04  0.93026747622E+02 0.  0.
         23    2    4    4    0    0 -0.39862060842E+03 -0.50562962732E+03  0.82604079910E+03  0.10513590523E+04  0.91938813933E+02 0.  0.
          1    1    3    3  502    0  0.11264085010E+02  0.14741973444E+02 -0.15452462992E+02  0.24145061703E+02  0.00000000000E+00 0. -1.
         -2    1    3    3    0  502  0.13630290707E+03  0.85647288163E+03 -0.12542400403E+04  0.15248745385E+04  0.00000000000E+00 0.  1.
         11    1    5    5    0    0  0.25425113440E+03 -0.34189709982E+03  0.17137458710E+04  0.17659168091E+04  0.00000000000E+00 0. -1.
        -11    1    5    5    0    0 -0.31975180529E+01 -0.23688127920E+02  0.16390959343E+03  0.16564331059E+03  0.00000000000E+00 0.  1.
          3    1    6    6  503    0 -0.33810810559E+03 -0.39815173576E+03  0.61469695377E+03  0.80665620975E+03  0.00000000000E+00 0. -1.
         -3    1    6    6    0  503 -0.60512502830E+02 -0.10747789156E+03  0.21134384533E+03  0.24470284251E+03  0.00000000000E+00 0.  1.
<mgrwt>
<rscale>  0 0.42990816E+04</rscale>
<asrwt>0</asrwt>
<pdfrwt beam="1">  1        1 0.45891866E+00 0.42990816E+04</pdfrwt>
<pdfrwt beam="2">  1       -2 0.23830269E+00 0.42990816E+04</pdfrwt>
<totfact> 0.31378562E-02</totfact>
</mgrwt>
</event>
<event>
12    4  0.4280696E-008  0.1341146E+04  0.7818608E-02  0.8997557E-01
          1   -1    0    0  501    0  0.00000000000E+00  0.00000000000E+00  0.13116856691E+04  0.13116856691E+04  0.00000000000E+00 0. -1.
         -2   -1    0    0    0  501 -0.00000000000E+00 -0.00000000000E+00 -0.34281725168E+03  0.34281725168E+03  0.00000000000E+00 0.  1.
        -24    2    1    2    0    0 -0.10823522546E+03  0.16559137722E+03 -0.13096768990E+03  0.26057374768E+03  0.10775330129E+03 0.  0.
        254    2    1    2    0    0  0.10823522546E+03 -0.16559137722E+03  0.10998361073E+04  0.13939291731E+04  0.83322488465E+03 0.  0.
         23    2    4    4    0    0  0.25685734661E+03 -0.23683871440E+03  0.99974135108E+02  0.37643081676E+03  0.98168523291E+02 0.  0.
         23    2    4    4    0    0 -0.14862212116E+03  0.71247337176E+02  0.99986197217E+03  0.10174983563E+04  0.91729077965E+02 0.  0.
          1    1    3    3  502    0  0.21330606666E+02  0.36892145425E+02 -0.26516192660E+02  0.50190971778E+02  0.00000000000E+00 0. -1.
         -2    1    3    3    0  502 -0.12956583212E+03  0.12869923180E+03 -0.10445149724E+03  0.21038277590E+03  0.00000000000E+00 0.  1.
         11    1    5    5    0    0  0.14817940087E+03 -0.17353307652E+03  0.23892293796E+02  0.22943780245E+03  0.00000000000E+00 0.  1.
        -11    1    5    5    0    0  0.10867794574E+03 -0.63305637881E+02  0.76081841312E+02  0.14699301431E+03  0.00000000000E+00 0. -1.
          3    1    6    6  503    0 -0.10773603634E+03  0.24560623142E+02  0.41882564465E+03  0.43315724437E+03  0.00000000000E+00 0. -1.
         -3    1    6    6    0  503 -0.40886084812E+02  0.46686714034E+02  0.58103632752E+03  0.58434111193E+03  0.00000000000E+00 0.  1.
<mgrwt>
<rscale>  0 0.13411465E+04</rscale>
<asrwt>0</asrwt>
<pdfrwt beam="1">  1        1 0.20179779E+00 0.13411465E+04</pdfrwt>
<pdfrwt beam="2">  1       -2 0.52741116E-01 0.13411465E+04</pdfrwt>
<totfact> 0.25854178E+01</totfact>
</mgrwt>
</event>
<event>
12    4  0.4280696E-008  0.3140627E+04  0.7818608E-02  0.8204676E-01
         -2   -1    0    0    0  501 -0.00000000000E+00  0.00000000000E+00  0.11015183830E+04  0.11015183830E+04  0.00000000000E+00 0.  1.
          1   -1    0    0  501    0  0.00000000000E+00 -0.00000000000E+00 -0.22386235390E+04  0.22386235390E+04  0.00000000000E+00 0. -1.
        -24    2    1    2    0    0 -0.49519441760E+03  0.10278124393E+04  0.41280760668E+03  0.12162037323E+04  0.84412539222E+02 0.  0.
        254    2    1    2    0    0  0.49519441760E+03 -0.10278124393E+04 -0.15499127627E+04  0.21239381897E+04  0.89848090701E+03 0.  0.
         23    2    4    4    0    0 -0.19213588084E+03 -0.58984611741E+03 -0.75962962579E+03  0.98503832566E+03  0.91807928365E+02 0.  0.
         23    2    4    4    0    0  0.68733029844E+03 -0.43796632187E+03 -0.79028313686E+03  0.11388998640E+04  0.91148371595E+02 0.  0.
          1    1    3    3  502    0 -0.22594195092E+02  0.50693430431E+02  0.16345696985E+01  0.55524709444E+02  0.00000000000E+00 0. -1.
         -2    1    3    3    0  502 -0.47260022251E+03  0.97711900885E+03  0.41117303698E+03  0.11606790229E+04  0.00000000000E+00 0.  1.
         11    1    5    5    0    0 -0.18557693595E+03 -0.44565616018E+03 -0.58785965990E+03  0.76067548403E+03  0.00000000000E+00 0. -1.
        -11    1    5    5    0    0 -0.65589448963E+01 -0.14418995722E+03 -0.17176996589E+03  0.22436284163E+03  0.00000000000E+00 0.  1.
          2    1    6    6  503    0  0.57553561932E+03 -0.37925667134E+03 -0.70848875528E+03  0.98844989161E+03  0.00000000000E+00 0. -1.
         -2    1    6    6    0  503  0.11179467912E+03 -0.58709650530E+02 -0.81794381584E+02  0.15044997243E+03  0.00000000000E+00 0.  1.
<mgrwt>
<rscale>  0 0.31406273E+04</rscale>
<asrwt>0</asrwt>
<pdfrwt beam="1">  1        1 0.34440362E+00 0.31406273E+04</pdfrwt>
<pdfrwt beam="2">  1       -2 0.16946437E+00 0.31406273E+04</pdfrwt>
<totfact> 0.32600401E-01</totfact>
</mgrwt>
</event>
<event>
12    4  0.4280696E-008  0.1751135E+04  0.7818608E-02  0.8732726E-01
         -2   -1    0    0    0  501 -0.00000000000E+00  0.00000000000E+00  0.95966500619E+03  0.95966500619E+03  0.00000000000E+00 0.  1.
          1   -1    0    0  501    0  0.00000000000E+00 -0.00000000000E+00 -0.79883951379E+03  0.79883951379E+03  0.00000000000E+00 0. -1.
        -24    2    1    2    0    0  0.26117268581E+03  0.18681659345E+03 -0.49545819572E+03  0.59475440016E+03  0.71710260072E+02 0.  0.
        254    2    1    2    0    0 -0.26117268581E+03 -0.18681659345E+03  0.65628368813E+03  0.11637501198E+04  0.90581148738E+03 0.  0.
         23    2    4    4    0    0 -0.39061979823E+03 -0.27814527198E+03  0.79494504755E+03  0.93288127462E+03  0.91549029570E+02 0.  0.
         23    2    4    4    0    0  0.12944711242E+03  0.91328678531E+02 -0.13866135942E+03  0.23086884520E+03  0.94741588817E+02 0.  0.
          3    1    3    3  502    0  0.21793644193E+03  0.18030203825E+03 -0.40159008757E+03  0.49120231693E+03  0.00000000000E+00 0. -1.
         -4    1    3    3    0  502  0.43236243882E+02  0.65145552022E+01 -0.93868108150E+02  0.10355208323E+03  0.00000000000E+00 0.  1.
         11    1    5    5    0    0 -0.20309963099E+03 -0.15766816340E+03  0.34001618025E+03  0.42628595179E+03  0.00000000000E+00 0. -1.
        -11    1    5    5    0    0 -0.18752016724E+03 -0.12047710858E+03  0.45492886729E+03  0.50659532283E+03  0.00000000000E+00 0.  1.
          1    1    6    6  503    0  0.11490720597E+03  0.87831896190E+02 -0.70152184334E+02  0.16074649900E+03  0.00000000000E+00 0. -1.
         -1    1    6    6    0  503  0.14539906449E+02  0.34967823416E+01 -0.68509175086E+02  0.70122346205E+02  0.00000000000E+00 0.  1.
<mgrwt>
<rscale>  0 0.17511349E+04</rscale>
<asrwt>0</asrwt>
<pdfrwt beam="1">  1        1 0.12289839E+00 0.17511349E+04</pdfrwt>
<pdfrwt beam="2">  1       -2 0.14764077E+00 0.17511349E+04</pdfrwt>
<totfact> 0.57455490E+00</totfact>
</mgrwt>
</event>
<event>
12    4  0.4280696E-008  0.1155820E+04  0.7818608E-02  0.9152431E-01
          1   -1    0    0  501    0  0.00000000000E+00  0.00000000000E+00  0.13453844897E+04  0.13453844897E+04  0.00000000000E+00 0. -1.
         -2   -1    0    0    0  501 -0.00000000000E+00 -0.00000000000E+00 -0.24824147549E+03  0.24824147549E+03  0.00000000000E+00 0.  1.
        -24    2    1    2    0    0  0.52302766904E+02 -0.37120686437E+02 -0.65783664263E+02  0.12371798126E+03  0.82856041518E+02 0.  0.
        254    2    1    2    0    0 -0.52302766904E+02  0.37120686437E+02  0.11629266785E+04  0.14699079840E+04  0.89672598765E+03 0.  0.
         23    2    4    4    0    0 -0.42081299784E+03  0.16728012532E+03  0.41451992606E+03  0.62073028162E+03  0.91722919415E+02 0.  0.
         23    2    4    4    0    0  0.36851023093E+03 -0.13015943888E+03  0.74840675244E+03  0.84917770233E+03  0.90823087452E+02 0.  0.
          1    1    3    3  502    0 -0.16717309748E+02  0.10639674015E+02 -0.19804184470E+02  0.28015653319E+02  0.00000000000E+00 0. -1.
         -2    1    3    3    0  502  0.69020076652E+02 -0.47760360452E+02 -0.45979479793E+02  0.95702327942E+02  0.00000000000E+00 0.  1.
         11    1    5    5    0    0 -0.20127805971E+03  0.12481203647E+03  0.18739269729E+03  0.30200484229E+03  0.00000000000E+00 0. -1.
        -11    1    5    5    0    0 -0.21953493813E+03  0.42468088847E+02  0.22712722877E+03  0.31872543934E+03  0.00000000000E+00 0.  1.
          3    1    6    6  503    0  0.30670342162E+03 -0.90810527480E+02  0.66650700854E+03  0.73928690857E+03  0.00000000000E+00 0. -1.
         -3    1    6    6    0  503  0.61806809306E+02 -0.39348911399E+02  0.81899743892E+02  0.10989079377E+03  0.00000000000E+00 0.  1.
<mgrwt>
<rscale>  0 0.11558205E+04</rscale>
<asrwt>0</asrwt>
<pdfrwt beam="1">  1        1 0.20698223E+00 0.11558205E+04</pdfrwt>
<pdfrwt beam="2">  1       -2 0.38190997E-01 0.11558205E+04</pdfrwt>
<totfact> 0.47325005E+01</totfact>
</mgrwt>
</event>
<event>
12    4  0.4280696E-008  0.2131062E+04  0.7818608E-02  0.8547683E-01
         -2   -1    0    0    0  501 -0.00000000000E+00  0.00000000000E+00  0.75829944574E+03  0.75829944574E+03  0.00000000000E+00 0.  1.
          1   -1    0    0  501    0  0.00000000000E+00 -0.00000000000E+00 -0.14972397859E+04  0.14972397859E+04  0.00000000000E+00 0. -1.
        -24    2    1    2    0    0 -0.19785414483E+03 -0.40805187621E+03 -0.10862455110E+04  0.11797486723E+04  0.78898816855E+02 0.  0.
        254    2    1    2    0    0  0.19785414483E+03  0.40805187621E+03  0.34730517077E+03  0.10757905594E+04  0.91162045269E+03 0.  0.
         23    2    4    4    0    0 -0.79778532294E+02 -0.65830970546E+02 -0.23384657440E+03  0.27118485661E+03  0.90325385133E+02 0.  0.
         23    2    4    4    0    0  0.27763267713E+03  0.47388284676E+03  0.58115174516E+03  0.80460570280E+03  0.89488156818E+02 0.  0.
          1    1    3    3  502    0 -0.18692752108E+03 -0.38355284396E+03 -0.95791952318E+03  0.10486488903E+04  0.00000000000E+00 0. -1.
         -2    1    3    3    0  502 -0.10926623749E+02 -0.24499032253E+02 -0.12832598779E+03  0.13109978196E+03  0.00000000000E+00 0.  1.
         11    1    5    5    0    0 -0.11667281935E+02  0.19874868066E+02 -0.18290301194E+02  0.29422286896E+02  0.00000000000E+00 0.  1.
        -11    1    5    5    0    0 -0.68111250358E+02 -0.85705838612E+02 -0.21555627320E+03  0.24176256971E+03  0.00000000000E+00 0. -1.
          1    1    6    6  503    0  0.20311463037E+03  0.40283792509E+03  0.50049150144E+03  0.67381428448E+03  0.00000000000E+00 0. -1.
         -1    1    6    6    0  503  0.74518046759E+02  0.71044921666E+02  0.80660243726E+02  0.13079141832E+03  0.00000000000E+00 0.  1.
<mgrwt>
<rscale>  0 0.21310618E+04</rscale>
<asrwt>0</asrwt>
<pdfrwt beam="1">  1        1 0.23034458E+00 0.21310618E+04</pdfrwt>
<pdfrwt beam="2">  1       -2 0.11666146E+00 0.21310618E+04</pdfrwt>
<totfact> 0.30118820E+00</totfact>
</mgrwt>
</event>
<event>
12    4  0.4280696E-008  0.1289925E+04  0.7818608E-02  0.9037593E-01
         -4   -1    0    0    0  501 -0.00000000000E+00  0.00000000000E+00  0.65945068111E+03  0.65945068111E+03  0.00000000000E+00 0.  1.
          3   -1    0    0  501    0  0.00000000000E+00 -0.00000000000E+00 -0.63079306572E+03  0.63079306572E+03  0.00000000000E+00 0. -1.
        -24    2    1    2    0    0 -0.26543384402E+03 -0.10768358721E+03 -0.16323107768E+03  0.33925868607E+03  0.80007442448E+02 0.  0.
        254    2    1    2    0    0  0.26543384402E+03  0.10768358721E+03  0.19188869307E+03  0.95098506077E+03  0.88628462402E+03 0.  0.
         23    2    4    4    0    0  0.56439164258E+02  0.32124490652E+03 -0.24177025322E+03  0.41567666126E+03  0.89165924819E+02 0.  0.
         23    2    4    4    0    0  0.20899467976E+03 -0.21356131930E+03  0.43365894629E+03  0.53530839951E+03  0.95957217663E+02 0.  0.
          3    1    3    3  502    0 -0.22662228861E+03 -0.92792794695E+02 -0.10206266970E+03  0.26530162643E+03  0.00000000000E+00 0. -1.
         -4    1    3    3    0  502 -0.38811555410E+02 -0.14890792517E+02 -0.61168407980E+02  0.73957059635E+02  0.00000000000E+00 0.  1.
         11    1    5    5    0    0  0.39778725968E+02  0.31831367911E+03 -0.22480180702E+03  0.39171647628E+03  0.00000000000E+00 0.  1.
        -11    1    5    5    0    0  0.16660438290E+02  0.29312274111E+01 -0.16968446191E+02  0.23960184980E+02  0.00000000000E+00 0. -1.
          2    1    6    6  503    0  0.78232016483E+02 -0.83260463982E+02  0.90890807251E+02  0.14599209605E+03  0.00000000000E+00 0. -1.
         -2    1    6    6    0  503  0.13076266328E+03 -0.13030085532E+03  0.34276813903E+03  0.38931630346E+03  0.00000000000E+00 0.  1.
<mgrwt>
<rscale>  0 0.12899255E+04</rscale>
<asrwt>0</asrwt>
<pdfrwt beam="1">  1        3 0.97045087E-01 0.12899255E+04</pdfrwt>
<pdfrwt beam="2">  1       -4 0.10145395E+00 0.12899255E+04</pdfrwt>
<totfact> 0.16795525E+00</totfact>
</mgrwt>
</event>
<event>
12    4  0.4280696E-008  0.4167384E+04  0.7818608E-02  0.7971606E-01
         -2   -1    0    0    0  501 -0.00000000000E+00  0.00000000000E+00  0.12590946673E+04  0.12590946673E+04  0.00000000000E+00 0.  1.
          1   -1    0    0  501    0  0.00000000000E+00 -0.00000000000E+00 -0.34483282706E+04  0.34483282706E+04  0.00000000000E+00 0. -1.
        -24    2    1    2    0    0  0.48356339758E+03  0.43956188598E+03  0.10760000502E+04  0.12613182115E+04  0.78098089496E+02 0.  0.
        254    2    1    2    0    0 -0.48356339758E+03 -0.43956188598E+03 -0.32652336535E+04  0.34461047264E+04  0.88703932402E+03 0.  0.
         23    2    4    4    0    0 -0.56965250240E+03 -0.48230627481E+03 -0.32223059561E+04  0.33089812743E+04  0.94752745164E+02 0.  0.
         23    2    4    4    0    0  0.86089104824E+02  0.42744388825E+02 -0.42927697415E+02  0.13712345213E+03  0.87872846618E+02 0.  0.
          3    1    3    3  502    0  0.35031404624E+02  0.48807464000E+02  0.13910836037E+03  0.15152723774E+03  0.00000000000E+00 0. -1.
         -4    1    3    3    0  502  0.44853199296E+03  0.39075442198E+03  0.93689168984E+03  0.11097909738E+04  0.00000000000E+00 0.  1.
         11    1    5    5    0    0 -0.33006963946E+03 -0.32208218309E+03 -0.18363887367E+04  0.18934113372E+04  0.00000000000E+00 0. -1.
        -11    1    5    5    0    0 -0.23958286294E+03 -0.16022409171E+03 -0.13859172194E+04  0.14155699371E+04  0.00000000000E+00 0.  1.
          3    1    6    6  503    0  0.21249509460E+02 -0.16945210461E+02 -0.40729881396E+02  0.48965345382E+02  0.00000000000E+00 0.  1.
         -3    1    6    6    0  503  0.64839595364E+02  0.59689599286E+02 -0.21978160193E+01  0.88158106746E+02  0.00000000000E+00 0. -1.
<mgrwt>
<rscale>  0 0.41673837E+04</rscale>
<asrwt>0</asrwt>
<pdfrwt beam="1">  1        1 0.53051205E+00 0.41673837E+04</pdfrwt>
<pdfrwt beam="2">  1       -2 0.19370687E+00 0.41673837E+04</pdfrwt>
<totfact> 0.27283570E-02</totfact>
</mgrwt>
</event>
<event>
12    4  0.4280696E-008  0.1387272E+04  0.7818608E-02  0.8963084E-01
          1   -1    0    0  501    0  0.00000000000E+00  0.00000000000E+00  0.43424604866E+03  0.43424604866E+03  0.00000000000E+00 0. -1.
         -2   -1    0    0    0  501 -0.00000000000E+00 -0.00000000000E+00 -0.11079681941E+04  0.11079681941E+04  0.00000000000E+00 0.  1.
        -24    2    1    2    0    0  0.21664447407E+02 -0.25565455941E+03 -0.54877243958E+03  0.61076247196E+03  0.77788204029E+02 0.  0.
        254    2    1    2    0    0 -0.21664447407E+02  0.25565455941E+03 -0.12494970583E+03  0.93145177077E+03  0.88665741426E+03 0.  0.
         23    2    4    4    0    0 -0.13134349783E+02 -0.31639343159E+03 -0.12416046005E+03  0.35214715181E+03  0.91183781402E+02 0.  0.
         23    2    4    4    0    0 -0.85300976232E+01  0.57204799099E+03 -0.78924578030E+00  0.57930461896E+03  0.91003033333E+02 0.  0.
          3    1    3    3  502    0 -0.27191023112E+02 -0.57100363771E+02 -0.11617642243E+03  0.13227533560E+03  0.00000000000E+00 0. -1.
         -2    1    3    3    0  502  0.48855470519E+02 -0.19855419564E+03 -0.43259601715E+03  0.47848713636E+03  0.00000000000E+00 0.  1.
         11    1    5    5    0    0  0.36852277374E+01 -0.41990265551E+02  0.14064311605E+02  0.44436113302E+02  0.00000000000E+00 0. -1.
        -11    1    5    5    0    0 -0.16819577521E+02 -0.27440316604E+03 -0.13822477166E+03  0.30771103851E+03  0.00000000000E+00 0.  1.
          3    1    6    6  503    0 -0.39209327167E+01  0.28336440508E+03 -0.45889653290E+02  0.28708294979E+03  0.00000000000E+00 0. -1.
         -3    1    6    6    0  503 -0.46091649066E+01  0.28868358591E+03  0.45100407510E+02  0.29222166917E+03  0.00000000000E+00 0.  1.
<mgrwt>
<rscale>  0 0.13872719E+04</rscale>
<asrwt>0</asrwt>
<pdfrwt beam="1">  1        1 0.66807085E-01 0.13872719E+04</pdfrwt>
<pdfrwt beam="2">  1       -2 0.17045664E+00 0.13872719E+04</pdfrwt>
<totfact> 0.96870973E+00</totfact>
</mgrwt>
</event>
<event>
12    4  0.4280696E-008  0.1504034E+04  0.7818608E-02  0.8881775E-01
          1   -1    0    0  501    0  0.00000000000E+00  0.00000000000E+00  0.66501991560E+03  0.66501991560E+03  0.00000000000E+00 0. -1.
         -2   -1    0    0    0  501 -0.00000000000E+00 -0.00000000000E+00 -0.85039537357E+03  0.85039537357E+03  0.00000000000E+00 0.  1.
        -24    2    1    2    0    0  0.94523709701E+02  0.46162097648E+02 -0.53232981359E+03  0.54900446823E+03  0.83457802160E+02 0.  0.
        254    2    1    2    0    0 -0.94523709701E+02 -0.46162097648E+02  0.34695435562E+03  0.96641082094E+03  0.89582748283E+03 0.  0.
         23    2    4    4    0    0 -0.14113336989E+03  0.11949289315E+02 -0.28158061463E+03  0.32699090685E+03  0.87028713765E+02 0.  0.
         23    2    4    4    0    0  0.46609660185E+02 -0.58111386963E+02  0.62853497024E+03  0.63941991409E+03  0.90841752532E+02 0.  0.
          3    1    3    3  502    0  0.45267561031E+02  0.65327249212E+02 -0.27251830648E+03  0.28387150075E+03  0.00000000000E+00 0. -1.
         -4    1    3    3    0  502  0.49256148670E+02 -0.19165151564E+02 -0.25981150711E+03  0.26513296748E+03  0.00000000000E+00 0.  1.
         11    1    5    5    0    0 -0.13493642285E+03  0.92904871064E+01 -0.17983322932E+03  0.22502031404E+03  0.00000000000E+00 0.  1.
        -11    1    5    5    0    0 -0.61969470342E+01  0.26588022088E+01 -0.10174738531E+03  0.10197059281E+03  0.00000000000E+00 0. -1.
          2    1    6    6  503    0  0.72880503991E+02 -0.29468881438E+02  0.42217216527E+03  0.42942906278E+03  0.00000000000E+00 0.  1.
         -2    1    6    6    0  503 -0.26270843806E+02 -0.28642505525E+02  0.20636280498E+03  0.20999085131E+03  0.00000000000E+00 0. -1.
<mgrwt>
<rscale>  0 0.15040344E+04</rscale>
<asrwt>0</asrwt>
<pdfrwt beam="1">  1        1 0.10231076E+00 0.15040344E+04</pdfrwt>
<pdfrwt beam="2">  1       -2 0.13083006E+00 0.15040344E+04</pdfrwt>
<totfact> 0.10645657E+01</totfact>
</mgrwt>
</event>
<event>
12    4  0.4280696E-008  0.1568948E+04  0.7818608E-02  0.8839855E-01
         -2   -1    0    0    0  501 -0.00000000000E+00  0.00000000000E+00  0.50827713948E+03  0.50827713948E+03  0.00000000000E+00 0.  1.
          1   -1    0    0  501    0  0.00000000000E+00 -0.00000000000E+00 -0.12107555628E+04  0.12107555628E+04  0.00000000000E+00 0. -1.
        -24    2    1    2    0    0 -0.44702356826E+03 -0.13980516769E+03  0.21209156604E+02  0.47535685828E+03  0.78350232266E+02 0.  0.
        254    2    1    2    0    0  0.44702356826E+03  0.13980516769E+03 -0.72368757988E+03  0.12436758440E+04  0.89645431343E+03 0.  0.
         23    2    4    4    0    0 -0.11641532286E+03 -0.24118978640E+03 -0.62374640218E+02  0.29068599978E+03  0.94248152589E+02 0.  0.
         23    2    4    4    0    0  0.56343889112E+03  0.38099495409E+03 -0.66131293967E+03  0.95298984417E+03  0.90743043030E+02 0.  0.
          3    1    3    3  502    0 -0.34932862718E+03 -0.13879607026E+03  0.30995391112E+02  0.37716780504E+03  0.00000000000E+00 0. -1.
         -4    1    3    3    0  502 -0.97694941082E+02 -0.10090974267E+01 -0.97862345080E+01  0.98189053241E+02  0.00000000000E+00 0.  1.
         11    1    5    5    0    0 -0.26979842649E+02 -0.25905423131E+01 -0.16638782469E+02  0.31803646031E+02  0.00000000000E+00 0. -1.
        -11    1    5    5    0    0 -0.89435480215E+02 -0.23859924409E+03 -0.45735857749E+02  0.25888235375E+03  0.00000000000E+00 0.  1.
          2    1    6    6  503    0  0.10273317286E+02  0.55878942558E+01  0.12492893061E+01  0.11761221622E+02  0.00000000000E+00 0. -1.
         -2    1    6    6    0  503  0.55316557384E+03  0.37540705983E+03 -0.66256222897E+03  0.94122862255E+03  0.00000000000E+00 0.  1.
<mgrwt>
<rscale>  0 0.15689479E+04</rscale>
<asrwt>0</asrwt>
<pdfrwt beam="1">  1        1 0.18627009E+00 0.15689479E+04</pdfrwt>
<pdfrwt beam="2">  1       -2 0.78196483E-01 0.15689479E+04</pdfrwt>
<totfact> 0.12881935E+01</totfact>
</mgrwt>
</event>
<event>
12    4  0.4280696E-008  0.1133078E+04  0.7818608E-02  0.9173538E-01
          1   -1    0    0  501    0  0.00000000000E+00  0.00000000000E+00  0.56701616853E+03  0.56701616853E+03  0.00000000000E+00 0. -1.
         -2   -1    0    0    0  501 -0.00000000000E+00 -0.00000000000E+00 -0.56606212980E+03  0.56606212980E+03  0.00000000000E+00 0.  1.
        -24    2    1    2    0    0  0.16629915671E+03 -0.96870133143E+02  0.13123640096E+02  0.20802919270E+03  0.77876073779E+02 0.  0.
        254    2    1    2    0    0 -0.16629915671E+03  0.96870133143E+02 -0.12169601356E+02  0.92504910563E+03  0.90472565809E+03 0.  0.
         23    2    4    4    0    0  0.27179980693E+03  0.31687657109E+03 -0.16417363372E+01  0.42679127065E+03  0.88669030968E+02 0.  0.
         23    2    4    4    0    0 -0.43809896365E+03 -0.22000643794E+03 -0.10527865019E+02  0.49825783498E+03  0.88410969283E+02 0.  0.
          1    1    3    3  502    0  0.72434636212E+01 -0.36506802298E+02  0.64524606243E+01  0.37773649908E+02  0.00000000000E+00 0. -1.
         -2    1    3    3    0  502  0.15905569309E+03 -0.60363330845E+02  0.66711794713E+01  0.17025554279E+03  0.00000000000E+00 0.  1.
         11    1    5    5    0    0  0.13603972901E+03  0.19626897532E+03  0.35517125951E+02  0.24143277487E+03  0.00000000000E+00 0. -1.
        -11    1    5    5    0    0  0.13576007792E+03  0.12060759577E+03 -0.37158862288E+02  0.18535849578E+03  0.00000000000E+00 0.  1.
          2    1    6    6  503    0 -0.26829435922E+03 -0.11643063037E+03  0.33985975036E+02  0.29443675276E+03  0.00000000000E+00 0.  1.
         -2    1    6    6    0  503 -0.16980460443E+03 -0.10357580758E+03 -0.44513840055E+02  0.20382108222E+03  0.00000000000E+00 0. -1.
<mgrwt>
<rscale>  0 0.11330779E+04</rscale>
<asrwt>0</asrwt>
<pdfrwt beam="1">  1        1 0.87233256E-01 0.11330779E+04</pdfrwt>
<pdfrwt beam="2">  1       -2 0.87086482E-01 0.11330779E+04</pdfrwt>
<totfact> 0.36853836E+01</totfact>
</mgrwt>
</event>
<event>
12    4  0.4280696E-008  0.1580928E+04  0.7818608E-02  0.8832351E-01
          1   -1    0    0  501    0  0.00000000000E+00  0.00000000000E+00  0.30274598510E+04  0.30274598510E+04  0.00000000000E+00 0. -1.
         -2   -1    0    0    0  501 -0.00000000000E+00 -0.00000000000E+00 -0.20638852937E+03  0.20638852937E+03  0.00000000000E+00 0.  1.
        -24    2    1    2    0    0  0.45761105780E+02  0.19236299832E+02 -0.12265168379E+03  0.15386078965E+03  0.78521290242E+02 0.  0.
        254    2    1    2    0    0 -0.45761105780E+02 -0.19236299832E+02  0.29437230054E+04  0.30799875907E+04  0.90462937845E+03 0.  0.
         23    2    4    4    0    0  0.38914144361E+03  0.14827762625E+03  0.12225811601E+04  0.12945704630E+04  0.88264788337E+02 0.  0.
         23    2    4    4    0    0 -0.43490254939E+03 -0.16751392608E+03  0.17211418452E+04  0.17854171277E+04  0.90465052084E+02 0.  0.
          1    1    3    3  502    0  0.17111134679E+02 -0.30794519138E+02 -0.45239919597E+02  0.57338849518E+02  0.00000000000E+00 0. -1.
         -2    1    3    3    0  502  0.28649971101E+02  0.50030818970E+02 -0.77411764193E+02  0.96521940130E+02  0.00000000000E+00 0.  1.
         11    1    5    5    0    0  0.35642706258E+03  0.14715564763E+03  0.10423390153E+04  0.11113800693E+04  0.00000000000E+00 0. -1.
        -11    1    5    5    0    0  0.32714381031E+02  0.11219786178E+01  0.18024214480E+03  0.18319039365E+03  0.00000000000E+00 0.  1.
          1    1    6    6  503    0 -0.25217349336E+03 -0.14058875626E+03  0.11137327347E+04  0.11505465108E+04  0.00000000000E+00 0. -1.
         -1    1    6    6    0  503 -0.18272905603E+03 -0.26925169818E+02  0.60740911054E+03  0.63487061694E+03  0.00000000000E+00 0.  1.
<mgrwt>
<rscale>  0 0.15809276E+04</rscale>
<asrwt>0</asrwt>
<pdfrwt beam="1">  1        1 0.46576302E+00 0.15809276E+04</pdfrwt>
<pdfrwt beam="2">  1       -2 0.31752084E-01 0.15809276E+04</pdfrwt>
<totfact> 0.44643832E+00</totfact>
</mgrwt>
</event>
<event>
12    4  0.4280696E-008  0.1233185E+04  0.7818608E-02  0.9084296E-01
         -2   -1    0    0    0  501 -0.00000000000E+00  0.00000000000E+00  0.13724230842E+03  0.13724230842E+03  0.00000000000E+00 0.  1.
          1   -1    0    0  501    0  0.00000000000E+00 -0.00000000000E+00 -0.27701808953E+04  0.27701808953E+04  0.00000000000E+00 0. -1.
        -24    2    1    2    0    0 -0.91271314837E+02  0.17668797624E+03 -0.10814705154E+04  0.11024927127E+04  0.79765981911E+02 0.  0.
        254    2    1    2    0    0  0.91271314837E+02 -0.17668797624E+03 -0.15514680714E+04  0.18049304910E+04  0.90065076858E+03 0.  0.
         23    2    4    4    0    0  0.47977769329E+03 -0.34616675219E+02 -0.69593930274E+03  0.85087857036E+03  0.90982851225E+02 0.  0.
         23    2    4    4    0    0 -0.38850637845E+03 -0.14207130103E+03 -0.85552876866E+03  0.95405192065E+03  0.84641199344E+02 0.  0.
          3    1    3    3  502    0  0.10513026599E+02  0.28912409260E+00 -0.60648985815E+02  0.61554096544E+02  0.00000000000E+00 0. -1.
         -4    1    3    3    0  502 -0.10178434144E+03  0.17639885215E+03 -0.10208215296E+04  0.10409386161E+04  0.00000000000E+00 0.  1.
         11    1    5    5    0    0  0.16206226178E+03 -0.44955439520E+02 -0.19405372351E+03  0.25679177526E+03  0.00000000000E+00 0. -1.
        -11    1    5    5    0    0  0.31771543151E+03  0.10338764301E+02 -0.50188557923E+03  0.59408679510E+03  0.00000000000E+00 0.  1.
          2    1    6    6  503    0 -0.87293882783E+02  0.29610679928E+01 -0.15756224106E+03  0.18015229586E+03  0.00000000000E+00 0. -1.
         -2    1    6    6    0  503 -0.30121249567E+03 -0.14503236902E+03 -0.69796652760E+03  0.77389962480E+03  0.00000000000E+00 0.  1.
<mgrwt>
<rscale>  0 0.12331845E+04</rscale>
<asrwt>0</asrwt>
<pdfrwt beam="1">  1        1 0.42618164E+00 0.12331845E+04</pdfrwt>
<pdfrwt beam="2">  1       -2 0.21114203E-01 0.12331845E+04</pdfrwt>
<totfact> 0.14867178E+01</totfact>
</mgrwt>
</event>
<event>
12    4  0.4280696E-008  0.2436992E+04  0.7818608E-02  0.8425783E-01
         -2   -1    0    0    0  501 -0.00000000000E+00  0.00000000000E+00  0.71081334713E+03  0.71081334713E+03  0.00000000000E+00 0.  1.
          1   -1    0    0  501    0  0.00000000000E+00 -0.00000000000E+00 -0.20887789086E+04  0.20887789086E+04  0.00000000000E+00 0. -1.
        -24    2    1    2    0    0 -0.16983927995E+03 -0.61506858997E+03  0.36185219819E+03  0.73839144648E+03  0.84440295552E+02 0.  0.
        254    2    1    2    0    0  0.16983927995E+03  0.61506858997E+03 -0.17398177596E+04  0.20612008092E+04  0.90245675122E+03 0.  0.
         23    2    4    4    0    0 -0.65587496326E+02  0.15100040048E+03 -0.14425890553E+04  0.14548018232E+04  0.91007261879E+02 0.  0.
         23    2    4    4    0    0  0.23542677627E+03  0.46406818949E+03 -0.29722870428E+03  0.60639898596E+03  0.92681044685E+02 0.  0.
          1    1    3    3  502    0 -0.76443727658E+02 -0.26661358837E+03  0.10976035116E+03  0.29828473593E+03  0.00000000000E+00 0. -1.
         -4    1    3    3    0  502 -0.93395552288E+02 -0.34845500160E+03  0.25209184704E+03  0.44010671055E+03  0.00000000000E+00 0.  1.
         11    1    5    5    0    0 -0.70604184606E+02  0.82418908852E+02 -0.11026250463E+04  0.11079529865E+04  0.00000000000E+00 0.  1.
        -11    1    5    5    0    0  0.50166882803E+01  0.68581491625E+02 -0.33996400900E+03  0.34684883678E+03  0.00000000000E+00 0. -1.
          2    1    6    6  503    0  0.66396379037E+02  0.23104053567E+03 -0.14527943978E+03  0.28088133419E+03  0.00000000000E+00 0. -1.
         -2    1    6    6    0  503  0.16903039723E+03  0.23302765382E+03 -0.15194926450E+03  0.32551765178E+03  0.00000000000E+00 0.  1.
<mgrwt>
<rscale>  0 0.24369915E+04</rscale>
<asrwt>0</asrwt>
<pdfrwt beam="1">  1        1 0.32135060E+00 0.24369915E+04</pdfrwt>
<pdfrwt beam="2">  1       -2 0.10935590E+00 0.24369915E+04</pdfrwt>
<totfact> 0.13566858E+00</totfact>
</mgrwt>
</event>
<event>
12    4  0.4280696E-008  0.2379566E+04  0.7818608E-02  0.8447194E-01
         -2   -1    0    0    0  501 -0.00000000000E+00  0.00000000000E+00  0.84278051752E+03  0.84278051752E+03  0.00000000000E+00 0.  1.
          1   -1    0    0  501    0  0.00000000000E+00 -0.00000000000E+00 -0.16796580972E+04  0.16796580972E+04  0.00000000000E+00 0. -1.
        -24    2    1    2    0    0 -0.10021567578E+04  0.42013454741E+02 -0.50371942027E+03  0.11252707620E+04  0.80110772718E+02 0.  0.
        254    2    1    2    0    0  0.10021567578E+04 -0.42013454741E+02 -0.33315815941E+03  0.13971678527E+04  0.91378353665E+03 0.  0.
         23    2    4    4    0    0  0.24919829929E+03  0.32753115584E+03 -0.35742920737E+03  0.55260559896E+03  0.90779178830E+02 0.  0.
         23    2    4    4    0    0  0.75295845852E+03 -0.36954461058E+03  0.24271047957E+02  0.84456225374E+03  0.95847051178E+02 0.  0.
          1    1    3    3  502    0 -0.51333315995E+03  0.35790336577E+02 -0.30012336592E+03  0.59570623303E+03  0.00000000000E+00 0. -1.
         -2    1    3    3    0  502 -0.48882359786E+03  0.62231181645E+01 -0.20359605435E+03  0.52956452899E+03  0.00000000000E+00 0.  1.
         11    1    5    5    0    0  0.17200483162E+02  0.80654777358E+02 -0.76827563385E+02  0.11270991184E+03  0.00000000000E+00 0. -1.
        -11    1    5    5    0    0  0.23199781613E+03  0.24687637848E+03 -0.28060164398E+03  0.43989568712E+03  0.00000000000E+00 0.  1.
          2    1    6    6  503    0  0.40334607245E+03 -0.22407660842E+03  0.54866803943E+02  0.46465981834E+03  0.00000000000E+00 0. -1.
         -2    1    6    6    0  503  0.34961238607E+03 -0.14546800216E+03 -0.30595755986E+02  0.37990243541E+03  0.00000000000E+00 0.  1.
<mgrwt>
<rscale>  0 0.23795656E+04</rscale>
<asrwt>0</asrwt>
<pdfrwt beam="1">  1        1 0.25840894E+00 0.23795656E+04</pdfrwt>
<pdfrwt beam="2">  1       -2 0.12965854E+00 0.23795656E+04</pdfrwt>
<totfact> 0.16963450E+00</totfact>
</mgrwt>
</event>
<event>
12    4  0.4280696E-008  0.1498252E+04  0.7818608E-02  0.8885616E-01
          1   -1    0    0  501    0  0.00000000000E+00  0.00000000000E+00  0.48393742666E+03  0.48393742666E+03  0.00000000000E+00 0. -1.
         -2   -1    0    0    0  501 -0.00000000000E+00 -0.00000000000E+00 -0.11596334027E+04  0.11596334027E+04  0.00000000000E+00 0.  1.
        -24    2    1    2    0    0 -0.69877128595E+02 -0.28629906153E+03 -0.60435288638E+03  0.67707822571E+03  0.79640107499E+02 0.  0.
        254    2    1    2    0    0  0.69877128595E+02  0.28629906153E+03 -0.71343089705E+02  0.96649260369E+03  0.91769719995E+03 0.  0.
         23    2    4    4    0    0  0.21845774432E+03  0.56927449754E+03  0.31881742922E+02  0.61830234023E+03  0.97386337851E+02 0.  0.
         23    2    4    4    0    0 -0.14858061572E+03 -0.28297543601E+03 -0.10322483263E+03  0.34819026346E+03  0.91813924561E+02 0.  0.
          3    1    3    3  502    0  0.91175161311E+01 -0.11769403450E+02 -0.10909437192E+02  0.18457079341E+02  0.00000000000E+00 0. -1.
         -4    1    3    3    0  502 -0.78994644726E+02 -0.27452965808E+03 -0.59344344919E+03  0.65862114637E+03  0.00000000000E+00 0.  1.
         11    1    5    5    0    0  0.25519902095E+02  0.14194732654E+02 -0.43840706304E+01  0.29529238279E+02  0.00000000000E+00 0. -1.
        -11    1    5    5    0    0  0.19293784222E+03  0.55507976489E+03  0.36265813552E+02  0.58877310195E+03  0.00000000000E+00 0.  1.
          2    1    6    6  503    0 -0.12391415364E+03 -0.20163736212E+03 -0.35090934284E+02  0.23925659226E+03  0.00000000000E+00 0. -1.
         -2    1    6    6    0  503 -0.24666462084E+02 -0.81338073893E+02 -0.68133898343E+02  0.10893367119E+03  0.00000000000E+00 0.  1.
<mgrwt>
<rscale>  0 0.14982523E+04</rscale>
<asrwt>0</asrwt>
<pdfrwt beam="1">  1        1 0.74451912E-01 0.14982523E+04</pdfrwt>
<pdfrwt beam="2">  1       -2 0.17840514E+00 0.14982523E+04</pdfrwt>
<totfact> 0.72889791E+00</totfact>
</mgrwt>
</event>
<event>
12    4  0.4280696E-008  0.1596348E+04  0.7818608E-02  0.8822795E-01
         -2   -1    0    0    0  501 -0.00000000000E+00  0.00000000000E+00  0.82620559206E+03  0.82620559206E+03  0.00000000000E+00 0.  1.
          1   -1    0    0  501    0  0.00000000000E+00 -0.00000000000E+00 -0.77109371198E+03  0.77109371198E+03  0.00000000000E+00 0. -1.
        -24    2    1    2    0    0 -0.18169040813E+03 -0.49897840897E+03  0.71836719755E+02  0.54212118631E+03  0.82121917386E+02 0.  0.
        254    2    1    2    0    0  0.18169040813E+03  0.49897840897E+03 -0.16724839674E+02  0.10551781177E+04  0.91166347018E+03 0.  0.
         23    2    4    4    0    0  0.47090544023E+03  0.16272404008E+02  0.42820099056E+02  0.48193036309E+03  0.91687453939E+02 0.  0.
         23    2    4    4    0    0 -0.28921503210E+03  0.48270600496E+03 -0.59544938729E+02  0.57324775465E+03  0.91744026865E+02 0.  0.
          1    1    3    3  502    0 -0.57635659267E+01 -0.21415108753E+02 -0.13669001748E+02  0.26051241503E+02  0.00000000000E+00 0. -1.
         -4    1    3    3    0  502 -0.17592684220E+03 -0.47756330022E+03  0.85505721503E+02  0.51606994480E+03  0.00000000000E+00 0.  1.
         11    1    5    5    0    0  0.24213871141E+03 -0.35755310885E+02  0.93149481808E+01  0.24494155645E+03  0.00000000000E+00 0. -1.
        -11    1    5    5    0    0  0.22876672882E+03  0.52027714894E+02  0.33505150875E+02  0.23698880663E+03  0.00000000000E+00 0.  1.
          3    1    6    6  503    0 -0.13173521034E+03  0.24184906423E+03  0.15555389082E+02  0.27583891249E+03  0.00000000000E+00 0. -1.
         -3    1    6    6    0  503 -0.15747982176E+03  0.24085694073E+03 -0.75100327811E+02  0.29740884216E+03  0.00000000000E+00 0.  1.
<mgrwt>
<rscale>  0 0.15963483E+04</rscale>
<asrwt>0</asrwt>
<pdfrwt beam="1">  1        1 0.11862980E+00 0.15963483E+04</pdfrwt>
<pdfrwt beam="2">  1       -2 0.12710855E+00 0.15963483E+04</pdfrwt>
<totfact> 0.90596164E+00</totfact>
</mgrwt>
</event>
<event>
12    4  0.4280696E-008  0.1289983E+04  0.7818608E-02  0.9037547E-01
         -2   -1    0    0    0  501 -0.00000000000E+00  0.00000000000E+00  0.16926907500E+04  0.16926907500E+04  0.00000000000E+00 0.  1.
          1   -1    0    0  501    0  0.00000000000E+00 -0.00000000000E+00 -0.24577077697E+03  0.24577077697E+03  0.00000000000E+00 0. -1.
        -24    2    1    2    0    0 -0.24478516214E+03 -0.21007672323E+03  0.53568524121E+03  0.63043456684E+03  0.80231291676E+02 0.  0.
        254    2    1    2    0    0  0.24478516214E+03  0.21007672323E+03  0.91123473179E+03  0.13080269601E+04  0.88121154481E+03 0.  0.
         23    2    4    4    0    0  0.34193354104E+03 -0.13330860640E+03  0.62586165691E+02  0.38295804083E+03  0.89722359919E+02 0.  0.
         23    2    4    4    0    0 -0.97148378896E+02  0.34338532963E+03  0.84864856610E+03  0.92506891928E+03  0.90536316207E+02 0.  0.
          3    1    3    3  502    0 -0.45080088061E+01 -0.14480117559E+01  0.47251342320E+02  0.47487979874E+02  0.00000000000E+00 0. -1.
         -4    1    3    3    0  502 -0.24027715334E+03 -0.20862871147E+03  0.48843389889E+03  0.58294658696E+03  0.00000000000E+00 0.  1.
         11    1    5    5    0    0  0.14772055735E+02 -0.29495192582E+02  0.15700195556E+02  0.36533219904E+02  0.00000000000E+00 0. -1.
        -11    1    5    5    0    0  0.32716148531E+03 -0.10381341382E+03  0.46885970135E+02  0.34642482092E+03  0.00000000000E+00 0.  1.
          2    1    6    6  503    0 -0.12995718960E+01  0.16124570584E+03  0.33768170306E+03  0.37420689347E+03  0.00000000000E+00 0. -1.
         -2    1    6    6    0  503 -0.95848807000E+02  0.18213962379E+03  0.51096686304E+03  0.55086202581E+03  0.00000000000E+00 0.  1.
<mgrwt>
<rscale>  0 0.12899828E+04</rscale>
<asrwt>0</asrwt>
<pdfrwt beam="1">  1        1 0.37810890E-01 0.12899828E+04</pdfrwt>
<pdfrwt beam="2">  1       -2 0.26041395E+00 0.12899828E+04</pdfrwt>
<totfact> 0.54246861E+00</totfact>
</mgrwt>
</event>
<event>
12    4  0.4280696E-008  0.1558505E+04  0.7818608E-02  0.8846454E-01
          1   -1    0    0  501    0  0.00000000000E+00  0.00000000000E+00  0.13716271207E+04  0.13716271207E+04  0.00000000000E+00 0. -1.
         -2   -1    0    0    0  501 -0.00000000000E+00 -0.00000000000E+00 -0.44271085973E+03  0.44271085973E+03  0.00000000000E+00 0.  1.
        -24    2    1    2    0    0 -0.30912879819E+03  0.14362944217E+03 -0.80607429950E+02  0.35914733225E+03  0.79367612840E+02 0.  0.
        254    2    1    2    0    0  0.30912879819E+03 -0.14362944217E+03  0.10095236909E+04  0.14551906482E+04  0.99108612616E+03 0.  0.
         23    2    4    4    0    0  0.11322155338E+03  0.16658476850E+03 -0.12871817262E+03  0.25596126553E+03  0.91532487385E+02 0.  0.
         23    2    4    4    0    0  0.19590724481E+03 -0.31021421067E+03  0.11382418635E+04  0.11992293826E+04  0.89129496853E+02 0.  0.
          1    1    3    3  502    0 -0.30526303522E+02 -0.89542437476E+01 -0.13097929377E+02  0.34403334748E+02  0.00000000000E+00 0. -1.
         -2    1    3    3    0  502 -0.27860249467E+03  0.15258368592E+03 -0.67509500573E+02  0.32474399750E+03  0.00000000000E+00 0.  1.
         11    1    5    5    0    0  0.12357175516E+03  0.15937082688E+03 -0.13416719320E+03  0.24221865094E+03  0.00000000000E+00 0.  1.
        -11    1    5    5    0    0 -0.10350201777E+02  0.72139416158E+01  0.54490205840E+01  0.13742614591E+02  0.00000000000E+00 0. -1.
          1    1    6    6  503    0  0.17746597682E+02 -0.25532381956E+02  0.20615570641E+03  0.20848745656E+03  0.00000000000E+00 0. -1.
         -1    1    6    6    0  503  0.17816064713E+03 -0.28468182871E+03  0.93208615712E+03  0.99074192608E+03  0.00000000000E+00 0.  1.
<mgrwt>
<rscale>  0 0.15585047E+04</rscale>
<asrwt>0</asrwt>
<pdfrwt beam="1">  1        1 0.21101956E+00 0.15585047E+04</pdfrwt>
<pdfrwt beam="2">  1       -2 0.68109363E-01 0.15585047E+04</pdfrwt>
<totfact> 0.13408586E+01</totfact>
</mgrwt>
</event>
<event>
12    4  0.4280696E-008  0.1530538E+04  0.7818608E-02  0.8864396E-01
         -2   -1    0    0    0  501 -0.00000000000E+00  0.00000000000E+00  0.40715985907E+03  0.40715985907E+03  0.00000000000E+00 0.  1.
          1   -1    0    0  501    0  0.00000000000E+00 -0.00000000000E+00 -0.14383450015E+04  0.14383450015E+04  0.00000000000E+00 0. -1.
        -24    2    1    2    0    0 -0.55499371120E+02 -0.28826247789E+03 -0.81865587884E+03  0.87379485003E+03  0.84525473214E+02 0.  0.
        254    2    1    2    0    0  0.55499371120E+02  0.28826247789E+03 -0.21252926354E+03  0.97171001049E+03  0.90159648417E+03 0.  0.
         23    2    4    4    0    0 -0.14955801704E+03  0.46217111801E+03 -0.39599640980E+03  0.63326837546E+03  0.90807136286E+02 0.  0.
         23    2    4    4    0    0  0.20505738816E+03 -0.17390864011E+03  0.18346714625E+03  0.33844163503E+03  0.92681168659E+02 0.  0.
          3    1    3    3  502    0 -0.56590413456E+02 -0.29229791546E+03 -0.81650832542E+03  0.86909515691E+03  0.00000000000E+00 0. -1.
         -4    1    3    3    0  502  0.10910423361E+01  0.40354375698E+01 -0.21475534224E+01  0.46996931241E+01  0.00000000000E+00 0.  1.
         11    1    5    5    0    0 -0.68250957314E+02  0.29308896707E+03 -0.28929248619E+03  0.41743200447E+03  0.00000000000E+00 0. -1.
        -11    1    5    5    0    0 -0.81307059721E+02  0.16908215094E+03 -0.10670392361E+03  0.21583637099E+03  0.00000000000E+00 0.  1.
          2    1    6    6  503    0  0.17332326188E+03 -0.14227818934E+03  0.18903853955E+03  0.29329099152E+03  0.00000000000E+00 0. -1.
         -2    1    6    6    0  503  0.31734126276E+02 -0.31630450773E+02 -0.55713932913E+01  0.45150643515E+02  0.00000000000E+00 0.  1.
<mgrwt>
<rscale>  0 0.15305376E+04</rscale>
<asrwt>0</asrwt>
<pdfrwt beam="1">  1        1 0.22128385E+00 0.15305376E+04</pdfrwt>
<pdfrwt beam="2">  1       -2 0.62639978E-01 0.15305376E+04</pdfrwt>
<totfact> 0.14449478E+01</totfact>
</mgrwt>
</event>
<event>
12    4  0.4280696E-008  0.1680847E+04  0.7818608E-02  0.8772364E-01
         -2   -1    0    0    0  501 -0.00000000000E+00  0.00000000000E+00  0.28172618867E+03  0.28172618867E+03  0.00000000000E+00 0.  1.
          1   -1    0    0  501    0  0.00000000000E+00 -0.00000000000E+00 -0.25070850386E+04  0.25070850386E+04  0.00000000000E+00 0. -1.
        -24    2    1    2    0    0 -0.64274265106E+02 -0.18317276106E+03 -0.17837627724E+04  0.17961316214E+04  0.81214108902E+02 0.  0.
        254    2    1    2    0    0  0.64274265106E+02  0.18317276106E+03 -0.44159607753E+03  0.99267960591E+03  0.86759567931E+03 0.  0.
         23    2    4    4    0    0  0.65025834926E+02 -0.32809249408E+03 -0.68797251787E+02  0.35348694304E+03  0.91361442487E+02 0.  0.
         23    2    4    4    0    0 -0.75156982024E+00  0.51126525514E+03 -0.37279882574E+03  0.63919266287E+03  0.90529386532E+02 0.  0.
          3    1    3    3  502    0 -0.82500189057E+02 -0.12891760901E+03 -0.12690243430E+04  0.12782209568E+04  0.00000000000E+00 0. -1.
         -4    1    3    3    0  502  0.18225923951E+02 -0.54255152053E+02 -0.51473842936E+03  0.51791066459E+03  0.00000000000E+00 0.  1.
         11    1    5    5    0    0  0.58702947158E+01 -0.15280480637E+03 -0.70714878412E+02  0.16847659552E+03  0.00000000000E+00 0.  1.
        -11    1    5    5    0    0  0.59155540210E+02 -0.17528768771E+03  0.19176266248E+01  0.18501034752E+03  0.00000000000E+00 0. -1.
          2    1    6    6  503    0  0.34469662079E+02  0.23958529018E+03 -0.21045135092E+03  0.32074762661E+03  0.00000000000E+00 0. -1.
         -2    1    6    6    0  503 -0.35221231899E+02  0.27167996496E+03 -0.16234747482E+03  0.31844503626E+03  0.00000000000E+00 0.  1.
<mgrwt>
<rscale>  0 0.16808468E+04</rscale>
<asrwt>0</asrwt>
<pdfrwt beam="1">  1        1 0.38570540E+00 0.16808468E+04</pdfrwt>
<pdfrwt beam="2">  1       -2 0.43342490E-01 0.16808468E+04</pdfrwt>
<totfact> 0.56684069E+00</totfact>
</mgrwt>
</event>
<event>
12    4  0.4280696E-008  0.2098392E+04  0.7818608E-02  0.8561952E-01
         -2   -1    0    0    0  501 -0.00000000000E+00  0.00000000000E+00  0.60118083765E+03  0.60118083765E+03  0.00000000000E+00 0.  1.
          1   -1    0    0  501    0  0.00000000000E+00 -0.00000000000E+00 -0.18310830173E+04  0.18310830173E+04  0.00000000000E+00 0. -1.
        -24    2    1    2    0    0 -0.45193335280E+03  0.71986697852E+03 -0.53463039219E+03  0.10074213952E+04  0.81338731181E+02 0.  0.
        254    2    1    2    0    0  0.45193335280E+03 -0.71986697852E+03 -0.69527178746E+03  0.14248424597E+04  0.90792122699E+03 0.  0.
         23    2    4    4    0    0  0.58148459957E+02 -0.67879990450E+03 -0.74780494713E+03  0.10157380405E+04  0.91438362682E+02 0.  0.
         23    2    4    4    0    0  0.39378489284E+03 -0.41067074023E+02  0.52533159678E+02  0.40910441923E+03  0.88620802135E+02 0.  0.
          1    1    3    3  502    0 -0.45252701464E+03  0.69800890808E+03 -0.52359097700E+03  0.98292657200E+03  0.00000000000E+00 0. -1.
         -2    1    3    3    0  502  0.59366184672E+00  0.21858070438E+02 -0.11039415189E+02  0.24494823237E+02  0.00000000000E+00 0.  1.
         11    1    5    5    0    0 -0.11758194635E+02 -0.21163158974E+03 -0.27723594119E+03  0.34897844061E+03  0.00000000000E+00 0. -1.
        -11    1    5    5    0    0  0.69906654592E+02 -0.46716831475E+03 -0.47056900594E+03  0.66675959987E+03  0.00000000000E+00 0.  1.
          1    1    6    6  503    0  0.14646289432E+03 -0.55839684188E+02  0.50188855575E+01  0.15682678009E+03  0.00000000000E+00 0. -1.
         -1    1    6    6    0  503  0.24732199852E+03  0.14772610164E+02  0.47514274120E+02  0.25227763914E+03  0.00000000000E+00 0.  1.
<mgrwt>
<rscale>  0 0.20983918E+04</rscale>
<asrwt>0</asrwt>
<pdfrwt beam="1">  1        1 0.28170508E+00 0.20983918E+04</pdfrwt>
<pdfrwt beam="2">  1       -2 0.92489360E-01 0.20983918E+04</pdfrwt>
<totfact> 0.31095758E+00</totfact>
</mgrwt>
</event>
<event>
12    4  0.4280696E-008  0.1652707E+04  0.7818608E-02  0.8788807E-01
          1   -1    0    0  501    0  0.00000000000E+00  0.00000000000E+00  0.11778255078E+04  0.11778255078E+04  0.00000000000E+00 0. -1.
         -2   -1    0    0    0  501 -0.00000000000E+00 -0.00000000000E+00 -0.57976324538E+03  0.57976324538E+03  0.00000000000E+00 0.  1.
        -24    2    1    2    0    0 -0.56564907056E+03  0.98101989870E+02  0.27272373138E+03  0.64064048833E+03  0.80368714002E+02 0.  0.
        254    2    1    2    0    0  0.56564907056E+03 -0.98101989870E+02  0.32533853109E+03  0.11169482649E+04  0.90119109805E+03 0.  0.
         23    2    4    4    0    0  0.44933131511E+03  0.23520689840E+03 -0.13212985575E+03  0.53177377802E+03  0.90022977166E+02 0.  0.
         23    2    4    4    0    0  0.11631775545E+03 -0.33330888827E+03  0.45746838684E+03  0.58517448688E+03  0.92342947199E+02 0.  0.
          1    1    3    3  502    0 -0.29631600181E+03  0.76850146453E+02  0.17935225336E+03  0.35479057023E+03  0.00000000000E+00 0. -1.
         -2    1    3    3    0  502 -0.26933306875E+03  0.21251843417E+02  0.93371478015E+02  0.28584991810E+03  0.00000000000E+00 0.  1.
         11    1    5    5    0    0  0.41072253703E+03  0.22500365553E+03 -0.14427140200E+03  0.49003457517E+03  0.00000000000E+00 0. -1.
        -11    1    5    5    0    0  0.38608778076E+02  0.10203242873E+02  0.12141546242E+02  0.41739202853E+02  0.00000000000E+00 0.  1.
          3    1    6    6  503    0  0.37774381279E+02 -0.21990762417E+03  0.32266214584E+03  0.39229724369E+03  0.00000000000E+00 0. -1.
         -3    1    6    6    0  503  0.78543374171E+02 -0.11340126410E+03  0.13480624100E+03  0.19287724319E+03  0.00000000000E+00 0.  1.
<mgrwt>
<rscale>  0 0.16527068E+04</rscale>
<asrwt>0</asrwt>
<pdfrwt beam="1">  1        1 0.18120392E+00 0.16527068E+04</pdfrwt>
<pdfrwt beam="2">  1       -2 0.89194346E-01 0.16527068E+04</pdfrwt>
<totfact> 0.10029907E+01</totfact>
</mgrwt>
</event>
<event>
12    4  0.4280696E-008  0.2512422E+04  0.7818608E-02  0.8398573E-01
          1   -1    0    0  501    0  0.00000000000E+00  0.00000000000E+00  0.78749774692E+03  0.78749774692E+03  0.00000000000E+00 0. -1.
         -2   -1    0    0    0  501 -0.00000000000E+00 -0.00000000000E+00 -0.20038994431E+04  0.20038994431E+04  0.00000000000E+00 0.  1.
        -24    2    1    2    0    0 -0.96398989894E+03 -0.23336091796E+02 -0.10945795792E+04  0.14611262652E+04  0.83453037073E+02 0.  0.
        254    2    1    2    0    0  0.96398989894E+03  0.23336091796E+02 -0.12182211700E+03  0.13302709248E+04  0.90827253985E+03 0.  0.
         23    2    4    4    0    0  0.66385709596E+03  0.44045616677E+03 -0.55185146660E+02  0.80407653227E+03  0.93732548416E+02 0.  0.
         23    2    4    4    0    0  0.30013280298E+03 -0.41712007497E+03 -0.66636970336E+02  0.52619439250E+03  0.91494243024E+02 0.  0.
          3    1    3    3  502    0 -0.12045950251E+03 -0.59289288660E+00 -0.18146875672E+03  0.21781127824E+03  0.00000000000E+00 0. -1.
         -4    1    3    3    0  502 -0.84353039643E+03 -0.22743198910E+02 -0.91311082244E+03  0.12433149870E+04  0.00000000000E+00 0.  1.
         11    1    5    5    0    0  0.10478510415E+03  0.42749405991E+02  0.15995761747E+02  0.11429476872E+03  0.00000000000E+00 0.  1.
        -11    1    5    5    0    0  0.55907199181E+03  0.39770676078E+03 -0.71180908407E+02  0.68978176354E+03  0.00000000000E+00 0. -1.
          1    1    6    6  503    0  0.28908218679E+03 -0.40780824031E+03 -0.80326508522E+02  0.50628886968E+03  0.00000000000E+00 0. -1.
         -1    1    6    6    0  503  0.11050616194E+02 -0.93118346605E+01  0.13689538186E+02  0.19905522820E+02  0.00000000000E+00 0.  1.
<mgrwt>
<rscale>  0 0.25124222E+04</rscale>
<asrwt>0</asrwt>
<pdfrwt beam="1">  1        1 0.12115350E+00 0.25124222E+04</pdfrwt>
<pdfrwt beam="2">  1       -2 0.30829222E+00 0.25124222E+04</pdfrwt>
<totfact> 0.49888465E-01</totfact>
</mgrwt>
</event>
<event>
12    4  0.4280696E-008  0.1029554E+04  0.7818608E-02  0.9276712E-01
          1   -1    0    0  501    0  0.00000000000E+00  0.00000000000E+00  0.12034589582E+04  0.12034589582E+04  0.00000000000E+00 0. -1.
         -2   -1    0    0    0  501 -0.00000000000E+00 -0.00000000000E+00 -0.22019467885E+03  0.22019467885E+03  0.00000000000E+00 0.  1.
        -24    2    1    2    0    0  0.35485564960E+02 -0.65432518154E+02  0.27450701828E+02  0.11262368079E+03  0.79936929464E+02 0.  0.
        254    2    1    2    0    0 -0.35485564960E+02  0.65432518154E+02  0.95581357750E+03  0.13110299562E+04  0.89424790269E+03 0.  0.
         23    2    4    4    0    0  0.39654781203E+03 -0.26124596444E+02  0.26511118653E+03  0.48627026525E+03  0.90786386013E+02 0.  0.
         23    2    4    4    0    0 -0.43203337699E+03  0.91557114597E+02  0.69070239098E+03  0.82475969099E+03  0.90128857291E+02 0.  0.
          1    1    3    3  502    0  0.12643265184E+02 -0.78511277438E+02  0.32348276997E+02  0.85850357390E+02  0.00000000000E+00 0. -1.
         -2    1    3    3    0  502  0.22842299776E+02  0.13078759284E+02 -0.48975751684E+01  0.26773323403E+02  0.00000000000E+00 0.  1.
         11    1    5    5    0    0  0.14918721966E+03 -0.53650696914E+02  0.11093012503E+03  0.19349603724E+03  0.00000000000E+00 0.  1.
        -11    1    5    5    0    0  0.24736059237E+03  0.27526100470E+02  0.15418106149E+03  0.29277422801E+03  0.00000000000E+00 0. -1.
          3    1    6    6  503    0 -0.41780095357E+03  0.74531967704E+02  0.67587106089E+03  0.79806913357E+03  0.00000000000E+00 0. -1.
         -3    1    6    6    0  503 -0.14232423419E+02  0.17025146894E+02  0.14831330087E+02  0.26690557418E+02  0.00000000000E+00 0.  1.
<mgrwt>
<rscale>  0 0.10295538E+04</rscale>
<asrwt>0</asrwt>
<pdfrwt beam="1">  1        1 0.18514753E+00 0.10295538E+04</pdfrwt>
<pdfrwt beam="2">  1       -2 0.33876105E-01 0.10295538E+04</pdfrwt>
<totfact> 0.75992280E+01</totfact>
</mgrwt>
</event>
<event>
12    4  0.4280696E-008  0.1692040E+04  0.7818608E-02  0.8765917E-01
          1   -1    0    0  501    0  0.00000000000E+00  0.00000000000E+00  0.35140891471E+03  0.35140891471E+03  0.00000000000E+00 0. -1.
         -2   -1    0    0    0  501 -0.00000000000E+00 -0.00000000000E+00 -0.20367996436E+04  0.20367996436E+04  0.00000000000E+00 0.  1.
        -24    2    1    2    0    0 -0.38455738620E+03  0.41555203820E+03 -0.86511255194E+03  0.10368732305E+04  0.78220769516E+02 0.  0.
        254    2    1    2    0    0  0.38455738620E+03 -0.41555203820E+03 -0.82027817689E+03  0.13513353278E+04  0.91251465794E+03 0.  0.
         23    2    4    4    0    0 -0.22442106966E+03 -0.38907330980E+03 -0.34170414081E+03  0.57170831424E+03  0.91355458646E+02 0.  0.
         23    2    4    4    0    0  0.60897845586E+03 -0.26478728401E+02 -0.47857403608E+03  0.77962701356E+03  0.85025228602E+02 0.  0.
          3    1    3    3  502    0 -0.27825662028E+03  0.28617104673E+03 -0.66871767469E+03  0.77878363052E+03  0.00000000000E+00 0. -1.
         -4    1    3    3    0  502 -0.10630076592E+03  0.12938099146E+03 -0.19639487725E+03  0.25808959994E+03  0.00000000000E+00 0.  1.
         11    1    5    5    0    0  0.44513377736E+01  0.82731046761E-01 -0.11610544287E+02  0.12434869965E+02  0.00000000000E+00 0. -1.
        -11    1    5    5    0    0 -0.22887240743E+03 -0.38915604084E+03 -0.33009359652E+03  0.55927344428E+03  0.00000000000E+00 0.  1.
          3    1    6    6  503    0  0.67516748968E+02 -0.29369371060E+02 -0.66134015584E+02  0.98968577665E+02  0.00000000000E+00 0. -1.
         -3    1    6    6    0  503  0.54146170689E+03  0.28906426584E+01 -0.41244002050E+03  0.68065843590E+03  0.00000000000E+00 0.  1.
<mgrwt>
<rscale>  0 0.16920397E+04</rscale>
<asrwt>0</asrwt>
<pdfrwt beam="1">  1        1 0.54062910E-01 0.16920397E+04</pdfrwt>
<pdfrwt beam="2">  1       -2 0.31335379E+00 0.16920397E+04</pdfrwt>
<totfact> 0.15650251E+00</totfact>
</mgrwt>
</event>
<event>
12    4  0.4280696E-008  0.2357428E+04  0.7818608E-02  0.8455616E-01
         -2   -1    0    0    0  501 -0.00000000000E+00  0.00000000000E+00  0.59288758341E+03  0.59288758341E+03  0.00000000000E+00 0.  1.
          1   -1    0    0  501    0  0.00000000000E+00 -0.00000000000E+00 -0.23433889046E+04  0.23433889046E+04  0.00000000000E+00 0. -1.
        -24    2    1    2    0    0 -0.15913912038E+03 -0.95671470827E+03 -0.43194912705E+03  0.10647416134E+04  0.80413694963E+02 0.  0.
        254    2    1    2    0    0  0.15913912038E+03  0.95671470827E+03 -0.13185521942E+04  0.18715348746E+04  0.90743297575E+03 0.  0.
         23    2    4    4    0    0  0.44833462352E+03  0.82259991709E+03 -0.71189910539E+03  0.11801656518E+04  0.91192495825E+02 0.  0.
         23    2    4    4    0    0 -0.28919550314E+03  0.13411479117E+03 -0.60665308876E+03  0.69136922275E+03  0.91337921018E+02 0.  0.
          1    1    3    3  502    0 -0.53463370752E+02 -0.20818629892E+03 -0.65819707372E+02  0.22479346287E+03  0.00000000000E+00 0. -1.
         -2    1    3    3    0  502 -0.10567574963E+03 -0.74852840935E+03 -0.36612941968E+03  0.83994815055E+03  0.00000000000E+00 0.  1.
         11    1    5    5    0    0  0.74608758780E+02  0.13797102613E+03 -0.16425408384E+03  0.22711643489E+03  0.00000000000E+00 0.  1.
        -11    1    5    5    0    0  0.37372586474E+03  0.68462889096E+03 -0.54764502155E+03  0.95304921696E+03  0.00000000000E+00 0. -1.
          2    1    6    6  503    0 -0.22792099957E+03  0.60472860495E+02 -0.43151064248E+03  0.49173812489E+03  0.00000000000E+00 0. -1.
         -2    1    6    6    0  503 -0.61274503566E+02  0.73641930677E+02 -0.17514244628E+03  0.19963109786E+03  0.00000000000E+00 0.  1.
<mgrwt>
<rscale>  0 0.23574276E+04</rscale>
<asrwt>0</asrwt>
<pdfrwt beam="1">  1        1 0.36052137E+00 0.23574276E+04</pdfrwt>
<pdfrwt beam="2">  1       -2 0.91213473E-01 0.23574276E+04</pdfrwt>
<totfact> 0.14072541E+00</totfact>
</mgrwt>
</event>
<event>
12    4  0.4280696E-008  0.1445165E+04  0.7818608E-02  0.8921759E-01
          1   -1    0    0  501    0  0.00000000000E+00  0.00000000000E+00  0.24131166225E+04  0.24131166225E+04  0.00000000000E+00 0. -1.
         -2   -1    0    0    0  501 -0.00000000000E+00 -0.00000000000E+00 -0.21636975226E+03  0.21636975226E+03  0.00000000000E+00 0.  1.
        -24    2    1    2    0    0 -0.13972661396E+03 -0.22286796784E+03  0.13248781311E+04  0.13531077499E+04  0.80030386863E+02 0.  0.
        254    2    1    2    0    0  0.13972661396E+03  0.22286796784E+03  0.87186873916E+03  0.12763786249E+04  0.89431182370E+03 0.  0.
         23    2    4    4    0    0  0.34314644802E+03  0.42897580517E+02  0.91864762454E+03  0.98570941716E+03  0.90110542137E+02 0.  0.
         23    2    4    4    0    0 -0.20341983406E+03  0.17997038732E+03 -0.46778885377E+02  0.29066920773E+03  0.92365334427E+02 0.  0.
          3    1    3    3  502    0 -0.98280804796E+02 -0.11709882720E+03  0.91912981367E+03  0.93175687081E+03  0.00000000000E+00 0. -1.
         -4    1    3    3    0  502 -0.41445809162E+02 -0.10576914064E+03  0.40574831740E+03  0.42135087906E+03  0.00000000000E+00 0.  1.
         11    1    5    5    0    0  0.23227784772E+03  0.62383861139E+02  0.55072519829E+03  0.60095173575E+03  0.00000000000E+00 0.  1.
        -11    1    5    5    0    0  0.11086860029E+03 -0.19486280622E+02  0.36792242625E+03  0.38475768141E+03  0.00000000000E+00 0. -1.
          2    1    6    6  503    0 -0.15387922458E+03  0.17095060063E+03 -0.13685624908E+02  0.23041315054E+03  0.00000000000E+00 0. -1.
         -2    1    6    6    0  503 -0.49540609476E+02  0.90197866910E+01 -0.33093260468E+02  0.60256057186E+02  0.00000000000E+00 0.  1.
<mgrwt>
<rscale>  0 0.14451650E+04</rscale>
<asrwt>0</asrwt>
<pdfrwt beam="1">  1        1 0.37124869E+00 0.14451650E+04</pdfrwt>
<pdfrwt beam="2">  1       -2 0.33287656E-01 0.14451650E+04</pdfrwt>
<totfact> 0.11218832E+01</totfact>
</mgrwt>
</event>
<event>
12    4  0.4280696E-008  0.3213074E+04  0.7818608E-02  0.8185373E-01
         -2   -1    0    0    0  501 -0.00000000000E+00  0.00000000000E+00  0.12908398515E+04  0.12908398515E+04  0.00000000000E+00 0.  1.
          1   -1    0    0  501    0  0.00000000000E+00 -0.00000000000E+00 -0.19994435298E+04  0.19994435298E+04  0.00000000000E+00 0. -1.
        -24    2    1    2    0    0  0.46858641592E+03  0.30146633834E+03 -0.17418077530E+04  0.18305293536E+04  0.80549882646E+02 0.  0.
        254    2    1    2    0    0 -0.46858641592E+03 -0.30146633834E+03  0.10332040746E+04  0.14597540278E+04  0.86770731206E+03 0.  0.
         23    2    4    4    0    0 -0.36622824791E+03  0.22978501638E+03  0.26113518018E+03  0.51233970789E+03  0.85884286330E+02 0.  0.
         23    2    4    4    0    0 -0.10235816801E+03 -0.53125135472E+03  0.77206889443E+03  0.94741431986E+03  0.93799356469E+02 0.  0.
          3    1    3    3  502    0  0.47146047153E+03  0.30004067882E+03 -0.17205426446E+04  0.18090235977E+04  0.00000000000E+00 0. -1.
         -4    1    3    3    0  502 -0.28740556189E+01  0.14256595264E+01 -0.21265108392E+02  0.21505755874E+02  0.00000000000E+00 0.  1.
         11    1    5    5    0    0 -0.20372608818E+03  0.10257781966E+03  0.93698595020E+02  0.24658863478E+03  0.00000000000E+00 0.  1.
        -11    1    5    5    0    0 -0.16250215973E+03  0.12720719671E+03  0.16743658516E+03  0.26575107311E+03  0.00000000000E+00 0. -1.
          1    1    6    6  503    0 -0.29527769373E+02 -0.51513374815E+02  0.50951256406E+02  0.78240318751E+02  0.00000000000E+00 0. -1.
         -1    1    6    6    0  503 -0.72830398634E+02 -0.47973797990E+03  0.72111763803E+03  0.86917400111E+03  0.00000000000E+00 0.  1.
<mgrwt>
<rscale>  0 0.32130742E+04</rscale>
<asrwt>0</asrwt>
<pdfrwt beam="1">  1        1 0.30760670E+00 0.32130742E+04</pdfrwt>
<pdfrwt beam="2">  1       -2 0.19859075E+00 0.32130742E+04</pdfrwt>
<totfact> 0.29777641E-01</totfact>
</mgrwt>
</event>
<event>
12    4  0.4280696E-008  0.2089734E+04  0.7818608E-02  0.8565779E-01
         -2   -1    0    0    0  501 -0.00000000000E+00  0.00000000000E+00  0.48067189847E+03  0.48067189847E+03  0.00000000000E+00 0.  1.
          1   -1    0    0  501    0  0.00000000000E+00 -0.00000000000E+00 -0.22712930296E+04  0.22712930296E+04  0.00000000000E+00 0. -1.
        -24    2    1    2    0    0  0.29618409612E+03 -0.79286796445E+03 -0.82704926924E+03  0.11858804181E+04  0.77053516996E+02 0.  0.
        254    2    1    2    0    0 -0.29618409612E+03  0.79286796445E+03 -0.96357186188E+03  0.15660845099E+04  0.89876878640E+03 0.  0.
         23    2    4    4    0    0  0.23904107483E+02  0.43177582856E+03  0.44188275151E+02  0.44424825501E+03  0.91663165635E+02 0.  0.
         23    2    4    4    0    0 -0.32008820360E+03  0.36109213589E+03 -0.10077601370E+04  0.11218362549E+04  0.10045944648E+03 0.  0.
          1    1    3    3  502    0  0.18178352137E+03 -0.47368269251E+03 -0.44276766382E+03  0.67339716806E+03  0.00000000000E+00 0. -1.
         -2    1    3    3    0  502  0.11440057475E+03 -0.31918527193E+03 -0.38428160543E+03  0.51248325006E+03  0.00000000000E+00 0.  1.
         11    1    5    5    0    0 -0.17979172742E+02  0.30473208531E+02  0.18556442434E+02  0.39952579973E+02  0.00000000000E+00 0.  1.
        -11    1    5    5    0    0  0.41883280224E+02  0.40130262003E+03  0.25631832717E+02  0.40429567504E+03  0.00000000000E+00 0. -1.
          3    1    6    6  503    0 -0.30141782915E+03  0.36373779741E+03 -0.98386011888E+03  0.10913929753E+04  0.00000000000E+00 0. -1.
         -3    1    6    6    0  503 -0.18670374452E+02 -0.26456615244E+01 -0.23900018150E+02  0.30443279630E+02  0.00000000000E+00 0.  1.
<mgrwt>
<rscale>  0 0.20897337E+04</rscale>
<asrwt>0</asrwt>
<pdfrwt beam="1">  1        1 0.34942970E+00 0.20897337E+04</pdfrwt>
<pdfrwt beam="2">  1       -2 0.73949523E-01 0.20897337E+04</pdfrwt>
<totfact> 0.25944970E+00</totfact>
</mgrwt>
</event>
<event>
12    4  0.4280696E-008  0.1140701E+04  0.7818608E-02  0.9166405E-01
         -2   -1    0    0    0  501 -0.00000000000E+00  0.00000000000E+00  0.24983971920E+03  0.24983971920E+03  0.00000000000E+00 0.  1.
          1   -1    0    0  501    0  0.00000000000E+00 -0.00000000000E+00 -0.13020337899E+04  0.13020337899E+04  0.00000000000E+00 0. -1.
        -24    2    1    2    0    0  0.22359262733E+02  0.27937448155E+01 -0.47425442794E+03  0.48126325259E+03  0.78672194830E+02 0.  0.
        254    2    1    2    0    0 -0.22359262733E+02 -0.27937448155E+01 -0.57793964271E+03  0.10706102565E+04  0.90093526348E+03 0.  0.
         23    2    4    4    0    0 -0.13336255763E+03  0.28244787536E+03 -0.66313956280E+03  0.74012119956E+03  0.10228849503E+03 0.  0.
         23    2    4    4    0    0  0.11100329490E+03 -0.28524162017E+03  0.85199920089E+02  0.33048905690E+03  0.90991631444E+02 0.  0.
          1    1    3    3  502    0  0.18618315779E+02 -0.16531507119E+02 -0.44673694604E+03  0.44743025308E+03  0.00000000000E+00 0. -1.
         -2    1    3    3    0  502  0.37409469537E+01  0.19325251935E+02 -0.27517481896E+02  0.33832999517E+02  0.00000000000E+00 0.  1.
         11    1    5    5    0    0 -0.10929494528E+03  0.21544045507E+03 -0.39791650716E+03  0.46550781026E+03  0.00000000000E+00 0. -1.
        -11    1    5    5    0    0 -0.24067612353E+02  0.67007420284E+02 -0.26522305564E+03  0.27461338930E+03  0.00000000000E+00 0.  1.
          1    1    6    6  503    0  0.66039607470E+02 -0.16819895354E+03  0.33017137533E+01  0.18072913169E+03  0.00000000000E+00 0. -1.
         -1    1    6    6    0  503  0.44963687427E+02 -0.11704266663E+03  0.81898206335E+02  0.14975992521E+03  0.00000000000E+00 0.  1.
<mgrwt>
<rscale>  0 0.11407011E+04</rscale>
<asrwt>0</asrwt>
<pdfrwt beam="1">  1        1 0.20031289E+00 0.11407011E+04</pdfrwt>
<pdfrwt beam="2">  1       -2 0.38436880E-01 0.11407011E+04</pdfrwt>
<totfact> 0.50228569E+01</totfact>
</mgrwt>
</event>
<event>
12    4  0.4280696E-008  0.1628649E+04  0.7818608E-02  0.8803138E-01
          1   -1    0    0  501    0  0.00000000000E+00  0.00000000000E+00  0.13204902272E+04  0.13204902272E+04  0.00000000000E+00 0. -1.
         -2   -1    0    0    0  501 -0.00000000000E+00 -0.00000000000E+00 -0.50218066633E+03  0.50218066633E+03  0.00000000000E+00 0.  1.
        -24    2    1    2    0    0 -0.10441244875E+03  0.54975217150E+03  0.29795745845E+03  0.63900675235E+03  0.80134717687E+02 0.  0.
        254    2    1    2    0    0  0.10441244875E+03 -0.54975217150E+03  0.52035210241E+03  0.11836641412E+04  0.90397183535E+03 0.  0.
         23    2    4    4    0    0 -0.37177062139E+02 -0.22421349801E+03 -0.23826657586E+03  0.34096758357E+03  0.88510480933E+02 0.  0.
         23    2    4    4    0    0  0.14158951088E+03 -0.32553867349E+03  0.75861867827E+03  0.84269655761E+03  0.92801786949E+02 0.  0.
          1    1    3    3  502    0 -0.61094100771E+02  0.13798678416E+03  0.89537576681E+02  0.17547028065E+03  0.00000000000E+00 0. -1.
         -2    1    3    3    0  502 -0.43318347975E+02  0.41176538734E+03  0.20841988177E+03  0.46353647170E+03  0.00000000000E+00 0.  1.
         11    1    5    5    0    0 -0.47537600696E+02 -0.16667792335E+03 -0.21926340977E+03  0.27949561083E+03  0.00000000000E+00 0. -1.
        -11    1    5    5    0    0  0.10360538557E+02 -0.57535574661E+02 -0.19003166092E+02  0.61471972738E+02  0.00000000000E+00 0.  1.
          1    1    6    6  503    0  0.15459535240E+03 -0.28339434901E+03  0.66647510439E+03  0.74054111622E+03  0.00000000000E+00 0. -1.
         -1    1    6    6    0  503 -0.13005841517E+02 -0.42144324477E+02  0.92143573874E+02  0.10215544139E+03  0.00000000000E+00 0.  1.
<mgrwt>
<rscale>  0 0.16286493E+04</rscale>
<asrwt>0</asrwt>
<pdfrwt beam="1">  1        1 0.20315234E+00 0.16286493E+04</pdfrwt>
<pdfrwt beam="2">  1       -2 0.77258565E-01 0.16286493E+04</pdfrwt>
<totfact> 0.10978180E+01</totfact>
</mgrwt>
</event>
<event>
12    4  0.4280696E-008  0.2190662E+04  0.7818608E-02  0.8522325E-01
         -2   -1    0    0    0  501 -0.00000000000E+00  0.00000000000E+00  0.11420977223E+04  0.11420977223E+04  0.00000000000E+00 0.  1.
          1   -1    0    0  501    0  0.00000000000E+00 -0.00000000000E+00 -0.10504794354E+04  0.10504794354E+04  0.00000000000E+00 0. -1.
        -24    2    1    2    0    0 -0.14218757415E+03  0.44958735230E+03 -0.73348380023E+03  0.87564008527E+03  0.80006125646E+02 0.  0.
        254    2    1    2    0    0  0.14218757415E+03 -0.44958735230E+03  0.82510208707E+03  0.13169370724E+04  0.91169276900E+03 0.  0.
         23    2    4    4    0    0  0.40115038982E+03 -0.55258416996E+03  0.38824250806E+03  0.79090115104E+03  0.92311892515E+02 0.  0.
         23    2    4    4    0    0 -0.25896281567E+03  0.10299681766E+03  0.43685957901E+03  0.52603592139E+03  0.90539574049E+02 0.  0.
          1    1    3    3  502    0 -0.14253585049E+03  0.34399483997E+03 -0.58457362612E+03  0.69309107840E+03  0.00000000000E+00 0. -1.
         -2    1    3    3    0  502  0.34827633482E+00  0.10559251233E+03 -0.14891017411E+03  0.18254900687E+03  0.00000000000E+00 0.  1.
         11    1    5    5    0    0  0.36320990945E+03 -0.51473343486E+03  0.38248935572E+03  0.73700071541E+03  0.00000000000E+00 0.  1.
        -11    1    5    5    0    0  0.37940480369E+02 -0.37850735105E+02  0.57531523483E+01  0.53900435625E+02  0.00000000000E+00 0. -1.
          3    1    6    6  503    0 -0.10389789718E+03  0.18921072481E+01  0.20035454873E+03  0.22569957533E+03  0.00000000000E+00 0. -1.
         -3    1    6    6    0  503 -0.15506491849E+03  0.10110471042E+03  0.23650503028E+03  0.30033634605E+03  0.00000000000E+00 0.  1.
<mgrwt>
<rscale>  0 0.21906622E+04</rscale>
<asrwt>0</asrwt>
<pdfrwt beam="1">  1        1 0.16161222E+00 0.21906622E+04</pdfrwt>
<pdfrwt beam="2">  1       -2 0.17570734E+00 0.21906622E+04</pdfrwt>
<totfact> 0.21489235E+00</totfact>
</mgrwt>
</event>
<event>
12    4  0.4280696E-008  0.1581206E+04  0.7818608E-02  0.8832178E-01
         -2   -1    0    0    0  501 -0.00000000000E+00  0.00000000000E+00  0.40207635277E+03  0.40207635277E+03  0.00000000000E+00 0.  1.
          1   -1    0    0  501    0  0.00000000000E+00 -0.00000000000E+00 -0.15545637262E+04  0.15545637262E+04  0.00000000000E+00 0. -1.
        -24    2    1    2    0    0 -0.10710696878E+03 -0.40235990774E+03 -0.77787577904E+03  0.88587130925E+03  0.79447157396E+02 0.  0.
        254    2    1    2    0    0  0.10710696878E+03  0.40235990774E+03 -0.37461159444E+03  0.10707687698E+04  0.91260424801E+03 0.  0.
         23    2    4    4    0    0  0.11893941826E+03  0.50271653866E+03 -0.60638740372E+03  0.80195693063E+03  0.92513413843E+02 0.  0.
         23    2    4    4    0    0 -0.11832449479E+02 -0.10035663092E+03  0.23177580928E+03  0.26881183913E+03  0.91259623358E+02 0.  0.
          3    1    3    3  502    0 -0.85885574482E+02 -0.38675912494E+03 -0.74454657054E+03  0.84339110046E+03  0.00000000000E+00 0. -1.
         -2    1    3    3    0  502 -0.21221394296E+02 -0.15600782804E+02 -0.33329208499E+02  0.42480208793E+02  0.00000000000E+00 0.  1.
         11    1    5    5    0    0  0.12848087699E+03  0.43720545165E+03 -0.55526053170E+03  0.71831065756E+03  0.00000000000E+00 0. -1.
        -11    1    5    5    0    0 -0.95414587324E+01  0.65511087006E+02 -0.51126872021E+02  0.83646273068E+02  0.00000000000E+00 0.  1.
          1    1    6    6  503    0  0.27303161806E+02 -0.68341965324E+02  0.18814837097E+03  0.20202944431E+03  0.00000000000E+00 0. -1.
         -1    1    6    6    0  503 -0.39135611285E+02 -0.32014665592E+02  0.43627438313E+02  0.66782394816E+02  0.00000000000E+00 0.  1.
<mgrwt>
<rscale>  0 0.15812063E+04</rscale>
<asrwt>0</asrwt>
<pdfrwt beam="1">  1        1 0.23916365E+00 0.15812063E+04</pdfrwt>
<pdfrwt beam="2">  1       -2 0.61857901E-01 0.15812063E+04</pdfrwt>
<totfact> 0.12276870E+01</totfact>
</mgrwt>
</event>
<event>
12    4  0.4280696E-008  0.1269880E+04  0.7818608E-02  0.9053798E-01
          1   -1    0    0  501    0  0.00000000000E+00  0.00000000000E+00  0.13788909027E+04  0.13788909027E+04  0.00000000000E+00 0. -1.
         -2   -1    0    0    0  501 -0.00000000000E+00 -0.00000000000E+00 -0.29237157045E+03  0.29237157045E+03  0.00000000000E+00 0.  1.
        -24    2    1    2    0    0 -0.18775452973E+03  0.21720385237E+03  0.41446821722E+03  0.51074561066E+03  0.81534647895E+02 0.  0.
        254    2    1    2    0    0  0.18775452973E+03 -0.21720385237E+03  0.67205111502E+03  0.11605168625E+04  0.90150840814E+03 0.  0.
         23    2    4    4    0    0  0.31462946238E+02 -0.83925020496E+02  0.85888072351E+03  0.86844762646E+03  0.92151270334E+02 0.  0.
         23    2    4    4    0    0  0.15629158349E+03 -0.13327883187E+03 -0.18682960849E+03  0.29206923601E+03  0.90602593319E+02 0.  0.
          3    1    3    3  502    0 -0.85908718042E+02  0.11546806671E+03  0.27461406087E+03  0.31004203698E+03  0.00000000000E+00 0. -1.
         -4    1    3    3    0  502 -0.10184581169E+03  0.10173578566E+03  0.13985415635E+03  0.20070357369E+03  0.00000000000E+00 0.  1.
         11    1    5    5    0    0 -0.16333816281E+02  0.22501080586E+01  0.33336706262E+03  0.33377455712E+03  0.00000000000E+00 0. -1.
        -11    1    5    5    0    0  0.47796762519E+02 -0.86175128554E+02  0.52551366089E+03  0.53467306934E+03  0.00000000000E+00 0.  1.
          1    1    6    6  503    0  0.12938732577E+03 -0.14467209703E+03 -0.17184704997E+03  0.25923445819E+03  0.00000000000E+00 0. -1.
         -1    1    6    6    0  503  0.26904257724E+02  0.11393265156E+02 -0.14982558524E+02  0.32834777820E+02  0.00000000000E+00 0.  1.
<mgrwt>
<rscale>  0 0.12698795E+04</rscale>
<asrwt>0</asrwt>
<pdfrwt beam="1">  1        1 0.21213706E+00 0.12698795E+04</pdfrwt>
<pdfrwt beam="2">  1       -2 0.44980242E-01 0.12698795E+04</pdfrwt>
<totfact> 0.32189279E+01</totfact>
</mgrwt>
</event>
<event>
12    4  0.4280696E-008  0.3090744E+04  0.7818608E-02  0.8218283E-01
          1   -1    0    0  501    0  0.00000000000E+00  0.00000000000E+00  0.20156621229E+04  0.20156621229E+04  0.00000000000E+00 0. -1.
         -2   -1    0    0    0  501 -0.00000000000E+00 -0.00000000000E+00 -0.11848091661E+04  0.11848091661E+04  0.00000000000E+00 0.  1.
        -24    2    1    2    0    0  0.18231255479E+02  0.63079436317E+03 -0.92745979530E+03  0.11260757584E+04  0.98137833522E+02 0.  0.
        254    2    1    2    0    0 -0.18231255479E+02 -0.63079436317E+03  0.17583127520E+04  0.20743955306E+04  0.90178665788E+03 0.  0.
         23    2    4    4    0    0 -0.21211765681E+03 -0.76572245423E+03  0.10350988556E+04  0.13081245356E+04  0.91844338623E+02 0.  0.
         23    2    4    4    0    0  0.19388640133E+03  0.13492809106E+03  0.72321389647E+03  0.76627099507E+03  0.91298255568E+02 0.  0.
          3    1    3    3  502    0  0.11367884919E+01  0.47705747819E+03 -0.62402969757E+03  0.78549232538E+03  0.00000000000E+00 0. -1.
         -4    1    3    3    0  502  0.17094466987E+02  0.15373688498E+03 -0.30343009774E+03  0.34058343297E+03  0.00000000000E+00 0.  1.
         11    1    5    5    0    0 -0.38721251715E+02 -0.30045781305E+03  0.37273790546E+03  0.48032049605E+03  0.00000000000E+00 0. -1.
        -11    1    5    5    0    0 -0.17339640509E+03 -0.46526464118E+03  0.66236095010E+03  0.82780403952E+03  0.00000000000E+00 0.  1.
          3    1    6    6  503    0  0.13936166266E+03  0.13473591258E+03  0.61919013941E+03  0.64882344895E+03  0.00000000000E+00 0. -1.
         -3    1    6    6    0  503  0.54524738669E+02  0.19217848691E+00  0.10402375705E+03  0.11744754613E+03  0.00000000000E+00 0.  1.
<mgrwt>
<rscale>  0 0.30907442E+04</rscale>
<asrwt>0</asrwt>
<pdfrwt beam="1">  1        1 0.31010186E+00 0.30907442E+04</pdfrwt>
<pdfrwt beam="2">  1       -2 0.18227833E+00 0.30907442E+04</pdfrwt>
<totfact> 0.37760288E-01</totfact>
</mgrwt>
</event>
<event>
12    4  0.4280696E-008  0.1219142E+04  0.7818608E-02  0.9096265E-01
         -2   -1    0    0    0  501 -0.00000000000E+00  0.00000000000E+00  0.10899096085E+04  0.10899096085E+04  0.00000000000E+00 0.  1.
          1   -1    0    0  501    0  0.00000000000E+00 -0.00000000000E+00 -0.34092421962E+03  0.34092421962E+03  0.00000000000E+00 0. -1.
        -24    2    1    2    0    0  0.40175460807E+02  0.84510925092E+02 -0.84568733279E+02  0.14901153612E+03  0.79349877992E+02 0.  0.
        254    2    1    2    0    0 -0.40175460807E+02 -0.84510925092E+02  0.83355412215E+03  0.12818222920E+04  0.96927795271E+03 0.  0.
         23    2    4    4    0    0  0.17853769719E+03 -0.24585028436E+03 -0.74617594436E+02  0.32948023662E+03  0.10330231986E+03 0.  0.
         23    2    4    4    0    0 -0.21871315799E+03  0.16133935927E+03  0.90817171659E+03  0.95234205538E+03  0.91179434701E+02 0.  0.
          1    1    3    3  502    0  0.30810631508E+02  0.35269453037E+02 -0.87026407719E+02  0.98827248125E+02  0.00000000000E+00 0. -1.
         -2    1    3    3    0  502  0.93648292987E+01  0.49241472055E+02  0.24576744396E+01  0.50184287995E+02  0.00000000000E+00 0.  1.
         11    1    5    5    0    0  0.59097071974E+02 -0.13812258374E+03 -0.76572248070E+02  0.16862271860E+03  0.00000000000E+00 0.  1.
        -11    1    5    5    0    0  0.11944062521E+03 -0.10772770062E+03  0.19546536334E+01  0.16085751802E+03  0.00000000000E+00 0. -1.
          3    1    6    6  503    0 -0.13900071433E+03  0.80556610953E+02  0.38822812839E+03  0.42015669199E+03  0.00000000000E+00 0. -1.
         -3    1    6    6    0  503 -0.79712443667E+02  0.80782748313E+02  0.51994358820E+03  0.53218536339E+03  0.00000000000E+00 0.  1.
<mgrwt>
<rscale>  0 0.12191416E+04</rscale>
<asrwt>0</asrwt>
<pdfrwt beam="1">  1        1 0.52449880E-01 0.12191416E+04</pdfrwt>
<pdfrwt beam="2">  1       -2 0.16767840E+00 0.12191416E+04</pdfrwt>
<totfact> 0.14152185E+01</totfact>
</mgrwt>
</event>
<event>
12    4  0.4280696E-008  0.2878291E+04  0.7818608E-02  0.8279366E-01
         -2   -1    0    0    0  501 -0.00000000000E+00  0.00000000000E+00  0.10403236481E+04  0.10403236481E+04  0.00000000000E+00 0.  1.
          1   -1    0    0  501    0  0.00000000000E+00 -0.00000000000E+00 -0.19908615381E+04  0.19908615381E+04  0.00000000000E+00 0. -1.
        -24    2    1    2    0    0  0.11605395972E+04 -0.49464076486E+03 -0.73926748738E+03  0.14643563870E+04  0.79382410937E+02 0.  0.
        254    2    1    2    0    0 -0.11605395972E+04  0.49464076486E+03 -0.21127040260E+03  0.15668287993E+04  0.90487328408E+03 0.  0.
         23    2    4    4    0    0 -0.64088706031E+03  0.48430499482E+03 -0.51409298307E+03  0.95816835289E+03  0.92235812830E+02 0.  0.
         23    2    4    4    0    0 -0.51965253689E+03  0.10335770047E+02  0.30282258047E+03  0.60866044637E+03  0.92846305770E+02 0.  0.
          3    1    3    3  502    0  0.11415862689E+04 -0.47683719171E+03 -0.73135535406E+03  0.14371755532E+04  0.00000000000E+00 0. -1.
         -4    1    3    3    0  502  0.18953328262E+02 -0.17803573150E+02 -0.79121333200E+01  0.27180833740E+02  0.00000000000E+00 0.  1.
         11    1    5    5    0    0 -0.23908694695E+03  0.13090103955E+03 -0.15237071784E+03  0.31227309524E+03  0.00000000000E+00 0.  1.
        -11    1    5    5    0    0 -0.40180011336E+03  0.35340395527E+03 -0.36172226523E+03  0.64589525765E+03  0.00000000000E+00 0. -1.
          1    1    6    6  503    0 -0.49485936929E+01  0.41201201017E+01  0.20692749228E+02  0.21671498329E+02  0.00000000000E+00 0. -1.
         -1    1    6    6    0  503 -0.51470394320E+03  0.62156499454E+01  0.28212983124E+03  0.58698894804E+03  0.00000000000E+00 0.  1.
<mgrwt>
<rscale>  0 0.28782914E+04</rscale>
<asrwt>0</asrwt>
<pdfrwt beam="1">  1        1 0.30628639E+00 0.28782914E+04</pdfrwt>
<pdfrwt beam="2">  1       -2 0.16004979E+00 0.28782914E+04</pdfrwt>
<totfact> 0.57512072E-01</totfact>
</mgrwt>
</event>
<event>
12    4  0.4280696E-008  0.1026526E+04  0.7818608E-02  0.9279920E-01
         -2   -1    0    0    0  501 -0.00000000000E+00  0.00000000000E+00  0.10679639782E+04  0.10679639782E+04  0.00000000000E+00 0.  1.
          1   -1    0    0  501    0  0.00000000000E+00 -0.00000000000E+00 -0.24667408341E+03  0.24667408341E+03  0.00000000000E+00 0. -1.
        -24    2    1    2    0    0  0.20020092551E+02 -0.16966812327E+02  0.14926140728E+01  0.95031468293E+02  0.91324012411E+02 0.  0.
        254    2    1    2    0    0 -0.20020092551E+02  0.16966812327E+02  0.81979728072E+03  0.12196065933E+04  0.90259846231E+03 0.  0.
         23    2    4    4    0    0 -0.22955472842E+03 -0.31539624277E+03  0.68542658499E+03  0.79401606051E+03  0.92096349779E+02 0.  0.
         23    2    4    4    0    0  0.20953463587E+03  0.33236305509E+03  0.13437069572E+03  0.42559053280E+03  0.93283727003E+02 0.  0.
          1    1    3    3  502    0  0.14462528462E+02 -0.75352115741E+01 -0.44688241214E+02  0.47570821369E+02  0.00000000000E+00 0. -1.
         -2    1    3    3    0  502  0.55575640897E+01 -0.94316007527E+01  0.46180855287E+02  0.47460646923E+02  0.00000000000E+00 0.  1.
         11    1    5    5    0    0 -0.38870792792E+02 -0.11768226923E+03  0.17608102881E+03  0.21532436864E+03  0.00000000000E+00 0. -1.
        -11    1    5    5    0    0 -0.19068393563E+03 -0.19771397354E+03  0.50934555618E+03  0.57869169187E+03  0.00000000000E+00 0.  1.
          4    1    6    6  503    0  0.15165621167E+02  0.84656678517E+02  0.50561581626E+02  0.99765839942E+02  0.00000000000E+00 0. -1.
         -4    1    6    6    0  503  0.19436901470E+03  0.24770637658E+03  0.83809114099E+02  0.32582469286E+03  0.00000000000E+00 0.  1.
<mgrwt>
<rscale>  0 0.10265262E+04</rscale>
<asrwt>0</asrwt>
<pdfrwt beam="1">  1        1 0.37949860E-01 0.10265262E+04</pdfrwt>
<pdfrwt beam="2">  1       -2 0.16430215E+00 0.10265262E+04</pdfrwt>
<totfact> 0.23114629E+01</totfact>
</mgrwt>
</event>
<event>
12    4  0.4348378E-008  0.2140215E+04  0.7818608E-02  0.8543732E-01
         -2   -1    0    0    0  501 -0.00000000000E+00  0.00000000000E+00  0.12238239322E+04  0.12238239322E+04  0.00000000000E+00 0.  1.
          1   -1    0    0  501    0  0.00000000000E+00 -0.00000000000E+00 -0.93569857047E+03  0.93569857047E+03  0.00000000000E+00 0. -1.
        -24    2    1    2    0    0 -0.74119627177E+02  0.15799812243E+03 -0.71303502371E+03  0.73868525350E+03  0.82339740552E+02 0.  0.
        254    2    1    2    0    0  0.74119627177E+02 -0.15799812243E+03  0.10011603854E+04  0.14208372492E+04  0.99297494703E+03 0.  0.
         23    2    4    4    0    0  0.20613249100E+02  0.29471108823E+03  0.89087095520E+03  0.94307469229E+03  0.91974370568E+02 0.  0.
         23    2    4    4    0    0  0.53506378077E+02 -0.45270921066E+03  0.11028943022E+03  0.47776255687E+03  0.91020549441E+02 0.  0.
          1    1    3    3  502    0 -0.37232139182E+02  0.12356981279E+03 -0.61535303820E+03  0.62874087861E+03  0.00000000000E+00 0. -1.
         -2    1    3    3    0  502 -0.36887487995E+02  0.34428309632E+02 -0.97681985511E+02  0.10994437488E+03  0.00000000000E+00 0.  1.
         11    1    5    5    0    0  0.33356233855E+01  0.22587891928E+03  0.77448515386E+03  0.80675874096E+03  0.00000000000E+00 0. -1.
        -11    1    5    5    0    0  0.17277625715E+02  0.68832168953E+02  0.11638580134E+03  0.13631595133E+03  0.00000000000E+00 0.  1.
          2    1    6    6  503    0  0.61251102454E+02 -0.44511228678E+03  0.11789093427E+03  0.46451578851E+03  0.00000000000E+00 0. -1.
         -2    1    6    6    0  503 -0.77447243771E+01 -0.75969238810E+01 -0.76015040536E+01  0.13246768361E+02  0.00000000000E+00 0.  1.
<mgrwt>
<rscale>  0 0.21402152E+04</rscale>
<asrwt>0</asrwt>
<pdfrwt beam="1">  1        1 0.14395363E+00 0.21402152E+04</pdfrwt>
<pdfrwt beam="2">  1       -2 0.18828060E+00 0.21402152E+04</pdfrwt>
<totfact> 0.21760423E+00</totfact>
</mgrwt>
</event>
<event>
12    4  0.4280696E-008  0.1502704E+04  0.7818608E-02  0.8882657E-01
          1   -1    0    0  501    0  0.00000000000E+00  0.00000000000E+00  0.20021392242E+04  0.20021392242E+04  0.00000000000E+00 0. -1.
         -2   -1    0    0    0  501 -0.00000000000E+00 -0.00000000000E+00 -0.28196330705E+03  0.28196330705E+03  0.00000000000E+00 0.  1.
        -24    2    1    2    0    0  0.21615720459E+03 -0.39418166380E+03  0.31837311240E+03  0.55652599722E+03  0.79098835043E+02 0.  0.
        254    2    1    2    0    0 -0.21615720459E+03  0.39418166380E+03  0.14018028048E+04  0.17275765341E+04  0.90408321319E+03 0.  0.
         23    2    4    4    0    0 -0.20508414552E+03  0.66746406907E+03  0.11272004308E+04  0.13296524405E+04  0.99131282787E+02 0.  0.
         23    2    4    4    0    0 -0.11073059068E+02 -0.27328240526E+03  0.27460237404E+03  0.39792409356E+03  0.90173359381E+02 0.  0.
          3    1    3    3  502    0  0.65196451918E+02 -0.59127765638E+02  0.76168629812E+02  0.11639729455E+03  0.00000000000E+00 0. -1.
         -4    1    3    3    0  502  0.15096075267E+03 -0.33505389816E+03  0.24220448259E+03  0.44012870266E+03  0.00000000000E+00 0.  1.
         11    1    5    5    0    0  0.35868556309E+01  0.95075906102E+02  0.13055258198E+03  0.16154340010E+03  0.00000000000E+00 0. -1.
        -11    1    5    5    0    0 -0.20867100115E+03  0.57238816296E+03  0.99664784877E+03  0.11681090404E+04  0.00000000000E+00 0.  1.
          2    1    6    6  503    0  0.19359665501E+02 -0.10210229328E+03  0.15605382661E+03  0.18748992438E+03  0.00000000000E+00 0. -1.
         -2    1    6    6    0  503 -0.30432724569E+02 -0.17118011198E+03  0.11854854743E+03  0.21043416918E+03  0.00000000000E+00 0.  1.
<mgrwt>
<rscale>  0 0.15027040E+04</rscale>
<asrwt>0</asrwt>
<pdfrwt beam="1">  1        1 0.30802141E+00 0.15027040E+04</pdfrwt>
<pdfrwt beam="2">  1       -2 0.43378972E-01 0.15027040E+04</pdfrwt>
<totfact> 0.12714973E+01</totfact>
</mgrwt>
</event>
<event>
12    4  0.4280696E-008  0.1353377E+04  0.7818608E-02  0.8988276E-01
         -2   -1    0    0    0  501 -0.00000000000E+00  0.00000000000E+00  0.19247151285E+03  0.19247151285E+03  0.00000000000E+00 0.  1.
          1   -1    0    0  501    0  0.00000000000E+00 -0.00000000000E+00 -0.23790918115E+04  0.23790918115E+04  0.00000000000E+00 0. -1.
        -24    2    1    2    0    0 -0.13410547326E+03  0.34236906251E+03 -0.61613300376E+03  0.72195816882E+03  0.80017912284E+02 0.  0.
        254    2    1    2    0    0  0.13410547326E+03 -0.34236906251E+03 -0.15704872949E+04  0.18496051555E+04  0.90521159682E+03 0.  0.
         23    2    4    4    0    0  0.29376004914E+02  0.29686289298E+03 -0.38695916732E+03  0.49698777592E+03  0.90933631562E+02 0.  0.
         23    2    4    4    0    0  0.10472946835E+03 -0.63923195549E+03 -0.11835281275E+04  0.13526173796E+04  0.96172721752E+02 0.  0.
          3    1    3    3  502    0 -0.88873306344E+02  0.18216277234E+03 -0.40684817628E+03  0.45454062387E+03  0.00000000000E+00 0. -1.
         -4    1    3    3    0  502 -0.45232166919E+02  0.16020629018E+03 -0.20928482748E+03  0.26741754495E+03  0.00000000000E+00 0.  1.
         11    1    5    5    0    0  0.34484352129E+02  0.27432542272E+03 -0.38472781947E+03  0.47377115063E+03  0.00000000000E+00 0. -1.
        -11    1    5    5    0    0 -0.51083472150E+01  0.22537470250E+02 -0.22313478496E+01  0.23216625288E+02  0.00000000000E+00 0.  1.
          3    1    6    6  503    0  0.10544279059E+03 -0.55827320241E+03 -0.96838942276E+03  0.11227489589E+04  0.00000000000E+00 0. -1.
         -3    1    6    6    0  503 -0.71332223754E+00 -0.80958753082E+02 -0.21513870478E+03  0.22986842068E+03  0.00000000000E+00 0.  1.
<mgrwt>
<rscale>  0 0.13533771E+04</rscale>
<asrwt>0</asrwt>
<pdfrwt beam="1">  1        1 0.36601417E+00 0.13533771E+04</pdfrwt>
<pdfrwt beam="2">  1       -2 0.29610998E-01 0.13533771E+04</pdfrwt>
<totfact> 0.14872456E+01</totfact>
</mgrwt>
</event>
<event>
12    4  0.4280696E-008  0.1845969E+04  0.7818608E-02  0.8682228E-01
         -2   -1    0    0    0  501 -0.00000000000E+00  0.00000000000E+00  0.17792643852E+04  0.17792643852E+04  0.00000000000E+00 0.  1.
          1   -1    0    0  501    0  0.00000000000E+00 -0.00000000000E+00 -0.47879369539E+03  0.47879369539E+03  0.00000000000E+00 0. -1.
        -24    2    1    2    0    0 -0.61976983558E+02 -0.33085801850E+03 -0.25354564140E+03  0.42877548449E+03  0.79087602899E+02 0.  0.
        254    2    1    2    0    0  0.61976983558E+02  0.33085801850E+03  0.15540163312E+04  0.18292825961E+04  0.90443346015E+03 0.  0.
         23    2    4    4    0    0  0.89269393111E+02  0.82506130786E+02  0.15553834131E+04  0.15628028493E+04  0.91427007271E+02 0.  0.
         23    2    4    4    0    0 -0.27292409553E+02  0.24835188772E+03 -0.13670819398E+01  0.26647974682E+03  0.92660945400E+02 0.  0.
          3    1    3    3  502    0 -0.66024369508E+02 -0.22280749554E+03 -0.13684411320E+03  0.26968260744E+03  0.00000000000E+00 0. -1.
         -4    1    3    3    0  502  0.40473859494E+01 -0.10805052296E+03 -0.11670152820E+03  0.15909287705E+03  0.00000000000E+00 0.  1.
         11    1    5    5    0    0  0.36643019034E+01  0.59688934140E+02  0.80243904110E+03  0.80466428444E+03  0.00000000000E+00 0.  1.
        -11    1    5    5    0    0  0.85605091208E+02  0.22817196647E+02  0.75294437202E+03  0.75813856482E+03  0.00000000000E+00 0. -1.
          3    1    6    6  503    0 -0.16537588606E+01  0.82329832344E+02 -0.43720142339E+02  0.93232971948E+02  0.00000000000E+00 0. -1.
         -3    1    6    6    0  503 -0.25638650692E+02  0.16602205537E+03  0.42353060399E+02  0.17324677488E+03  0.00000000000E+00 0.  1.
<mgrwt>
<rscale>  0 0.18459692E+04</rscale>
<asrwt>0</asrwt>
<pdfrwt beam="1">  1        1 0.73660570E-01 0.18459692E+04</pdfrwt>
<pdfrwt beam="2">  1       -2 0.27373298E+00 0.18459692E+04</pdfrwt>
<totfact> 0.17806367E+00</totfact>
</mgrwt>
</event>
<event>
12    4  0.4280696E-008  0.1355165E+04  0.7818608E-02  0.8986928E-01
          1   -1    0    0  501    0  0.00000000000E+00  0.00000000000E+00  0.83723675584E+03  0.83723675584E+03  0.00000000000E+00 0. -1.
         -2   -1    0    0    0  501 -0.00000000000E+00 -0.00000000000E+00 -0.54837277815E+03  0.54837277815E+03  0.00000000000E+00 0.  1.
        -24    2    1    2    0    0 -0.24165520442E+03 -0.27269921743E+03  0.23800984186E+02  0.37392080877E+03  0.80549260546E+02 0.  0.
        254    2    1    2    0    0  0.24165520442E+03  0.27269921743E+03  0.26506299351E+03  0.10116887252E+04  0.90581100964E+03 0.  0.
         23    2    4    4    0    0  0.35405567802E+03 -0.13204119600E+03 -0.14721091325E+03  0.41602038238E+03  0.92798733837E+02 0.  0.
         23    2    4    4    0    0 -0.11240047360E+03  0.40474041343E+03  0.41227390676E+03  0.59566834283E+03  0.91664233676E+02 0.  0.
          1    1    3    3  502    0 -0.12508364623E+02 -0.19491985666E+02  0.22684815753E+02  0.32419092469E+02  0.00000000000E+00 0. -1.
         -2    1    3    3    0  502 -0.22914683980E+03 -0.25320723177E+03  0.11161684332E+01  0.34150171630E+03  0.00000000000E+00 0.  1.
         11    1    5    5    0    0  0.12936324895E+03 -0.28677663675E+02 -0.92712439619E+01  0.13282776267E+03  0.00000000000E+00 0. -1.
        -11    1    5    5    0    0  0.22469242907E+03 -0.10336353232E+03 -0.13793966928E+03  0.28319261971E+03  0.00000000000E+00 0.  1.
          1    1    6    6  503    0 -0.60456715933E+02  0.77479239622E+02  0.10396468623E+03  0.14306188541E+03  0.00000000000E+00 0. -1.
         -1    1    6    6    0  503 -0.51943757665E+02  0.32726117381E+03  0.30830922052E+03  0.45260645742E+03  0.00000000000E+00 0.  1.
<mgrwt>
<rscale>  0 0.13551647E+04</rscale>
<asrwt>0</asrwt>
<pdfrwt beam="1">  1        1 0.12880566E+00 0.13551647E+04</pdfrwt>
<pdfrwt beam="2">  1       -2 0.84365043E-01 0.13551647E+04</pdfrwt>
<totfact> 0.21579030E+01</totfact>
</mgrwt>
</event>
<event>
12    4  0.4280696E-008  0.2108140E+04  0.7818608E-02  0.8557666E-01
         -2   -1    0    0    0  501 -0.00000000000E+00  0.00000000000E+00  0.12134962436E+04  0.12134962436E+04  0.00000000000E+00 0.  1.
          1   -1    0    0  501    0  0.00000000000E+00 -0.00000000000E+00 -0.91558898142E+03  0.91558898142E+03  0.00000000000E+00 0. -1.
        -24    2    1    2    0    0 -0.18075949499E+03  0.61528789679E+03  0.70020710451E+03  0.95285421368E+03  0.79924791887E+02 0.  0.
        254    2    1    2    0    0  0.18075949499E+03 -0.61528789679E+03 -0.40229984231E+03  0.11762310114E+04  0.90023387962E+03 0.  0.
         23    2    4    4    0    0  0.23208566353E+03 -0.82836068612E+03 -0.27961005166E+03  0.90897477281E+03  0.89488407544E+02 0.  0.
         23    2    4    4    0    0 -0.51326168538E+02  0.21307278934E+03 -0.12268979065E+03  0.26725623855E+03  0.91316609565E+02 0.  0.
          1    1    3    3  502    0 -0.93248007205E+01  0.34525917181E+02  0.16018049605E+02  0.39186334082E+02  0.00000000000E+00 0. -1.
         -2    1    3    3    0  502 -0.17143469427E+03  0.58076197961E+03  0.68418905491E+03  0.91366787960E+03  0.00000000000E+00 0.  1.
         11    1    5    5    0    0  0.19246914822E+02 -0.93778352571E+02 -0.61127101086E+02  0.11358409056E+03  0.00000000000E+00 0. -1.
        -11    1    5    5    0    0  0.21283874871E+03 -0.73458233355E+03 -0.21848295057E+03  0.79539068225E+03  0.00000000000E+00 0.  1.
          2    1    6    6  503    0  0.18688978362E+02  0.11239058378E+03 -0.70478411313E+02  0.13397062251E+03  0.00000000000E+00 0. -1.
         -2    1    6    6    0  503 -0.70015146900E+02  0.10068220556E+03 -0.52211379335E+02  0.13328561604E+03  0.00000000000E+00 0.  1.
<mgrwt>
<rscale>  0 0.21081402E+04</rscale>
<asrwt>0</asrwt>
<pdfrwt beam="1">  1        1 0.14085984E+00 0.21081402E+04</pdfrwt>
<pdfrwt beam="2">  1       -2 0.18669173E+00 0.21081402E+04</pdfrwt>
<totfact> 0.23220490E+00</totfact>
</mgrwt>
</event>
<event>
12    4  0.4280696E-008  0.1552613E+04  0.7818608E-02  0.8850200E-01
          1   -1    0    0  501    0  0.00000000000E+00  0.00000000000E+00  0.13816604642E+04  0.13816604642E+04  0.00000000000E+00 0. -1.
         -2   -1    0    0    0  501 -0.00000000000E+00 -0.00000000000E+00 -0.43617958009E+03  0.43617958009E+03  0.00000000000E+00 0.  1.
        -24    2    1    2    0    0 -0.50119396350E+03  0.25746424002E+02  0.19581174398E+03  0.54472076502E+03  0.80747788574E+02 0.  0.
        254    2    1    2    0    0  0.50119396350E+03 -0.25746424002E+02  0.74966914013E+03  0.12731192793E+04  0.89831543022E+03 0.  0.
         23    2    4    4    0    0  0.38576502881E+03 -0.39810693239E+03  0.20788131268E+03  0.59931865800E+03  0.93082901781E+02 0.  0.
         23    2    4    4    0    0  0.11542893470E+03  0.37236050838E+03  0.54178782745E+03  0.67380062126E+03  0.92179390694E+02 0.  0.
          3    1    3    3  502    0 -0.25501973485E+03  0.27639396973E+02  0.14023545028E+03  0.29234394630E+03  0.00000000000E+00 0. -1.
         -4    1    3    3    0  502 -0.24617422866E+03 -0.18929729713E+01  0.55576293699E+02  0.25237681871E+03  0.00000000000E+00 0.  1.
         11    1    5    5    0    0  0.78959302423E+02 -0.39349053627E+02  0.15528982881E+02  0.89577166565E+02  0.00000000000E+00 0. -1.
        -11    1    5    5    0    0  0.30680572638E+03 -0.35875787876E+03  0.19235232980E+03  0.50974149144E+03  0.00000000000E+00 0.  1.
          3    1    6    6  503    0 -0.10550858219E+02  0.99422304033E+02  0.13582483754E+03  0.16865497811E+03  0.00000000000E+00 0. -1.
         -3    1    6    6    0  503  0.12597979292E+03  0.27293820435E+03  0.40596298991E+03  0.50514564315E+03  0.00000000000E+00 0.  1.
<mgrwt>
<rscale>  0 0.15526134E+04</rscale>
<asrwt>0</asrwt>
<pdfrwt beam="1">  1        1 0.21256315E+00 0.15526134E+04</pdfrwt>
<pdfrwt beam="2">  1       -2 0.67104551E-01 0.15526134E+04</pdfrwt>
<totfact> 0.13630868E+01</totfact>
</mgrwt>
</event>
<event>
12    4  0.4280696E-008  0.1610563E+04  0.7818608E-02  0.8814085E-01
          1   -1    0    0  501    0  0.00000000000E+00  0.00000000000E+00  0.11200811480E+04  0.11200811480E+04  0.00000000000E+00 0. -1.
         -2   -1    0    0    0  501 -0.00000000000E+00 -0.00000000000E+00 -0.57895667870E+03  0.57895667870E+03  0.00000000000E+00 0.  1.
        -24    2    1    2    0    0  0.14214558628E+03  0.52743790401E+03  0.25046046142E+03  0.60572962678E+03  0.76038330693E+02 0.  0.
        254    2    1    2    0    0 -0.14214558628E+03 -0.52743790401E+03  0.29066400790E+03  0.10933081999E+04  0.90135517099E+03 0.  0.
         23    2    4    4    0    0  0.31127733887E+03 -0.49056376390E+03  0.19369357743E+03  0.61918286058E+03  0.91234997454E+02 0.  0.
         23    2    4    4    0    0 -0.45342292514E+03 -0.36874140118E+02  0.96970430465E+02  0.47412533936E+03  0.91866869874E+02 0.  0.
          3    1    3    3  502    0  0.35367848730E+02  0.18709629044E+03  0.12423923463E+03  0.22735719483E+03  0.00000000000E+00 0. -1.
         -4    1    3    3    0  502  0.10677773755E+03  0.34034161358E+03  0.12622122680E+03  0.37837243195E+03  0.00000000000E+00 0.  1.
         11    1    5    5    0    0  0.88673154210E+02 -0.12347904766E+03  0.93052364291E+02  0.17823789156E+03  0.00000000000E+00 0.  1.
        -11    1    5    5    0    0  0.22260418466E+03 -0.36708471624E+03  0.10064121314E+03  0.44094496902E+03  0.00000000000E+00 0. -1.
          4    1    6    6  503    0 -0.14513570718E+03  0.11537760993E+02 -0.54127332789E+01  0.14569416979E+03  0.00000000000E+00 0.  1.
         -4    1    6    6    0  503 -0.30828721796E+03 -0.48411901111E+02  0.10238316374E+03  0.32843116957E+03  0.00000000000E+00 0. -1.
<mgrwt>
<rscale>  0 0.16105632E+04</rscale>
<asrwt>0</asrwt>
<pdfrwt beam="1">  1        1 0.17232018E+00 0.16105632E+04</pdfrwt>
<pdfrwt beam="2">  1       -2 0.89070258E-01 0.16105632E+04</pdfrwt>
<totfact> 0.11143926E+01</totfact>
</mgrwt>
</event>
<event>
12    4  0.4280696E-008  0.1440011E+04  0.7818608E-02  0.8925355E-01
         -2   -1    0    0    0  501 -0.00000000000E+00  0.00000000000E+00  0.28043487244E+03  0.28043487244E+03  0.00000000000E+00 0.  1.
          1   -1    0    0  501    0  0.00000000000E+00 -0.00000000000E+00 -0.18485866878E+04  0.18485866878E+04  0.00000000000E+00 0. -1.
        -24    2    1    2    0    0  0.12021520987E+03 -0.12792126353E+02 -0.11026718853E+04  0.11120281685E+04  0.78141062642E+02 0.  0.
        254    2    1    2    0    0 -0.12021520987E+03  0.12792126353E+02 -0.46547993006E+03  0.10169933918E+04  0.89609634438E+03 0.  0.
         23    2    4    4    0    0  0.37425637790E+03 -0.75324092826E+02 -0.18851375598E+03  0.43650255368E+03  0.96205445880E+02 0.  0.
         23    2    4    4    0    0 -0.49447158777E+03  0.88116219179E+02 -0.27696617408E+03  0.58049083808E+03  0.89402082267E+02 0.  0.
          1    1    3    3  502    0  0.12075275406E+03 -0.24885905349E+02 -0.83196185678E+03  0.84104760093E+03  0.00000000000E+00 0. -1.
         -2    1    3    3    0  502 -0.53754419304E+00  0.12093778997E+02 -0.27071002850E+03  0.27098056752E+03  0.00000000000E+00 0.  1.
         11    1    5    5    0    0  0.82375282996E+02 -0.20328279723E+02 -0.89722017913E+02  0.12348670659E+03  0.00000000000E+00 0. -1.
        -11    1    5    5    0    0  0.29188109491E+03 -0.54995813103E+02 -0.98791738062E+02  0.31301584709E+03  0.00000000000E+00 0.  1.
          3    1    6    6  503    0 -0.27499632927E+03  0.74194841817E+01 -0.12966545598E+03  0.30412359384E+03  0.00000000000E+00 0. -1.
         -3    1    6    6    0  503 -0.21947525850E+03  0.80696734997E+02 -0.14730071811E+03  0.27636724424E+03  0.00000000000E+00 0.  1.
<mgrwt>
<rscale>  0 0.14400113E+04</rscale>
<asrwt>0</asrwt>
<pdfrwt beam="1">  1        1 0.28439795E+00 0.14400113E+04</pdfrwt>
<pdfrwt beam="2">  1       -2 0.43143826E-01 0.14400113E+04</pdfrwt>
<totfact> 0.16416059E+01</totfact>
</mgrwt>
</event>
<event>
12    4  0.4280696E-008  0.1861785E+04  0.7818608E-02  0.8674116E-01
         -2   -1    0    0    0  501 -0.00000000000E+00  0.00000000000E+00  0.43921140522E+03  0.43921140522E+03  0.00000000000E+00 0.  1.
          1   -1    0    0  501    0  0.00000000000E+00 -0.00000000000E+00 -0.19729932528E+04  0.19729932528E+04  0.00000000000E+00 0. -1.
        -24    2    1    2    0    0 -0.65825446592E+03  0.27339399707E+03 -0.54967638244E+03  0.90350768144E+03  0.78350401832E+02 0.  0.
        254    2    1    2    0    0  0.65825446592E+03 -0.27339399707E+03 -0.98410546519E+03  0.15086969766E+04  0.89423698264E+03 0.  0.
         23    2    4    4    0    0  0.85339511470E+02 -0.48977447800E+03 -0.58096462974E+03  0.77030239231E+03  0.93187998552E+02 0.  0.
         23    2    4    4    0    0  0.57291495445E+03  0.21638048093E+03 -0.40314083546E+03  0.73839458432E+03  0.87475547315E+02 0.  0.
          1    1    3    3  502    0 -0.46907268740E+03  0.17066189617E+03 -0.41877652349E+03  0.65155847435E+03  0.00000000000E+00 0. -1.
         -2    1    3    3    0  502 -0.18918177852E+03  0.10273210090E+03 -0.13089985894E+03  0.25194920708E+03  0.00000000000E+00 0.  1.
         11    1    5    5    0    0  0.91355959073E+02 -0.29190218808E+03 -0.38550328814E+03  0.49210322477E+03  0.00000000000E+00 0.  1.
        -11    1    5    5    0    0 -0.60164476028E+01 -0.19787228992E+03 -0.19546134160E+03  0.27819916754E+03  0.00000000000E+00 0. -1.
          1    1    6    6  503    0  0.12612961520E+02  0.11106332237E+02 -0.30653823083E+02  0.34958465122E+02  0.00000000000E+00 0. -1.
         -1    1    6    6    0  503  0.56030199293E+03  0.20527414869E+03 -0.37248701237E+03  0.70343611920E+03  0.00000000000E+00 0.  1.
<mgrwt>
<rscale>  0 0.18617853E+04</rscale>
<asrwt>0</asrwt>
<pdfrwt beam="1">  1        1 0.30353742E+00 0.18617853E+04</pdfrwt>
<pdfrwt beam="2">  1       -2 0.67570986E-01 0.18617853E+04</pdfrwt>
<totfact> 0.51437938E+00</totfact>
</mgrwt>
</event>
<event>
12    4  0.4280696E-008  0.1602048E+04  0.7818608E-02  0.8819291E-01
          1   -1    0    0  501    0  0.00000000000E+00  0.00000000000E+00  0.11296055526E+04  0.11296055526E+04  0.00000000000E+00 0. -1.
         -2   -1    0    0    0  501 -0.00000000000E+00 -0.00000000000E+00 -0.56802097730E+03  0.56802097730E+03  0.00000000000E+00 0.  1.
        -24    2    1    2    0    0 -0.53051498071E+03  0.31538097844E+02  0.87272868741E+02  0.54456404309E+03  0.80576963396E+02 0.  0.
        254    2    1    2    0    0  0.53051498071E+03 -0.31538097844E+02  0.47431170654E+03  0.11530624868E+04  0.90671975114E+03 0.  0.
         23    2    4    4    0    0  0.74244753567E+03  0.10826543147E+03  0.23603231587E+03  0.79186764006E+03  0.91615273650E+02 0.  0.
         23    2    4    4    0    0 -0.21193255495E+03 -0.13980352931E+03  0.23827939068E+03  0.36119484674E+03  0.96042775002E+02 0.  0.
          1    1    3    3  502    0 -0.12758780501E+03 -0.84548576294E+01  0.52298011280E+02  0.13814924751E+03  0.00000000000E+00 0. -1.
         -2    1    3    3    0  502 -0.40292717571E+03  0.39992955473E+02  0.34974857461E+02  0.40641479558E+03  0.00000000000E+00 0.  1.
         11    1    5    5    0    0  0.58990442615E+03  0.94342546770E+02  0.14903920646E+03  0.61571132293E+03  0.00000000000E+00 0.  1.
        -11    1    5    5    0    0  0.15254310952E+03  0.13922884698E+02  0.86993109404E+02  0.17615631713E+03  0.00000000000E+00 0. -1.
          3    1    6    6  503    0 -0.78914877653E+02 -0.84849731986E+02  0.55294179821E+02  0.12839190494E+03  0.00000000000E+00 0. -1.
         -3    1    6    6    0  503 -0.13301767730E+03 -0.54953797325E+02  0.18298521086E+03  0.23280294179E+03  0.00000000000E+00 0.  1.
<mgrwt>
<rscale>  0 0.16020483E+04</rscale>
<asrwt>0</asrwt>
<pdfrwt beam="1">  1        1 0.17378547E+00 0.16020483E+04</pdfrwt>
<pdfrwt beam="2">  1       -2 0.87387843E-01 0.16020483E+04</pdfrwt>
<totfact> 0.11462109E+01</totfact>
</mgrwt>
</event>
<event>
12    4  0.4280696E-008  0.2086840E+04  0.7818608E-02  0.8567063E-01
          1   -1    0    0  501    0  0.00000000000E+00  0.00000000000E+00  0.10131673153E+04  0.10131673153E+04  0.00000000000E+00 0. -1.
         -2   -1    0    0    0  501 -0.00000000000E+00 -0.00000000000E+00 -0.10745755601E+04  0.10745755601E+04  0.00000000000E+00 0.  1.
        -24    2    1    2    0    0 -0.25055876579E+02 -0.41030072093E+03  0.71429035923E+03  0.82803308990E+03  0.80334314769E+02 0.  0.
        254    2    1    2    0    0  0.25055876579E+02  0.41030072093E+03 -0.77569860406E+03  0.12597097854E+04  0.90343009725E+03 0.  0.
         23    2    4    4    0    0  0.40799546629E+03  0.46541586350E+02 -0.17793105699E+03  0.45682029985E+03  0.91645542956E+02 0.  0.
         23    2    4    4    0    0 -0.38293958971E+03  0.36375913458E+03 -0.59776754708E+03  0.80288948558E+03  0.91334814621E+02 0.  0.
          3    1    3    3  502    0  0.72152570501E+01 -0.20627282017E+03  0.42612504062E+03  0.47347976358E+03  0.00000000000E+00 0. -1.
         -4    1    3    3    0  502 -0.32271133629E+02 -0.20402790076E+03  0.28816531861E+03  0.35455332632E+03  0.00000000000E+00 0.  1.
         11    1    5    5    0    0  0.11592829436E+03 -0.21104630889E+02 -0.25774399372E+02  0.12061962751E+03  0.00000000000E+00 0. -1.
        -11    1    5    5    0    0  0.29206717193E+03  0.67646217239E+02 -0.15215665761E+03  0.33620067234E+03  0.00000000000E+00 0.  1.
          3    1    6    6  503    0 -0.60373373821E+02  0.99474069445E+02 -0.16500695240E+03  0.20190921004E+03  0.00000000000E+00 0. -1.
         -3    1    6    6    0  503 -0.32256621589E+03  0.26428506514E+03 -0.43276059468E+03  0.60098027555E+03  0.00000000000E+00 0.  1.
<mgrwt>
<rscale>  0 0.20868396E+04</rscale>
<asrwt>0</asrwt>
<pdfrwt beam="1">  1        1 0.15587189E+00 0.20868396E+04</pdfrwt>
<pdfrwt beam="2">  1       -2 0.16531932E+00 0.20868396E+04</pdfrwt>
<totfact> 0.27466719E+00</totfact>
</mgrwt>
</event>
<event>
12    4  0.4280696E-008  0.1848666E+04  0.7818608E-02  0.8680839E-01
         -2   -1    0    0    0  501 -0.00000000000E+00  0.00000000000E+00  0.97100454344E+03  0.97100454344E+03  0.00000000000E+00 0.  1.
          1   -1    0    0  501    0  0.00000000000E+00 -0.00000000000E+00 -0.87990445577E+03  0.87990445577E+03  0.00000000000E+00 0. -1.
        -24    2    1    2    0    0 -0.22292687836E+03 -0.26176415007E+03  0.61179076595E+03  0.70721029241E+03  0.87416205775E+02 0.  0.
        254    2    1    2    0    0  0.22292687836E+03  0.26176415007E+03 -0.52069067829E+03  0.11436987068E+04  0.95849417636E+03 0.  0.
         23    2    4    4    0    0  0.31818015395E+03 -0.21260084202E+03  0.42508410173E+02  0.39543879867E+03  0.90150708053E+02 0.  0.
         23    2    4    4    0    0 -0.95253275591E+02  0.47436499209E+03 -0.56319908847E+03  0.74825990812E+03  0.92759606647E+02 0.  0.
          1    1    3    3  502    0 -0.90154110699E+02 -0.15876190296E+03  0.26439663189E+03  0.32130777218E+03  0.00000000000E+00 0. -1.
         -2    1    3    3    0  502 -0.13277276766E+03 -0.10300224711E+03  0.34739413406E+03  0.38590252024E+03  0.00000000000E+00 0.  1.
         11    1    5    5    0    0  0.76957012196E+02 -0.84686840347E+02  0.43438982397E+02  0.12239766275E+03  0.00000000000E+00 0. -1.
        -11    1    5    5    0    0  0.24122314175E+03 -0.12791400167E+03 -0.93057222384E+00  0.27304113592E+03  0.00000000000E+00 0.  1.
          2    1    6    6  503    0 -0.84222213675E+02  0.20122503726E+03 -0.22479293541E+03  0.31323595053E+03  0.00000000000E+00 0.  1.
         -2    1    6    6    0  503 -0.11031061916E+02  0.27313995484E+03 -0.33840615305E+03  0.43502395759E+03  0.00000000000E+00 0. -1.
<mgrwt>
<rscale>  0 0.18486657E+04</rscale>
<asrwt>0</asrwt>
<pdfrwt beam="1">  1        1 0.13536992E+00 0.18486657E+04</pdfrwt>
<pdfrwt beam="2">  1       -2 0.14938532E+00 0.18486657E+04</pdfrwt>
<totfact> 0.47142704E+00</totfact>
</mgrwt>
</event>
<event>
12    4  0.4280696E-008  0.1893342E+04  0.7818608E-02  0.8658178E-01
         -2   -1    0    0    0  501 -0.00000000000E+00  0.00000000000E+00  0.29766038076E+03  0.29766038076E+03  0.00000000000E+00 0.  1.
          1   -1    0    0  501    0  0.00000000000E+00 -0.00000000000E+00 -0.30107666972E+04  0.30107666972E+04  0.00000000000E+00 0. -1.
        -24    2    1    2    0    0  0.55468895346E+03 -0.27204227505E+03 -0.36733768235E+03  0.72325486870E+03  0.80459913711E+02 0.  0.
        254    2    1    2    0    0 -0.55468895346E+03  0.27204227505E+03 -0.23457686341E+04  0.25851722093E+04  0.89375501807E+03 0.  0.
         23    2    4    4    0    0  0.20959940843E+03  0.11264093826E+03 -0.29896730086E+03  0.39285669460E+03  0.91296454042E+02 0.  0.
         23    2    4    4    0    0 -0.76428836189E+03  0.15940133679E+03 -0.20468013333E+04  0.21923155147E+04  0.85475913657E+02 0.  0.
          3    1    3    3  502    0  0.31379220593E+03 -0.17438496641E+03 -0.17181584429E+03  0.39799038853E+03  0.00000000000E+00 0. -1.
         -4    1    3    3    0  502  0.24089674753E+03 -0.97657308643E+02 -0.19552183805E+03  0.32526448017E+03  0.00000000000E+00 0.  1.
         11    1    5    5    0    0  0.93607664941E+01 -0.12998159395E+02 -0.78145946175E+01  0.17822569569E+02  0.00000000000E+00 0. -1.
        -11    1    5    5    0    0  0.20023864193E+03  0.12563909765E+03 -0.29115270625E+03  0.37503412503E+03  0.00000000000E+00 0.  1.
          1    1    6    6  503    0 -0.19928596714E+03  0.79488684779E+02 -0.53646243703E+03  0.57777616258E+03  0.00000000000E+00 0. -1.
         -1    1    6    6    0  503 -0.56500239475E+03  0.79912652010E+02 -0.15103388962E+04  0.16145393521E+04  0.00000000000E+00 0.  1.
<mgrwt>
<rscale>  0 0.18933420E+04</rscale>
<asrwt>0</asrwt>
<pdfrwt beam="1">  1        1 0.46319483E+00 0.18933420E+04</pdfrwt>
<pdfrwt beam="2">  1       -2 0.45793909E-01 0.18933420E+04</pdfrwt>
<totfact> 0.21883640E+00</totfact>
</mgrwt>
</event>
<event>
12    4  0.4280696E-008  0.2672826E+04  0.7818608E-02  0.8343876E-01
          1   -1    0    0  501    0  0.00000000000E+00  0.00000000000E+00  0.12987063689E+04  0.12987063689E+04  0.00000000000E+00 0. -1.
         -2   -1    0    0    0  501 -0.00000000000E+00 -0.00000000000E+00 -0.13752142372E+04  0.13752142372E+04  0.00000000000E+00 0.  1.
        -24    2    1    2    0    0  0.18611473321E+03 -0.84396839644E+03 -0.84594378464E+03  0.12119158167E+04  0.78725547623E+02 0.  0.
        254    2    1    2    0    0 -0.18611473321E+03  0.84396839644E+03  0.76943591627E+03  0.14620047894E+04  0.89359108483E+03 0.  0.
         23    2    4    4    0    0 -0.27149717581E+03  0.19236252904E+02 -0.49912219497E+02  0.29284422449E+03  0.95842371959E+02 0.  0.
         23    2    4    4    0    0  0.85382442595E+02  0.82473214353E+03  0.81934813577E+03  0.11691605649E+04  0.90176431986E+02 0.  0.
          3    1    3    3  502    0  0.22854369869E+02 -0.27326389135E+03 -0.26990989362E+03  0.38476853719E+03  0.00000000000E+00 0. -1.
         -4    1    3    3    0  502  0.16326036334E+03 -0.57070450509E+03 -0.57603389102E+03  0.82714727949E+03  0.00000000000E+00 0.  1.
         11    1    5    5    0    0 -0.72980101167E+02  0.30116391549E+01 -0.58348847686E+02  0.93486646977E+02  0.00000000000E+00 0.  1.
        -11    1    5    5    0    0 -0.19851707464E+03  0.16224613749E+02  0.84366281888E+01  0.19935757751E+03  0.00000000000E+00 0. -1.
          1    1    6    6  503    0  0.13139763549E+02  0.19276578180E+03  0.14066770049E+03  0.23899519238E+03  0.00000000000E+00 0. -1.
         -1    1    6    6    0  503  0.72242679046E+02  0.63196636174E+03  0.67868043528E+03  0.93016537254E+03  0.00000000000E+00 0.  1.
<mgrwt>
<rscale>  0 0.26728258E+04</rscale>
<asrwt>0</asrwt>
<pdfrwt beam="1">  1        1 0.19980098E+00 0.26728258E+04</pdfrwt>
<pdfrwt beam="2">  1       -2 0.21157142E+00 0.26728258E+04</pdfrwt>
<totfact> 0.77906141E-01</totfact>
</mgrwt>
</event>
<event>
12    4  0.4280696E-008  0.3025916E+04  0.7818608E-02  0.8236369E-01
          1   -1    0    0  501    0  0.00000000000E+00  0.00000000000E+00  0.23476091790E+04  0.23476091790E+04  0.00000000000E+00 0. -1.
         -2   -1    0    0    0  501 -0.00000000000E+00 -0.00000000000E+00 -0.97505206141E+03  0.97505206141E+03  0.00000000000E+00 0.  1.
        -24    2    1    2    0    0 -0.11738504886E+04 -0.59980450732E+03  0.10780381009E+04  0.17051255543E+04  0.87158432119E+02 0.  0.
        254    2    1    2    0    0  0.11738504886E+04  0.59980450732E+03  0.29451901673E+03  0.16175356862E+04  0.88993810361E+03 0.  0.
         23    2    4    4    0    0  0.38757322755E+03  0.74204504771E+02  0.50176225977E+03  0.64478986793E+03  0.90935654264E+02 0.  0.
         23    2    4    4    0    0  0.78627726104E+03  0.52560000255E+03 -0.20724324304E+03  0.97274581824E+03  0.93794302637E+02 0.  0.
          1    1    3    3  502    0 -0.92078657417E+03 -0.44859100466E+03  0.87572905701E+03  0.13475842037E+04  0.00000000000E+00 0. -1.
         -2    1    3    3    0  502 -0.25306391442E+03 -0.15121350266E+03  0.20230904388E+03  0.35754135062E+03  0.00000000000E+00 0.  1.
         11    1    5    5    0    0  0.23827174598E+03  0.90255813333E+02  0.31547514926E+03  0.40551708543E+03  0.00000000000E+00 0. -1.
        -11    1    5    5    0    0  0.14930148156E+03 -0.16051308562E+02  0.18628711051E+03  0.23927278250E+03  0.00000000000E+00 0.  1.
          1    1    6    6  503    0  0.41588023783E+03  0.23177317415E+03 -0.13148864379E+03  0.49392756546E+03  0.00000000000E+00 0. -1.
         -1    1    6    6    0  503  0.37039702322E+03  0.29382682840E+03 -0.75754599255E+02  0.47881825279E+03  0.00000000000E+00 0.  1.
<mgrwt>
<rscale>  0 0.30259155E+04</rscale>
<asrwt>0</asrwt>
<pdfrwt beam="1">  1        1 0.36117064E+00 0.30259155E+04</pdfrwt>
<pdfrwt beam="2">  1       -2 0.15000801E+00 0.30259155E+04</pdfrwt>
<totfact> 0.38620311E-01</totfact>
</mgrwt>
</event>
<event>
12    4  0.4280696E-008  0.1532769E+04  0.7818608E-02  0.8862950E-01
         -2   -1    0    0    0  501 -0.00000000000E+00  0.00000000000E+00  0.82854490766E+03  0.82854490766E+03  0.00000000000E+00 0.  1.
          1   -1    0    0  501    0  0.00000000000E+00 -0.00000000000E+00 -0.70888766198E+03  0.70888766198E+03  0.00000000000E+00 0. -1.
        -24    2    1    2    0    0 -0.89949939644E+02  0.33959834757E+03 -0.34484720877E+03  0.49880360674E+03  0.80420217520E+02 0.  0.
        254    2    1    2    0    0  0.89949939644E+02 -0.33959834757E+03  0.46450445445E+03  0.10386289629E+04  0.85998122366E+03 0.  0.
         23    2    4    4    0    0 -0.53640012659E+02 -0.57888984478E+03  0.14839316088E+03  0.60721297285E+03  0.93254280581E+02 0.  0.
         23    2    4    4    0    0  0.14358995230E+03  0.23929149721E+03  0.31611129357E+03  0.43141599005E+03  0.91186136594E+02 0.  0.
          3    1    3    3  502    0 -0.71021477665E+02  0.24771797957E+03 -0.29792546154E+03  0.39391347822E+03  0.00000000000E+00 0. -1.
         -4    1    3    3    0  502 -0.18928461979E+02  0.91880368007E+02 -0.46921747229E+02  0.10489012852E+03  0.00000000000E+00 0.  1.
         11    1    5    5    0    0  0.13517787897E+02 -0.23538317336E+03  0.90003623395E+02  0.25236604588E+03  0.00000000000E+00 0. -1.
        -11    1    5    5    0    0 -0.67157800555E+02 -0.34350667143E+03  0.58389537484E+02  0.35484692697E+03  0.00000000000E+00 0.  1.
          2    1    6    6  503    0  0.27050515307E+02  0.38089672934E+01  0.12916556935E+02  0.30217148331E+02  0.00000000000E+00 0. -1.
         -2    1    6    6    0  503  0.11653943700E+03  0.23548252992E+03  0.30319473664E+03  0.40119884172E+03  0.00000000000E+00 0.  1.
<mgrwt>
<rscale>  0 0.15327691E+04</rscale>
<asrwt>0</asrwt>
<pdfrwt beam="1">  1        1 0.10905964E+00 0.15327691E+04</pdfrwt>
<pdfrwt beam="2">  1       -2 0.12746845E+00 0.15327691E+04</pdfrwt>
<totfact> 0.10302093E+01</totfact>
</mgrwt>
</event>
<event>
12    4  0.4280696E-008  0.1711012E+04  0.7818608E-02  0.8755109E-01
         -2   -1    0    0    0  501 -0.00000000000E+00  0.00000000000E+00  0.56135197449E+03  0.56135197449E+03  0.00000000000E+00 0.  1.
          1   -1    0    0  501    0  0.00000000000E+00 -0.00000000000E+00 -0.13037996967E+04  0.13037996967E+04  0.00000000000E+00 0. -1.
        -24    2    1    2    0    0 -0.32959231933E+02  0.47403579692E+03  0.12520475170E+03  0.49789627169E+03  0.80176179670E+02 0.  0.
        254    2    1    2    0    0  0.32959231933E+02 -0.47403579692E+03 -0.86765247389E+03  0.13672553995E+04  0.94380626415E+03 0.  0.
         23    2    4    4    0    0  0.23017812088E+03 -0.15006748574E+03  0.11401705821E+03  0.31095959248E+03  0.90519395643E+02 0.  0.
         23    2    4    4    0    0 -0.19721888894E+03 -0.32396831118E+03 -0.98166953210E+03  0.10562958070E+04  0.90746927433E+02 0.  0.
          1    1    3    3  502    0 -0.18326846326E+02  0.18892812792E+02  0.10130054308E+02  0.28203362774E+02  0.00000000000E+00 0. -1.
         -2    1    3    3    0  502 -0.14632385607E+02  0.45514298413E+03  0.11507469739E+03  0.46969290892E+03  0.00000000000E+00 0.  1.
         11    1    5    5    0    0  0.21525202136E+02 -0.46919609816E+02 -0.35110922398E+00  0.51622741016E+02  0.00000000000E+00 0.  1.
        -11    1    5    5    0    0  0.20865291874E+03 -0.10314787592E+03  0.11436816743E+03  0.25933685147E+03  0.00000000000E+00 0. -1.
          4    1    6    6  503    0 -0.12299039260E+03 -0.14615621865E+03 -0.39438155184E+03  0.43820666968E+03  0.00000000000E+00 0. -1.
         -4    1    6    6    0  503 -0.74228496342E+02 -0.17781209254E+03 -0.58728798026E+03  0.61808913732E+03  0.00000000000E+00 0.  1.
<mgrwt>
<rscale>  0 0.17110120E+04</rscale>
<asrwt>0</asrwt>
<pdfrwt beam="1">  1        1 0.20058457E+00 0.17110120E+04</pdfrwt>
<pdfrwt beam="2">  1       -2 0.86361843E-01 0.17110120E+04</pdfrwt>
<totfact> 0.87118002E+00</totfact>
</mgrwt>
</event>
<event>
12    4  0.4280696E-008  0.1408446E+04  0.7818608E-02  0.8947727E-01
         -2   -1    0    0    0  501 -0.00000000000E+00  0.00000000000E+00  0.60345472532E+03  0.60345472532E+03  0.00000000000E+00 0.  1.
          1   -1    0    0  501    0  0.00000000000E+00 -0.00000000000E+00 -0.82181839908E+03  0.82181839908E+03  0.00000000000E+00 0. -1.
        -24    2    1    2    0    0 -0.11489883598E+03 -0.15383914189E+03  0.30421050753E+03  0.36842644666E+03  0.79534832723E+02 0.  0.
        254    2    1    2    0    0  0.11489883598E+03  0.15383914189E+03 -0.52257418129E+03  0.10568466777E+04  0.89831670430E+03 0.  0.
         23    2    4    4    0    0  0.29767694076E+03 -0.18322102265E+03 -0.55329275612E+03  0.66096086578E+03  0.92492637101E+02 0.  0.
         23    2    4    4    0    0 -0.18277810478E+03  0.33706016455E+03  0.30718574833E+02  0.39588581196E+03  0.93619202970E+02 0.  0.
          1    1    3    3  502    0 -0.17484709458E+02  0.18832061874E+01  0.61993430453E+02  0.64439482848E+02  0.00000000000E+00 0. -1.
         -2    1    3    3    0  502 -0.97414126518E+02 -0.15572234808E+03  0.24221707708E+03  0.30398696381E+03  0.00000000000E+00 0.  1.
         11    1    5    5    0    0  0.29015538349E+03 -0.14865730924E+03 -0.50515108539E+03  0.60122105854E+03  0.00000000000E+00 0. -1.
        -11    1    5    5    0    0  0.75215572607E+01 -0.34563713408E+02 -0.48141670728E+02  0.59739807237E+02  0.00000000000E+00 0.  1.
          3    1    6    6  503    0 -0.14763387684E+03  0.23278823921E+03 -0.16495524405E+02  0.27614892401E+03  0.00000000000E+00 0. -1.
         -3    1    6    6    0  503 -0.35144227938E+02  0.10427192534E+03  0.47214099237E+02  0.11973688796E+03  0.00000000000E+00 0.  1.
<mgrwt>
<rscale>  0 0.14084462E+04</rscale>
<asrwt>0</asrwt>
<pdfrwt beam="1">  1        1 0.12643360E+00 0.14084462E+04</pdfrwt>
<pdfrwt beam="2">  1       -2 0.92839188E-01 0.14084462E+04</pdfrwt>
<totfact> 0.17772350E+01</totfact>
</mgrwt>
</event>
<event>
12    4  0.4280696E-008  0.1321043E+04  0.7818608E-02  0.9013042E-01
          1   -1    0    0  501    0  0.00000000000E+00  0.00000000000E+00  0.72518352345E+03  0.72518352345E+03  0.00000000000E+00 0. -1.
         -2   -1    0    0    0  501 -0.00000000000E+00 -0.00000000000E+00 -0.60162560679E+03  0.60162560679E+03  0.00000000000E+00 0.  1.
        -24    2    1    2    0    0 -0.19167127902E+03 -0.92341688353E+02  0.31212014358E+03  0.38652424026E+03  0.81958145844E+02 0.  0.
        254    2    1    2    0    0  0.19167127902E+03  0.92341688353E+02 -0.18856222692E+03  0.94028488998E+03  0.89627846917E+03 0.  0.
         23    2    4    4    0    0  0.33424608208E+03  0.13674388235E+03  0.26262855963E+03  0.45577999514E+03  0.91336251781E+02 0.  0.
         23    2    4    4    0    0 -0.14257480306E+03 -0.44402194002E+02 -0.45119078654E+03  0.48450489484E+03  0.94195212000E+02 0.  0.
          3    1    3    3  502    0 -0.15875180710E+03 -0.10752900505E+03  0.26214381357E+03  0.32478300783E+03  0.00000000000E+00 0. -1.
         -4    1    3    3    0  502 -0.32919471916E+02  0.15187316699E+02  0.49976330016E+02  0.61741232427E+02  0.00000000000E+00 0.  1.
         11    1    5    5    0    0  0.64613785908E+00  0.13201147506E+02  0.24055695790E+02  0.27447482390E+02  0.00000000000E+00 0. -1.
        -11    1    5    5    0    0  0.33359994422E+03  0.12354273485E+03  0.23857286384E+03  0.42833251275E+03  0.00000000000E+00 0.  1.
          3    1    6    6  503    0 -0.10052007696E+02 -0.40097793947E+02 -0.75103880364E+02  0.85729042826E+02  0.00000000000E+00 0. -1.
         -3    1    6    6    0  503 -0.13252279536E+03 -0.43044000548E+01 -0.37608690618E+03  0.39877585202E+03  0.00000000000E+00 0.  1.
<mgrwt>
<rscale>  0 0.13210435E+04</rscale>
<asrwt>0</asrwt>
<pdfrwt beam="1">  1        1 0.11156670E+00 0.13210435E+04</pdfrwt>
<pdfrwt beam="2">  1       -2 0.92557786E-01 0.13210435E+04</pdfrwt>
<totfact> 0.21960485E+01</totfact>
</mgrwt>
</event>
<event>
12    4  0.4280696E-008  0.1322137E+04  0.7818608E-02  0.9012192E-01
          1   -1    0    0  501    0  0.00000000000E+00  0.00000000000E+00  0.20250453857E+04  0.20250453857E+04  0.00000000000E+00 0. -1.
         -2   -1    0    0    0  501 -0.00000000000E+00 -0.00000000000E+00 -0.21580346599E+03  0.21580346599E+03  0.00000000000E+00 0.  1.
        -24    2    1    2    0    0 -0.26372937365E+03 -0.17027073539E+03  0.67446013316E+03  0.74804176784E+03  0.78260522246E+02 0.  0.
        254    2    1    2    0    0  0.26372937365E+03  0.17027073539E+03  0.11347817865E+04  0.14928070839E+04  0.91771345238E+03 0.  0.
         23    2    4    4    0    0 -0.13178703571E+03 -0.76065416166E+02 -0.74293761037E+02  0.19384049774E+03  0.94344079401E+02 0.  0.
         23    2    4    4    0    0  0.39551640936E+03  0.24633615155E+03  0.12090755476E+04  0.12989665861E+04  0.91300506289E+02 0.  0.
          3    1    3    3  502    0 -0.27701568128E+02 -0.35634996449E+02  0.15981231852E+03  0.16606386421E+03  0.00000000000E+00 0. -1.
         -4    1    3    3    0  502 -0.23602780552E+03 -0.13463573894E+03  0.51464781465E+03  0.58197790362E+03  0.00000000000E+00 0.  1.
         11    1    5    5    0    0 -0.11500969646E+03 -0.97515350950E+02 -0.70111779741E+02  0.16628931298E+03  0.00000000000E+00 0. -1.
        -11    1    5    5    0    0 -0.16777339246E+02  0.21449934784E+02 -0.41819812969E+01  0.27551184766E+02  0.00000000000E+00 0.  1.
          3    1    6    6  503    0  0.22570546018E+03  0.12107149667E+03  0.54527169547E+03  0.60243048058E+03  0.00000000000E+00 0. -1.
         -3    1    6    6    0  503  0.16981094918E+03  0.12526465488E+03  0.66380385211E+03  0.69653610553E+03  0.00000000000E+00 0.  1.
<mgrwt>
<rscale>  0 0.13221374E+04</rscale>
<asrwt>0</asrwt>
<pdfrwt beam="1">  1        1 0.31154543E+00 0.13221374E+04</pdfrwt>
<pdfrwt beam="2">  1       -2 0.33200535E-01 0.13221374E+04</pdfrwt>
<totfact> 0.20933038E+01</totfact>
</mgrwt>
</event>
<event>
12    4  0.4280696E-008  0.1625385E+04  0.7818608E-02  0.8805103E-01
          1   -1    0    0  501    0  0.00000000000E+00  0.00000000000E+00  0.19896281514E+04  0.19896281514E+04  0.00000000000E+00 0. -1.
         -2   -1    0    0    0  501 -0.00000000000E+00 -0.00000000000E+00 -0.33195587189E+03  0.33195587189E+03  0.00000000000E+00 0.  1.
        -24    2    1    2    0    0 -0.47168272416E+03  0.17116454678E+03  0.22800223261E+03  0.55683966750E+03  0.79394602378E+02 0.  0.
        254    2    1    2    0    0  0.47168272416E+03 -0.17116454678E+03  0.14296700469E+04  0.17647443558E+04  0.90475648874E+03 0.  0.
         23    2    4    4    0    0 -0.21799294438E+03 -0.21227671492E+03  0.29926075188E+03  0.43682314549E+03  0.93140406524E+02 0.  0.
         23    2    4    4    0    0  0.68967566853E+03  0.41112168137E+02  0.11304092950E+04  0.13279212103E+04  0.90591546715E+02 0.  0.
          1    1    3    3  502    0 -0.15949072166E+02  0.14191136497E+02 -0.42905062921E+01  0.21775438051E+02  0.00000000000E+00 0. -1.
         -2    1    3    3    0  502 -0.45573365199E+03  0.15697341028E+03  0.23229273890E+03  0.53506422945E+03  0.00000000000E+00 0.  1.
         11    1    5    5    0    0 -0.48541271215E+02 -0.40357133267E+01  0.59306584454E+02  0.76745116801E+02  0.00000000000E+00 0. -1.
        -11    1    5    5    0    0 -0.16945167316E+03 -0.20824100159E+03  0.23995416743E+03  0.36007802869E+03  0.00000000000E+00 0.  1.
          4    1    6    6  503    0  0.34666930624E+03 -0.24136634606E+02  0.55017929743E+03  0.65073761559E+03  0.00000000000E+00 0. -1.
         -4    1    6    6    0  503  0.34300636230E+03  0.65248802743E+02  0.58022999757E+03  0.67718359469E+03  0.00000000000E+00 0.  1.
<mgrwt>
<rscale>  0 0.16253846E+04</rscale>
<asrwt>0</asrwt>
<pdfrwt beam="1">  1        1 0.30609663E+00 0.16253846E+04</pdfrwt>
<pdfrwt beam="2">  1       -2 0.51070135E-01 0.16253846E+04</pdfrwt>
<totfact> 0.92296752E+00</totfact>
</mgrwt>
</event>
<event>
12    4  0.4280696E-008  0.1674977E+04  0.7818608E-02  0.8775766E-01
         -2   -1    0    0    0  501 -0.00000000000E+00  0.00000000000E+00  0.54361630441E+03  0.54361630441E+03  0.00000000000E+00 0.  1.
          1   -1    0    0  501    0  0.00000000000E+00 -0.00000000000E+00 -0.12902250822E+04  0.12902250822E+04  0.00000000000E+00 0. -1.
        -24    2    1    2    0    0  0.60778700328E+02  0.41772874196E+03  0.18359582980E+03  0.46735984180E+03  0.80786389513E+02 0.  0.
        254    2    1    2    0    0 -0.60778700328E+02 -0.41772874196E+03 -0.93020460757E+03  0.13664815448E+04  0.90763420387E+03 0.  0.
         23    2    4    4    0    0 -0.42442152606E+03 -0.25978425217E+03 -0.22861085325E+03  0.55549650572E+03  0.93230661194E+02 0.  0.
         23    2    4    4    0    0  0.36364282573E+03 -0.15794448979E+03 -0.70159375432E+03  0.81098503907E+03  0.90996543543E+02 0.  0.
          3    1    3    3  502    0  0.97957828145E+01  0.11258551657E+02  0.22858441686E+02  0.27298730788E+02  0.00000000000E+00 0. -1.
         -4    1    3    3    0  502  0.50982917514E+02  0.40647019031E+03  0.16073738812E+03  0.44006111101E+03  0.00000000000E+00 0.  1.
         11    1    5    5    0    0  0.32394628528E+01 -0.35503681840E+01 -0.10059776691E+02  0.11148916579E+02  0.00000000000E+00 0.  1.
        -11    1    5    5    0    0 -0.42766098891E+03 -0.25623388399E+03 -0.21855107656E+03  0.54434758914E+03  0.00000000000E+00 0. -1.
          2    1    6    6  503    0  0.19504524731E+03 -0.13049187900E+03 -0.37392461772E+03  0.44146392686E+03  0.00000000000E+00 0.  1.
         -2    1    6    6    0  503  0.16859757842E+03 -0.27452610791E+02 -0.32766913660E+03  0.36952111221E+03  0.00000000000E+00 0. -1.
<mgrwt>
<rscale>  0 0.16749775E+04</rscale>
<asrwt>0</asrwt>
<pdfrwt beam="1">  1        1 0.19849616E+00 0.16749775E+04</pdfrwt>
<pdfrwt beam="2">  1       -2 0.83633279E-01 0.16749775E+04</pdfrwt>
<totfact> 0.96139532E+00</totfact>
</mgrwt>
</event>
<event>
12    4  0.4280696E-008  0.1233125E+04  0.7818608E-02  0.9084347E-01
         -2   -1    0    0    0  501 -0.00000000000E+00  0.00000000000E+00  0.42177748511E+03  0.42177748511E+03  0.00000000000E+00 0.  1.
          1   -1    0    0  501    0  0.00000000000E+00 -0.00000000000E+00 -0.90130257355E+03  0.90130257355E+03  0.00000000000E+00 0. -1.
        -24    2    1    2    0    0  0.23033396467E+02  0.86006990929E+02 -0.39979966946E+03  0.41776390688E+03  0.82214149335E+02 0.  0.
        254    2    1    2    0    0 -0.23033396467E+02 -0.86006990929E+02 -0.79725418979E+02  0.90531615179E+03  0.89739258545E+03 0.  0.
         23    2    4    4    0    0  0.20663748830E+03 -0.41699025160E+03  0.37792494104E+02  0.47574699608E+03  0.91252452942E+02 0.  0.
         23    2    4    4    0    0 -0.22967088477E+03  0.33098326068E+03 -0.11751791308E+03  0.42956915570E+03  0.91763639200E+02 0.  0.
          3    1    3    3  502    0 -0.55131313973E+01  0.86464675624E+02 -0.34793864674E+03  0.35856357406E+03  0.00000000000E+00 0. -1.
         -4    1    3    3    0  502  0.28546527864E+02 -0.45768469542E+00 -0.51861022718E+02  0.59200332818E+02  0.00000000000E+00 0.  1.
         11    1    5    5    0    0  0.24953200377E+02 -0.12883091058E+03 -0.10692344335E+02  0.13166013807E+03  0.00000000000E+00 0. -1.
        -11    1    5    5    0    0  0.18168428792E+03 -0.28815934103E+03  0.48484838439E+02  0.34408685801E+03  0.00000000000E+00 0.  1.
          1    1    6    6  503    0 -0.23529253605E+03  0.30636194458E+03 -0.11918588477E+03  0.40425919128E+03  0.00000000000E+00 0.  1.
         -1    1    6    6    0  503  0.56216512822E+01  0.24621316101E+02  0.16679716877E+01  0.25309964426E+02  0.00000000000E+00 0. -1.
<mgrwt>
<rscale>  0 0.12331247E+04</rscale>
<asrwt>0</asrwt>
<pdfrwt beam="1">  1        1 0.13866193E+00 0.12331247E+04</pdfrwt>
<pdfrwt beam="2">  1       -2 0.64888845E-01 0.12331247E+04</pdfrwt>
<totfact> 0.34424068E+01</totfact>
</mgrwt>
</event>
<event>
12    4  0.4280696E-008  0.1511705E+04  0.7818608E-02  0.8876707E-01
          1   -1    0    0  501    0  0.00000000000E+00  0.00000000000E+00  0.11870111268E+04  0.11870111268E+04  0.00000000000E+00 0. -1.
         -2   -1    0    0    0  501 -0.00000000000E+00 -0.00000000000E+00 -0.48130365131E+03  0.48130365131E+03  0.00000000000E+00 0.  1.
        -24    2    1    2    0    0 -0.41947566968E+03  0.22712987383E+03  0.19192323938E+03  0.52041798345E+03  0.80327645566E+02 0.  0.
        254    2    1    2    0    0  0.41947566968E+03 -0.22712987383E+03  0.51378423609E+03  0.11478967946E+04  0.90892518552E+03 0.  0.
         23    2    4    4    0    0  0.64022170323E+03  0.49701750550E+02  0.24157478141E+03  0.69221982914E+03  0.91955552024E+02 0.  0.
         23    2    4    4    0    0 -0.22074603355E+03 -0.27683162438E+03  0.27220945468E+03  0.45567696551E+03  0.90437547993E+02 0.  0.
          1    1    3    3  502    0 -0.32971157616E+03  0.20187692419E+03  0.12753231676E+03  0.40709766371E+03  0.00000000000E+00 0. -1.
         -2    1    3    3    0  502 -0.89764093513E+02  0.25252949638E+02  0.64390922620E+02  0.11332031974E+03  0.00000000000E+00 0.  1.
         11    1    5    5    0    0  0.28150881132E+03  0.20512557741E+02  0.15516489894E+03  0.32209334321E+03  0.00000000000E+00 0. -1.
        -11    1    5    5    0    0  0.35871289191E+03  0.29189192809E+02  0.86409882464E+02  0.37012648593E+03  0.00000000000E+00 0.  1.
          2    1    6    6  503    0 -0.74078081525E+02 -0.10766205787E+03  0.49126916568E+02  0.13961423566E+03  0.00000000000E+00 0. -1.
         -2    1    6    6    0  503 -0.14666795203E+03 -0.16916956651E+03  0.22308253812E+03  0.31606272985E+03  0.00000000000E+00 0.  1.
<mgrwt>
<rscale>  0 0.15117047E+04</rscale>
<asrwt>0</asrwt>
<pdfrwt beam="1">  1        1 0.18261710E+00 0.15117047E+04</pdfrwt>
<pdfrwt beam="2">  1       -2 0.74046716E-01 0.15117047E+04</pdfrwt>
<totfact> 0.15208729E+01</totfact>
</mgrwt>
</event>
<event>
12    4  0.4280696E-008  0.1522261E+04  0.7818608E-02  0.8869783E-01
          3   -1    0    0  501    0  0.00000000000E+00  0.00000000000E+00  0.19414292948E+04  0.19414292948E+04  0.00000000000E+00 0. -1.
         -4   -1    0    0    0  501 -0.00000000000E+00 -0.00000000000E+00 -0.29839843520E+03  0.29839843520E+03  0.00000000000E+00 0.  1.
        -24    2    1    2    0    0 -0.39145380221E+03 -0.32304507420E+03  0.60263474674E+03  0.79176469051E+03  0.78284659662E+02 0.  0.
        254    2    1    2    0    0  0.39145380221E+03  0.32304507420E+03  0.10403961128E+04  0.14480630394E+04  0.86998177877E+03 0.  0.
         23    2    4    4    0    0  0.15010425731E+03 -0.24850893222E+03  0.62663772728E+03  0.69653665695E+03  0.90556588785E+02 0.  0.
         23    2    4    4    0    0  0.24134954489E+03  0.57155400642E+03  0.41375838555E+03  0.75152638249E+03  0.93125275278E+02 0.  0.
          1    1    3    3  502    0 -0.38326857995E+03 -0.32729665995E+03  0.59515610657E+03  0.77989018405E+03  0.00000000000E+00 0. -1.
         -2    1    3    3    0  502 -0.81852222572E+01  0.42515857578E+01  0.74786401668E+01  0.11874506457E+02  0.00000000000E+00 0.  1.
         11    1    5    5    0    0  0.14879384819E+03 -0.20274186738E+03  0.57460343586E+03  0.62722642048E+03  0.00000000000E+00 0.  1.
        -11    1    5    5    0    0  0.13104091286E+01 -0.45767064845E+02  0.52034291420E+02  0.69310236475E+02  0.00000000000E+00 0. -1.
          1    1    6    6  503    0  0.58391972125E+02  0.14465247994E+03  0.15476320894E+03  0.21973987622E+03  0.00000000000E+00 0. -1.
         -1    1    6    6    0  503  0.18295757277E+03  0.42690152648E+03  0.25899517661E+03  0.53178650627E+03  0.00000000000E+00 0.  1.
<mgrwt>
<rscale>  0 0.15222608E+04</rscale>
<asrwt>0</asrwt>
<pdfrwt beam="1">  1        3 0.29868142E+00 0.15222608E+04</pdfrwt>
<pdfrwt beam="2">  1       -4 0.45907453E-01 0.15222608E+04</pdfrwt>
<totfact> 0.40261614E-01</totfact>
</mgrwt>
</event>
<event>
12    4  0.4280696E-008  0.1784530E+04  0.7818608E-02  0.8714569E-01
         -2   -1    0    0    0  501 -0.00000000000E+00  0.00000000000E+00  0.79821066113E+03  0.79821066113E+03  0.00000000000E+00 0.  1.
          1   -1    0    0  501    0  0.00000000000E+00 -0.00000000000E+00 -0.99740243288E+03  0.99740243288E+03  0.00000000000E+00 0. -1.
        -24    2    1    2    0    0 -0.39746078251E+03 -0.41324867028E+03  0.24326752056E+03  0.62791921962E+03  0.79711496618E+02 0.  0.
        254    2    1    2    0    0  0.39746078251E+03  0.41324867028E+03 -0.44245929231E+03  0.11676938744E+04  0.91596354831E+03 0.  0.
         23    2    4    4    0    0 -0.26513503739E+03  0.20695374235E+03 -0.28431878858E+03  0.45008514022E+03  0.92806359597E+02 0.  0.
         23    2    4    4    0    0  0.66259581990E+03  0.20629492793E+03 -0.15814050373E+03  0.71760873418E+03  0.91449760046E+02 0.  0.
          3    1    3    3  502    0 -0.18201576406E+03 -0.16281698148E+03  0.14151769156E+03  0.28225230707E+03  0.00000000000E+00 0. -1.
         -4    1    3    3    0  502 -0.21544501845E+03 -0.25043168880E+03  0.10174982900E+03  0.34566691255E+03  0.00000000000E+00 0.  1.
         11    1    5    5    0    0  0.30690082349E+01  0.18011313086E+02 -0.29396637084E+02  0.34611970220E+02  0.00000000000E+00 0. -1.
        -11    1    5    5    0    0 -0.26820404562E+03  0.18894242927E+03 -0.25492215149E+03  0.41547317000E+03  0.00000000000E+00 0.  1.
          2    1    6    6  503    0  0.19423784420E+03  0.66540498770E+02 -0.48733622601E+01  0.20537703804E+03  0.00000000000E+00 0. -1.
         -2    1    6    6    0  503  0.46835797570E+03  0.13975442916E+03 -0.15326714147E+03  0.51223169613E+03  0.00000000000E+00 0.  1.
<mgrwt>
<rscale>  0 0.17845305E+04</rscale>
<asrwt>0</asrwt>
<pdfrwt beam="1">  1        1 0.15344653E+00 0.17845305E+04</pdfrwt>
<pdfrwt beam="2">  1       -2 0.12280164E+00 0.17845305E+04</pdfrwt>
<totfact> 0.63117663E+00</totfact>
</mgrwt>
</event>
<event>
12    4  0.4280696E-008  0.2042119E+04  0.7818608E-02  0.8587178E-01
          1   -1    0    0  501    0  0.00000000000E+00  0.00000000000E+00  0.88136305463E+03  0.88136305463E+03  0.00000000000E+00 0. -1.
         -2   -1    0    0    0  501 -0.00000000000E+00 -0.00000000000E+00 -0.11828981945E+04  0.11828981945E+04  0.00000000000E+00 0.  1.
        -24    2    1    2    0    0  0.50623117040E+02  0.88030060311E+02 -0.94671382342E+03  0.95540387637E+03  0.78851201797E+02 0.  0.
        254    2    1    2    0    0 -0.50623117040E+02 -0.88030060311E+02  0.64517868350E+03  0.11088573728E+04  0.89610108141E+03 0.  0.
         23    2    4    4    0    0 -0.21461150638E+03  0.30317984670E+03  0.54202955600E+03  0.66354910402E+03  0.92332311512E+02 0.  0.
         23    2    4    4    0    0  0.16398838934E+03 -0.39120990701E+03  0.10314912750E+03  0.44530826880E+03  0.87876780650E+02 0.  0.
          1    1    3    3  502    0  0.45884024083E+02  0.42385375848E+02 -0.26981357925E+03  0.27694987145E+03  0.00000000000E+00 0. -1.
         -2    1    3    3    0  502  0.47390929566E+01  0.45644684463E+02 -0.67690024417E+03  0.67845400491E+03  0.00000000000E+00 0.  1.
         11    1    5    5    0    0 -0.11903851663E+03  0.98318353212E+02  0.25629053161E+03  0.29920144320E+03  0.00000000000E+00 0. -1.
        -11    1    5    5    0    0 -0.95572989746E+02  0.20486149349E+03  0.28573902439E+03  0.36434766081E+03  0.00000000000E+00 0.  1.
          3    1    6    6  503    0 -0.10374859370E+02 -0.13644307202E+02  0.65856002835E+01  0.18362324392E+02  0.00000000000E+00 0. -1.
         -3    1    6    6    0  503  0.17436324871E+03 -0.37756559981E+03  0.96563527218E+02  0.42694594441E+03  0.00000000000E+00 0.  1.
<mgrwt>
<rscale>  0 0.20421193E+04</rscale>
<asrwt>0</asrwt>
<pdfrwt beam="1">  1        1 0.13559432E+00 0.20421193E+04</pdfrwt>
<pdfrwt beam="2">  1       -2 0.18198434E+00 0.20421193E+04</pdfrwt>
<totfact> 0.26824273E+00</totfact>
</mgrwt>
</event>
<event>
12    4  0.4280696E-008  0.2679255E+04  0.7818608E-02  0.8341768E-01
         -2   -1    0    0    0  501 -0.00000000000E+00  0.00000000000E+00  0.10670623397E+04  0.10670623397E+04  0.00000000000E+00 0.  1.
          1   -1    0    0  501    0  0.00000000000E+00 -0.00000000000E+00 -0.16818148641E+04  0.16818148641E+04  0.00000000000E+00 0. -1.
        -24    2    1    2    0    0 -0.10662900682E+03 -0.55803274971E+03 -0.13079574306E+04  0.14281072204E+04  0.77248286968E+02 0.  0.
        254    2    1    2    0    0  0.10662900682E+03  0.55803274971E+03  0.69320490623E+03  0.13207699833E+04  0.97011855564E+03 0.  0.
         23    2    4    4    0    0  0.50093802084E+03  0.48507134887E+03  0.51857403371E+03  0.87414705334E+03  0.94767759316E+02 0.  0.
         23    2    4    4    0    0 -0.39430901402E+03  0.72961400849E+02  0.17463087252E+03  0.44662293000E+03  0.90405394820E+02 0.  0.
          1    1    3    3  502    0 -0.10105992770E+03 -0.49460500318E+03 -0.10936340551E+04  0.12045259087E+04  0.00000000000E+00 0. -1.
         -2    1    3    3    0  502 -0.55690791179E+01 -0.63427746533E+02 -0.21432337550E+03  0.22358131173E+03  0.00000000000E+00 0.  1.
         11    1    5    5    0    0  0.17226774678E+03  0.22318834276E+03  0.23668125119E+03  0.36811306360E+03  0.00000000000E+00 0. -1.
        -11    1    5    5    0    0  0.32867027405E+03  0.26188300610E+03  0.28189278252E+03  0.50603398974E+03  0.00000000000E+00 0.  1.
          4    1    6    6  503    0 -0.16557668874E+02  0.25006648852E+02  0.84654497587E+01  0.31163323394E+02  0.00000000000E+00 0. -1.
         -4    1    6    6    0  503 -0.37775134514E+03  0.47954751997E+02  0.16616542277E+03  0.41545960660E+03  0.00000000000E+00 0.  1.
<mgrwt>
<rscale>  0 0.26792546E+04</rscale>
<asrwt>0</asrwt>
<pdfrwt beam="1">  1        1 0.25874075E+00 0.26792546E+04</pdfrwt>
<pdfrwt beam="2">  1       -2 0.16416344E+00 0.26792546E+04</pdfrwt>
<totfact> 0.88483668E-01</totfact>
</mgrwt>
</event>
<event>
12    4  0.4280696E-008  0.1934690E+04  0.7818608E-02  0.8637779E-01
          1   -1    0    0  501    0  0.00000000000E+00  0.00000000000E+00  0.21480280047E+04  0.21480280047E+04  0.00000000000E+00 0. -1.
         -2   -1    0    0    0  501 -0.00000000000E+00 -0.00000000000E+00 -0.43563505808E+03  0.43563505808E+03  0.00000000000E+00 0.  1.
        -24    2    1    2    0    0  0.28069282072E+03 -0.70004692013E+03  0.52462401535E+03  0.92224667371E+03  0.80339403106E+02 0.  0.
        254    2    1    2    0    0 -0.28069282072E+03  0.70004692013E+03  0.11877689313E+04  0.16614163891E+04  0.88354696187E+03 0.  0.
         23    2    4    4    0    0 -0.18695748231E+02 -0.15556008660E+03  0.12531623840E+02  0.18143707259E+03  0.90630558694E+02 0.  0.
         23    2    4    4    0    0 -0.26199707249E+03  0.85560700673E+03  0.11752373074E+04  0.14799793165E+04  0.91925146211E+02 0.  0.
          3    1    3    3  502    0  0.19984701656E+02 -0.13856368621E+02  0.13954101579E+02  0.28037549866E+02  0.00000000000E+00 0. -1.
         -4    1    3    3    0  502  0.26070811906E+03 -0.68619055151E+03  0.51066991378E+03  0.89420912384E+03  0.00000000000E+00 0.  1.
         11    1    5    5    0    0 -0.26074996054E+02 -0.19601784126E+02  0.29805701894E+02  0.44187274475E+02  0.00000000000E+00 0. -1.
        -11    1    5    5    0    0  0.73792478230E+01 -0.13595830247E+03 -0.17274078054E+02  0.13724979812E+03  0.00000000000E+00 0.  1.
          2    1    6    6  503    0 -0.17271638710E+03  0.66654250608E+03  0.85961078007E+03  0.11013812038E+04  0.00000000000E+00 0. -1.
         -2    1    6    6    0  503 -0.89280685388E+02  0.18906450065E+03  0.31562652735E+03  0.37859811272E+03  0.00000000000E+00 0.  1.
<mgrwt>
<rscale>  0 0.19346900E+04</rscale>
<asrwt>0</asrwt>
<pdfrwt beam="1">  1        1 0.33046584E+00 0.19346900E+04</pdfrwt>
<pdfrwt beam="2">  1       -2 0.67020779E-01 0.19346900E+04</pdfrwt>
<totfact> 0.39577892E+00</totfact>
</mgrwt>
</event>
<event>
12    4  0.4280696E-008  0.3351475E+04  0.7818608E-02  0.8149920E-01
         -2   -1    0    0    0  501 -0.00000000000E+00  0.00000000000E+00  0.17618206132E+04  0.17618206132E+04  0.00000000000E+00 0.  1.
          1   -1    0    0  501    0  0.00000000000E+00 -0.00000000000E+00 -0.15938607071E+04  0.15938607071E+04  0.00000000000E+00 0. -1.
        -24    2    1    2    0    0 -0.73234284847E+03 -0.35157186037E+03 -0.12488108322E+04  0.14919489552E+04  0.80339091567E+02 0.  0.
        254    2    1    2    0    0  0.73234284847E+03  0.35157186037E+03  0.14167707383E+04  0.18637323650E+04  0.89795889822E+03 0.  0.
         23    2    4    4    0    0  0.22438886461E+03 -0.25464671033E+03  0.73957725056E+03  0.81894355221E+03  0.92188516231E+02 0.  0.
         23    2    4    4    0    0  0.50795398386E+03  0.60621857070E+03  0.67719348775E+03  0.10447888128E+04  0.86454834443E+02 0.  0.
          3    1    3    3  502    0 -0.37798870700E+03 -0.22399263627E+03 -0.65125169473E+03  0.78560609317E+03  0.00000000000E+00 0. -1.
         -4    1    3    3    0  502 -0.35435414147E+03 -0.12757922410E+03 -0.59755913749E+03  0.70634286207E+03  0.00000000000E+00 0.  1.
         11    1    5    5    0    0  0.14449852866E+03 -0.22281408592E+03  0.54874001308E+03  0.60962410026E+03  0.00000000000E+00 0. -1.
        -11    1    5    5    0    0  0.79890335950E+02 -0.31832624407E+02  0.19083723748E+03  0.20931945195E+03  0.00000000000E+00 0.  1.
          3    1    6    6  503    0  0.20518044498E+03  0.18593677395E+03  0.25736495888E+03  0.37803203696E+03  0.00000000000E+00 0.  1.
         -3    1    6    6    0  503  0.30277353888E+03  0.42028179675E+03  0.41982852887E+03  0.66675677587E+03  0.00000000000E+00 0. -1.
<mgrwt>
<rscale>  0 0.33514753E+04</rscale>
<asrwt>0</asrwt>
<pdfrwt beam="1">  1        1 0.24520934E+00 0.33514753E+04</pdfrwt>
<pdfrwt beam="2">  1       -2 0.27104933E+00 0.33514753E+04</pdfrwt>
<totfact> 0.19527123E-01</totfact>
</mgrwt>
</event>
<event>
12    4  0.4280696E-008  0.2605710E+04  0.7818608E-02  0.8366264E-01
         -2   -1    0    0    0  501 -0.00000000000E+00  0.00000000000E+00  0.80368309861E+03  0.80368309861E+03  0.00000000000E+00 0.  1.
          1   -1    0    0  501    0  0.00000000000E+00 -0.00000000000E+00 -0.21120653284E+04  0.21120653284E+04  0.00000000000E+00 0. -1.
        -24    2    1    2    0    0  0.29219652993E+03  0.54526483746E+03 -0.16565640257E+04  0.17701327367E+04  0.80454826339E+02 0.  0.
        254    2    1    2    0    0 -0.29219652993E+03 -0.54526483746E+03  0.34818179590E+03  0.11456156903E+04  0.89917306004E+03 0.  0.
         23    2    4    4    0    0 -0.21592637581E+02  0.18247366730E+03 -0.11679676281E+03  0.23623603921E+03  0.91668430580E+02 0.  0.
         23    2    4    4    0    0 -0.27060389235E+03 -0.72773850476E+03  0.46497855872E+03  0.90937965114E+03  0.89086991056E+02 0.  0.
          3    1    3    3  502    0  0.23569404031E+03  0.36127265057E+03 -0.11440033682E+04  0.12226255826E+04  0.00000000000E+00 0. -1.
         -2    1    3    3    0  502  0.56502489617E+02  0.18399218689E+03 -0.51256065751E+03  0.54750715410E+03  0.00000000000E+00 0.  1.
         11    1    5    5    0    0  0.27189132135E+02  0.16714396761E+02 -0.25236784355E+02  0.40688023421E+02  0.00000000000E+00 0.  1.
        -11    1    5    5    0    0 -0.48781769715E+02  0.16575927053E+03 -0.91559978458E+02  0.19554801579E+03  0.00000000000E+00 0. -1.
          4    1    6    6  503    0 -0.17452717515E+03 -0.51494745603E+03  0.36809480303E+03  0.65660064069E+03  0.00000000000E+00 0. -1.
         -4    1    6    6    0  503 -0.96076717206E+02 -0.21279104873E+03  0.96883755687E+02  0.25277901045E+03  0.00000000000E+00 0.  1.
<mgrwt>
<rscale>  0 0.26057100E+04</rscale>
<asrwt>0</asrwt>
<pdfrwt beam="1">  1        1 0.32493313E+00 0.26057100E+04</pdfrwt>
<pdfrwt beam="2">  1       -2 0.12364355E+00 0.26057100E+04</pdfrwt>
<totfact> 0.95346286E-01</totfact>
</mgrwt>
</event>
<event>
12    4  0.4280696E-008  0.1420430E+04  0.7818608E-02  0.8939162E-01
         -2   -1    0    0    0  501 -0.00000000000E+00  0.00000000000E+00  0.33294714934E+03  0.33294714934E+03  0.00000000000E+00 0.  1.
          1   -1    0    0  501    0  0.00000000000E+00 -0.00000000000E+00 -0.15149710019E+04  0.15149710019E+04  0.00000000000E+00 0. -1.
        -24    2    1    2    0    0  0.64468568456E+02 -0.20023598177E+01 -0.91262036657E+03  0.91828735166E+03  0.78838575448E+02 0.  0.
        254    2    1    2    0    0 -0.64468568456E+02  0.20023598177E+01 -0.26940348603E+03  0.92963079963E+03  0.88739786994E+03 0.  0.
         23    2    4    4    0    0  0.27295156002E+03 -0.30593023381E+03 -0.17274302561E+03  0.45412827869E+03  0.91085007186E+02 0.  0.
         23    2    4    4    0    0 -0.33742012848E+03  0.30793259362E+03 -0.96660460429E+02  0.47550252094E+03  0.89914278583E+02 0.  0.
          3    1    3    3  502    0  0.78965271399E+02  0.11922810399E+01 -0.85984022672E+03  0.86345940907E+03  0.00000000000E+00 0. -1.
         -4    1    3    3    0  502 -0.14496702944E+02 -0.31946408576E+01 -0.52780139846E+02  0.54827942589E+02  0.00000000000E+00 0.  1.
         11    1    5    5    0    0  0.14278507770E+02 -0.50501961996E+02 -0.43957527521E+02  0.68458660338E+02  0.00000000000E+00 0. -1.
        -11    1    5    5    0    0  0.25867305225E+03 -0.25542827181E+03 -0.12878549808E+03  0.38566961835E+03  0.00000000000E+00 0.  1.
          1    1    6    6  503    0 -0.24365831980E+02  0.42296231959E+02  0.13055068600E+02  0.50528208182E+02  0.00000000000E+00 0. -1.
         -1    1    6    6    0  503 -0.31305429650E+03  0.26563636167E+03 -0.10971552903E+03  0.42497431276E+03  0.00000000000E+00 0.  1.
<mgrwt>
<rscale>  0 0.14204299E+04</rscale>
<asrwt>0</asrwt>
<pdfrwt beam="1">  1        1 0.23307246E+00 0.14204299E+04</pdfrwt>
<pdfrwt beam="2">  1       -2 0.51222638E-01 0.14204299E+04</pdfrwt>
<totfact> 0.19650119E+01</totfact>
</mgrwt>
</event>
<event>
12    4  0.4280696E-008  0.1094284E+04  0.7818608E-02  0.9210781E-01
          3   -1    0    0  501    0  0.00000000000E+00  0.00000000000E+00  0.60572452565E+03  0.60572452565E+03  0.00000000000E+00 0. -1.
         -4   -1    0    0    0  501 -0.00000000000E+00 -0.00000000000E+00 -0.49422505831E+03  0.49422505831E+03  0.00000000000E+00 0.  1.
        -24    2    1    2    0    0 -0.52715883163E+02  0.96672152819E+02  0.13474752636E+03  0.19147650292E+03  0.79886706300E+02 0.  0.
        254    2    1    2    0    0  0.52715883163E+02 -0.96672152819E+02 -0.23248059008E+02  0.90847308104E+03  0.90147567758E+03 0.  0.
         23    2    4    4    0    0  0.46425234603E+03 -0.77976255396E+02  0.42983650768E+02  0.48126934087E+03  0.90344048103E+02 0.  0.
         23    2    4    4    0    0 -0.41153646287E+03 -0.18695897422E+02 -0.66231709776E+02  0.42720374017E+03  0.91676602197E+02 0.  0.
          1    1    3    3  502    0 -0.21333319447E+02  0.38769219510E+02  0.11421796295E+03  0.12249043212E+03  0.00000000000E+00 0. -1.
         -2    1    3    3    0  502 -0.31382563716E+02  0.57902933309E+02  0.20529563406E+02  0.68986070803E+02  0.00000000000E+00 0.  1.
         11    1    5    5    0    0  0.16659247091E+03 -0.58909634178E+02  0.47466501274E+02  0.18296574845E+03  0.00000000000E+00 0.  1.
        -11    1    5    5    0    0  0.29765987512E+03 -0.19066621218E+02 -0.44828505062E+01  0.29830359242E+03  0.00000000000E+00 0. -1.
          1    1    6    6  503    0 -0.21033913574E+03 -0.54828056375E+02 -0.41549349789E+02  0.22130299649E+03  0.00000000000E+00 0. -1.
         -1    1    6    6    0  503 -0.20119732713E+03  0.36132158952E+02 -0.24682359987E+02  0.20590074368E+03  0.00000000000E+00 0.  1.
<mgrwt>
<rscale>  0 0.10942838E+04</rscale>
<asrwt>0</asrwt>
<pdfrwt beam="1">  1        3 0.93188389E-01 0.10942838E+04</pdfrwt>
<pdfrwt beam="2">  1       -4 0.76034624E-01 0.10942838E+04</pdfrwt>
<totfact> 0.36407700E+00</totfact>
</mgrwt>
</event>
<event>
12    4  0.4280696E-008  0.1567337E+04  0.7818608E-02  0.8840869E-01
         -2   -1    0    0    0  501 -0.00000000000E+00  0.00000000000E+00  0.63414202091E+03  0.63414202091E+03  0.00000000000E+00 0.  1.
          1   -1    0    0  501    0  0.00000000000E+00 -0.00000000000E+00 -0.96845197603E+03  0.96845197603E+03  0.00000000000E+00 0. -1.
        -24    2    1    2    0    0  0.12678571963E+03  0.20832372478E+03  0.36159978563E+03  0.44315845465E+03  0.78495974134E+02 0.  0.
        254    2    1    2    0    0 -0.12678571963E+03 -0.20832372478E+03 -0.69590974075E+03  0.11594355423E+04  0.89472175364E+03 0.  0.
         23    2    4    4    0    0  0.89780624522E+02  0.32223410410E+03 -0.25895816520E+03  0.43284082245E+03  0.91632242525E+02 0.  0.
         23    2    4    4    0    0 -0.21656634416E+03 -0.53055782889E+03 -0.43695157554E+03  0.72659471983E+03  0.92847274098E+02 0.  0.
          3    1    3    3  502    0  0.28699855080E+02  0.20299711773E+02  0.18282638135E+02  0.39623412736E+02  0.00000000000E+00 0. -1.
         -4    1    3    3    0  502  0.98085864554E+02  0.18802401301E+03  0.34331714749E+03  0.40353504192E+03  0.00000000000E+00 0.  1.
         11    1    5    5    0    0  0.88397536622E+02  0.32023440937E+03 -0.26587819774E+03  0.42550607218E+03  0.00000000000E+00 0.  1.
        -11    1    5    5    0    0  0.13830879003E+01  0.19996947287E+01  0.69200325423E+01  0.73347502708E+01  0.00000000000E+00 0. -1.
          2    1    6    6  503    0 -0.18196738606E+03 -0.36663973048E+03 -0.34605108046E+03  0.53599269757E+03  0.00000000000E+00 0.  1.
         -2    1    6    6    0  503 -0.34598958094E+02 -0.16391809841E+03 -0.90900495085E+02  0.19060202227E+03  0.00000000000E+00 0. -1.
<mgrwt>
<rscale>  0 0.15673367E+04</rscale>
<asrwt>0</asrwt>
<pdfrwt beam="1">  1        1 0.14899261E+00 0.15673367E+04</pdfrwt>
<pdfrwt beam="2">  1       -2 0.97560311E-01 0.15673367E+04</pdfrwt>
<totfact> 0.11832219E+01</totfact>
</mgrwt>
</event>
<event>
12    4  0.4280696E-008  0.1197258E+04  0.7818608E-02  0.9115260E-01
          1   -1    0    0  501    0  0.00000000000E+00  0.00000000000E+00  0.62619223968E+03  0.62619223968E+03  0.00000000000E+00 0. -1.
         -2   -1    0    0    0  501 -0.00000000000E+00 -0.00000000000E+00 -0.57227878570E+03  0.57227878570E+03  0.00000000000E+00 0.  1.
        -24    2    1    2    0    0  0.10170454663E+03 -0.20119567917E+03 -0.10001849288E+03  0.25962181814E+03  0.81094225554E+02 0.  0.
        254    2    1    2    0    0 -0.10170454663E+03  0.20119567917E+03  0.15393194687E+03  0.93884920723E+03  0.89828685482E+03 0.  0.
         23    2    4    4    0    0  0.77020461108E+02  0.94934628648E+02 -0.35192970311E+03  0.38442756554E+03  0.94790833247E+02 0.  0.
         23    2    4    4    0    0 -0.17872500774E+03  0.10626105052E+03  0.50586164998E+03  0.55442164169E+03  0.90847722118E+02 0.  0.
          1    1    3    3  502    0  0.26016485633E+02 -0.64198618452E+02 -0.73282899008E+02  0.10083998920E+03  0.00000000000E+00 0. -1.
         -4    1    3    3    0  502  0.75688060995E+02 -0.13699706071E+03 -0.26735593874E+02  0.15878182894E+03  0.00000000000E+00 0.  1.
         11    1    5    5    0    0  0.98748051030E+02  0.78009185275E+02 -0.30609631950E+03  0.33095553687E+03  0.00000000000E+00 0. -1.
        -11    1    5    5    0    0 -0.21727589923E+02  0.16925443373E+02 -0.45833383607E+02  0.53472028670E+02  0.00000000000E+00 0.  1.
          2    1    6    6  503    0 -0.52367190285E+02  0.39421988199E+02  0.27648744568E+03  0.28415088138E+03  0.00000000000E+00 0. -1.
         -2    1    6    6    0  503 -0.12635781745E+03  0.66839062319E+02  0.22937420430E+03  0.27027076031E+03  0.00000000000E+00 0.  1.
<mgrwt>
<rscale>  0 0.11972578E+04</rscale>
<asrwt>0</asrwt>
<pdfrwt beam="1">  1        1 0.96337268E-01 0.11972578E+04</pdfrwt>
<pdfrwt beam="2">  1       -2 0.88042890E-01 0.11972578E+04</pdfrwt>
<totfact> 0.31007650E+01</totfact>
</mgrwt>
</event>
<event>
12    4  0.4280696E-008  0.1387088E+04  0.7818608E-02  0.8963218E-01
          1   -1    0    0  501    0  0.00000000000E+00  0.00000000000E+00  0.10240866414E+04  0.10240866414E+04  0.00000000000E+00 0. -1.
         -2   -1    0    0    0  501 -0.00000000000E+00 -0.00000000000E+00 -0.46968991097E+03  0.46968991097E+03  0.00000000000E+00 0.  1.
        -24    2    1    2    0    0 -0.84379344831E+02 -0.31537265037E+03  0.40014765451E+03  0.52313928257E+03  0.83527128076E+02 0.  0.
        254    2    1    2    0    0  0.84379344831E+02  0.31537265037E+03  0.15424907590E+03  0.97063726979E+03  0.90097955007E+03 0.  0.
         23    2    4    4    0    0 -0.32540105557E+03 -0.10843865233E+03  0.10070450214E+01  0.35484035852E+03  0.90916871992E+02 0.  0.
         23    2    4    4    0    0  0.40978040040E+03  0.42381130270E+03  0.15324203088E+03  0.61579691126E+03  0.90480489852E+02 0.  0.
          3    1    3    3  502    0 -0.81374217972E+02 -0.28735888611E+03  0.39382841410E+03  0.49426482024E+03  0.00000000000E+00 0. -1.
         -4    1    3    3    0  502 -0.30051268582E+01 -0.28013764258E+02  0.63192404086E+01  0.28874462327E+02  0.00000000000E+00 0.  1.
         11    1    5    5    0    0 -0.25070710198E+03 -0.55112445173E+02 -0.28898048930E+02  0.25831478825E+03  0.00000000000E+00 0. -1.
        -11    1    5    5    0    0 -0.74693953585E+02 -0.53326207155E+02  0.29905093951E+02  0.96525570270E+02  0.00000000000E+00 0.  1.
          3    1    6    6  503    0  0.31640186915E+03  0.28556385953E+03  0.13924598145E+03  0.44838187299E+03  0.00000000000E+00 0. -1.
         -3    1    6    6    0  503  0.93378531246E+02  0.13824744317E+03  0.13996049425E+02  0.16741503827E+03  0.00000000000E+00 0.  1.
<mgrwt>
<rscale>  0 0.13870878E+04</rscale>
<asrwt>0</asrwt>
<pdfrwt beam="1">  1        1 0.15755179E+00 0.13870878E+04</pdfrwt>
<pdfrwt beam="2">  1       -2 0.72259987E-01 0.13870878E+04</pdfrwt>
<totfact> 0.21500099E+01</totfact>
</mgrwt>
</event>
<event>
12    4  0.4280696E-008  0.3257389E+04  0.7818608E-02  0.8173823E-01
         -2   -1    0    0    0  501 -0.00000000000E+00  0.00000000000E+00  0.96066476561E+03  0.96066476561E+03  0.00000000000E+00 0.  1.
          1   -1    0    0  501    0  0.00000000000E+00 -0.00000000000E+00 -0.27612613750E+04  0.27612613750E+04  0.00000000000E+00 0. -1.
        -24    2    1    2    0    0 -0.43912245694E+03  0.19351707118E+03  0.79643921207E+03  0.93333152958E+03  0.80715156842E+02 0.  0.
        254    2    1    2    0    0  0.43912245694E+03 -0.19351707118E+03 -0.25970358215E+04  0.27885946111E+04  0.89520246744E+03 0.  0.
         23    2    4    4    0    0  0.56312877646E+03  0.38853662724E+02 -0.23422613484E+04  0.24110057116E+04  0.90203609873E+02 0.  0.
         23    2    4    4    0    0 -0.12400631952E+03 -0.23237073391E+03 -0.25477447308E+03  0.37758889944E+03  0.91047348067E+02 0.  0.
          1    1    3    3  502    0 -0.59587283988E+02  0.25431998428E+02  0.16922566381E+03  0.18120363199E+03  0.00000000000E+00 0. -1.
         -2    1    3    3    0  502 -0.37953517296E+03  0.16808507276E+03  0.62721354826E+03  0.75212789758E+03  0.00000000000E+00 0.  1.
         11    1    5    5    0    0  0.47962566056E+03  0.46352225274E+01 -0.18977117810E+04  0.19573891446E+04  0.00000000000E+00 0.  1.
        -11    1    5    5    0    0  0.83503115898E+02  0.34218440197E+02 -0.44454956742E+03  0.45361656705E+03  0.00000000000E+00 0. -1.
          2    1    6    6  503    0 -0.24779640583E+02 -0.12107270391E+03 -0.77197728178E+02  0.14571245471E+03  0.00000000000E+00 0. -1.
         -2    1    6    6    0  503 -0.99226678934E+02 -0.11129802999E+03 -0.17757674490E+03  0.23187644473E+03  0.00000000000E+00 0.  1.
<mgrwt>
<rscale>  0 0.32573895E+04</rscale>
<asrwt>0</asrwt>
<pdfrwt beam="1">  1        1 0.42480944E+00 0.32573895E+04</pdfrwt>
<pdfrwt beam="2">  1       -2 0.14779458E+00 0.32573895E+04</pdfrwt>
<totfact> 0.20268356E-01</totfact>
</mgrwt>
</event>
<event>
12    4  0.4280696E-008  0.1457212E+04  0.7818608E-02  0.8913416E-01
          3   -1    0    0  501    0  0.00000000000E+00  0.00000000000E+00  0.12134046917E+04  0.12134046917E+04  0.00000000000E+00 0. -1.
         -4   -1    0    0    0  501 -0.00000000000E+00 -0.00000000000E+00 -0.43750150757E+03  0.43750150757E+03  0.00000000000E+00 0.  1.
        -24    2    1    2    0    0  0.27864965889E+03 -0.13415935553E+03  0.60646174088E+03  0.68552679552E+03  0.80664609026E+02 0.  0.
        254    2    1    2    0    0 -0.27864965889E+03  0.13415935553E+03  0.16944144320E+03  0.96537940370E+03  0.89866713823E+03 0.  0.
         23    2    4    4    0    0 -0.55177394870E+03  0.25871318346E+03  0.12319047135E+02  0.61492850217E+03  0.81229933581E+02 0.  0.
         23    2    4    4    0    0  0.27312428980E+03 -0.12455382793E+03  0.15712239607E+03  0.35045090152E+03  0.89542466458E+02 0.  0.
          3    1    3    3  502    0  0.21629515907E+03 -0.64378140399E+02  0.41366914082E+03  0.47122213325E+03  0.00000000000E+00 0. -1.
         -4    1    3    3    0  502  0.62354499823E+02 -0.69781215128E+02  0.19279260006E+03  0.21430466227E+03  0.00000000000E+00 0.  1.
         11    1    5    5    0    0 -0.38016716734E+03  0.15265971593E+03 -0.22151719452E+02  0.41027157185E+03  0.00000000000E+00 0. -1.
        -11    1    5    5    0    0 -0.17160678136E+03  0.10605346753E+03  0.34470766587E+02  0.20465693033E+03  0.00000000000E+00 0.  1.
          2    1    6    6  503    0  0.21667306988E+03 -0.55003719181E+02  0.11674940507E+03  0.25219645501E+03  0.00000000000E+00 0. -1.
         -2    1    6    6    0  503  0.56451219926E+02 -0.69550108748E+02  0.40372990999E+02  0.98254446516E+02  0.00000000000E+00 0.  1.
<mgrwt>
<rscale>  0 0.14572116E+04</rscale>
<asrwt>0</asrwt>
<pdfrwt beam="1">  1        3 0.18667764E+00 0.14572116E+04</pdfrwt>
<pdfrwt beam="2">  1       -4 0.67307925E-01 0.14572116E+04</pdfrwt>
<totfact> 0.81360681E-01</totfact>
</mgrwt>
</event>
<event>
12    4  0.4280696E-008  0.2660553E+04  0.7818608E-02  0.8347919E-01
         -2   -1    0    0    0  501 -0.00000000000E+00  0.00000000000E+00  0.40815793373E+03  0.40815793373E+03  0.00000000000E+00 0.  1.
          1   -1    0    0  501    0  0.00000000000E+00 -0.00000000000E+00 -0.43356640550E+04  0.43356640550E+04  0.00000000000E+00 0. -1.
        -24    2    1    2    0    0 -0.28112881168E+03 -0.10841439273E+04 -0.23040622801E+04  0.25630757801E+04  0.79075914742E+02 0.  0.
        254    2    1    2    0    0  0.28112881168E+03  0.10841439273E+04 -0.16234438412E+04  0.21807462086E+04  0.93042068819E+03 0.  0.
         23    2    4    4    0    0  0.46133501381E+03  0.22479548913E+03 -0.89707688890E+03  0.10376966578E+04  0.93297385613E+02 0.  0.
         23    2    4    4    0    0 -0.18020620212E+03  0.85934843816E+03 -0.72636695230E+03  0.11430495508E+04  0.89438876975E+02 0.  0.
          1    1    3    3  502    0 -0.27148784913E+03 -0.10756629097E+04 -0.22852380863E+04  0.25402892470E+04  0.00000000000E+00 0. -1.
         -2    1    3    3    0  502 -0.96409625576E+01 -0.84810176075E+01 -0.18824193774E+02  0.22786533083E+02  0.00000000000E+00 0.  1.
         11    1    5    5    0    0  0.29193523285E+03  0.10733291909E+03 -0.47195849505E+03  0.56523566479E+03  0.00000000000E+00 0.  1.
        -11    1    5    5    0    0  0.16939978095E+03  0.11746257004E+03 -0.42511839385E+03  0.47246099303E+03  0.00000000000E+00 0. -1.
          4    1    6    6  503    0 -0.47070990025E+02  0.90993039329E+02 -0.94600327373E+02  0.13944401474E+03  0.00000000000E+00 0.  1.
         -4    1    6    6    0  503 -0.13313521210E+03  0.76835539883E+03 -0.63176662492E+03  0.10036055360E+04  0.00000000000E+00 0. -1.
<mgrwt>
<rscale>  0 0.26605531E+04</rscale>
<asrwt>0</asrwt>
<pdfrwt beam="1">  1        1 0.66702521E+00 0.26605531E+04</pdfrwt>
<pdfrwt beam="2">  1       -2 0.62793531E-01 0.26605531E+04</pdfrwt>
<totfact> 0.85349036E-02</totfact>
</mgrwt>
</event>
<event>
12    4  0.4280696E-008  0.1358454E+04  0.7818608E-02  0.8984453E-01
         -2   -1    0    0    0  501 -0.00000000000E+00  0.00000000000E+00  0.22151001142E+03  0.22151001142E+03  0.00000000000E+00 0.  1.
          1   -1    0    0  501    0  0.00000000000E+00 -0.00000000000E+00 -0.20827460858E+04  0.20827460858E+04  0.00000000000E+00 0. -1.
        -24    2    1    2    0    0  0.41070164946E+02 -0.42668009910E+02 -0.12035374350E+04  0.12075904071E+04  0.79151223212E+02 0.  0.
        254    2    1    2    0    0 -0.41070164946E+02  0.42668009910E+02 -0.65769863936E+03  0.10966656902E+04  0.87555743291E+03 0.  0.
         23    2    4    4    0    0 -0.26324283260E+03 -0.18679656763E+03  0.24971061978E+02  0.33724894430E+03  0.94464543083E+02 0.  0.
         23    2    4    4    0    0  0.22217266766E+03  0.22946457754E+03 -0.68266970133E+03  0.75941674590E+03  0.93065494305E+02 0.  0.
          3    1    3    3  502    0  0.52366156768E+01 -0.49251134652E+02 -0.96661137894E+03  0.96787946269E+03  0.00000000000E+00 0. -1.
         -2    1    3    3    0  502  0.35833549269E+02  0.65831247420E+01 -0.23692605611E+03  0.23971094436E+03  0.00000000000E+00 0.  1.
         11    1    5    5    0    0 -0.12420810573E+03 -0.13619256386E+03  0.39723683125E+02  0.18855778685E+03  0.00000000000E+00 0. -1.
        -11    1    5    5    0    0 -0.13903472687E+03 -0.50604003769E+02 -0.14752621147E+02  0.14869115745E+03  0.00000000000E+00 0.  1.
          2    1    6    6  503    0  0.16301058831E+03  0.20781131192E+03 -0.59931314540E+03  0.65493071352E+03  0.00000000000E+00 0. -1.
         -2    1    6    6    0  503  0.59162079345E+02  0.21653265617E+02 -0.83356555932E+02  0.10448603237E+03  0.00000000000E+00 0.  1.
<mgrwt>
<rscale>  0 0.13584537E+04</rscale>
<asrwt>0</asrwt>
<pdfrwt beam="1">  1        1 0.32042246E+00 0.13584537E+04</pdfrwt>
<pdfrwt beam="2">  1       -2 0.34078465E-01 0.13584537E+04</pdfrwt>
<totfact> 0.18151774E+01</totfact>
</mgrwt>
</event>
<event>
12    4  0.4280696E-008  0.1243163E+04  0.7818608E-02  0.9075893E-01
          1   -1    0    0  501    0  0.00000000000E+00  0.00000000000E+00  0.12164037177E+04  0.12164037177E+04  0.00000000000E+00 0. -1.
         -2   -1    0    0    0  501 -0.00000000000E+00 -0.00000000000E+00 -0.31762772185E+03  0.31762772185E+03  0.00000000000E+00 0.  1.
        -24    2    1    2    0    0  0.91540372904E+02  0.13780808258E+03 -0.74491498981E+02  0.19793873003E+03  0.79120477317E+02 0.  0.
        254    2    1    2    0    0 -0.91540372904E+02 -0.13780808258E+03  0.97326749482E+03  0.13360927095E+04  0.90029073329E+03 0.  0.
         23    2    4    4    0    0 -0.41213899290E+03 -0.30905273690E+03  0.43359526986E+03  0.67945177497E+03  0.90981936737E+02 0.  0.
         23    2    4    4    0    0  0.32059862000E+03  0.17124465432E+03  0.53967222496E+03  0.65664093454E+03  0.88447723191E+02 0.  0.
          1    1    3    3  502    0 -0.30243303086E+01 -0.77520379291E+01  0.14957221875E+01  0.84544574475E+01  0.00000000000E+00 0. -1.
         -2    1    3    3    0  502  0.94564703212E+02  0.14556012051E+03 -0.75987221168E+02  0.18948427259E+03  0.00000000000E+00 0.  1.
         11    1    5    5    0    0 -0.89229300197E+02 -0.43471487004E+02  0.12598758505E+03  0.16038862112E+03  0.00000000000E+00 0.  1.
        -11    1    5    5    0    0 -0.32290969271E+03 -0.26558124990E+03  0.30760768481E+03  0.51906315386E+03  0.00000000000E+00 0. -1.
          3    1    6    6  503    0  0.17256110898E+03  0.52638412561E+02  0.21550929953E+03  0.28105586098E+03  0.00000000000E+00 0.  1.
         -3    1    6    6    0  503  0.14803751102E+03  0.11860624176E+03  0.32416292544E+03  0.37558507356E+03  0.00000000000E+00 0. -1.
<mgrwt>
<rscale>  0 0.12431630E+04</rscale>
<asrwt>0</asrwt>
<pdfrwt beam="1">  1        1 0.18713903E+00 0.12431630E+04</pdfrwt>
<pdfrwt beam="2">  1       -2 0.48865804E-01 0.12431630E+04</pdfrwt>
<totfact> 0.35665111E+01</totfact>
</mgrwt>
</event>
<event>
12    4  0.4280696E-008  0.2096590E+04  0.7818608E-02  0.8562747E-01
         -2   -1    0    0    0  501 -0.00000000000E+00  0.00000000000E+00  0.78090928658E+03  0.78090928658E+03  0.00000000000E+00 0.  1.
          1   -1    0    0  501    0  0.00000000000E+00 -0.00000000000E+00 -0.14072343940E+04  0.14072343940E+04  0.00000000000E+00 0. -1.
        -24    2    1    2    0    0  0.57713266854E+03  0.42726759284E+03  0.22016651860E+03  0.75594933093E+03  0.85711037976E+02 0.  0.
        254    2    1    2    0    0 -0.57713266854E+03 -0.42726759284E+03 -0.84649162604E+03  0.14321943497E+04  0.90498224805E+03 0.  0.
         23    2    4    4    0    0 -0.61038541758E+03  0.16976922630E+02 -0.21456355705E+03  0.65376732873E+03  0.92280150661E+02 0.  0.
         23    2    4    4    0    0  0.33252749042E+02 -0.44424451547E+03 -0.63192806900E+03  0.77842702095E+03  0.90313939702E+02 0.  0.
          3    1    3    3  502    0  0.12603407042E+03  0.74959119208E+02  0.12910552282E+02  0.14720780828E+03  0.00000000000E+00 0. -1.
         -4    1    3    3    0  502  0.45109859812E+03  0.35230847364E+03  0.20725596632E+03  0.60874152265E+03  0.00000000000E+00 0.  1.
         11    1    5    5    0    0 -0.28383249329E+03 -0.71996083877E+01 -0.14582804141E+03  0.31918417296E+03  0.00000000000E+00 0. -1.
        -11    1    5    5    0    0 -0.32655292429E+03  0.24176531018E+02 -0.68735515642E+02  0.33458315577E+03  0.00000000000E+00 0.  1.
          3    1    6    6  503    0  0.52899245422E+02 -0.27836014927E+03 -0.44687683363E+03  0.52913288246E+03  0.00000000000E+00 0. -1.
         -3    1    6    6    0  503 -0.19646496380E+02 -0.16588436621E+03 -0.18505123537E+03  0.24929413848E+03  0.00000000000E+00 0.  1.
<mgrwt>
<rscale>  0 0.20965900E+04</rscale>
<asrwt>0</asrwt>
<pdfrwt beam="1">  1        1 0.21649760E+00 0.20965900E+04</pdfrwt>
<pdfrwt beam="2">  1       -2 0.12013989E+00 0.20965900E+04</pdfrwt>
<totfact> 0.32462182E+00</totfact>
</mgrwt>
</event>
<event>
12    4  0.4280696E-008  0.1443223E+04  0.7818608E-02  0.8923113E-01
          1   -1    0    0  501    0  0.00000000000E+00  0.00000000000E+00  0.33803562497E+04  0.33803562497E+04  0.00000000000E+00 0. -1.
         -2   -1    0    0    0  501 -0.00000000000E+00 -0.00000000000E+00 -0.15404377467E+03  0.15404377467E+03  0.00000000000E+00 0.  1.
        -24    2    1    2    0    0  0.35367769308E+03  0.13381286736E+03  0.13715346708E+04  0.14251272124E+04  0.82984480656E+02 0.  0.
        254    2    1    2    0    0 -0.35367769308E+03 -0.13381286736E+03  0.18547778042E+04  0.21092728120E+04  0.93050378751E+03 0.  0.
         23    2    4    4    0    0 -0.18565601324E+03  0.29985232328E+03  0.14195987964E+04  0.14655736108E+04  0.90915866693E+02 0.  0.
         23    2    4    4    0    0 -0.16802167984E+03 -0.43366519064E+03  0.43517900780E+03  0.64369920126E+03  0.93118797270E+02 0.  0.
          3    1    3    3  502    0  0.94219187811E+02  0.31076641364E+02  0.50882475006E+03  0.51840682795E+03  0.00000000000E+00 0. -1.
         -2    1    3    3    0  502  0.25945850527E+03  0.10273622600E+03  0.86270992079E+03  0.90672038442E+03  0.00000000000E+00 0.  1.
         11    1    5    5    0    0 -0.17185173247E+03  0.30446277447E+03  0.13667850628E+04  0.14107912698E+04  0.00000000000E+00 0. -1.
        -11    1    5    5    0    0 -0.13804280766E+02 -0.46104511900E+01  0.52813733571E+02  0.54782340963E+02  0.00000000000E+00 0.  1.
          3    1    6    6  503    0  0.47862018660E+01 -0.56648713818E+02  0.31750076639E+02  0.65115680693E+02  0.00000000000E+00 0. -1.
         -3    1    6    6    0  503 -0.17280788171E+03 -0.37701647682E+03  0.40342893116E+03  0.57858352057E+03  0.00000000000E+00 0.  1.
<mgrwt>
<rscale>  0 0.14432226E+04</rscale>
<asrwt>0</asrwt>
<pdfrwt beam="1">  1        1 0.52005475E+00 0.14432226E+04</pdfrwt>
<pdfrwt beam="2">  1       -2 0.23699045E-01 0.14432226E+04</pdfrwt>
<totfact> 0.42267787E+00</totfact>
</mgrwt>
</event>
<event>
12    4  0.4280696E-008  0.1932196E+04  0.7818608E-02  0.8638994E-01
         -2   -1    0    0    0  501 -0.00000000000E+00  0.00000000000E+00  0.34715303804E+03  0.34715303804E+03  0.00000000000E+00 0.  1.
          1   -1    0    0  501    0  0.00000000000E+00 -0.00000000000E+00 -0.26885713362E+04  0.26885713362E+04  0.00000000000E+00 0. -1.
        -24    2    1    2    0    0  0.67910513827E+02  0.46814165315E+03  0.44538411866E+01  0.47943887707E+03  0.77931731898E+02 0.  0.
        254    2    1    2    0    0 -0.67910513827E+02 -0.46814165315E+03 -0.23458721393E+04  0.25562854971E+04  0.89872743565E+03 0.  0.
         23    2    4    4    0    0 -0.53242279716E+01 -0.65780172191E+03 -0.21898508656E+04  0.22884121143E+04  0.93014723302E+02 0.  0.
         23    2    4    4    0    0 -0.62586285855E+02  0.18966006875E+03 -0.15602127375E+03  0.26787338283E+03  0.86749792574E+02 0.  0.
          3    1    3    3  502    0 -0.16568928878E+02  0.51128591738E+02 -0.37366090796E+01  0.53876010846E+02  0.00000000000E+00 0. -1.
         -4    1    3    3    0  502  0.84479442704E+02  0.41701306142E+03  0.81904502661E+01  0.42556286622E+03  0.00000000000E+00 0.  1.
         11    1    5    5    0    0 -0.45749016512E+01 -0.65315985189E+03 -0.21185352076E+04  0.22169416203E+04  0.00000000000E+00 0.  1.
        -11    1    5    5    0    0 -0.74932632036E+00 -0.46418700153E+01 -0.71315657938E+02  0.71470494012E+02  0.00000000000E+00 0. -1.
          4    1    6    6  503    0 -0.33840466602E+01  0.21881743941E+01  0.98547550373E+01  0.10646881037E+02  0.00000000000E+00 0. -1.
         -4    1    6    6    0  503 -0.59202239195E+02  0.18747189436E+03 -0.16587602879E+03  0.25722650180E+03  0.00000000000E+00 0.  1.
<mgrwt>
<rscale>  0 0.19321964E+04</rscale>
<asrwt>0</asrwt>
<pdfrwt beam="1">  1        1 0.41362637E+00 0.19321964E+04</pdfrwt>
<pdfrwt beam="2">  1       -2 0.53408158E-01 0.19321964E+04</pdfrwt>
<totfact> 0.27109441E+00</totfact>
</mgrwt>
</event>
<event>
12    4  0.4280696E-008  0.1167860E+04  0.7818608E-02  0.9141463E-01
          1   -1    0    0  501    0  0.00000000000E+00  0.00000000000E+00  0.19810371254E+04  0.19810371254E+04  0.00000000000E+00 0. -1.
         -2   -1    0    0    0  501 -0.00000000000E+00 -0.00000000000E+00 -0.17211912467E+03  0.17211912467E+03  0.00000000000E+00 0.  1.
        -24    2    1    2    0    0 -0.12572596483E+03 -0.52441842801E+02  0.40217253986E+02  0.16204463694E+03  0.77999177781E+02 0.  0.
        254    2    1    2    0    0  0.12572596483E+03  0.52441842801E+02  0.17687007468E+04  0.19911116132E+04  0.90424883705E+03 0.  0.
         23    2    4    4    0    0  0.66098575152E+02 -0.40856279552E+03  0.10280569792E+04  0.11119592912E+04  0.90883075186E+02 0.  0.
         23    2    4    4    0    0  0.59627389677E+02  0.46100463832E+03  0.74064376756E+03  0.87915232192E+03  0.90966546330E+02 0.  0.
          3    1    3    3  502    0 -0.19583624357E+02 -0.20879002077E+02  0.42551448529E+02  0.51284274808E+02  0.00000000000E+00 0. -1.
         -4    1    3    3    0  502 -0.10614234047E+03 -0.31562840724E+02 -0.23341945432E+01  0.11076036213E+03  0.00000000000E+00 0.  1.
         11    1    5    5    0    0 -0.72731563123E+01 -0.20424230641E+03  0.44123948099E+03  0.48627162997E+03  0.00000000000E+00 0.  1.
        -11    1    5    5    0    0  0.73371731465E+02 -0.20432048911E+03  0.58681749822E+03  0.62568766127E+03  0.00000000000E+00 0. -1.
          3    1    6    6  503    0  0.10933878001E+02  0.36627361378E+03  0.55308881656E+03  0.66346299735E+03  0.00000000000E+00 0. -1.
         -3    1    6    6    0  503  0.48693511676E+02  0.94731024539E+02  0.18755495100E+03  0.21568932457E+03  0.00000000000E+00 0.  1.
<mgrwt>
<rscale>  0 0.11678602E+04</rscale>
<asrwt>0</asrwt>
<pdfrwt beam="1">  1        1 0.30477493E+00 0.11678602E+04</pdfrwt>
<pdfrwt beam="2">  1       -2 0.26479867E-01 0.11678602E+04</pdfrwt>
<totfact> 0.34599384E+01</totfact>
</mgrwt>
</event>
<event>
12    4  0.4280696E-008  0.1836683E+04  0.7818608E-02  0.8687031E-01
         -4   -1    0    0    0  501 -0.00000000000E+00  0.00000000000E+00  0.13539848360E+04  0.13539848360E+04  0.00000000000E+00 0.  1.
          3   -1    0    0  501    0  0.00000000000E+00 -0.00000000000E+00 -0.62286607937E+03  0.62286607937E+03  0.00000000000E+00 0. -1.
        -24    2    1    2    0    0  0.28354683474E+03 -0.40321568744E+03  0.81501080501E+03  0.95595357780E+03  0.81381401696E+02 0.  0.
        254    2    1    2    0    0 -0.28354683474E+03  0.40321568744E+03 -0.83892048406E+02  0.10208973375E+04  0.89006280673E+03 0.  0.
         23    2    4    4    0    0  0.15929306435E+03 -0.14683992180E+03  0.14144825546E+03  0.27399849311E+03  0.90173844714E+02 0.  0.
         23    2    4    4    0    0 -0.44283989909E+03  0.55005560923E+03 -0.22534030387E+03  0.74689884443E+03  0.91713040470E+02 0.  0.
          3    1    3    3  502    0  0.40160837107E+01 -0.12510483034E+02  0.47300136130E+01  0.13964746432E+02  0.00000000000E+00 0. -1.
         -4    1    3    3    0  502  0.27953075103E+03 -0.39070520440E+03  0.81028079139E+03  0.94198883137E+03  0.00000000000E+00 0.  1.
         11    1    5    5    0    0  0.54912103332E+02 -0.56351498767E+02  0.10485078286E+03  0.13108972947E+03  0.00000000000E+00 0. -1.
        -11    1    5    5    0    0  0.10438096102E+03 -0.90488423029E+02  0.36597472604E+02  0.14290876364E+03  0.00000000000E+00 0.  1.
          3    1    6    6  503    0 -0.32289700108E+03  0.39690708261E+03 -0.20540897282E+03  0.55135338182E+03  0.00000000000E+00 0. -1.
         -3    1    6    6    0  503 -0.11994289801E+03  0.15314852662E+03 -0.19931331047E+02  0.19554546261E+03  0.00000000000E+00 0.  1.
<mgrwt>
<rscale>  0 0.18366831E+04</rscale>
<asrwt>0</asrwt>
<pdfrwt beam="1">  1        3 0.95825551E-01 0.18366831E+04</pdfrwt>
<pdfrwt beam="2">  1       -4 0.20830536E+00 0.18366831E+04</pdfrwt>
<totfact> 0.24125797E-01</totfact>
</mgrwt>
</event>
<event>
12    4  0.4280696E-008  0.1709902E+04  0.7818608E-02  0.8755737E-01
         -4   -1    0    0    0  501 -0.00000000000E+00  0.00000000000E+00  0.12221427799E+04  0.12221427799E+04  0.00000000000E+00 0.  1.
          3   -1    0    0  501    0  0.00000000000E+00 -0.00000000000E+00 -0.59808134436E+03  0.59808134436E+03  0.00000000000E+00 0. -1.
        -24    2    1    2    0    0  0.78291133351E+02 -0.36960682315E+03  0.74016707676E+03  0.83464213702E+03  0.77727022857E+02 0.  0.
        254    2    1    2    0    0 -0.78291133351E+02  0.36960682315E+03 -0.11610564126E+03  0.98558198721E+03  0.90285803331E+03 0.  0.
         23    2    4    4    0    0 -0.11359459903E+03 -0.25656797768E+03  0.10696805053E+03  0.31373912079E+03  0.90880206771E+02 0.  0.
         23    2    4    4    0    0  0.35303465674E+02  0.62617480083E+03 -0.22307369179E+03  0.67184286642E+03  0.90938161982E+02 0.  0.
          1    1    3    3  502    0  0.39959332530E+02 -0.14916012559E+03  0.22405558611E+03  0.27211467618E+03  0.00000000000E+00 0. -1.
         -2    1    3    3    0  502  0.38331800821E+02 -0.22044669755E+03  0.51611149065E+03  0.56252746084E+03  0.00000000000E+00 0.  1.
         11    1    5    5    0    0 -0.23767171038E+00 -0.57904275396E+02  0.53515553456E+02  0.78847168996E+02  0.00000000000E+00 0. -1.
        -11    1    5    5    0    0 -0.11335692731E+03 -0.19866370228E+03  0.53452497079E+02  0.23489195180E+03  0.00000000000E+00 0.  1.
          1    1    6    6  503    0  0.50015098746E+01  0.45124873860E+03 -0.19702139979E+03  0.49241026712E+03  0.00000000000E+00 0. -1.
         -1    1    6    6    0  503  0.30301955799E+02  0.17492606223E+03 -0.26052291999E+02  0.17943259930E+03  0.00000000000E+00 0.  1.
<mgrwt>
<rscale>  0 0.17099015E+04</rscale>
<asrwt>0</asrwt>
<pdfrwt beam="1">  1        3 0.92012515E-01 0.17099015E+04</pdfrwt>
<pdfrwt beam="2">  1       -4 0.18802197E+00 0.17099015E+04</pdfrwt>
<totfact> 0.36513408E-01</totfact>
</mgrwt>
</event>
<event>
12    4  0.4280696E-008  0.2534267E+04  0.7818608E-02  0.8390878E-01
         -2   -1    0    0    0  501 -0.00000000000E+00  0.00000000000E+00  0.62495684513E+03  0.62495684513E+03  0.00000000000E+00 0.  1.
          1   -1    0    0  501    0  0.00000000000E+00 -0.00000000000E+00 -0.25691808548E+04  0.25691808548E+04  0.00000000000E+00 0. -1.
        -24    2    1    2    0    0  0.64403493508E+03 -0.85626764518E+03 -0.51249234050E+03  0.11906354583E+04  0.83600942665E+02 0.  0.
        254    2    1    2    0    0 -0.64403493508E+03  0.85626764518E+03 -0.14317316691E+04  0.20035022416E+04  0.90343255533E+03 0.  0.
         23    2    4    4    0    0 -0.39901407050E+03  0.98559508221E+03 -0.89604155496E+03  0.13933675134E+04  0.89289778599E+02 0.  0.
         23    2    4    4    0    0 -0.24502086458E+03 -0.12932743703E+03 -0.53569011417E+03  0.61013472826E+03  0.92410379078E+02 0.  0.
          1    1    3    3  502    0  0.35175865484E+02 -0.85428847981E+02 -0.45582227000E+02  0.10302023587E+03  0.00000000000E+00 0. -1.
         -2    1    3    3    0  502  0.60885906959E+03 -0.77083879720E+03 -0.46691011350E+03  0.10876152224E+04  0.00000000000E+00 0.  1.
         11    1    5    5    0    0 -0.18304293882E+03  0.42871507527E+03 -0.44985265003E+03  0.64781844676E+03  0.00000000000E+00 0.  1.
        -11    1    5    5    0    0 -0.21597113168E+03  0.55688000693E+03 -0.44618890493E+03  0.74554906661E+03  0.00000000000E+00 0. -1.
          3    1    6    6  503    0 -0.21182054295E+03 -0.69356814462E+02 -0.42606784323E+03  0.48084521123E+03  0.00000000000E+00 0. -1.
         -3    1    6    6    0  503 -0.33200321623E+02 -0.59970622569E+02 -0.10962227094E+03  0.12928951703E+03  0.00000000000E+00 0.  1.
<mgrwt>
<rscale>  0 0.25342669E+04</rscale>
<asrwt>0</asrwt>
<pdfrwt beam="1">  1        1 0.39525859E+00 0.25342669E+04</pdfrwt>
<pdfrwt beam="2">  1       -2 0.96147207E-01 0.25342669E+04</pdfrwt>
<totfact> 0.85548534E-01</totfact>
</mgrwt>
</event>
<event>
12    4  0.4280696E-008  0.2131714E+04  0.7818608E-02  0.8547400E-01
         -2   -1    0    0    0  501 -0.00000000000E+00  0.00000000000E+00  0.64738871075E+03  0.64738871075E+03  0.00000000000E+00 0.  1.
          1   -1    0    0  501    0  0.00000000000E+00 -0.00000000000E+00 -0.17548214173E+04  0.17548214173E+04  0.00000000000E+00 0. -1.
        -24    2    1    2    0    0  0.33939114542E+03 -0.79393817553E+03 -0.83842690278E+03  0.12062082181E+04  0.80339392884E+02 0.  0.
        254    2    1    2    0    0 -0.33939114542E+03  0.79393817553E+03 -0.26900580379E+03  0.11960019099E+04  0.78264440836E+03 0.  0.
         23    2    4    4    0    0 -0.33675273202E+03  0.26076647399E+03  0.20015096798E+03  0.47973379031E+03  0.93180164745E+02 0.  0.
         23    2    4    4    0    0 -0.26384133988E+01  0.53317170154E+03 -0.46915677177E+03  0.71626811963E+03  0.93021062886E+02 0.  0.
          3    1    3    3  502    0  0.24921608881E+03 -0.54318953553E+03 -0.53191703004E+03  0.80006203339E+03  0.00000000000E+00 0. -1.
         -4    1    3    3    0  502  0.90175056607E+02 -0.25074864000E+03 -0.30650987274E+03  0.40614618475E+03  0.00000000000E+00 0.  1.
         11    1    5    5    0    0 -0.31901967164E+03  0.25203658848E+03  0.21005776903E+03  0.45762458321E+03  0.00000000000E+00 0.  1.
        -11    1    5    5    0    0 -0.17733060380E+02  0.87298855103E+01 -0.99068010553E+01  0.22109207101E+02  0.00000000000E+00 0. -1.
          1    1    6    6  503    0 -0.43647716948E+02  0.16560184121E+03 -0.14139301102E+03  0.22208349009E+03  0.00000000000E+00 0. -1.
         -1    1    6    6    0  503  0.41009303549E+02  0.36756986034E+03 -0.32776376075E+03  0.49418462953E+03  0.00000000000E+00 0.  1.
<mgrwt>
<rscale>  0 0.21317144E+04</rscale>
<asrwt>0</asrwt>
<pdfrwt beam="1">  1        1 0.26997252E+00 0.21317144E+04</pdfrwt>
<pdfrwt beam="2">  1       -2 0.99598265E-01 0.21317144E+04</pdfrwt>
<totfact> 0.29369478E+00</totfact>
</mgrwt>
</event>
<event>
12    4  0.4280696E-008  0.1461248E+04  0.7818608E-02  0.8910640E-01
         -2   -1    0    0    0  501 -0.00000000000E+00  0.00000000000E+00  0.23398951069E+03  0.23398951069E+03  0.00000000000E+00 0.  1.
          1   -1    0    0  501    0  0.00000000000E+00 -0.00000000000E+00 -0.22813464547E+04  0.22813464547E+04  0.00000000000E+00 0. -1.
        -24    2    1    2    0    0  0.33678720759E+03 -0.23039795124E+03 -0.97397868430E+03  0.10589829739E+04  0.79382758893E+02 0.  0.
        254    2    1    2    0    0 -0.33678720759E+03  0.23039795124E+03 -0.10733782597E+04  0.14563529915E+04  0.89571999433E+03 0.  0.
         23    2    4    4    0    0 -0.20400316720E+03 -0.75953666104E+02 -0.10837146372E+04  0.11099749795E+04  0.10109791614E+03 0.  0.
         23    2    4    4    0    0 -0.13278404040E+03  0.30635161734E+03  0.10336377508E+02  0.34637801195E+03  0.91585870259E+02 0.  0.
          1    1    3    3  502    0  0.32764740204E+03 -0.23466715841E+03 -0.96372406437E+03  0.10445982805E+04  0.00000000000E+00 0. -1.
         -2    1    3    3    0  502  0.91398055579E+01  0.42692071673E+01 -0.10254619927E+02  0.14384693438E+02  0.00000000000E+00 0.  1.
         11    1    5    5    0    0 -0.30728618003E+01 -0.32664896614E+02 -0.19991391302E+03  0.20258827846E+03  0.00000000000E+00 0. -1.
        -11    1    5    5    0    0 -0.20093030540E+03 -0.43288769491E+02 -0.88380072419E+03  0.90738670106E+03  0.00000000000E+00 0.  1.
          2    1    6    6  503    0 -0.22302103055E+02  0.16496764318E+03  0.12458672575E+02  0.16693389596E+03  0.00000000000E+00 0. -1.
         -2    1    6    6    0  503 -0.11048193734E+03  0.14138397416E+03 -0.21222950667E+01  0.17944411600E+03  0.00000000000E+00 0.  1.
<mgrwt>
<rscale>  0 0.14612476E+04</rscale>
<asrwt>0</asrwt>
<pdfrwt beam="1">  1        1 0.35097639E+00 0.14612476E+04</pdfrwt>
<pdfrwt beam="2">  1       -2 0.35998385E-01 0.14612476E+04</pdfrwt>
<totfact> 0.11873844E+01</totfact>
</mgrwt>
</event>
<event>
12    4  0.4280696E-008  0.1578417E+04  0.7818608E-02  0.8833918E-01
          1   -1    0    0  501    0  0.00000000000E+00  0.00000000000E+00  0.16322168052E+04  0.16322168052E+04  0.00000000000E+00 0. -1.
         -2   -1    0    0    0  501 -0.00000000000E+00 -0.00000000000E+00 -0.38159759611E+03  0.38159759611E+03  0.00000000000E+00 0.  1.
        -24    2    1    2    0    0 -0.24457554269E+03 -0.38563067067E+03  0.75912926010E+03  0.88952192627E+03  0.80273367472E+02 0.  0.
        254    2    1    2    0    0  0.24457554269E+03  0.38563067067E+03  0.49148994896E+03  0.11242924750E+04  0.90218789019E+03 0.  0.
         23    2    4    4    0    0 -0.13120925059E+03 -0.18283193725E+03  0.34502015414E+03  0.42127260740E+03  0.88251449106E+02 0.  0.
         23    2    4    4    0    0  0.37578479327E+03  0.56846260792E+03  0.14646979483E+03  0.70301986761E+03  0.91758302050E+02 0.  0.
          1    1    3    3  502    0 -0.80564234897E+02 -0.19262475530E+03  0.37974529254E+03  0.43336056525E+03  0.00000000000E+00 0. -1.
         -2    1    3    3    0  502 -0.16401130779E+03 -0.19300591537E+03  0.37938396756E+03  0.45616136102E+03  0.00000000000E+00 0.  1.
         11    1    5    5    0    0 -0.79425899991E+02 -0.81186629009E+02  0.24299780998E+03  0.26823064324E+03  0.00000000000E+00 0. -1.
        -11    1    5    5    0    0 -0.51783350595E+02 -0.10164530825E+03  0.10202234415E+03  0.15304196416E+03  0.00000000000E+00 0.  1.
          2    1    6    6  503    0  0.23150422881E+03  0.42265194922E+03  0.89671806779E+02  0.49017334798E+03  0.00000000000E+00 0. -1.
         -2    1    6    6    0  503  0.14428056446E+03  0.14581065870E+03  0.56797988049E+02  0.21284651963E+03  0.00000000000E+00 0.  1.
<mgrwt>
<rscale>  0 0.15784169E+04</rscale>
<asrwt>0</asrwt>
<pdfrwt beam="1">  1        1 0.25111027E+00 0.15784169E+04</pdfrwt>
<pdfrwt beam="2">  1       -2 0.58707323E-01 0.15784169E+04</pdfrwt>
<totfact> 0.12132294E+01</totfact>
</mgrwt>
</event>
<event>
12    4  0.4280696E-008  0.1216273E+04  0.7818608E-02  0.9098731E-01
         -2   -1    0    0    0  501 -0.00000000000E+00  0.00000000000E+00  0.10651127818E+03  0.10651127818E+03  0.00000000000E+00 0.  1.
          1   -1    0    0  501    0  0.00000000000E+00 -0.00000000000E+00 -0.34722144657E+04  0.34722144657E+04  0.00000000000E+00 0. -1.
        -24    2    1    2    0    0  0.52252219023E+02 -0.49430488034E+02 -0.17192685753E+02  0.10887448354E+03  0.79902422880E+02 0.  0.
        254    2    1    2    0    0 -0.52252219023E+02  0.49430488034E+02 -0.33485105018E+04  0.34698512604E+04  0.90673674292E+03 0.  0.
         23    2    4    4    0    0 -0.26431924602E+03  0.39855602793E+03 -0.16428719355E+04  0.17135700736E+04  0.92642482590E+02 0.  0.
         23    2    4    4    0    0  0.21206702700E+03 -0.34912553990E+03 -0.17056385663E+04  0.17562811867E+04  0.91976200828E+02 0.  0.
          1    1    3    3  502    0  0.14536003064E+02 -0.21026410785E+02 -0.46670761343E+02  0.53212454369E+02  0.00000000000E+00 0. -1.
         -2    1    3    3    0  502  0.37716215959E+02 -0.28404077250E+02  0.29478075591E+02  0.55662029169E+02  0.00000000000E+00 0.  1.
         11    1    5    5    0    0 -0.21081749696E+03  0.36531608506E+03 -0.13665589047E+04  0.14301689058E+04  0.00000000000E+00 0.  1.
        -11    1    5    5    0    0 -0.53501749064E+02  0.33239942876E+02 -0.27631303078E+03  0.28340116784E+03  0.00000000000E+00 0. -1.
          1    1    6    6  503    0  0.46518156739E+02 -0.12131352672E+03 -0.39828835287E+03  0.41894453416E+03  0.00000000000E+00 0. -1.
         -1    1    6    6    0  503  0.16554887026E+03 -0.22781201318E+03 -0.13073502134E+04  0.13373366526E+04  0.00000000000E+00 0.  1.
<mgrwt>
<rscale>  0 0.12162730E+04</rscale>
<asrwt>0</asrwt>
<pdfrwt beam="1">  1        1 0.53418673E+00 0.12162730E+04</pdfrwt>
<pdfrwt beam="2">  1       -2 0.16386354E-01 0.12162730E+04</pdfrwt>
<totfact> 0.70367818E+00</totfact>
</mgrwt>
</event>
<event>
12    4  0.4280696E-008  0.1564490E+04  0.7818608E-02  0.8842665E-01
          1   -1    0    0  501    0  0.00000000000E+00  0.00000000000E+00  0.14631665632E+04  0.14631665632E+04  0.00000000000E+00 0. -1.
         -2   -1    0    0    0  501 -0.00000000000E+00 -0.00000000000E+00 -0.41820757064E+03  0.41820757064E+03  0.00000000000E+00 0.  1.
        -24    2    1    2    0    0  0.36077579987E+03 -0.13424733120E+03  0.78328626086E+03  0.87649736658E+03  0.80800640299E+02 0.  0.
        254    2    1    2    0    0 -0.36077579987E+03  0.13424733120E+03  0.26167273172E+03  0.10048767673E+04  0.89057463200E+03 0.  0.
         23    2    4    4    0    0 -0.16118016675E+03  0.66177618550E+02  0.57950418098E+03  0.61269799860E+03  0.95995928899E+02 0.  0.
         23    2    4    4    0    0 -0.19959563312E+03  0.68069712648E+02 -0.31783144926E+03  0.39217876866E+03  0.91189110697E+02 0.  0.
          1    1    3    3  502    0  0.25664958619E+03 -0.93059166898E+02  0.63054710677E+03  0.68710892331E+03  0.00000000000E+00 0. -1.
         -2    1    3    3    0  502  0.10412621368E+03 -0.41188164300E+02  0.15273915408E+03  0.18938844327E+03  0.00000000000E+00 0.  1.
         11    1    5    5    0    0 -0.13426028453E+03  0.44116003091E+02  0.54739678930E+03  0.56534528446E+03  0.00000000000E+00 0. -1.
        -11    1    5    5    0    0 -0.26919882225E+02  0.22061615459E+02  0.32107391681E+02  0.47352714137E+02  0.00000000000E+00 0.  1.
          4    1    6    6  503    0 -0.19192749063E+03  0.34614637828E+02 -0.26151860031E+03  0.32623046013E+03  0.00000000000E+00 0. -1.
         -4    1    6    6    0  503 -0.76681424855E+01  0.33455074820E+02 -0.56312848955E+02  0.65948308529E+02  0.00000000000E+00 0.  1.
<mgrwt>
<rscale>  0 0.15644901E+04</rscale>
<asrwt>0</asrwt>
<pdfrwt beam="1">  1        1 0.22510255E+00 0.15644901E+04</pdfrwt>
<pdfrwt beam="2">  1       -2 0.64339627E-01 0.15644901E+04</pdfrwt>
<totfact> 0.13075147E+01</totfact>
</mgrwt>
</event>
<event>
12    4  0.4280696E-008  0.1267737E+04  0.7818608E-02  0.9055549E-01
         -4   -1    0    0    0  501 -0.00000000000E+00  0.00000000000E+00  0.20744149564E+03  0.20744149564E+03  0.00000000000E+00 0.  1.
          1   -1    0    0  501    0  0.00000000000E+00 -0.00000000000E+00 -0.19368799042E+04  0.19368799042E+04  0.00000000000E+00 0. -1.
        -24    2    1    2    0    0 -0.30454996718E+03 -0.27579250485E+02 -0.40581617783E+03  0.51487778064E+03  0.83072626299E+02 0.  0.
        254    2    1    2    0    0  0.30454996718E+03  0.27579250485E+02 -0.13236222307E+04  0.16294436192E+04  0.89977741742E+03 0.  0.
         23    2    4    4    0    0 -0.27665028566E+03  0.16504742929E+03 -0.59526612111E+03  0.68281790157E+03  0.90124898323E+02 0.  0.
         23    2    4    4    0    0  0.58120025284E+03 -0.13746817881E+03 -0.72835610957E+03  0.94662571759E+03  0.94373686817E+02 0.  0.
          1    1    3    3  502    0 -0.23521143148E+03  0.13701518451E+02 -0.31541723791E+03  0.39370062621E+03  0.00000000000E+00 0. -1.
         -2    1    3    3    0  502 -0.69338535699E+02 -0.41280768936E+02 -0.90398939920E+02  0.12117715443E+03  0.00000000000E+00 0.  1.
         11    1    5    5    0    0 -0.21492753431E+03  0.16560031717E+03 -0.45845994532E+03  0.53273148163E+03  0.00000000000E+00 0. -1.
        -11    1    5    5    0    0 -0.61722751346E+02 -0.55288787715E+00 -0.13680617579E+03  0.15008641995E+03  0.00000000000E+00 0.  1.
          1    1    6    6  503    0  0.39388261690E+03 -0.13236446051E+03 -0.53433879830E+03  0.67689128940E+03  0.00000000000E+00 0. -1.
         -1    1    6    6    0  503  0.18731763594E+03 -0.51037182936E+01 -0.19401731127E+03  0.26973442818E+03  0.00000000000E+00 0.  1.
<mgrwt>
<rscale>  0 0.12677370E+04</rscale>
<asrwt>0</asrwt>
<pdfrwt beam="1">  1        1 0.29798151E+00 0.12677370E+04</pdfrwt>
<pdfrwt beam="2">  1       -4 0.31914078E-01 0.12677370E+04</pdfrwt>
<totfact> 0.15341187E+01</totfact>
</mgrwt>
</event>
<event>
12    4  0.4280696E-008  0.2253278E+04  0.7818608E-02  0.8496574E-01
         -2   -1    0    0    0  501 -0.00000000000E+00  0.00000000000E+00  0.18149303357E+04  0.18149303357E+04  0.00000000000E+00 0.  1.
          1   -1    0    0  501    0  0.00000000000E+00 -0.00000000000E+00 -0.69937446675E+03  0.69937446675E+03  0.00000000000E+00 0. -1.
        -24    2    1    2    0    0 -0.89804953738E+03  0.14898637810E+03  0.74870190237E+03  0.11813228819E+04  0.79242035462E+02 0.  0.
        254    2    1    2    0    0  0.89804953738E+03 -0.14898637810E+03  0.36685396656E+03  0.13329819206E+04  0.90198062911E+03 0.  0.
         23    2    4    4    0    0 -0.13067286484E+03 -0.16778216585E+03  0.15398888653E+03  0.27836335580E+03  0.92451759820E+02 0.  0.
         23    2    4    4    0    0  0.10287224022E+04  0.18795787754E+02  0.21286508003E+03  0.10546185648E+04  0.91025888392E+02 0.  0.
          3    1    3    3  502    0 -0.10530414715E+03  0.41670335284E+02  0.79772708585E+02  0.13852460173E+03  0.00000000000E+00 0. -1.
         -4    1    3    3    0  502 -0.79274539022E+03  0.10731604282E+03  0.66892919379E+03  0.10427982801E+04  0.00000000000E+00 0.  1.
         11    1    5    5    0    0 -0.25617093682E+02 -0.14547264762E+02 -0.94277725372E+01  0.30931234954E+02  0.00000000000E+00 0.  1.
        -11    1    5    5    0    0 -0.10505577116E+03 -0.15323490109E+03  0.16341665907E+03  0.24743212085E+03  0.00000000000E+00 0. -1.
          3    1    6    6  503    0  0.86317166927E+03  0.48729750040E+02  0.18438608404E+03  0.88398990218E+03  0.00000000000E+00 0. -1.
         -3    1    6    6    0  503  0.16555073296E+03 -0.29933962286E+02  0.28478995982E+02  0.17062866258E+03  0.00000000000E+00 0.  1.
<mgrwt>
<rscale>  0 0.22532784E+04</rscale>
<asrwt>0</asrwt>
<pdfrwt beam="1">  1        1 0.10759607E+00 0.22532784E+04</pdfrwt>
<pdfrwt beam="2">  1       -2 0.27922005E+00 0.22532784E+04</pdfrwt>
<totfact> 0.92385756E-01</totfact>
</mgrwt>
</event>
<event>
12    4  0.4280696E-008  0.1425553E+04  0.7818608E-02  0.8935527E-01
          1   -1    0    0  501    0  0.00000000000E+00  0.00000000000E+00  0.27307635608E+04  0.27307635608E+04  0.00000000000E+00 0. -1.
         -2   -1    0    0    0  501 -0.00000000000E+00 -0.00000000000E+00 -0.18604691121E+03  0.18604691121E+03  0.00000000000E+00 0.  1.
        -24    2    1    2    0    0  0.22718218405E+03  0.23682001559E+03  0.24566856270E+03  0.41744188094E+03  0.78798583292E+02 0.  0.
        254    2    1    2    0    0 -0.22718218405E+03 -0.23682001559E+03  0.22990480869E+04  0.24993685911E+04  0.92386459164E+03 0.  0.
         23    2    4    4    0    0 -0.27383341357E+03  0.19517959340E+03  0.33519703638E+03  0.48596238070E+03  0.10354984399E+03 0.  0.
         23    2    4    4    0    0  0.46651229514E+02 -0.43199960899E+03  0.19638510505E+04  0.20134062104E+04  0.91069314294E+02 0.  0.
          3    1    3    3  502    0  0.92801822206E+02  0.51971419528E+02  0.10282497652E+03  0.14793979333E+03  0.00000000000E+00 0. -1.
         -4    1    3    3    0  502  0.13438036185E+03  0.18484859607E+03  0.14284358618E+03  0.26950208762E+03  0.00000000000E+00 0.  1.
         11    1    5    5    0    0 -0.60882582204E+02  0.10272922569E+03  0.12324033096E+03  0.17160466720E+03  0.00000000000E+00 0. -1.
        -11    1    5    5    0    0 -0.21295083136E+03  0.92450367706E+02  0.21195670542E+03  0.31435771350E+03  0.00000000000E+00 0.  1.
          3    1    6    6  503    0 -0.18172256321E+02 -0.25114676290E+03  0.11024068753E+04  0.11307987647E+04  0.00000000000E+00 0. -1.
         -3    1    6    6    0  503  0.64823485835E+02 -0.18085284609E+03  0.86144417521E+03  0.88260744574E+03  0.00000000000E+00 0.  1.
<mgrwt>
<rscale>  0 0.14255527E+04</rscale>
<asrwt>0</asrwt>
<pdfrwt beam="1">  1        1 0.42011744E+00 0.14255527E+04</pdfrwt>
<pdfrwt beam="2">  1       -2 0.28622604E-01 0.14255527E+04</pdfrwt>
<totfact> 0.89709546E+00</totfact>
</mgrwt>
</event>
<event>
12    4  0.4280696E-008  0.1515639E+04  0.7818608E-02  0.8874120E-01
          1   -1    0    0  501    0  0.00000000000E+00  0.00000000000E+00  0.17952662250E+04  0.17952662250E+04  0.00000000000E+00 0. -1.
         -2   -1    0    0    0  501 -0.00000000000E+00 -0.00000000000E+00 -0.31989132675E+03  0.31989132675E+03  0.00000000000E+00 0.  1.
        -24    2    1    2    0    0 -0.31527735527E+03 -0.11128788402E+03 -0.71108250134E+01  0.34396127173E+03  0.80461100802E+02 0.  0.
        254    2    1    2    0    0  0.31527735527E+03  0.11128788402E+03  0.14824857232E+04  0.17711962800E+04  0.90971838432E+03 0.  0.
         23    2    4    4    0    0  0.34619098697E+03  0.26736753869E+02  0.15734491994E+04  0.16139167139E+04  0.91769944694E+02 0.  0.
         23    2    4    4    0    0 -0.30913631703E+02  0.84551130148E+02 -0.90963476149E+02  0.15727956613E+03  0.91421888487E+02 0.  0.
          3    1    3    3  502    0 -0.14291522744E+02  0.73327982272E+01  0.11739289167E+02  0.19895438229E+02  0.00000000000E+00 0. -1.
         -4    1    3    3    0  502 -0.30098583253E+03 -0.11862068224E+03 -0.18850114180E+02  0.32406583350E+03  0.00000000000E+00 0.  1.
         11    1    5    5    0    0  0.26761690204E+02 -0.13658442244E+02  0.66763130165E+02  0.73212407805E+02  0.00000000000E+00 0. -1.
        -11    1    5    5    0    0  0.31942929677E+03  0.40395196113E+02  0.15066860692E+04  0.15407043061E+04  0.00000000000E+00 0.  1.
          1    1    6    6  503    0  0.31687921271E+02  0.29839805415E+02 -0.43539417345E+02  0.61564756187E+02  0.00000000000E+00 0. -1.
         -1    1    6    6    0  503 -0.62601552975E+02  0.54711324734E+02 -0.47424058804E+02  0.95714809943E+02  0.00000000000E+00 0.  1.
<mgrwt>
<rscale>  0 0.15156386E+04</rscale>
<asrwt>0</asrwt>
<pdfrwt beam="1">  1        1 0.27619480E+00 0.15156386E+04</pdfrwt>
<pdfrwt beam="2">  1       -2 0.49214052E-01 0.15156386E+04</pdfrwt>
<totfact> 0.13606799E+01</totfact>
</mgrwt>
</event>
<event>
12    4  0.4280696E-008  0.1284870E+04  0.7818608E-02  0.9041651E-01
         -2   -1    0    0    0  501 -0.00000000000E+00  0.00000000000E+00  0.13551496896E+04  0.13551496896E+04  0.00000000000E+00 0.  1.
          1   -1    0    0  501    0  0.00000000000E+00 -0.00000000000E+00 -0.30455854756E+03  0.30455854756E+03  0.00000000000E+00 0. -1.
        -24    2    1    2    0    0  0.47397574980E+02 -0.76184080815E+02  0.66762979771E+03  0.67833491257E+03  0.79738087190E+02 0.  0.
        254    2    1    2    0    0 -0.47397574980E+02  0.76184080815E+02  0.38296134431E+03  0.98137332456E+03  0.89910158861E+03 0.  0.
         23    2    4    4    0    0 -0.31017154172E+03  0.85503519925E+02 -0.16094617016E+03  0.37069983926E+03  0.89428540901E+02 0.  0.
         23    2    4    4    0    0  0.26277396674E+03 -0.93194391099E+01  0.54390751447E+03  0.61067348530E+03  0.89161156379E+02 0.  0.
          3    1    3    3  502    0  0.45218039031E+01  0.15858762167E+02  0.57675940712E+02  0.59987175171E+02  0.00000000000E+00 0. -1.
         -4    1    3    3    0  502  0.42875771077E+02 -0.92042842982E+02  0.60995385699E+03  0.61834773740E+03  0.00000000000E+00 0.  1.
         11    1    5    5    0    0 -0.61008575351E+02  0.93940065147E+01 -0.73289087447E+02  0.95820582150E+02  0.00000000000E+00 0. -1.
        -11    1    5    5    0    0 -0.24916296637E+03  0.76109513410E+02 -0.87657082717E+02  0.27487925711E+03  0.00000000000E+00 0.  1.
          4    1    6    6  503    0  0.10097032750E+03  0.39812308011E+02  0.21004379549E+03  0.23642847317E+03  0.00000000000E+00 0. -1.
         -4    1    6    6    0  503  0.16180363924E+03 -0.49131747121E+02  0.33386371899E+03  0.37424501213E+03  0.00000000000E+00 0.  1.
<mgrwt>
<rscale>  0 0.12848695E+04</rscale>
<asrwt>0</asrwt>
<pdfrwt beam="1">  1        1 0.46855162E-01 0.12848695E+04</pdfrwt>
<pdfrwt beam="2">  1       -2 0.20848457E+00 0.12848695E+04</pdfrwt>
<totfact> 0.86399248E+00</totfact>
</mgrwt>
</event>
<event>
12    4  0.4280696E-008  0.2383570E+04  0.7818608E-02  0.8445680E-01
          1   -1    0    0  501    0  0.00000000000E+00  0.00000000000E+00  0.10728370731E+04  0.10728370731E+04  0.00000000000E+00 0. -1.
         -2   -1    0    0    0  501 -0.00000000000E+00 -0.00000000000E+00 -0.13239215134E+04  0.13239215134E+04  0.00000000000E+00 0.  1.
        -24    2    1    2    0    0  0.27826103068E+03  0.29184274050E+03  0.83113128339E+03  0.92694754026E+03  0.76492782554E+02 0.  0.
        254    2    1    2    0    0 -0.27826103068E+03 -0.29184274050E+03 -0.10822157236E+04  0.14698110463E+04  0.90914919175E+03 0.  0.
         23    2    4    4    0    0 -0.32262053850E+03 -0.58863443309E+03 -0.68631252416E+03  0.96465512746E+03  0.94657944300E+02 0.  0.
         23    2    4    4    0    0  0.44359507821E+02  0.29679169259E+03 -0.39590319949E+03  0.50515591882E+03  0.91597402932E+02 0.  0.
          3    1    3    3  502    0  0.19862743642E+03  0.24280033382E+03  0.58792048162E+03  0.66637478442E+03  0.00000000000E+00 0. -1.
         -4    1    3    3    0  502  0.79633594265E+02  0.49042406682E+02  0.24321080177E+03  0.26057275584E+03  0.00000000000E+00 0.  1.
         11    1    5    5    0    0  0.64407319490E+01 -0.87347144303E+01 -0.77637196158E+01  0.13343672901E+02  0.00000000000E+00 0. -1.
        -11    1    5    5    0    0 -0.32906127045E+03 -0.57989971866E+03 -0.67854880455E+03  0.95131145456E+03  0.00000000000E+00 0.  1.
          3    1    6    6  503    0  0.33446556323E+02  0.70026589484E+02 -0.15959388056E+03  0.17746155098E+03  0.00000000000E+00 0.  1.
         -3    1    6    6    0  503  0.10912951497E+02  0.22676510311E+03 -0.23630931893E+03  0.32769436784E+03  0.00000000000E+00 0. -1.
<mgrwt>
<rscale>  0 0.23835705E+04</rscale>
<asrwt>0</asrwt>
<pdfrwt beam="1">  1        1 0.16505186E+00 0.23835705E+04</pdfrwt>
<pdfrwt beam="2">  1       -2 0.20368023E+00 0.23835705E+04</pdfrwt>
<totfact> 0.13164563E+00</totfact>
</mgrwt>
</event>
<event>
12    4  0.4280696E-008  0.1145819E+04  0.7818608E-02  0.9161649E-01
         -2   -1    0    0    0  501 -0.00000000000E+00  0.00000000000E+00  0.27549597017E+03  0.27549597017E+03  0.00000000000E+00 0.  1.
          1   -1    0    0  501    0  0.00000000000E+00 -0.00000000000E+00 -0.11913975974E+04  0.11913975974E+04  0.00000000000E+00 0. -1.
        -24    2    1    2    0    0  0.10354444844E+03  0.34306394097E+02 -0.40495300089E+03  0.42689015335E+03  0.79686188390E+02 0.  0.
        254    2    1    2    0    0 -0.10354444844E+03 -0.34306394097E+02 -0.51094862637E+03  0.10400034142E+04  0.89924425012E+03 0.  0.
         23    2    4    4    0    0  0.10851203584E+03  0.30926871348E+03 -0.52558742958E+03  0.62634521394E+03  0.92974092256E+02 0.  0.
         23    2    4    4    0    0 -0.21205648428E+03 -0.34357510758E+03  0.14638803212E+02  0.41365820031E+03  0.88808811762E+02 0.  0.
          3    1    3    3  502    0  0.40275386498E+02  0.16538040759E+02 -0.29941619252E+03  0.30256514983E+03  0.00000000000E+00 0. -1.
         -4    1    3    3    0  502  0.63269061943E+02  0.17768353337E+02 -0.10553680838E+03  0.12432500353E+03  0.00000000000E+00 0.  1.
         11    1    5    5    0    0  0.12269151476E+03  0.24663044325E+03 -0.40645824710E+03  0.49100721987E+03  0.00000000000E+00 0.  1.
        -11    1    5    5    0    0 -0.14179478913E+02  0.62638270234E+02 -0.11912918248E+03  0.13533799407E+03  0.00000000000E+00 0. -1.
          2    1    6    6  503    0  0.35959838634E+01 -0.12146894989E+01 -0.75296739236E+01  0.84322333887E+01  0.00000000000E+00 0. -1.
         -2    1    6    6    0  503 -0.21565246815E+03 -0.34236041808E+03  0.22168477136E+02  0.40522596692E+03  0.00000000000E+00 0.  1.
<mgrwt>
<rscale>  0 0.11458189E+04</rscale>
<asrwt>0</asrwt>
<pdfrwt beam="1">  1        1 0.18329194E+00 0.11458189E+04</pdfrwt>
<pdfrwt beam="2">  1       -2 0.42383996E-01 0.11458189E+04</pdfrwt>
<totfact> 0.49829238E+01</totfact>
</mgrwt>
</event>
<event>
12    4  0.4280696E-008  0.1223805E+04  0.7818608E-02  0.9092271E-01
         -2   -1    0    0    0  501 -0.00000000000E+00  0.00000000000E+00  0.57834172314E+03  0.57834172314E+03  0.00000000000E+00 0.  1.
          1   -1    0    0  501    0  0.00000000000E+00 -0.00000000000E+00 -0.64741096544E+03  0.64741096544E+03  0.00000000000E+00 0. -1.
        -24    2    1    2    0    0 -0.13616765151E+03 -0.12677853646E+03 -0.20991600845E+03  0.29143960608E+03  0.79106806044E+02 0.  0.
        254    2    1    2    0    0  0.13616765151E+03  0.12677853646E+03  0.14084676615E+03  0.93431308251E+03  0.90470365202E+03 0.  0.
         23    2    4    4    0    0 -0.40562988788E+02  0.12000099925E+03  0.50006990869E+03  0.52354735526E+03  0.89366233806E+02 0.  0.
         23    2    4    4    0    0  0.17673064030E+03  0.67775372130E+01 -0.35922314254E+03  0.41076572724E+03  0.91692760408E+02 0.  0.
          3    1    3    3  502    0 -0.13055460552E+03 -0.77021670959E+02 -0.16651572024E+03  0.22517621523E+03  0.00000000000E+00 0. -1.
         -4    1    3    3    0  502 -0.56130459924E+01 -0.49756865499E+02 -0.43400288217E+02  0.66263390850E+02  0.00000000000E+00 0.  1.
         11    1    5    5    0    0  0.22210516001E+02  0.59079798320E+01  0.50235302512E+02  0.55243070744E+02  0.00000000000E+00 0.  1.
        -11    1    5    5    0    0 -0.62773504789E+02  0.11409301941E+03  0.44983460618E+03  0.46830428452E+03  0.00000000000E+00 0. -1.
          1    1    6    6  503    0  0.92140088401E+02  0.22049191237E+02 -0.27318083985E+03  0.28914310296E+03  0.00000000000E+00 0. -1.
         -1    1    6    6    0  503  0.84590551897E+02 -0.15271654024E+02 -0.86042302687E+02  0.12162262429E+03  0.00000000000E+00 0.  1.
<mgrwt>
<rscale>  0 0.12238052E+04</rscale>
<asrwt>0</asrwt>
<pdfrwt beam="1">  1        1 0.99601687E-01 0.12238052E+04</pdfrwt>
<pdfrwt beam="2">  1       -2 0.88975650E-01 0.12238052E+04</pdfrwt>
<totfact> 0.28761640E+01</totfact>
</mgrwt>
</event>
<event>
12    4  0.4280696E-008  0.1293180E+04  0.7818608E-02  0.9034991E-01
          1   -1    0    0  501    0  0.00000000000E+00  0.00000000000E+00  0.14209553180E+04  0.14209553180E+04  0.00000000000E+00 0. -1.
         -2   -1    0    0    0  501 -0.00000000000E+00 -0.00000000000E+00 -0.29422348190E+03  0.29422348190E+03  0.00000000000E+00 0.  1.
        -24    2    1    2    0    0  0.13297009842E+02 -0.17399273421E+03  0.66178305022E+03  0.68851913240E+03  0.75176512866E+02 0.  0.
        254    2    1    2    0    0 -0.13297009842E+02  0.17399273421E+03  0.46494878585E+03  0.10266596675E+04  0.89855573969E+03 0.  0.
         23    2    4    4    0    0  0.25054060201E+03 -0.11220112994E+02  0.60612778555E+03  0.66231046171E+03  0.91475521755E+02 0.  0.
         23    2    4    4    0    0 -0.26383761186E+03  0.18521284721E+03 -0.14117899970E+03  0.36434920577E+03  0.94364980735E+02 0.  0.
          1    1    3    3  502    0 -0.14058006309E+02 -0.15723962271E+03  0.55639060300E+03  0.57835320489E+03  0.00000000000E+00 0. -1.
         -2    1    3    3    0  502  0.27355016151E+02 -0.16753111499E+02  0.10539244722E+03  0.11016592751E+03  0.00000000000E+00 0.  1.
         11    1    5    5    0    0  0.24528391865E+03 -0.23998670552E+01  0.51311635642E+03  0.56873399347E+03  0.00000000000E+00 0. -1.
        -11    1    5    5    0    0  0.52566833689E+01 -0.88202459388E+01  0.93011429129E+02  0.93576468233E+02  0.00000000000E+00 0.  1.
          2    1    6    6  503    0 -0.28581979761E+02  0.65600341429E+02 -0.22824277641E+02  0.75108468314E+02  0.00000000000E+00 0.  1.
         -2    1    6    6    0  503 -0.23525563209E+03  0.11961250578E+03 -0.11835472206E+03  0.28924073746E+03  0.00000000000E+00 0. -1.
<mgrwt>
<rscale>  0 0.12931797E+04</rscale>
<asrwt>0</asrwt>
<pdfrwt beam="1">  1        1 0.21860851E+00 0.12931797E+04</pdfrwt>
<pdfrwt beam="2">  1       -2 0.45265152E-01 0.12931797E+04</pdfrwt>
<totfact> 0.29643536E+01</totfact>
</mgrwt>
</event>
<event>
12    4  0.4280696E-008  0.2733466E+04  0.7818608E-02  0.8324227E-01
          1   -1    0    0  501    0  0.00000000000E+00  0.00000000000E+00  0.21473722055E+04  0.21473722055E+04  0.00000000000E+00 0. -1.
         -2   -1    0    0    0  501 -0.00000000000E+00 -0.00000000000E+00 -0.86988158663E+03  0.86988158663E+03  0.00000000000E+00 0.  1.
        -24    2    1    2    0    0  0.92712524425E+03 -0.37621847157E+03  0.13484704142E+04  0.16809617447E+04  0.78475297989E+02 0.  0.
        254    2    1    2    0    0 -0.92712524425E+03  0.37621847157E+03 -0.70979795333E+02  0.13362920474E+04  0.88291378273E+03 0.  0.
         23    2    4    4    0    0 -0.17763573272E+03  0.20218402339E+03 -0.40350554326E+03  0.49312001812E+03  0.88981998068E+02 0.  0.
         23    2    4    4    0    0 -0.74948951153E+03  0.17403444818E+03  0.33252574793E+03  0.84317202928E+03  0.91341014243E+02 0.  0.
          3    1    3    3  502    0  0.88223832065E+03 -0.34008867717E+03  0.12826044507E+04  0.15934487566E+04  0.00000000000E+00 0. -1.
         -4    1    3    3    0  502  0.44886923595E+02 -0.36129794404E+02  0.65865963473E+02  0.87512988166E+02  0.00000000000E+00 0.  1.
         11    1    5    5    0    0 -0.68977586613E+01 -0.11496068063E+00  0.33942260241E+01  0.76885018573E+01  0.00000000000E+00 0. -1.
        -11    1    5    5    0    0 -0.17073797406E+03  0.20229898407E+03 -0.40689976928E+03  0.48543151627E+03  0.00000000000E+00 0.  1.
          4    1    6    6  503    0 -0.72673962076E+03  0.17686647768E+03  0.30603757435E+03  0.80814059682E+03  0.00000000000E+00 0.  1.
         -4    1    6    6    0  503 -0.22749890763E+02 -0.28320294997E+01  0.26488173573E+02  0.35031432458E+02  0.00000000000E+00 0. -1.
<mgrwt>
<rscale>  0 0.27334663E+04</rscale>
<asrwt>0</asrwt>
<pdfrwt beam="1">  1        1 0.33036495E+00 0.27334663E+04</pdfrwt>
<pdfrwt beam="2">  1       -2 0.13382794E+00 0.27334663E+04</pdfrwt>
<totfact> 0.73053831E-01</totfact>
</mgrwt>
</event>
<event>
12    4  0.4280696E-008  0.2726221E+04  0.7818608E-02  0.8326547E-01
          1   -1    0    0  501    0  0.00000000000E+00  0.00000000000E+00  0.10608816204E+04  0.10608816204E+04  0.00000000000E+00 0. -1.
         -2   -1    0    0    0  501 -0.00000000000E+00 -0.00000000000E+00 -0.17514395163E+04  0.17514395163E+04  0.00000000000E+00 0.  1.
        -24    2    1    2    0    0  0.43045160952E+03 -0.11194324564E+04 -0.14647415987E+03  0.12108473658E+04  0.79240465321E+02 0.  0.
        254    2    1    2    0    0 -0.43045160952E+03  0.11194324564E+04 -0.54408373600E+03  0.16014737708E+04  0.91119345601E+03 0.  0.
         23    2    4    4    0    0 -0.56725465365E+03  0.11732506603E+04 -0.37665162542E+03  0.13602061388E+04  0.99996696243E+02 0.  0.
         23    2    4    4    0    0  0.13680304413E+03 -0.53818203886E+02 -0.16743211058E+03  0.24126763199E+03  0.92547753290E+02 0.  0.
          1    1    3    3  502    0  0.10841480761E+03 -0.29042106912E+03 -0.72847263539E+02  0.31844134735E+03  0.00000000000E+00 0. -1.
         -2    1    3    3    0  502  0.32203680191E+03 -0.82901138726E+03 -0.73626896327E+02  0.89240601850E+03  0.00000000000E+00 0.  1.
         11    1    5    5    0    0 -0.18214086539E+03  0.45163975599E+03 -0.10354454742E+03  0.49787070343E+03  0.00000000000E+00 0. -1.
        -11    1    5    5    0    0 -0.38511378826E+03  0.72161090428E+03 -0.27310707800E+03  0.86233543539E+03  0.00000000000E+00 0.  1.
          2    1    6    6  503    0  0.77344635168E+01 -0.71865455842E+01 -0.75158530151E+02  0.75896462486E+02  0.00000000000E+00 0. -1.
         -2    1    6    6    0  503  0.12906858061E+03 -0.46631658302E+02 -0.92273580430E+02  0.16537116950E+03  0.00000000000E+00 0.  1.
<mgrwt>
<rscale>  0 0.27262208E+04</rscale>
<asrwt>0</asrwt>
<pdfrwt beam="1">  1        1 0.16321256E+00 0.27262208E+04</pdfrwt>
<pdfrwt beam="2">  1       -2 0.26945223E+00 0.27262208E+04</pdfrwt>
<totfact> 0.50682416E-01</totfact>
</mgrwt>
</event>
<event>
12    4  0.4280696E-008  0.2399955E+04  0.7818608E-02  0.8439521E-01
          1   -1    0    0  501    0  0.00000000000E+00  0.00000000000E+00  0.16573853160E+04  0.16573853160E+04  0.00000000000E+00 0. -1.
         -2   -1    0    0    0  501 -0.00000000000E+00 -0.00000000000E+00 -0.86880547571E+03  0.86880547571E+03  0.00000000000E+00 0.  1.
        -24    2    1    2    0    0  0.62375466208E+03  0.75160602755E+03  0.14944152399E+02  0.98005502470E+03  0.79391590414E+02 0.  0.
        254    2    1    2    0    0 -0.62375466208E+03 -0.75160602755E+03  0.77363568790E+03  0.15461357670E+04  0.91544641208E+03 0.  0.
         23    2    4    4    0    0 -0.10047788757E+03  0.18946462314E+03  0.31172897755E+02  0.23496741801E+03  0.90803571840E+02 0.  0.
         23    2    4    4    0    0 -0.52327677451E+03 -0.94107065069E+03  0.74246279014E+03  0.13111683490E+04  0.92080901329E+02 0.  0.
          1    1    3    3  502    0  0.43230468477E+02  0.49927807835E+02 -0.19027487302E+02  0.68729212661E+02  0.00000000000E+00 0. -1.
         -2    1    3    3    0  502  0.58052419361E+03  0.70167821971E+03  0.33971639701E+02  0.91132581204E+03  0.00000000000E+00 0.  1.
         11    1    5    5    0    0 -0.22682611716E+02  0.18034241579E+02 -0.25251944997E+02  0.38436902447E+02  0.00000000000E+00 0. -1.
        -11    1    5    5    0    0 -0.77795275852E+02  0.17143038156E+03  0.56424842751E+02  0.19653051556E+03  0.00000000000E+00 0.  1.
          4    1    6    6  503    0 -0.20007441190E+02 -0.75949447602E+02  0.71554888915E+02  0.10624838079E+03  0.00000000000E+00 0. -1.
         -4    1    6    6    0  503 -0.50326933332E+03 -0.86512120309E+03  0.67090790123E+03  0.12049199682E+04  0.00000000000E+00 0.  1.
<mgrwt>
<rscale>  0 0.23999545E+04</rscale>
<asrwt>0</asrwt>
<pdfrwt beam="1">  1        1 0.25498236E+00 0.23999545E+04</pdfrwt>
<pdfrwt beam="2">  1       -2 0.13366238E+00 0.23999545E+04</pdfrwt>
<totfact> 0.16233192E+00</totfact>
</mgrwt>
</event>
<event>
12    4  0.4280696E-008  0.1215405E+04  0.7818608E-02  0.9099478E-01
         -4   -1    0    0    0  501 -0.00000000000E+00  0.00000000000E+00  0.35032332852E+03  0.35032332852E+03  0.00000000000E+00 0.  1.
          3   -1    0    0  501    0  0.00000000000E+00 -0.00000000000E+00 -0.10541762746E+04  0.10541762746E+04  0.00000000000E+00 0. -1.
        -24    2    1    2    0    0  0.74145405470E+01 -0.76946518013E+02 -0.45796509589E+03  0.47131563044E+03  0.80191348673E+02 0.  0.
        254    2    1    2    0    0 -0.74145405470E+01  0.76946518013E+02 -0.24588785021E+03  0.93318397270E+03  0.89688112366E+03 0.  0.
         23    2    4    4    0    0  0.10942421726E+03  0.41911154422E+03  0.65125644628E+02  0.44750186689E+03  0.91588347821E+02 0.  0.
         23    2    4    4    0    0 -0.11683875780E+03 -0.34216502621E+03 -0.31101349484E+03  0.48568210581E+03  0.91812381798E+02 0.  0.
          3    1    3    3  502    0  0.25394460804E+02 -0.71355021807E+02 -0.43534463095E+03  0.44188388234E+03  0.00000000000E+00 0. -1.
         -4    1    3    3    0  502 -0.17979920257E+02 -0.55914962056E+01 -0.22620464940E+02  0.29431748103E+02  0.00000000000E+00 0.  1.
         11    1    5    5    0    0  0.19276439759E+02  0.22498405941E+03  0.58944839321E+02  0.23337502480E+03  0.00000000000E+00 0. -1.
        -11    1    5    5    0    0  0.90147777498E+02  0.19412748481E+03  0.61808053067E+01  0.21412684208E+03  0.00000000000E+00 0.  1.
          4    1    6    6  503    0 -0.49842092398E+02 -0.43538456260E+02 -0.43491886395E+02  0.79192016835E+02  0.00000000000E+00 0. -1.
         -4    1    6    6    0  503 -0.66996665405E+02 -0.29862656995E+03 -0.26752160845E+03  0.40649008898E+03  0.00000000000E+00 0.  1.
<mgrwt>
<rscale>  0 0.12154054E+04</rscale>
<asrwt>0</asrwt>
<pdfrwt beam="1">  1        3 0.16218097E+00 0.12154054E+04</pdfrwt>
<pdfrwt beam="2">  1       -4 0.53895897E-01 0.12154054E+04</pdfrwt>
<totfact> 0.19609134E+00</totfact>
</mgrwt>
</event>
<event>
12    4  0.4280696E-008  0.1346918E+04  0.7818608E-02  0.8993165E-01
          1   -1    0    0  501    0  0.00000000000E+00  0.00000000000E+00  0.75223029234E+03  0.75223029234E+03  0.00000000000E+00 0. -1.
         -2   -1    0    0    0  501 -0.00000000000E+00 -0.00000000000E+00 -0.60293613346E+03  0.60293613346E+03  0.00000000000E+00 0.  1.
        -24    2    1    2    0    0  0.14541700788E+03  0.28315943155E+03 -0.15069997179E+03  0.36044203263E+03  0.76698158611E+02 0.  0.
        254    2    1    2    0    0 -0.14541700788E+03 -0.28315943155E+03  0.29999413067E+03  0.99472439316E+03  0.89339508061E+03 0.  0.
         23    2    4    4    0    0 -0.27857285705E+03 -0.16294883460E+03  0.56777863670E+03  0.65943780877E+03  0.91271484939E+02 0.  0.
         23    2    4    4    0    0  0.13315584917E+03 -0.12021059694E+03 -0.26778450603E+03  0.33528658439E+03  0.92344378371E+02 0.  0.
          1    1    3    3  502    0  0.15313136043E+01  0.67691555929E+02 -0.22368755380E+02  0.71308154391E+02  0.00000000000E+00 0. -1.
         -2    1    3    3    0  502  0.14388569427E+03  0.21546787562E+03 -0.12833121641E+03  0.28913387824E+03  0.00000000000E+00 0.  1.
         11    1    5    5    0    0 -0.14393171434E+03 -0.11052313079E+03  0.39147729333E+03  0.43149295710E+03  0.00000000000E+00 0. -1.
        -11    1    5    5    0    0 -0.13464114271E+03 -0.52425703813E+02  0.17630134337E+03  0.22794485167E+03  0.00000000000E+00 0.  1.
          3    1    6    6  503    0  0.10102773795E+03 -0.13166568446E+03 -0.23706907557E+03  0.28938590652E+03  0.00000000000E+00 0. -1.
         -3    1    6    6    0  503  0.32128111222E+02  0.11455087520E+02 -0.30715430462E+02  0.45900677874E+02  0.00000000000E+00 0.  1.
<mgrwt>
<rscale>  0 0.13469177E+04</rscale>
<asrwt>0</asrwt>
<pdfrwt beam="1">  1        1 0.11572774E+00 0.13469177E+04</pdfrwt>
<pdfrwt beam="2">  1       -2 0.92759405E-01 0.13469177E+04</pdfrwt>
<totfact> 0.20602438E+01</totfact>
</mgrwt>
</event>
<event>
12    4  0.4280696E-008  0.1715322E+04  0.7818608E-02  0.8752674E-01
          1   -1    0    0  501    0  0.00000000000E+00  0.00000000000E+00  0.19755643040E+04  0.19755643040E+04  0.00000000000E+00 0. -1.
         -2   -1    0    0    0  501 -0.00000000000E+00 -0.00000000000E+00 -0.37234042420E+03  0.37234042420E+03  0.00000000000E+00 0.  1.
        -24    2    1    2    0    0  0.44124686090E+03  0.37587735017E+03  0.86790728369E+03  0.10466960244E+04  0.79542063660E+02 0.  0.
        254    2    1    2    0    0 -0.44124686090E+03 -0.37587735017E+03  0.73531659611E+03  0.13012087038E+04  0.90358785936E+03 0.  0.
         23    2    4    4    0    0 -0.53320830978E+03 -0.36353333014E+03  0.88732162355E+03  0.11006360709E+04  0.87135028627E+02 0.  0.
         23    2    4    4    0    0  0.91961448883E+02 -0.12344020024E+02 -0.15200502743E+03  0.20057263285E+03  0.92274426430E+02 0.  0.
          3    1    3    3  502    0  0.41214882667E+03  0.32234798435E+03  0.75843283241E+03  0.92140937678E+03  0.00000000000E+00 0. -1.
         -4    1    3    3    0  502  0.29098034228E+02  0.53529365819E+02  0.10947445128E+03  0.12528664767E+03  0.00000000000E+00 0.  1.
         11    1    5    5    0    0 -0.88834935558E+02 -0.38225928909E+02  0.17851723299E+03  0.20303021915E+03  0.00000000000E+00 0. -1.
        -11    1    5    5    0    0 -0.44437337422E+03 -0.32530740123E+03  0.70880439056E+03  0.89760585175E+03  0.00000000000E+00 0.  1.
          4    1    6    6  503    0  0.34837793146E+00  0.29593923707E+02 -0.27436439949E+02  0.40356906778E+02  0.00000000000E+00 0. -1.
         -4    1    6    6    0  503  0.91613070951E+02 -0.41937943731E+02 -0.12456858749E+03  0.16021572607E+03  0.00000000000E+00 0.  1.
<mgrwt>
<rscale>  0 0.17153221E+04</rscale>
<asrwt>0</asrwt>
<pdfrwt beam="1">  1        1 0.30393296E+00 0.17153221E+04</pdfrwt>
<pdfrwt beam="2">  1       -2 0.57283143E-01 0.17153221E+04</pdfrwt>
<totfact> 0.73787528E+00</totfact>
</mgrwt>
</event>
<event>
12    4  0.4280696E-008  0.1231110E+04  0.7818608E-02  0.9086053E-01
         -2   -1    0    0    0  501 -0.00000000000E+00  0.00000000000E+00  0.18546382139E+03  0.18546382139E+03  0.00000000000E+00 0.  1.
          1   -1    0    0  501    0  0.00000000000E+00 -0.00000000000E+00 -0.20430295780E+04  0.20430295780E+04  0.00000000000E+00 0. -1.
        -24    2    1    2    0    0  0.11699369795E+02 -0.22243023255E+03 -0.98839052409E+03  0.10163348280E+04  0.80053550414E+02 0.  0.
        254    2    1    2    0    0 -0.11699369795E+02  0.22243023255E+03 -0.86917523256E+03  0.12121585714E+04  0.81501578741E+03 0.  0.
         23    2    4    4    0    0 -0.23946342024E+03  0.41378725537E+03 -0.71581414553E+03  0.86532637078E+03  0.88528044548E+02 0.  0.
         23    2    4    4    0    0  0.22776405045E+03 -0.19135702282E+03 -0.15336108703E+03  0.34683220063E+03  0.90988897770E+02 0.  0.
          1    1    3    3  502    0  0.40518541961E+02 -0.18340233239E+03 -0.76241163152E+03  0.78520676490E+03  0.00000000000E+00 0. -1.
         -2    1    3    3    0  502 -0.28819172166E+02 -0.39027900166E+02 -0.22597889257E+03  0.23112806312E+03  0.00000000000E+00 0.  1.
         11    1    5    5    0    0 -0.90424113876E+02  0.20118981480E+03 -0.39704345545E+03  0.45419969998E+03  0.00000000000E+00 0.  1.
        -11    1    5    5    0    0 -0.14903930637E+03  0.21259744058E+03 -0.31877069008E+03  0.41112667079E+03  0.00000000000E+00 0. -1.
          2    1    6    6  503    0  0.53054828572E+02 -0.10042792132E+03 -0.66072456657E+02  0.13140072962E+03  0.00000000000E+00 0. -1.
         -2    1    6    6    0  503  0.17470922188E+03 -0.90929101499E+02 -0.87288630372E+02  0.21543147101E+03  0.00000000000E+00 0.  1.
<mgrwt>
<rscale>  0 0.12311102E+04</rscale>
<asrwt>0</asrwt>
<pdfrwt beam="1">  1        1 0.31431222E+00 0.12311102E+04</pdfrwt>
<pdfrwt beam="2">  1       -2 0.28532898E-01 0.12311102E+04</pdfrwt>
<totfact> 0.27242346E+01</totfact>
</mgrwt>
</event>
<event>
12    4  0.4280696E-008  0.1596405E+04  0.7818608E-02  0.8822760E-01
          1   -1    0    0  501    0  0.00000000000E+00  0.00000000000E+00  0.61753853487E+03  0.61753853487E+03  0.00000000000E+00 0. -1.
         -2   -1    0    0    0  501 -0.00000000000E+00 -0.00000000000E+00 -0.10317206195E+04  0.10317206195E+04  0.00000000000E+00 0.  1.
        -24    2    1    2    0    0  0.46990819039E+03 -0.19536517714E+03  0.15998275350E+02  0.51255789638E+03  0.58977898311E+02 0.  0.
        254    2    1    2    0    0 -0.46990819039E+03  0.19536517714E+03 -0.43018035999E+03  0.11367012580E+04  0.92089812032E+03 0.  0.
         23    2    4    4    0    0  0.72931373787E+02 -0.25057542283E+03 -0.31424046226E+03  0.41851141488E+03  0.91091758456E+02 0.  0.
         23    2    4    4    0    0 -0.54283956418E+03  0.44594059997E+03 -0.11593989774E+03  0.71818984313E+03  0.93897708950E+02 0.  0.
          3    1    3    3  502    0  0.69982462611E+02 -0.47627951789E+02 -0.10994337995E+02  0.85363003302E+02  0.00000000000E+00 0. -1.
         -4    1    3    3    0  502  0.39992572778E+03 -0.14773722535E+03  0.26992613344E+02  0.42719489307E+03  0.00000000000E+00 0.  1.
         11    1    5    5    0    0  0.39887665959E+02 -0.43287754456E+02 -0.32704366365E+02  0.67338185013E+02  0.00000000000E+00 0. -1.
        -11    1    5    5    0    0  0.33043707828E+02 -0.20728766838E+03 -0.28153609589E+03  0.35117322987E+03  0.00000000000E+00 0.  1.
          4    1    6    6  503    0 -0.41489166513E+03  0.31848287342E+03 -0.12355060532E+03  0.53743016898E+03  0.00000000000E+00 0. -1.
         -4    1    6    6    0  503 -0.12794789905E+03  0.12745772655E+03  0.76107075802E+01  0.18075967414E+03  0.00000000000E+00 0.  1.
<mgrwt>
<rscale>  0 0.15964050E+04</rscale>
<asrwt>0</asrwt>
<pdfrwt beam="1">  1        1 0.95005930E-01 0.15964050E+04</pdfrwt>
<pdfrwt beam="2">  1       -2 0.15872625E+00 0.15964050E+04</pdfrwt>
<totfact> 0.70974521E+00</totfact>
</mgrwt>
</event>
<event>
12    4  0.4280696E-008  0.2863029E+04  0.7818608E-02  0.8283963E-01
          1   -1    0    0  501    0  0.00000000000E+00  0.00000000000E+00  0.10028968452E+04  0.10028968452E+04  0.00000000000E+00 0. -1.
         -2   -1    0    0    0  501 -0.00000000000E+00 -0.00000000000E+00 -0.20433151414E+04  0.20433151414E+04  0.00000000000E+00 0.  1.
        -24    2    1    2    0    0 -0.95329222427E+03  0.27997972161E+03  0.40506901460E+03  0.10758790766E+04  0.79247532727E+02 0.  0.
        254    2    1    2    0    0  0.95329222427E+03 -0.27997972161E+03 -0.14454873107E+04  0.19703329101E+04  0.89756531886E+03 0.  0.
         23    2    4    4    0    0  0.44331864810E+03 -0.37059935472E+03 -0.19988152850E+03  0.61828447320E+03  0.91911690698E+02 0.  0.
         23    2    4    4    0    0  0.50997357616E+03  0.90619633117E+02 -0.12456057822E+04  0.13520484369E+04  0.90643502735E+02 0.  0.
          3    1    3    3  502    0 -0.93581625185E+03  0.28164997990E+03  0.38828503812E+03  0.10515911940E+04  0.00000000000E+00 0. -1.
         -4    1    3    3    0  502 -0.17475972421E+02 -0.16702582890E+01  0.16783976478E+02  0.24287882601E+02  0.00000000000E+00 0.  1.
         11    1    5    5    0    0  0.83885565267E+01 -0.33459945546E+02 -0.72763015912E+01  0.35254508951E+02  0.00000000000E+00 0. -1.
        -11    1    5    5    0    0  0.43493009158E+03 -0.33713940918E+03 -0.19260522691E+03  0.58302996425E+03  0.00000000000E+00 0.  1.
          2    1    6    6  503    0  0.13389872376E+03  0.42712757149E+02 -0.43560341882E+03  0.45771561731E+03  0.00000000000E+00 0. -1.
         -2    1    6    6    0  503  0.37607485241E+03  0.47906875968E+02 -0.81000236342E+03  0.89433281955E+03  0.00000000000E+00 0.  1.
<mgrwt>
<rscale>  0 0.28630294E+04</rscale>
<asrwt>0</asrwt>
<pdfrwt beam="1">  1        1 0.15429182E+00 0.28630294E+04</pdfrwt>
<pdfrwt beam="2">  1       -2 0.31435618E+00 0.28630294E+04</pdfrwt>
<totfact> 0.29500738E-01</totfact>
</mgrwt>
</event>
<event>
12    4  0.4280696E-008  0.1389457E+04  0.7818608E-02  0.8961485E-01
         -2   -1    0    0    0  501 -0.00000000000E+00  0.00000000000E+00  0.34394202242E+03  0.34394202242E+03  0.00000000000E+00 0.  1.
          1   -1    0    0  501    0  0.00000000000E+00 -0.00000000000E+00 -0.14032825770E+04  0.14032825770E+04  0.00000000000E+00 0. -1.
        -24    2    1    2    0    0 -0.34958739274E+02 -0.32100570454E+03 -0.60989099106E+03  0.69474656069E+03  0.80243297574E+02 0.  0.
        254    2    1    2    0    0  0.34958739274E+02  0.32100570454E+03 -0.44944956355E+03  0.10524780388E+04  0.89523088426E+03 0.  0.
         23    2    4    4    0    0 -0.28961963864E+03 -0.72702836052E+02  0.68233825626E+02  0.31955138094E+03  0.91060379110E+02 0.  0.
         23    2    4    4    0    0  0.32457837791E+03  0.39370854059E+03 -0.51768338918E+03  0.73292665784E+03  0.93956670837E+02 0.  0.
          3    1    3    3  502    0 -0.16443703262E+01 -0.27883452018E+03 -0.50366408237E+03  0.57569862035E+03  0.00000000000E+00 0. -1.
         -4    1    3    3    0  502 -0.33314368947E+02 -0.42171184358E+02 -0.10622690869E+03  0.11904794034E+03  0.00000000000E+00 0.  1.
         11    1    5    5    0    0 -0.12779735648E+03 -0.44586154834E+02  0.75798335744E+02  0.15513051675E+03  0.00000000000E+00 0.  1.
        -11    1    5    5    0    0 -0.16182228216E+03 -0.28116681218E+02 -0.75645101181E+01  0.16442086419E+03  0.00000000000E+00 0. -1.
          3    1    6    6  503    0  0.28874689505E+03  0.29679170688E+03 -0.43518155972E+03  0.60070215298E+03  0.00000000000E+00 0. -1.
         -3    1    6    6    0  503  0.35831482862E+02  0.96916833716E+02 -0.82501829461E+02  0.13222450486E+03  0.00000000000E+00 0.  1.
<mgrwt>
<rscale>  0 0.13894572E+04</rscale>
<asrwt>0</asrwt>
<pdfrwt beam="1">  1        1 0.21588963E+00 0.13894572E+04</pdfrwt>
<pdfrwt beam="2">  1       -2 0.52914158E-01 0.13894572E+04</pdfrwt>
<totfact> 0.22038532E+01</totfact>
</mgrwt>
</event>
<event>
12    4  0.4280696E-008  0.1096887E+04  0.7818608E-02  0.9208231E-01
         -2   -1    0    0    0  501 -0.00000000000E+00  0.00000000000E+00  0.20690622855E+03  0.20690622855E+03  0.00000000000E+00 0.  1.
          1   -1    0    0  501    0  0.00000000000E+00 -0.00000000000E+00 -0.14537522295E+04  0.14537522295E+04  0.00000000000E+00 0. -1.
        -24    2    1    2    0    0  0.10423571222E+03 -0.13146594971E+03 -0.15576936727E+03  0.24185973689E+03  0.77997800711E+02 0.  0.
        254    2    1    2    0    0 -0.10423571222E+03  0.13146594971E+03 -0.10910766336E+04  0.14187987211E+04  0.89128738965E+03 0.  0.
         23    2    4    4    0    0  0.24488822814E+02 -0.78800660556E+02  0.12422411841E+03  0.17447499615E+03  0.90557419022E+02 0.  0.
         23    2    4    4    0    0 -0.12872453503E+03  0.21026661027E+03 -0.12153007520E+04  0.12443237250E+04  0.10297359504E+03 0.  0.
          3    1    3    3  502    0  0.30784586027E+01 -0.30007734034E+02 -0.66582555071E+02  0.73097042683E+02  0.00000000000E+00 0. -1.
         -4    1    3    3    0  502  0.10115725361E+03 -0.10145821568E+03 -0.89186812200E+02  0.16876269421E+03  0.00000000000E+00 0.  1.
         11    1    5    5    0    0  0.32966259841E+02  0.60995546909E+01  0.55834986971E+02  0.65126988457E+02  0.00000000000E+00 0. -1.
        -11    1    5    5    0    0 -0.84774370279E+01 -0.84900215247E+02  0.68389131443E+02  0.10934800770E+03  0.00000000000E+00 0.  1.
          2    1    6    6  503    0 -0.46819090782E+02  0.14882227173E+03 -0.57065876977E+03  0.59160081756E+03  0.00000000000E+00 0.  1.
         -2    1    6    6    0  503 -0.81905444248E+02  0.61444338537E+02 -0.64464198228E+03  0.65272290740E+03  0.00000000000E+00 0. -1.
<mgrwt>
<rscale>  0 0.10968872E+04</rscale>
<asrwt>0</asrwt>
<pdfrwt beam="1">  1        1 0.22365419E+00 0.10968872E+04</pdfrwt>
<pdfrwt beam="2">  1       -2 0.31831728E-01 0.10968872E+04</pdfrwt>
<totfact> 0.56512664E+01</totfact>
</mgrwt>
</event>
<event>
12    4  0.4280696E-008  0.1507001E+04  0.7818608E-02  0.8879811E-01
         -2   -1    0    0    0  501 -0.00000000000E+00  0.00000000000E+00  0.25871608629E+03  0.25871608629E+03  0.00000000000E+00 0.  1.
          1   -1    0    0  501    0  0.00000000000E+00 -0.00000000000E+00 -0.21945414065E+04  0.21945414065E+04  0.00000000000E+00 0. -1.
        -24    2    1    2    0    0 -0.39018815007E+03  0.59211370881E+02 -0.22990777559E+03  0.46367250549E+03  0.79886345311E+02 0.  0.
        254    2    1    2    0    0  0.39018815007E+03 -0.59211370881E+02 -0.17059175446E+04  0.19895849873E+04  0.94474386676E+03 0.  0.
         23    2    4    4    0    0  0.28712157049E+03  0.23396626949E+03 -0.16060248408E+04  0.16505785453E+04  0.88964786394E+02 0.  0.
         23    2    4    4    0    0  0.10306657958E+03 -0.29317764037E+03 -0.99892703764E+02  0.33900644202E+03  0.91492987852E+02 0.  0.
          1    1    3    3  502    0 -0.39873286990E+02  0.20820864532E+02 -0.52467465933E+02  0.69110219191E+02  0.00000000000E+00 0. -1.
         -2    1    3    3    0  502 -0.35031486308E+03  0.38390506350E+02 -0.17744030966E+03  0.39456228629E+03  0.00000000000E+00 0.  1.
         11    1    5    5    0    0  0.11076924267E+02 -0.79475991848E+01 -0.47673953106E+02  0.49584961317E+02  0.00000000000E+00 0.  1.
        -11    1    5    5    0    0  0.27604464623E+03  0.24191386868E+03 -0.15583508877E+04  0.16009935839E+04  0.00000000000E+00 0. -1.
          3    1    6    6  503    0  0.78541936055E+02 -0.19449343151E+03 -0.21977452066E+02  0.21090172834E+03  0.00000000000E+00 0. -1.
         -3    1    6    6    0  503  0.24524643523E+02 -0.98684208865E+02 -0.77915251698E+02  0.12810471368E+03  0.00000000000E+00 0.  1.
<mgrwt>
<rscale>  0 0.15070012E+04</rscale>
<asrwt>0</asrwt>
<pdfrwt beam="1">  1        1 0.33762175E+00 0.15070012E+04</pdfrwt>
<pdfrwt beam="2">  1       -2 0.39802475E-01 0.15070012E+04</pdfrwt>
<totfact> 0.11152062E+01</totfact>
</mgrwt>
</event>
<event>
12    4  0.4280696E-008  0.1590846E+04  0.7818608E-02  0.8826191E-01
         -2   -1    0    0    0  501 -0.00000000000E+00  0.00000000000E+00  0.73496391471E+03  0.73496391471E+03  0.00000000000E+00 0.  1.
          3   -1    0    0  501    0  0.00000000000E+00 -0.00000000000E+00 -0.86085560432E+03  0.86085560432E+03  0.00000000000E+00 0. -1.
        -24    2    1    2    0    0 -0.32475909353E+03  0.10980805858E+03 -0.46458176980E+03  0.58181635376E+03  0.71747962428E+02 0.  0.
        254    2    1    2    0    0  0.32475909353E+03 -0.10980805858E+03  0.33869008019E+03  0.10140031653E+04  0.89216880142E+03 0.  0.
         23    2    4    4    0    0  0.51581237730E+03 -0.24955659627E+03 -0.12906395514E+02  0.58043763291E+03  0.91653517873E+02 0.  0.
         23    2    4    4    0    0 -0.19105328377E+03  0.13974853769E+03  0.35159647570E+03  0.43356553237E+03  0.91257756397E+02 0.  0.
          1    1    3    3  502    0 -0.25380387019E+03  0.59679216134E+02 -0.31573588213E+03  0.40947180688E+03  0.00000000000E+00 0. -1.
         -2    1    3    3    0  502 -0.70955223334E+02  0.50128842449E+02 -0.14884588766E+03  0.17234454687E+03  0.00000000000E+00 0.  1.
         11    1    5    5    0    0  0.14382062375E+03 -0.11398274635E+03 -0.18756705579E+02  0.18446748300E+03  0.00000000000E+00 0. -1.
        -11    1    5    5    0    0  0.37199175355E+03 -0.13557384992E+03  0.58503100651E+01  0.39597014991E+03  0.00000000000E+00 0.  1.
          3    1    6    6  503    0 -0.92327226678E+02  0.67473891694E+02  0.24856871044E+03  0.27361185402E+03  0.00000000000E+00 0. -1.
         -3    1    6    6    0  503 -0.98726057096E+02  0.72274645996E+02  0.10302776526E+03  0.15995367835E+03  0.00000000000E+00 0.  1.
<mgrwt>
<rscale>  0 0.15908461E+04</rscale>
<asrwt>0</asrwt>
<pdfrwt beam="1">  1        3 0.13243932E+00 0.15908461E+04</pdfrwt>
<pdfrwt beam="2">  1       -2 0.11307137E+00 0.15908461E+04</pdfrwt>
<totfact> 0.10844467E+00</totfact>
</mgrwt>
</event>
<event>
12    4  0.4280696E-008  0.1900485E+04  0.7818608E-02  0.8654615E-01
         -2   -1    0    0    0  501 -0.00000000000E+00  0.00000000000E+00  0.94271091119E+03  0.94271091119E+03  0.00000000000E+00 0.  1.
          1   -1    0    0  501    0  0.00000000000E+00 -0.00000000000E+00 -0.95783467645E+03  0.95783467645E+03  0.00000000000E+00 0. -1.
        -24    2    1    2    0    0  0.13877694378E+03 -0.26470738804E+03 -0.67505533351E+03  0.74247283107E+03  0.78975693549E+02 0.  0.
        254    2    1    2    0    0 -0.13877694378E+03  0.26470738804E+03  0.65993156825E+03  0.11580727566E+04  0.90348978595E+03 0.  0.
         23    2    4    4    0    0 -0.90365499936E+02 -0.20852075069E+03  0.62652909614E+03  0.67267687990E+03  0.91151793165E+02 0.  0.
         23    2    4    4    0    0 -0.48411443847E+02  0.47322813872E+03  0.33402472108E+02  0.48539587666E+03  0.90580863114E+02 0.  0.
          3    1    3    3  502    0  0.45243220940E+02 -0.10824952976E+03 -0.35820969988E+03  0.37693381226E+03  0.00000000000E+00 0. -1.
         -4    1    3    3    0  502  0.93533722843E+02 -0.15645785828E+03 -0.31684563363E+03  0.36553901881E+03  0.00000000000E+00 0.  1.
         11    1    5    5    0    0 -0.30715957458E+01 -0.90554745490E+02  0.16323314649E+03  0.18669401904E+03  0.00000000000E+00 0. -1.
        -11    1    5    5    0    0 -0.87293904190E+02 -0.11796600520E+03  0.46329594965E+03  0.48598286087E+03  0.00000000000E+00 0.  1.
          2    1    6    6  503    0 -0.59734457008E+02  0.46633417578E+03  0.27684875171E+02  0.47095883172E+03  0.00000000000E+00 0.  1.
         -2    1    6    6    0  503  0.11323013160E+02  0.68939629395E+01  0.57175969372E+01  0.14437044946E+02  0.00000000000E+00 0. -1.
<mgrwt>
<rscale>  0 0.19004854E+04</rscale>
<asrwt>0</asrwt>
<pdfrwt beam="1">  1        1 0.14735918E+00 0.19004854E+04</pdfrwt>
<pdfrwt beam="2">  1       -2 0.14503245E+00 0.19004854E+04</pdfrwt>
<totfact> 0.43869200E+00</totfact>
</mgrwt>
</event>
<event>
12    4  0.4280696E-008  0.1189289E+04  0.7818608E-02  0.9122284E-01
          1   -1    0    0  501    0  0.00000000000E+00  0.00000000000E+00  0.14062920726E+04  0.14062920726E+04  0.00000000000E+00 0. -1.
         -2   -1    0    0    0  501 -0.00000000000E+00 -0.00000000000E+00 -0.25144271271E+03  0.25144271271E+03  0.00000000000E+00 0.  1.
        -24    2    1    2    0    0 -0.12280574122E+03 -0.14891436511E+03  0.33673455884E+02  0.21200105496E+03  0.80955589423E+02 0.  0.
        254    2    1    2    0    0  0.12280574122E+03  0.14891436511E+03  0.11211759040E+04  0.14457337304E+04  0.89210642478E+03 0.  0.
         23    2    4    4    0    0 -0.16325655954E+03 -0.29639746665E+03  0.61195227441E+03  0.70550927995E+03  0.93560651320E+02 0.  0.
         23    2    4    4    0    0  0.28606230076E+03  0.44531183177E+03  0.50922362962E+03  0.74022445042E+03  0.92137205321E+02 0.  0.
          3    1    3    3  502    0 -0.61918483214E+02 -0.75749484270E+02  0.58026041080E+02  0.11374930494E+03  0.00000000000E+00 0. -1.
         -4    1    3    3    0  502 -0.60887258008E+02 -0.73164880842E+02 -0.24352585196E+02  0.98251750020E+02  0.00000000000E+00 0.  1.
         11    1    5    5    0    0 -0.23046821352E+02  0.68321209984E-02  0.35453763112E+02  0.42286231091E+02  0.00000000000E+00 0.  1.
        -11    1    5    5    0    0 -0.14020973818E+03 -0.29640429877E+03  0.57649851129E+03  0.66322304886E+03  0.00000000000E+00 0. -1.
          3    1    6    6  503    0  0.19789181322E+03  0.22614084825E+03  0.26927386025E+03  0.40349630085E+03  0.00000000000E+00 0. -1.
         -3    1    6    6    0  503  0.88170487536E+02  0.21917098352E+03  0.23994976937E+03  0.33672814957E+03  0.00000000000E+00 0.  1.
<mgrwt>
<rscale>  0 0.11892887E+04</rscale>
<asrwt>0</asrwt>
<pdfrwt beam="1">  1        1 0.21635262E+00 0.11892887E+04</pdfrwt>
<pdfrwt beam="2">  1       -2 0.38683495E-01 0.11892887E+04</pdfrwt>
<totfact> 0.41718353E+01</totfact>
</mgrwt>
</event>
<event>
12    4  0.4280696E-008  0.3171863E+04  0.7818608E-02  0.8196288E-01
         -2   -1    0    0    0  501 -0.00000000000E+00  0.00000000000E+00  0.63668863466E+03  0.63668863466E+03  0.00000000000E+00 0.  1.
          1   -1    0    0  501    0  0.00000000000E+00 -0.00000000000E+00 -0.39504064988E+04  0.39504064988E+04  0.00000000000E+00 0. -1.
        -24    2    1    2    0    0 -0.57253733144E+03 -0.35808245242E+03 -0.33995300344E+04  0.34668856448E+04  0.80433700934E+02 0.  0.
        254    2    1    2    0    0  0.57253733144E+03  0.35808245242E+03  0.85812170327E+02  0.11202094887E+04  0.88965360184E+03 0.  0.
         23    2    4    4    0    0 -0.61991258299E+02 -0.18954882907E+03  0.16438653209E+03  0.27321246843E+03  0.88602744126E+02 0.  0.
         23    2    4    4    0    0  0.63452858974E+03  0.54763128149E+03 -0.78574361766E+02  0.84699702022E+03  0.93292391285E+02 0.  0.
          3    1    3    3  502    0 -0.56316779088E+03 -0.34177617360E+03 -0.33436242194E+04  0.34079013827E+04  0.00000000000E+00 0. -1.
         -4    1    3    3    0  502 -0.93695405644E+01 -0.16306278814E+02 -0.55905815047E+02  0.58984262098E+02  0.00000000000E+00 0.  1.
         11    1    5    5    0    0 -0.66760003921E+01 -0.15011598501E+03  0.11114436474E+03  0.18690224116E+03  0.00000000000E+00 0.  1.
        -11    1    5    5    0    0 -0.55315257907E+02 -0.39432844064E+02  0.53242167353E+02  0.86310227278E+02  0.00000000000E+00 0. -1.
          1    1    6    6  503    0  0.29051166588E+03  0.19418135064E+03 -0.49383726621E+02  0.35290533774E+03  0.00000000000E+00 0. -1.
         -1    1    6    6    0  503  0.34401692387E+03  0.35344993085E+03 -0.29190635145E+02  0.49409168249E+03  0.00000000000E+00 0.  1.
<mgrwt>
<rscale>  0 0.31718631E+04</rscale>
<asrwt>0</asrwt>
<pdfrwt beam="1">  1        1 0.60775483E+00 0.31718631E+04</pdfrwt>
<pdfrwt beam="2">  1       -2 0.97952100E-01 0.31718631E+04</pdfrwt>
<totfact> 0.67822570E-02</totfact>
</mgrwt>
</event>
<event>
12    4  0.4280696E-008  0.1026166E+04  0.7818608E-02  0.9280303E-01
         -2   -1    0    0    0  501 -0.00000000000E+00  0.00000000000E+00  0.17874590547E+04  0.17874590547E+04  0.00000000000E+00 0.  1.
          1   -1    0    0  501    0  0.00000000000E+00 -0.00000000000E+00 -0.14727830454E+03  0.14727830454E+03  0.00000000000E+00 0. -1.
        -24    2    1    2    0    0 -0.49828860269E+02 -0.18696483765E+02  0.49082315230E+02  0.10357709394E+03  0.74072038581E+02 0.  0.
        254    2    1    2    0    0  0.49828860269E+02  0.18696483765E+02  0.15910984349E+04  0.18311602653E+04  0.90483214672E+03 0.  0.
         23    2    4    4    0    0 -0.27114685817E+03  0.30805379798E+03  0.10605274618E+04  0.11407711243E+04  0.90678000105E+02 0.  0.
         23    2    4    4    0    0  0.32097571844E+03 -0.28935731422E+03  0.53057097312E+03  0.69038914096E+03  0.91534372372E+02 0.  0.
          3    1    3    3  502    0 -0.33292601563E+02 -0.92913922090E+01 -0.14296488505E+02  0.37404770706E+02  0.00000000000E+00 0. -1.
         -4    1    3    3    0  502 -0.16536258706E+02 -0.94050915556E+01  0.63378803735E+02  0.66172323232E+02  0.00000000000E+00 0.  1.
         11    1    5    5    0    0 -0.23732994230E+03  0.26019763129E+03  0.80594114361E+03  0.87952796192E+03  0.00000000000E+00 0.  1.
        -11    1    5    5    0    0 -0.33816915871E+02  0.47856166698E+02  0.25458631821E+03  0.26124316242E+03  0.00000000000E+00 0. -1.
          4    1    6    6  503    0  0.16281859328E+03 -0.16116294408E+03  0.21085864241E+03  0.31135952843E+03  0.00000000000E+00 0. -1.
         -4    1    6    6    0  503  0.15815712515E+03 -0.12819437014E+03  0.31971233071E+03  0.37902961253E+03  0.00000000000E+00 0.  1.
<mgrwt>
<rscale>  0 0.10261656E+04</rscale>
<asrwt>0</asrwt>
<pdfrwt beam="1">  1        1 0.22658202E-01 0.10261656E+04</pdfrwt>
<pdfrwt beam="2">  1       -2 0.27499369E+00 0.10261656E+04</pdfrwt>
<totfact> 0.88393533E+00</totfact>
</mgrwt>
</event>
<event>
12    4  0.4280696E-008  0.2698226E+04  0.7818608E-02  0.8335581E-01
          1   -1    0    0  501    0  0.00000000000E+00  0.00000000000E+00  0.25580984273E+04  0.25580984273E+04  0.00000000000E+00 0. -1.
         -2   -1    0    0    0  501 -0.00000000000E+00 -0.00000000000E+00 -0.71150712003E+03  0.71150712003E+03  0.00000000000E+00 0.  1.
        -24    2    1    2    0    0  0.69186385632E+03  0.72916565677E+03  0.36326971685E+02  0.10083921619E+04  0.71951043465E+02 0.  0.
        254    2    1    2    0    0 -0.69186385632E+03 -0.72916565677E+03  0.18102643356E+04  0.22612133854E+04  0.90866432686E+03 0.  0.
         23    2    4    4    0    0 -0.44239341208E+03 -0.88765280712E+03  0.10843129089E+04  0.14721914557E+04  0.89295917284E+02 0.  0.
         23    2    4    4    0    0 -0.24947044424E+03  0.15848715034E+03  0.72595142665E+03  0.78902192965E+03  0.90534260075E+02 0.  0.
          1    1    3    3  502    0  0.32789424399E+03  0.29423953675E+03  0.20915294343E+02  0.44105440681E+03  0.00000000000E+00 0. -1.
         -2    1    3    3    0  502  0.36396961233E+03  0.43492612002E+03  0.15411677342E+02  0.56733775511E+03  0.00000000000E+00 0.  1.
         11    1    5    5    0    0 -0.92854505438E+02 -0.12567305908E+03  0.14475850146E+03  0.21300399222E+03  0.00000000000E+00 0. -1.
        -11    1    5    5    0    0 -0.34953890664E+03 -0.76197974803E+03  0.93955440746E+03  0.12591874635E+04  0.00000000000E+00 0.  1.
          4    1    6    6  503    0 -0.15997174510E+02  0.20545492900E+02  0.20171843187E+02  0.32938277556E+02  0.00000000000E+00 0. -1.
         -4    1    6    6    0  503 -0.23347326973E+03  0.13794165744E+03  0.70577958346E+03  0.75608365209E+03  0.00000000000E+00 0.  1.
<mgrwt>
<rscale>  0 0.26982255E+04</rscale>
<asrwt>0</asrwt>
<pdfrwt beam="1">  1        1 0.39355360E+00 0.26982255E+04</pdfrwt>
<pdfrwt beam="2">  1       -2 0.10946264E+00 0.26982255E+04</pdfrwt>
<totfact> 0.63004231E-01</totfact>
</mgrwt>
</event>
<event>
12    4  0.4280696E-008  0.1832132E+04  0.7818608E-02  0.8689396E-01
         -2   -1    0    0    0  501 -0.00000000000E+00  0.00000000000E+00  0.28454596108E+03  0.28454596108E+03  0.00000000000E+00 0.  1.
          1   -1    0    0  501    0  0.00000000000E+00 -0.00000000000E+00 -0.29491779101E+04  0.29491779101E+04  0.00000000000E+00 0. -1.
        -24    2    1    2    0    0 -0.47536369956E+02 -0.67598594313E+03 -0.12273125934E+04  0.14042534163E+04  0.80092155309E+02 0.  0.
        254    2    1    2    0    0  0.47536369956E+02  0.67598594313E+03 -0.14373193556E+04  0.18294704549E+04  0.90656412551E+03 0.  0.
         23    2    4    4    0    0 -0.40423085117E+02  0.79282812235E+03 -0.67010338401E+03  0.10430296677E+04  0.93069249011E+02 0.  0.
         23    2    4    4    0    0  0.87959455073E+02 -0.11684217922E+03 -0.76721597158E+03  0.78644078718E+03  0.92085851882E+02 0.  0.
          1    1    3    3  502    0 -0.58964209070E+02 -0.63006948288E+03 -0.11093348200E+04  0.12771405851E+04  0.00000000000E+00 0. -1.
         -2    1    3    3    0  502  0.11427839114E+02 -0.45916460253E+02 -0.11797777344E+03  0.12711283120E+03  0.00000000000E+00 0.  1.
         11    1    5    5    0    0  0.25977210518E+01  0.27310917005E+03 -0.17800089791E+03  0.32600565421E+03  0.00000000000E+00 0. -1.
        -11    1    5    5    0    0 -0.43020806168E+02  0.51971895230E+03 -0.49210248610E+03  0.71702401352E+03  0.00000000000E+00 0.  1.
          4    1    6    6  503    0  0.32977252947E+02 -0.77781542341E+02 -0.60337794604E+03  0.60926382899E+03  0.00000000000E+00 0. -1.
         -4    1    6    6    0  503  0.54982202126E+02 -0.39060636876E+02 -0.16383802554E+03  0.17717695819E+03  0.00000000000E+00 0.  1.
<mgrwt>
<rscale>  0 0.18321317E+04</rscale>
<asrwt>0</asrwt>
<pdfrwt beam="1">  1        1 0.45371970E+00 0.18321317E+04</pdfrwt>
<pdfrwt beam="2">  1       -2 0.43776300E-01 0.18321317E+04</pdfrwt>
<totfact> 0.26693851E+00</totfact>
</mgrwt>
</event>
<event>
12    4  0.4280696E-008  0.1086125E+04  0.7818608E-02  0.9218821E-01
         -2   -1    0    0    0  501 -0.00000000000E+00  0.00000000000E+00  0.14025555295E+03  0.14025555295E+03  0.00000000000E+00 0.  1.
          1   -1    0    0  501    0  0.00000000000E+00 -0.00000000000E+00 -0.21027127583E+04  0.21027127583E+04  0.00000000000E+00 0. -1.
        -24    2    1    2    0    0  0.84675157225E+02  0.61724785208E+02 -0.47950070665E+03  0.49725141094E+03  0.79738363749E+02 0.  0.
        254    2    1    2    0    0 -0.84675157225E+02 -0.61724785208E+02 -0.14829564987E+04  0.17457169003E+04  0.91508889601E+03 0.  0.
         23    2    4    4    0    0 -0.42212241320E+03  0.16698455890E+03 -0.10283764011E+04  0.11279687318E+04  0.93189392570E+02 0.  0.
         23    2    4    4    0    0  0.33744725597E+03 -0.22870934411E+03 -0.45458009752E+03  0.61774816846E+03  0.93760972300E+02 0.  0.
          1    1    3    3  502    0  0.30457457798E+02  0.38931256565E+02 -0.36691157738E+03  0.37022615397E+03  0.00000000000E+00 0. -1.
         -2    1    3    3    0  502  0.54217699427E+02  0.22793528643E+02 -0.11258912927E+03  0.12702525697E+03  0.00000000000E+00 0.  1.
         11    1    5    5    0    0 -0.10557210879E+03  0.22758613356E+01 -0.26686281448E+03  0.28699549030E+03  0.00000000000E+00 0.  1.
        -11    1    5    5    0    0 -0.31655030440E+03  0.16470869756E+03 -0.76151358665E+03  0.84097324151E+03  0.00000000000E+00 0. -1.
          2    1    6    6  503    0  0.30537369094E+03 -0.18501702928E+03 -0.35014530632E+03  0.50008612036E+03  0.00000000000E+00 0. -1.
         -2    1    6    6    0  503  0.32073565035E+02 -0.43692314826E+02 -0.10443479121E+03  0.11766204810E+03  0.00000000000E+00 0.  1.
<mgrwt>
<rscale>  0 0.10861255E+04</rscale>
<asrwt>0</asrwt>
<pdfrwt beam="1">  1        1 0.32349426E+00 0.10861255E+04</pdfrwt>
<pdfrwt beam="2">  1       -2 0.21577778E-01 0.10861255E+04</pdfrwt>
<totfact> 0.41698197E+01</totfact>
</mgrwt>
</event>
<event>
12    4  0.4280696E-008  0.1548406E+04  0.7818608E-02  0.8852886E-01
         -2   -1    0    0    0  501 -0.00000000000E+00  0.00000000000E+00  0.38304100488E+03  0.38304100488E+03  0.00000000000E+00 0.  1.
          1   -1    0    0  501    0  0.00000000000E+00 -0.00000000000E+00 -0.15648210116E+04  0.15648210116E+04  0.00000000000E+00 0. -1.
        -24    2    1    2    0    0  0.39451757948E+03 -0.34017637674E+03 -0.49450823987E+03  0.72281766280E+03  0.81011644533E+02 0.  0.
        254    2    1    2    0    0 -0.39451757948E+03  0.34017637674E+03 -0.68727176682E+03  0.12250443537E+04  0.87007304242E+03 0.  0.
         23    2    4    4    0    0 -0.65583746307E+03  0.28633585390E+03 -0.57147851324E+03  0.92026219015E+03  0.90464403683E+02 0.  0.
         23    2    4    4    0    0  0.26131988359E+03  0.53840522842E+02 -0.11579325358E+03  0.30478216351E+03  0.91089001279E+02 0.  0.
          1    1    3    3  502    0  0.17957850802E+03 -0.20044471280E+03 -0.28220585294E+03  0.38995726287E+03  0.00000000000E+00 0. -1.
         -2    1    3    3    0  502  0.21493907145E+03 -0.13973166394E+03 -0.21230238692E+03  0.33286039992E+03  0.00000000000E+00 0.  1.
         11    1    5    5    0    0 -0.56408161291E+03  0.26836299070E+03 -0.46617386069E+03  0.77943879118E+03  0.00000000000E+00 0.  1.
        -11    1    5    5    0    0 -0.91755850159E+02  0.17972863198E+02 -0.10530465255E+03  0.14082339897E+03  0.00000000000E+00 0. -1.
          1    1    6    6  503    0  0.13715447459E+03  0.68888489304E+02 -0.40280006820E+02  0.15868034790E+03  0.00000000000E+00 0. -1.
         -1    1    6    6    0  503  0.12416540900E+03 -0.15047966462E+02 -0.75513246765E+02  0.14610181561E+03  0.00000000000E+00 0.  1.
<mgrwt>
<rscale>  0 0.15484064E+04</rscale>
<asrwt>0</asrwt>
<pdfrwt beam="1">  1        1 0.24074169E+00 0.15484064E+04</pdfrwt>
<pdfrwt beam="2">  1       -2 0.58929386E-01 0.15484064E+04</pdfrwt>
<totfact> 0.13422253E+01</totfact>
</mgrwt>
</event>
<event>
12    4  0.4280696E-008  0.1721293E+04  0.7818608E-02  0.8749313E-01
          1   -1    0    0  501    0  0.00000000000E+00  0.00000000000E+00  0.61350190141E+03  0.61350190141E+03  0.00000000000E+00 0. -1.
         -2   -1    0    0    0  501 -0.00000000000E+00 -0.00000000000E+00 -0.12073512352E+04  0.12073512352E+04  0.00000000000E+00 0.  1.
        -24    2    1    2    0    0 -0.36127034873E+03  0.29507750623E+03  0.22196180175E+03  0.52262336784E+03  0.79253666284E+02 0.  0.
        254    2    1    2    0    0  0.36127034873E+03 -0.29507750623E+03 -0.81581113559E+03  0.12982297688E+04  0.89569287377E+03 0.  0.
         23    2    4    4    0    0  0.14977675711E+03 -0.73499491127E+02  0.17404388261E+03  0.25821831173E+03  0.92467136164E+02 0.  0.
         23    2    4    4    0    0  0.21149359163E+03 -0.22157801510E+03 -0.98985501820E+03  0.10400114571E+04  0.89356128653E+02 0.  0.
          3    1    3    3  502    0 -0.28729652628E+03  0.27193087979E+03  0.18266362133E+03  0.43571974474E+03  0.00000000000E+00 0. -1.
         -4    1    3    3    0  502 -0.73973822454E+02  0.23146626435E+02  0.39298180421E+02  0.86903623101E+02  0.00000000000E+00 0.  1.
         11    1    5    5    0    0  0.92575429502E+02 -0.37740678472E+02  0.16099393659E+03  0.18950888258E+03  0.00000000000E+00 0.  1.
        -11    1    5    5    0    0  0.57201327604E+02 -0.35758812656E+02  0.13049946026E+02  0.68709429145E+02  0.00000000000E+00 0. -1.
          3    1    6    6  503    0  0.82483429560E+02 -0.34358994825E+02 -0.22551978082E+03  0.24257623177E+03  0.00000000000E+00 0. -1.
         -3    1    6    6    0  503  0.12901016207E+03 -0.18721902027E+03 -0.76433523738E+03  0.79743522532E+03  0.00000000000E+00 0.  1.
<mgrwt>
<rscale>  0 0.17212929E+04</rscale>
<asrwt>0</asrwt>
<pdfrwt beam="1">  1        1 0.94384908E-01 0.17212929E+04</pdfrwt>
<pdfrwt beam="2">  1       -2 0.18574634E+00 0.17212929E+04</pdfrwt>
<totfact> 0.45622208E+00</totfact>
</mgrwt>
</event>
<event>
12    4  0.4280696E-008  0.2143834E+04  0.7818608E-02  0.8542176E-01
          1   -1    0    0  501    0  0.00000000000E+00  0.00000000000E+00  0.15101456489E+04  0.15101456489E+04  0.00000000000E+00 0. -1.
         -2   -1    0    0    0  501 -0.00000000000E+00 -0.00000000000E+00 -0.76085792195E+03  0.76085792195E+03  0.00000000000E+00 0.  1.
        -24    2    1    2    0    0 -0.85903235076E+02 -0.87444129273E+03  0.23711031590E+03  0.91351017950E+03  0.79073421045E+02 0.  0.
        254    2    1    2    0    0  0.85903235076E+02  0.87444129273E+03  0.51217741101E+03  0.13574933913E+04  0.89913050603E+03 0.  0.
         23    2    4    4    0    0 -0.24167090067E+03  0.70185354652E+03  0.38238747873E+02  0.74872856738E+03  0.90161193377E+02 0.  0.
         23    2    4    4    0    0  0.32757413574E+03  0.17258774622E+03  0.47393866313E+03  0.60876482393E+03  0.94262452151E+02 0.  0.
          3    1    3    3  502    0  0.12037195802E+02 -0.16230075184E+03  0.57071871887E+02  0.17246340682E+03  0.00000000000E+00 0. -1.
         -4    1    3    3    0  502 -0.97940430878E+02 -0.71214054089E+03  0.18003844402E+03  0.74104677269E+03  0.00000000000E+00 0.  1.
         11    1    5    5    0    0 -0.11513456253E+03  0.22585153807E+03  0.37016131114E+02  0.25619344000E+03  0.00000000000E+00 0.  1.
        -11    1    5    5    0    0 -0.12653633814E+03  0.47600200844E+03  0.12226167597E+01  0.49253512738E+03  0.00000000000E+00 0. -1.
          2    1    6    6  503    0  0.34491455434E+01 -0.94813376939E+01  0.16100858296E+02  0.19000789649E+02  0.00000000000E+00 0.  1.
         -2    1    6    6    0  503  0.32412499020E+03  0.18206908391E+03  0.45783780484E+03  0.58976403428E+03  0.00000000000E+00 0. -1.
<mgrwt>
<rscale>  0 0.21438342E+04</rscale>
<asrwt>0</asrwt>
<pdfrwt beam="1">  1        1 0.23233010E+00 0.21438342E+04</pdfrwt>
<pdfrwt beam="2">  1       -2 0.11705507E+00 0.21438342E+04</pdfrwt>
<totfact> 0.29230221E+00</totfact>
</mgrwt>
</event>
<event>
12    4  0.4280696E-008  0.2535330E+04  0.7818608E-02  0.8390506E-01
          1   -1    0    0  501    0  0.00000000000E+00  0.00000000000E+00  0.17611661572E+04  0.17611661572E+04  0.00000000000E+00 0. -1.
         -2   -1    0    0    0  501 -0.00000000000E+00 -0.00000000000E+00 -0.91244893902E+03  0.91244893902E+03  0.00000000000E+00 0.  1.
        -24    2    1    2    0    0  0.10271885951E+04 -0.27862684637E+03  0.84820368367E+02  0.10706291070E+04  0.79390556881E+02 0.  0.
        254    2    1    2    0    0 -0.10271885951E+04  0.27862684637E+03  0.76389684984E+03  0.16029859892E+04  0.92372958985E+03 0.  0.
         23    2    4    4    0    0 -0.47988147727E+03  0.46319444462E+03  0.42641840404E+02  0.67465168764E+03  0.92202208928E+02 0.  0.
         23    2    4    4    0    0 -0.54730711780E+03 -0.18456759825E+03  0.72125500944E+03  0.92833430161E+03  0.89361666188E+02 0.  0.
          1    1    3    3  502    0  0.83218177919E+03 -0.22421263953E+03  0.99816809841E+02  0.86761812848E+03  0.00000000000E+00 0. -1.
         -2    1    3    3    0  502  0.19500681587E+03 -0.54414206840E+02 -0.14996441474E+02  0.20301097852E+03  0.00000000000E+00 0.  1.
         11    1    5    5    0    0 -0.64752664005E+02  0.66134901961E+02  0.38356792227E+02  0.10018970138E+03  0.00000000000E+00 0. -1.
        -11    1    5    5    0    0 -0.41512881326E+03  0.39705954266E+03  0.42850481768E+01  0.57446198626E+03  0.00000000000E+00 0.  1.
          3    1    6    6  503    0 -0.10804928523E+03 -0.81300341094E+00  0.14447586560E+03  0.18041226332E+03  0.00000000000E+00 0. -1.
         -3    1    6    6    0  503 -0.43925783256E+03 -0.18375459484E+03  0.57677914384E+03  0.74792203829E+03  0.00000000000E+00 0.  1.
<mgrwt>
<rscale>  0 0.25353297E+04</rscale>
<asrwt>0</asrwt>
<pdfrwt beam="1">  1        1 0.27094864E+00 0.25353297E+04</pdfrwt>
<pdfrwt beam="2">  1       -2 0.14037676E+00 0.25353297E+04</pdfrwt>
<totfact> 0.12015556E+00</totfact>
</mgrwt>
</event>
<event>
12    4  0.4280696E-008  0.1121883E+04  0.7818608E-02  0.9184122E-01
          3   -1    0    0  501    0  0.00000000000E+00  0.00000000000E+00  0.19583437126E+03  0.19583437126E+03  0.00000000000E+00 0. -1.
         -4   -1    0    0    0  501 -0.00000000000E+00 -0.00000000000E+00 -0.16067431460E+04  0.16067431460E+04  0.00000000000E+00 0.  1.
        -24    2    1    2    0    0  0.37971500184E+02  0.18837898359E+03 -0.33511465833E+03  0.39427932092E+03  0.78904197555E+02 0.  0.
        254    2    1    2    0    0 -0.37971500184E+02 -0.18837898359E+03 -0.10757941164E+04  0.14082981964E+04  0.88828055966E+03 0.  0.
         23    2    4    4    0    0  0.18444567445E+03  0.84549957901E+02  0.47376432052E+02  0.22765739338E+03  0.91730367076E+02 0.  0.
         23    2    4    4    0    0 -0.22241717464E+03 -0.27292894149E+03 -0.11231705485E+04  0.11806408030E+04  0.91875013035E+02 0.  0.
          3    1    3    3  502    0  0.25856214258E+02  0.98286244297E+02 -0.10164767524E+03  0.14373927617E+03  0.00000000000E+00 0. -1.
         -4    1    3    3    0  502  0.12115285926E+02  0.90092739290E+02 -0.23346698309E+03  0.25054004474E+03  0.00000000000E+00 0.  1.
         11    1    5    5    0    0  0.12413458594E+03  0.63288057623E+02  0.74720648727E+02  0.15810739708E+03  0.00000000000E+00 0. -1.
        -11    1    5    5    0    0  0.60311088510E+02  0.21261900278E+02 -0.27344216676E+02  0.69549996307E+02  0.00000000000E+00 0.  1.
          1    1    6    6  503    0 -0.10909257451E+03 -0.16114513792E+03 -0.47733812667E+03  0.51548097197E+03  0.00000000000E+00 0. -1.
         -1    1    6    6    0  503 -0.11332460013E+03 -0.11178380357E+03 -0.64583242182E+03  0.66515983102E+03  0.00000000000E+00 0.  1.
<mgrwt>
<rscale>  0 0.11218833E+04</rscale>
<asrwt>0</asrwt>
<pdfrwt beam="1">  1        3 0.30128365E-01 0.11218833E+04</pdfrwt>
<pdfrwt beam="2">  1       -4 0.24719125E+00 0.11218833E+04</pdfrwt>
<totfact> 0.16130972E+00</totfact>
</mgrwt>
</event>
<event>
12    4  0.4280696E-008  0.1570386E+04  0.7818608E-02  0.8838950E-01
         -2   -1    0    0    0  501 -0.00000000000E+00  0.00000000000E+00  0.55519003591E+03  0.55519003591E+03  0.00000000000E+00 0.  1.
          1   -1    0    0  501    0  0.00000000000E+00 -0.00000000000E+00 -0.11104817228E+04  0.11104817228E+04  0.00000000000E+00 0. -1.
        -24    2    1    2    0    0 -0.12534824036E+03  0.43737630304E+03  0.87745699232E+02  0.46849042974E+03  0.69092425043E+02 0.  0.
        254    2    1    2    0    0  0.12534824036E+03 -0.43737630304E+03 -0.64303738614E+03  0.11971813290E+04  0.90151863136E+03 0.  0.
         23    2    4    4    0    0 -0.20464894869E+03 -0.79022322276E+02  0.13531227369E+03  0.27437117329E+03  0.94044721831E+02 0.  0.
         23    2    4    4    0    0  0.32999718904E+03 -0.35835398077E+03 -0.77834965983E+03  0.92281015570E+03  0.91840460615E+02 0.  0.
          1    1    3    3  502    0 -0.84853079228E+02  0.20125050862E+03  0.18911269743E+02  0.21922465280E+03  0.00000000000E+00 0. -1.
         -2    1    3    3    0  502 -0.40495161129E+02  0.23612579443E+03  0.68834429490E+02  0.24926577694E+03  0.00000000000E+00 0.  1.
         11    1    5    5    0    0 -0.20664668953E+03 -0.83977948105E+02  0.14303550470E+03  0.26497982125E+03  0.00000000000E+00 0.  1.
        -11    1    5    5    0    0  0.19977408465E+01  0.49556258289E+01 -0.77232310142E+01  0.93913520403E+01  0.00000000000E+00 0. -1.
          2    1    6    6  503    0  0.13412566700E+03 -0.10178707883E+03 -0.32845770841E+03  0.36909994606E+03  0.00000000000E+00 0. -1.
         -2    1    6    6    0  503  0.19587152205E+03 -0.25656690193E+03 -0.44989195142E+03  0.55371020965E+03  0.00000000000E+00 0.  1.
<mgrwt>
<rscale>  0 0.15703864E+04</rscale>
<asrwt>0</asrwt>
<pdfrwt beam="1">  1        1 0.17084334E+00 0.15703864E+04</pdfrwt>
<pdfrwt beam="2">  1       -2 0.85413853E-01 0.15703864E+04</pdfrwt>
<totfact> 0.12514145E+01</totfact>
</mgrwt>
</event>
<event>
12    4  0.4280696E-008  0.1490982E+04  0.7818608E-02  0.8890472E-01
          1   -1    0    0  501    0  0.00000000000E+00  0.00000000000E+00  0.14405244923E+04  0.14405244923E+04  0.00000000000E+00 0. -1.
         -2   -1    0    0    0  501 -0.00000000000E+00 -0.00000000000E+00 -0.38580192459E+03  0.38580192459E+03  0.00000000000E+00 0.  1.
        -24    2    1    2    0    0  0.35267239223E+03 -0.26636733541E+03  0.50380545476E+03  0.67506735454E+03  0.81034704363E+02 0.  0.
        254    2    1    2    0    0 -0.35267239223E+03  0.26636733541E+03  0.55091711291E+03  0.11512590623E+04  0.90915256676E+03 0.  0.
         23    2    4    4    0    0 -0.50994078257E+03  0.68412794963E+01  0.25547355476E+01  0.51805910299E+03  0.91062081504E+02 0.  0.
         23    2    4    4    0    0  0.15726839033E+03  0.25952605591E+03  0.54836237736E+03  0.63319995932E+03  0.90298235207E+02 0.  0.
          3    1    3    3  502    0  0.13178083486E+03 -0.12079519160E+03  0.15042222317E+03  0.23363328525E+03  0.00000000000E+00 0. -1.
         -4    1    3    3    0  502  0.22089155737E+03 -0.14557214380E+03  0.35338323159E+03  0.44143406930E+03  0.00000000000E+00 0.  1.
         11    1    5    5    0    0 -0.12041118486E+03  0.30766888616E+02 -0.25203130737E+02  0.12680951333E+03  0.00000000000E+00 0.  1.
        -11    1    5    5    0    0 -0.38952959771E+03 -0.23925609120E+02  0.27757866284E+02  0.39124958966E+03  0.00000000000E+00 0. -1.
          2    1    6    6  503    0  0.16412954184E+03  0.23715626385E+03  0.47016136431E+03  0.55157348421E+03  0.00000000000E+00 0. -1.
         -2    1    6    6    0  503 -0.68611515106E+01  0.22369792054E+02  0.78201013056E+02  0.81626475114E+02  0.00000000000E+00 0.  1.
<mgrwt>
<rscale>  0 0.14909824E+04</rscale>
<asrwt>0</asrwt>
<pdfrwt beam="1">  1        1 0.22161915E+00 0.14909824E+04</pdfrwt>
<pdfrwt beam="2">  1       -2 0.59354143E-01 0.14909824E+04</pdfrwt>
<totfact> 0.16196549E+01</totfact>
</mgrwt>
</event>
<event>
12    4  0.4280696E-008  0.2267092E+04  0.7818608E-02  0.8491011E-01
         -2   -1    0    0    0  501 -0.00000000000E+00  0.00000000000E+00  0.25608205940E+04  0.25608205940E+04  0.00000000000E+00 0.  1.
          1   -1    0    0  501    0  0.00000000000E+00 -0.00000000000E+00 -0.50176343110E+03  0.50176343110E+03  0.00000000000E+00 0. -1.
        -24    2    1    2    0    0 -0.38872872818E+03 -0.65223069029E+03  0.90368070606E+02  0.76843805555E+03  0.76261127434E+02 0.  0.
        254    2    1    2    0    0  0.38872872818E+03  0.65223069029E+03  0.19686890923E+04  0.22941459696E+04  0.90047436946E+03 0.  0.
         23    2    4    4    0    0  0.29501439270E+03  0.11596361399E+02  0.11617080823E+03  0.32964430295E+03  0.89452458226E+02 0.  0.
         23    2    4    4    0    0  0.93714335481E+02  0.64063432889E+03  0.18525182841E+04  0.19645016666E+04  0.90818969842E+02 0.  0.
          3    1    3    3  502    0 -0.13865688690E+03 -0.24080033933E+03 -0.35770712125E+01  0.27789086193E+03  0.00000000000E+00 0. -1.
         -4    1    3    3    0  502 -0.25007184128E+03 -0.41143035096E+03  0.93945141818E+02  0.49054719362E+03  0.00000000000E+00 0.  1.
         11    1    5    5    0    0  0.20131565194E+03  0.42928900921E+00  0.33285636532E+02  0.20404928229E+03  0.00000000000E+00 0.  1.
        -11    1    5    5    0    0  0.93698740765E+02  0.11167072390E+02  0.82885171699E+02  0.12559502066E+03  0.00000000000E+00 0. -1.
          1    1    6    6  503    0  0.65040173881E+02  0.41128320061E+03  0.13162560945E+04  0.13805485148E+04  0.00000000000E+00 0.  1.
         -1    1    6    6    0  503  0.28674161599E+02  0.22935112828E+03  0.53626218960E+03  0.58395315187E+03  0.00000000000E+00 0. -1.
<mgrwt>
<rscale>  0 0.22670916E+04</rscale>
<asrwt>0</asrwt>
<pdfrwt beam="1">  1        1 0.77194376E-01 0.22670916E+04</pdfrwt>
<pdfrwt beam="2">  1       -2 0.39397239E+00 0.22670916E+04</pdfrwt>
<totfact> 0.28492819E-01</totfact>
</mgrwt>
</event>
<event>
12    4  0.4280696E-008  0.1739942E+04  0.7818608E-02  0.8738906E-01
         -2   -1    0    0    0  501 -0.00000000000E+00  0.00000000000E+00  0.50021122359E+03  0.50021122359E+03  0.00000000000E+00 0.  1.
          1   -1    0    0  501    0  0.00000000000E+00 -0.00000000000E+00 -0.15130591324E+04  0.15130591324E+04  0.00000000000E+00 0. -1.
        -24    2    1    2    0    0 -0.54275353943E+03 -0.19060262753E+03 -0.67765834458E+03  0.89233062773E+03  0.78245453699E+02 0.  0.
        254    2    1    2    0    0  0.54275353943E+03  0.19060262753E+03 -0.33518956424E+03  0.11209397283E+04  0.90179990255E+03 0.  0.
         23    2    4    4    0    0 -0.19338464108E+03  0.46676611529E+02  0.10884547337E+03  0.24426576408E+03  0.90786017410E+02 0.  0.
         23    2    4    4    0    0  0.73613818051E+03  0.14392601600E+03 -0.44403503761E+03  0.87667396419E+03  0.93680339313E+02 0.  0.
          1    1    3    3  502    0 -0.53716118105E+02 -0.34882180205E+02 -0.10808211876E+03  0.12563412050E+03  0.00000000000E+00 0. -1.
         -2    1    3    3    0  502 -0.48903742133E+03 -0.15572044733E+03 -0.56957622583E+03  0.76669650723E+03  0.00000000000E+00 0.  1.
         11    1    5    5    0    0 -0.63675612851E+02 -0.20192722522E+02  0.61626200669E+02  0.90885193094E+02  0.00000000000E+00 0. -1.
        -11    1    5    5    0    0 -0.12970902823E+03  0.66869334051E+02  0.47219272701E+02  0.15338057098E+03  0.00000000000E+00 0.  1.
          3    1    6    6  503    0  0.11182946487E+03  0.53180141213E+02 -0.91671366134E+02  0.15407010093E+03  0.00000000000E+00 0. -1.
         -3    1    6    6    0  503  0.62430871565E+03  0.90745874792E+02 -0.35236367148E+03  0.72260386326E+03  0.00000000000E+00 0.  1.
<mgrwt>
<rscale>  0 0.17399416E+04</rscale>
<asrwt>0</asrwt>
<pdfrwt beam="1">  1        1 0.23277833E+00 0.17399416E+04</pdfrwt>
<pdfrwt beam="2">  1       -2 0.76955573E-01 0.17399416E+04</pdfrwt>
<totfact> 0.80403839E+00</totfact>
</mgrwt>
</event>
<event>
12    4  0.4280696E-008  0.2412889E+04  0.7818608E-02  0.8434694E-01
         -2   -1    0    0    0  501 -0.00000000000E+00  0.00000000000E+00  0.16880428000E+04  0.16880428000E+04  0.00000000000E+00 0.  1.
          1   -1    0    0  501    0  0.00000000000E+00 -0.00000000000E+00 -0.86224605682E+03  0.86224605682E+03  0.00000000000E+00 0. -1.
        -24    2    1    2    0    0  0.10722420696E+03 -0.70970637765E+03  0.11428923396E+04  0.13518136766E+04  0.77570246644E+02 0.  0.
        254    2    1    2    0    0 -0.10722420696E+03  0.70970637765E+03 -0.31709559649E+03  0.11984751802E+04  0.90587690512E+03 0.  0.
         23    2    4    4    0    0 -0.45143659367E+03  0.25936862234E+03 -0.32947314183E+03  0.62398233946E+03  0.98662700177E+02 0.  0.
         23    2    4    4    0    0  0.34421238672E+03  0.45033775531E+03  0.12377545346E+02  0.57449284075E+03  0.92749983368E+02 0.  0.
          1    1    3    3  502    0  0.44779932585E+02 -0.17222769826E+03  0.23292020603E+03  0.29312018830E+03  0.00000000000E+00 0. -1.
         -2    1    3    3    0  502  0.62444274373E+02 -0.53747867939E+03  0.90997213360E+03  0.10586934883E+04  0.00000000000E+00 0.  1.
         11    1    5    5    0    0 -0.42774291817E+03  0.22345396895E+03 -0.27816061252E+03  0.55701795899E+03  0.00000000000E+00 0. -1.
        -11    1    5    5    0    0 -0.23693675508E+02  0.35914653391E+02 -0.51312529310E+02  0.66964380468E+02  0.00000000000E+00 0.  1.
          2    1    6    6  503    0  0.32781744265E+03  0.37893117349E+03  0.13141471700E+02  0.50122430929E+03  0.00000000000E+00 0. -1.
         -2    1    6    6    0  503  0.16394944069E+02  0.71406581819E+02 -0.76392635402E+00  0.73268531455E+02  0.00000000000E+00 0.  1.
<mgrwt>
<rscale>  0 0.24128889E+04</rscale>
<asrwt>0</asrwt>
<pdfrwt beam="1">  1        1 0.13265324E+00 0.24128889E+04</pdfrwt>
<pdfrwt beam="2">  1       -2 0.25969889E+00 0.24128889E+04</pdfrwt>
<totfact> 0.85996123E-01</totfact>
</mgrwt>
</event>
<event>
12    4  0.4280696E-008  0.1704524E+04  0.7818608E-02  0.8758788E-01
          1   -1    0    0  501    0  0.00000000000E+00  0.00000000000E+00  0.15479563370E+04  0.15479563370E+04  0.00000000000E+00 0. -1.
         -2   -1    0    0    0  501 -0.00000000000E+00 -0.00000000000E+00 -0.46923189628E+03  0.46923189628E+03  0.00000000000E+00 0.  1.
        -24    2    1    2    0    0  0.11502880725E+03 -0.11021286656E+03 -0.30736698789E+03  0.35534349292E+03  0.80100126468E+02 0.  0.
        254    2    1    2    0    0 -0.11502880725E+03  0.11021286656E+03  0.13860914286E+04  0.16618447404E+04  0.90282888200E+03 0.  0.
         23    2    4    4    0    0  0.31560215872E+01 -0.35108194221E+03  0.92564835205E+03  0.99338946421E+03  0.82032099444E+02 0.  0.
         23    2    4    4    0    0 -0.11818482884E+03  0.46129480877E+03  0.46044307655E+03  0.66845527615E+03  0.89800195410E+02 0.  0.
          3    1    3    3  502    0 -0.11093009341E+02 -0.20408895384E+01 -0.29562359824E+02  0.31641005116E+02  0.00000000000E+00 0. -1.
         -4    1    3    3    0  502  0.12612181659E+03 -0.10817197703E+03 -0.27780462807E+03  0.32370248780E+03  0.00000000000E+00 0.  1.
         11    1    5    5    0    0 -0.70495013729E+01 -0.73139599290E+02  0.11612229444E+03  0.13741718859E+03  0.00000000000E+00 0.  1.
        -11    1    5    5    0    0  0.10205522960E+02 -0.27794234292E+03  0.80952605761E+03  0.85597227562E+03  0.00000000000E+00 0. -1.
          1    1    6    6  503    0 -0.11600892993E+03  0.29377334275E+03  0.27811091958E+03  0.42084026937E+03  0.00000000000E+00 0. -1.
         -1    1    6    6    0  503 -0.21758989055E+01  0.16752146602E+03  0.18233215697E+03  0.24761500678E+03  0.00000000000E+00 0.  1.
<mgrwt>
<rscale>  0 0.17045240E+04</rscale>
<asrwt>0</asrwt>
<pdfrwt beam="1">  1        1 0.23814713E+00 0.17045240E+04</pdfrwt>
<pdfrwt beam="2">  1       -2 0.72189523E-01 0.17045240E+04</pdfrwt>
<totfact> 0.87899386E+00</totfact>
</mgrwt>
</event>
<event>
12    4  0.4280696E-008  0.2827898E+04  0.7818608E-02  0.8294659E-01
          1   -1    0    0  501    0  0.00000000000E+00  0.00000000000E+00  0.27986849471E+04  0.27986849471E+04  0.00000000000E+00 0. -1.
         -2   -1    0    0    0  501 -0.00000000000E+00 -0.00000000000E+00 -0.71435395890E+03  0.71435395890E+03  0.00000000000E+00 0.  1.
        -24    2    1    2    0    0  0.19835016077E+03  0.90888330998E+03 -0.13860612761E+03  0.94397150520E+03  0.80367198360E+02 0.  0.
        254    2    1    2    0    0 -0.19835016077E+03 -0.90888330998E+03  0.22229371158E+04  0.25690674008E+04  0.89064371754E+03 0.  0.
         23    2    4    4    0    0 -0.29249555323E+02 -0.10703471041E+03 -0.49581964408E+02  0.15155788609E+03  0.90550847153E+02 0.  0.
         23    2    4    4    0    0 -0.16910060545E+03 -0.80184859957E+03  0.22725190802E+04  0.24175095147E+04  0.91940700474E+02 0.  0.
          3    1    3    3  502    0  0.37307713099E+02  0.25346878325E+03 -0.69959942298E+02  0.26557989959E+03  0.00000000000E+00 0. -1.
         -4    1    3    3    0  502  0.16104244767E+03  0.65541452673E+03 -0.68646185314E+02  0.67839160561E+03  0.00000000000E+00 0.  1.
         11    1    5    5    0    0 -0.57829566512E+02 -0.40801903868E+02 -0.19593560650E+02  0.73436787383E+02  0.00000000000E+00 0.  1.
        -11    1    5    5    0    0  0.28580011189E+02 -0.66232806547E+02 -0.29988403758E+02  0.78121098703E+02  0.00000000000E+00 0. -1.
          2    1    6    6  503    0 -0.11625914715E+03 -0.42013113706E+03  0.13142715688E+04  0.13846790669E+04  0.00000000000E+00 0. -1.
         -2    1    6    6    0  503 -0.52841458299E+02 -0.38171746251E+03  0.95824751142E+03  0.10328304479E+04  0.00000000000E+00 0.  1.
<mgrwt>
<rscale>  0 0.28278979E+04</rscale>
<asrwt>0</asrwt>
<pdfrwt beam="1">  1        1 0.43056691E+00 0.28278979E+04</pdfrwt>
<pdfrwt beam="2">  1       -2 0.10990061E+00 0.28278979E+04</pdfrwt>
<totfact> 0.41764407E-01</totfact>
</mgrwt>
</event>
<event>
12    4  0.4280696E-008  0.1118700E+04  0.7818608E-02  0.9187155E-01
         -2   -1    0    0    0  501 -0.00000000000E+00  0.00000000000E+00  0.14615905771E+03  0.14615905771E+03  0.00000000000E+00 0.  1.
          1   -1    0    0  501    0  0.00000000000E+00 -0.00000000000E+00 -0.21406280591E+04  0.21406280591E+04  0.00000000000E+00 0. -1.
        -24    2    1    2    0    0  0.14857608798E+03  0.99986118294E+02 -0.45798129789E+03  0.49813731521E+03  0.79509985632E+02 0.  0.
        254    2    1    2    0    0 -0.14857608798E+03 -0.99986118294E+02 -0.15364877035E+04  0.17886498016E+04  0.89799864808E+03 0.  0.
         23    2    4    4    0    0  0.10757424860E+03  0.11204264827E+03 -0.14098186666E+04  0.14211500883E+04  0.89180305006E+02 0.  0.
         23    2    4    4    0    0 -0.25615033659E+03 -0.21202876656E+03 -0.12666903687E+03  0.36749971325E+03  0.91879277084E+02 0.  0.
          3    1    3    3  502    0  0.19778018977E+02  0.41492391684E+02 -0.18568095182E+03  0.19128566196E+03  0.00000000000E+00 0. -1.
         -2    1    3    3    0  502  0.12879806901E+03  0.58493726610E+02 -0.27230034607E+03  0.30685165325E+03  0.00000000000E+00 0.  1.
         11    1    5    5    0    0  0.62333657210E+01 -0.14977653643E+02 -0.10345648720E+03  0.10472072241E+03  0.00000000000E+00 0. -1.
        -11    1    5    5    0    0  0.10134088288E+03  0.12702030191E+03 -0.13063621794E+04  0.13164293659E+04  0.00000000000E+00 0.  1.
          1    1    6    6  503    0 -0.47429375642E+02 -0.13124787662E+02  0.69928186384E+01  0.49706189127E+02  0.00000000000E+00 0. -1.
         -1    1    6    6    0  503 -0.20872096094E+03 -0.19890397890E+03 -0.13366185551E+03  0.31779352413E+03  0.00000000000E+00 0.  1.
<mgrwt>
<rscale>  0 0.11186996E+04</rscale>
<asrwt>0</asrwt>
<pdfrwt beam="1">  1        1 0.32932738E+00 0.11186996E+04</pdfrwt>
<pdfrwt beam="2">  1       -2 0.22486010E-01 0.11186996E+04</pdfrwt>
<totfact> 0.36425982E+01</totfact>
</mgrwt>
</event>
<event>
12    4  0.4280696E-008  0.3218811E+04  0.7818608E-02  0.8183867E-01
         -2   -1    0    0    0  501 -0.00000000000E+00  0.00000000000E+00  0.11469920845E+04  0.11469920845E+04  0.00000000000E+00 0.  1.
          1   -1    0    0  501    0  0.00000000000E+00 -0.00000000000E+00 -0.22582426446E+04  0.22582426446E+04  0.00000000000E+00 0. -1.
        -24    2    1    2    0    0 -0.47025232987E+02  0.12801410060E+04  0.27932975826E+03  0.13134815191E+04  0.78969737136E+02 0.  0.
        254    2    1    2    0    0  0.47025232987E+02 -0.12801410060E+04 -0.13905803184E+04  0.20917532099E+04  0.89484384199E+03 0.  0.
         23    2    4    4    0    0 -0.88990591590E+02 -0.38477588836E+02  0.81142297936E+02  0.15920103355E+03  0.96752500399E+02 0.  0.
         23    2    4    4    0    0  0.13601582458E+03 -0.12416634172E+04 -0.14717226163E+04  0.19325521764E+04  0.92531664686E+02 0.  0.
          3    1    3    3  502    0 -0.35636777516E+02  0.24185844284E+03  0.69372495544E+02  0.25412207583E+03  0.00000000000E+00 0. -1.
         -4    1    3    3    0  502 -0.11388455470E+02  0.10382825632E+04  0.20995726271E+03  0.10593594433E+04  0.00000000000E+00 0.  1.
         11    1    5    5    0    0 -0.51880858949E+02 -0.53533103808E+02  0.69259189621E+01  0.74869119683E+02  0.00000000000E+00 0. -1.
        -11    1    5    5    0    0 -0.37109732641E+02  0.15055514971E+02  0.74216378974E+02  0.84331913863E+02  0.00000000000E+00 0.  1.
          2    1    6    6  503    0  0.55923114125E+02 -0.25714398075E+03 -0.35034544681E+03  0.43816932073E+03  0.00000000000E+00 0. -1.
         -2    1    6    6    0  503  0.80092710452E+02 -0.98451943646E+03 -0.11213771695E+04  0.14943828556E+04  0.00000000000E+00 0.  1.
<mgrwt>
<rscale>  0 0.32188112E+04</rscale>
<asrwt>0</asrwt>
<pdfrwt beam="1">  1        1 0.34742194E+00 0.32188112E+04</pdfrwt>
<pdfrwt beam="2">  1       -2 0.17646032E+00 0.32188112E+04</pdfrwt>
<totfact> 0.28025513E-01</totfact>
</mgrwt>
</event>
<event>
12    4  0.4280696E-008  0.1400678E+04  0.7818608E-02  0.8953328E-01
          1   -1    0    0  501    0  0.00000000000E+00  0.00000000000E+00  0.39169740110E+03  0.39169740110E+03  0.00000000000E+00 0. -1.
         -2   -1    0    0    0  501 -0.00000000000E+00 -0.00000000000E+00 -0.12521784030E+04  0.12521784030E+04  0.00000000000E+00 0.  1.
        -24    2    1    2    0    0 -0.50754841672E+02  0.37696207881E+03 -0.90161723495E+02  0.39853249235E+03  0.77605078829E+02 0.  0.
        254    2    1    2    0    0  0.50754841672E+02 -0.37696207881E+03 -0.77031927842E+03  0.12453433118E+04  0.90156070825E+03 0.  0.
         23    2    4    4    0    0 -0.12976480064E+03  0.25566538220E+03 -0.35057063596E+03  0.46067016347E+03  0.84341790210E+02 0.  0.
         23    2    4    4    0    0  0.18051964231E+03 -0.63262746101E+03 -0.41974864246E+03  0.78467314830E+03  0.81964511476E+02 0.  0.
          1    1    3    3  502    0 -0.52217374652E+02  0.31793265968E+03 -0.47474910603E+02  0.32567114923E+03  0.00000000000E+00 0. -1.
         -4    1    3    3    0  502  0.14625329802E+01  0.59029419128E+02 -0.42686812892E+02  0.72861343112E+02  0.00000000000E+00 0.  1.
         11    1    5    5    0    0 -0.90650183943E+02  0.10474328220E+03 -0.12580124427E+03  0.18712178942E+03  0.00000000000E+00 0.  1.
        -11    1    5    5    0    0 -0.39114616695E+02  0.15092210000E+03 -0.22476939168E+03  0.27354837405E+03  0.00000000000E+00 0. -1.
          3    1    6    6  503    0  0.61681976641E+02 -0.32751364828E+03 -0.17939008424E+03  0.37848468711E+03  0.00000000000E+00 0. -1.
         -3    1    6    6    0  503  0.11883766567E+03 -0.30511381273E+03 -0.24035855822E+03  0.40618846120E+03  0.00000000000E+00 0.  1.
<mgrwt>
<rscale>  0 0.14006784E+04</rscale>
<asrwt>0</asrwt>
<pdfrwt beam="1">  1        1 0.60261139E-01 0.14006784E+04</pdfrwt>
<pdfrwt beam="2">  1       -2 0.19264283E+00 0.14006784E+04</pdfrwt>
<totfact> 0.78142640E+00</totfact>
</mgrwt>
</event>
<event>
12    4  0.4280696E-008  0.1373145E+04  0.7818608E-02  0.8973490E-01
          1   -1    0    0  501    0  0.00000000000E+00  0.00000000000E+00  0.17862676901E+04  0.17862676901E+04  0.00000000000E+00 0. -1.
         -2   -1    0    0    0  501 -0.00000000000E+00 -0.00000000000E+00 -0.26389204522E+03  0.26389204522E+03  0.00000000000E+00 0.  1.
        -24    2    1    2    0    0  0.19084945815E+03  0.27603116899E+03  0.78631674836E+03  0.85867208851E+03  0.80043768668E+02 0.  0.
        254    2    1    2    0    0 -0.19084945815E+03 -0.27603116899E+03  0.73605889650E+03  0.11914876468E+04  0.87478191078E+03 0.  0.
         23    2    4    4    0    0 -0.15539696090E+02  0.39604074230E+02  0.80593458724E+03  0.81184157044E+03  0.88012565715E+02 0.  0.
         23    2    4    4    0    0 -0.17530976206E+03 -0.31563524322E+03 -0.69875690739E+02  0.37964607637E+03  0.94283676783E+02 0.  0.
          3    1    3    3  502    0  0.14865777582E+03  0.15296158428E+03  0.44746917895E+03  0.49570661352E+03  0.00000000000E+00 0. -1.
         -4    1    3    3    0  502  0.42191682326E+02  0.12306958471E+03  0.33884756941E+03  0.36296547498E+03  0.00000000000E+00 0.  1.
         11    1    5    5    0    0  0.28597416342E+02  0.32571866295E+02  0.57437874689E+03  0.57601187798E+03  0.00000000000E+00 0. -1.
        -11    1    5    5    0    0 -0.44137112432E+02  0.70322079355E+01  0.23155584035E+03  0.23582969245E+03  0.00000000000E+00 0.  1.
          1    1    6    6  503    0 -0.16709053482E+03 -0.32043877578E+03 -0.60747060464E+02  0.36645662937E+03  0.00000000000E+00 0. -1.
         -1    1    6    6    0  503 -0.82192272354E+01  0.48035325619E+01 -0.91286302747E+01  0.13189446998E+02  0.00000000000E+00 0.  1.
<mgrwt>
<rscale>  0 0.13731451E+04</rscale>
<asrwt>0</asrwt>
<pdfrwt beam="1">  1        1 0.27481041E+00 0.13731451E+04</pdfrwt>
<pdfrwt beam="2">  1       -2 0.40598777E-01 0.13731451E+04</pdfrwt>
<totfact> 0.20513970E+01</totfact>
</mgrwt>
</event>
<event>
12    4  0.4280696E-008  0.2258588E+04  0.7818608E-02  0.8494430E-01
         -2   -1    0    0    0  501 -0.00000000000E+00  0.00000000000E+00  0.17160516542E+04  0.17160516542E+04  0.00000000000E+00 0.  1.
          1   -1    0    0  501    0  0.00000000000E+00 -0.00000000000E+00 -0.74316251116E+03  0.74316251116E+03  0.00000000000E+00 0. -1.
        -24    2    1    2    0    0  0.24676728572E+03  0.91272808501E+03  0.46356434947E+03  0.10556210782E+04  0.74008811263E+02 0.  0.
        254    2    1    2    0    0 -0.24676728572E+03 -0.91272808501E+03  0.50932479354E+03  0.14035930871E+04  0.90371187804E+03 0.  0.
         23    2    4    4    0    0 -0.43799168622E+03 -0.16385087596E+03  0.39425794691E+03  0.61807018842E+03  0.88812174628E+02 0.  0.
         23    2    4    4    0    0  0.19122440050E+03 -0.74887720905E+03  0.11506684663E+03  0.78552289873E+03  0.80137379887E+02 0.  0.
          3    1    3    3  502    0  0.17377115781E+03  0.71652199595E+03  0.33392555829E+03  0.80938647410E+03  0.00000000000E+00 0. -1.
         -4    1    3    3    0  502  0.72996127908E+02  0.19620608906E+03  0.12963879118E+03  0.24623460409E+03  0.00000000000E+00 0.  1.
         11    1    5    5    0    0 -0.41559188503E+02 -0.40160189748E+02  0.72560218366E+02  0.92763097614E+02  0.00000000000E+00 0. -1.
        -11    1    5    5    0    0 -0.39643249771E+03 -0.12369068621E+03  0.32169772854E+03  0.52530709080E+03  0.00000000000E+00 0.  1.
          4    1    6    6  503    0  0.71482282561E+02 -0.42367148124E+03  0.45528049666E+02  0.43206486093E+03  0.00000000000E+00 0. -1.
         -4    1    6    6    0  503  0.11974211793E+03 -0.32520572780E+03  0.69538796964E+02  0.35345803780E+03  0.00000000000E+00 0.  1.
<mgrwt>
<rscale>  0 0.22585883E+04</rscale>
<asrwt>0</asrwt>
<pdfrwt beam="1">  1        1 0.11433269E+00 0.22585883E+04</pdfrwt>
<pdfrwt beam="2">  1       -2 0.26400795E+00 0.22585883E+04</pdfrwt>
<totfact> 0.10414707E+00</totfact>
</mgrwt>
</event>
<event>
12    4  0.4280696E-008  0.1469761E+04  0.7818608E-02  0.8904814E-01
          1   -1    0    0  501    0  0.00000000000E+00  0.00000000000E+00  0.11565471380E+04  0.11565471380E+04  0.00000000000E+00 0. -1.
         -2   -1    0    0    0  501 -0.00000000000E+00 -0.00000000000E+00 -0.46694997660E+03  0.46694997660E+03  0.00000000000E+00 0.  1.
        -24    2    1    2    0    0 -0.99694043812E+02  0.81342630884E+02  0.70374608517E+03  0.72147879080E+03  0.93367913184E+02 0.  0.
        254    2    1    2    0    0  0.99694043812E+02 -0.81342630884E+02 -0.14148923763E+02  0.90201832380E+03  0.89268210381E+03 0.  0.
         23    2    4    4    0    0  0.48506284968E+03 -0.11722569158E+02 -0.61815654966E+02  0.49717570714E+03  0.89101749690E+02 0.  0.
         23    2    4    4    0    0 -0.38536880587E+03 -0.69620061726E+02  0.47666731203E+02  0.40484261666E+03  0.90936007560E+02 0.  0.
          1    1    3    3  502    0 -0.24817192930E+02  0.20577758653E+02  0.43069909209E+03  0.43190397676E+03  0.00000000000E+00 0. -1.
         -2    1    3    3    0  502 -0.74876850882E+02  0.60764872231E+02  0.27304699308E+03  0.28957481404E+03  0.00000000000E+00 0.  1.
         11    1    5    5    0    0  0.46279801340E+03 -0.23493414235E+01 -0.39835499711E+02  0.46451521789E+03  0.00000000000E+00 0. -1.
        -11    1    5    5    0    0  0.22264836280E+02 -0.93732277347E+01 -0.21980155255E+02  0.32660489246E+02  0.00000000000E+00 0.  1.
          4    1    6    6  503    0 -0.22649753972E+03 -0.82157497186E+02  0.10313448804E+02  0.24115836512E+03  0.00000000000E+00 0. -1.
         -4    1    6    6    0  503 -0.15887126615E+03  0.12537435460E+02  0.37353282399E+02  0.16368425154E+03  0.00000000000E+00 0.  1.
<mgrwt>
<rscale>  0 0.14697614E+04</rscale>
<asrwt>0</asrwt>
<pdfrwt beam="1">  1        1 0.17793033E+00 0.14697614E+04</pdfrwt>
<pdfrwt beam="2">  1       -2 0.71838459E-01 0.14697614E+04</pdfrwt>
<totfact> 0.17179892E+01</totfact>
</mgrwt>
</event>
<event>
12    4  0.4280696E-008  0.2132949E+04  0.7818608E-02  0.8546866E-01
          1   -1    0    0  501    0  0.00000000000E+00  0.00000000000E+00  0.12732139313E+04  0.12732139313E+04  0.00000000000E+00 0. -1.
         -2   -1    0    0    0  501 -0.00000000000E+00 -0.00000000000E+00 -0.89330478704E+03  0.89330478704E+03  0.00000000000E+00 0.  1.
        -24    2    1    2    0    0 -0.12420355450E+03 -0.27293782139E+03  0.99086257472E+03  0.10370888531E+04  0.61830979086E+02 0.  0.
        254    2    1    2    0    0  0.12420355450E+03  0.27293782139E+03 -0.61095343044E+03  0.11294298653E+04  0.90134685281E+03 0.  0.
         23    2    4    4    0    0 -0.16116479539E+03  0.34825770928E+03 -0.70364672107E+03  0.80655914074E+03  0.90340556185E+02 0.  0.
         23    2    4    4    0    0  0.28536834989E+03 -0.75319887890E+02  0.92693290629E+02  0.32287072452E+03  0.92440672826E+02 0.  0.
          3    1    3    3  502    0 -0.12286023748E+03 -0.21289077452E+03  0.77692685963E+03  0.81488187184E+03  0.00000000000E+00 0. -1.
         -4    1    3    3    0  502 -0.13433170279E+01 -0.60047046867E+02  0.21393571509E+03  0.22220698128E+03  0.00000000000E+00 0.  1.
         11    1    5    5    0    0 -0.16205099265E+03  0.26425664325E+03 -0.54186610203E+03  0.62426834794E+03  0.00000000000E+00 0. -1.
        -11    1    5    5    0    0  0.88619725915E+00  0.84001066026E+02 -0.16178061904E+03  0.18229079279E+03  0.00000000000E+00 0.  1.
          3    1    6    6  503    0  0.27793784135E+03 -0.50367515282E+02  0.78275220923E+02  0.29310977544E+03  0.00000000000E+00 0. -1.
         -3    1    6    6    0  503  0.74305085432E+01 -0.24952372607E+02  0.14418069706E+02  0.29760949078E+02  0.00000000000E+00 0.  1.
<mgrwt>
<rscale>  0 0.21329492E+04</rscale>
<asrwt>0</asrwt>
<pdfrwt beam="1">  1        1 0.19587907E+00 0.21329492E+04</pdfrwt>
<pdfrwt beam="2">  1       -2 0.13743151E+00 0.21329492E+04</pdfrwt>
<totfact> 0.28669801E+00</totfact>
</mgrwt>
</event>
<event>
12    4  0.4280696E-008  0.2298045E+04  0.7818608E-02  0.8478692E-01
         -2   -1    0    0    0  501 -0.00000000000E+00  0.00000000000E+00  0.77261493904E+03  0.77261493904E+03  0.00000000000E+00 0.  1.
          1   -1    0    0  501    0  0.00000000000E+00 -0.00000000000E+00 -0.17088101426E+04  0.17088101426E+04  0.00000000000E+00 0. -1.
        -24    2    1    2    0    0 -0.61379949192E+03  0.66174464485E+03 -0.15511869399E+02  0.90640430215E+03  0.81684451397E+02 0.  0.
        254    2    1    2    0    0  0.61379949192E+03 -0.66174464485E+03 -0.92068333415E+03  0.15750207795E+04  0.90464184223E+03 0.  0.
         23    2    4    4    0    0  0.20918238943E+03 -0.80463756309E+03 -0.56758330575E+03  0.10115385447E+04  0.99300244171E+02 0.  0.
         23    2    4    4    0    0  0.40461710248E+03  0.14289291824E+03 -0.35310002840E+03  0.56348223475E+03  0.93269572299E+02 0.  0.
          1    1    3    3  502    0 -0.33911054762E+01  0.20520616456E+02 -0.29668169501E+01  0.21009457368E+02  0.00000000000E+00 0. -1.
         -2    1    3    3    0  502 -0.61040838644E+03  0.64122402839E+03 -0.12545052449E+02  0.88539484478E+03  0.00000000000E+00 0.  1.
         11    1    5    5    0    0  0.12510844615E+03 -0.33007337291E+03 -0.20278047104E+03  0.40708779672E+03  0.00000000000E+00 0.  1.
        -11    1    5    5    0    0  0.84073943286E+02 -0.47456419018E+03 -0.36480283471E+03  0.60445074800E+03  0.00000000000E+00 0. -1.
          3    1    6    6  503    0  0.39275727770E+03  0.12614257384E+03 -0.31089655372E+03  0.51655289684E+03  0.00000000000E+00 0. -1.
         -3    1    6    6    0  503  0.11859824785E+02  0.16750344402E+02 -0.42203474680E+02  0.46929337909E+02  0.00000000000E+00 0.  1.
<mgrwt>
<rscale>  0 0.22980446E+04</rscale>
<asrwt>0</asrwt>
<pdfrwt beam="1">  1        1 0.26289387E+00 0.22980446E+04</pdfrwt>
<pdfrwt beam="2">  1       -2 0.11886384E+00 0.22980446E+04</pdfrwt>
<totfact> 0.20291460E+00</totfact>
</mgrwt>
</event>
<event>
12    4  0.4280696E-008  0.1469529E+04  0.7818608E-02  0.8904972E-01
          1   -1    0    0  501    0  0.00000000000E+00  0.00000000000E+00  0.25484408936E+04  0.25484408936E+04  0.00000000000E+00 0. -1.
         -2   -1    0    0    0  501 -0.00000000000E+00 -0.00000000000E+00 -0.21184674434E+03  0.21184674434E+03  0.00000000000E+00 0.  1.
        -24    2    1    2    0    0  0.15565443188E+03  0.19561556047E+03  0.14498199883E+04  0.14734013519E+04  0.80248336591E+02 0.  0.
        254    2    1    2    0    0 -0.15565443188E+03 -0.19561556047E+03  0.88677416090E+03  0.12868862860E+04  0.89845097310E+03 0.  0.
         23    2    4    4    0    0  0.28915233570E+03  0.31241794560E+02  0.49560430310E+02  0.30766907307E+03  0.87286306515E+02 0.  0.
         23    2    4    4    0    0 -0.44480676757E+03 -0.22685735503E+03  0.83721373059E+03  0.97921721296E+03  0.92855799272E+02 0.  0.
          3    1    3    3  502    0  0.12414367524E+03  0.12740132307E+03  0.11792655533E+04  0.11926063870E+04  0.00000000000E+00 0. -1.
         -4    1    3    3    0  502  0.31510756634E+02  0.68214237393E+02  0.27055443507E+03  0.28079496488E+03  0.00000000000E+00 0.  1.
         11    1    5    5    0    0  0.26257778670E+03  0.36843817993E+00  0.37911263202E+02  0.26530076082E+03  0.00000000000E+00 0.  1.
        -11    1    5    5    0    0  0.26574548999E+02  0.30873356380E+02  0.11649167107E+02  0.42368312250E+02  0.00000000000E+00 0. -1.
          3    1    6    6  503    0 -0.26014679134E+02  0.51993565906E+01  0.70067642609E+02  0.74921768400E+02  0.00000000000E+00 0. -1.
         -3    1    6    6    0  503 -0.41879208844E+03 -0.23205671162E+03  0.76714608798E+03  0.90429544456E+03  0.00000000000E+00 0.  1.
<mgrwt>
<rscale>  0 0.14695290E+04</rscale>
<asrwt>0</asrwt>
<pdfrwt beam="1">  1        1 0.39206781E+00 0.14695290E+04</pdfrwt>
<pdfrwt beam="2">  1       -2 0.32591809E-01 0.14695290E+04</pdfrwt>
<totfact> 0.93962183E+00</totfact>
</mgrwt>
</event>
<event>
12    4  0.4280696E-008  0.1059481E+04  0.7818608E-02  0.9245610E-01
         -2   -1    0    0    0  501 -0.00000000000E+00  0.00000000000E+00  0.93555384184E+02  0.93555384184E+02  0.00000000000E+00 0.  1.
          1   -1    0    0  501    0  0.00000000000E+00 -0.00000000000E+00 -0.29995592219E+04  0.29995592219E+04  0.00000000000E+00 0. -1.
        -24    2    1    2    0    0  0.16383544233E+02 -0.61261639764E+02 -0.66493142241E+03  0.67326705577E+03  0.84459000972E+02 0.  0.
        254    2    1    2    0    0 -0.16383544233E+02  0.61261639764E+02 -0.22410724153E+04  0.24198475503E+04  0.91062351557E+03 0.  0.
         23    2    4    4    0    0  0.26197785259E+03 -0.55998345883E+02 -0.20066319905E+04  0.20264505528E+04  0.90342058481E+02 0.  0.
         23    2    4    4    0    0 -0.27836139683E+03  0.11725998565E+03 -0.23444042479E+03  0.39339699753E+03  0.92541414575E+02 0.  0.
          3    1    3    3  502    0  0.27771661184E+02 -0.73013498959E+02 -0.62841318865E+03  0.63324984948E+03  0.00000000000E+00 0. -1.
         -4    1    3    3    0  502 -0.11388116950E+02  0.11751859195E+02 -0.36518233758E+02  0.40017206287E+02  0.00000000000E+00 0.  1.
         11    1    5    5    0    0  0.18172018059E+01 -0.80754699669E+01 -0.13469079713E+02  0.15809223444E+02  0.00000000000E+00 0.  1.
        -11    1    5    5    0    0  0.26016065079E+03 -0.47922875916E+02 -0.19931629108E+04  0.20106413294E+04  0.00000000000E+00 0. -1.
          4    1    6    6  503    0 -0.20611130516E+03  0.98970932849E+02 -0.22036656826E+03  0.31755084643E+03  0.00000000000E+00 0. -1.
         -4    1    6    6    0  503 -0.72250091666E+02  0.18289052799E+02 -0.14073856525E+02  0.75846151092E+02  0.00000000000E+00 0.  1.
<mgrwt>
<rscale>  0 0.10594808E+04</rscale>
<asrwt>0</asrwt>
<pdfrwt beam="1">  1        1 0.46147060E+00 0.10594808E+04</pdfrwt>
<pdfrwt beam="2">  1       -2 0.14393138E-01 0.10594808E+04</pdfrwt>
<totfact> 0.20142794E+01</totfact>
</mgrwt>
</event>
<event>
12    4  0.4280696E-008  0.1298554E+04  0.7818608E-02  0.9030713E-01
         -4   -1    0    0    0  501 -0.00000000000E+00  0.00000000000E+00  0.11662995331E+04  0.11662995331E+04  0.00000000000E+00 0.  1.
          3   -1    0    0  501    0  0.00000000000E+00 -0.00000000000E+00 -0.36145133827E+03  0.36145133827E+03  0.00000000000E+00 0. -1.
        -24    2    1    2    0    0 -0.70164434973E+02 -0.22965832733E+03  0.47724645145E+03  0.54028394481E+03  0.80477141777E+02 0.  0.
        254    2    1    2    0    0  0.70164434973E+02  0.22965832733E+03  0.32760174341E+03  0.98746692658E+03  0.90005668353E+03 0.  0.
         23    2    4    4    0    0  0.61904099148E+02 -0.33130209455E+03  0.20764869099E+03  0.40646824367E+03  0.92223960555E+02 0.  0.
         23    2    4    4    0    0  0.82603358241E+01  0.56096042188E+03  0.11995305242E+03  0.58099868291E+03  0.91792737685E+02 0.  0.
          1    1    3    3  502    0 -0.40573775185E+02 -0.43772033546E+02  0.72469954138E+02  0.93883525745E+02  0.00000000000E+00 0. -1.
         -2    1    3    3    0  502 -0.29590659787E+02 -0.18588629379E+03  0.40477649732E+03  0.44640041907E+03  0.00000000000E+00 0.  1.
         11    1    5    5    0    0  0.70733039036E+02 -0.13254415064E+03  0.81977852447E+02  0.17114754737E+03  0.00000000000E+00 0. -1.
        -11    1    5    5    0    0 -0.88289398873E+01 -0.19875794391E+03  0.12567083854E+03  0.23532069630E+03  0.00000000000E+00 0.  1.
          3    1    6    6  503    0 -0.36157163993E+02  0.37533877939E+03  0.67612980817E+02  0.38309013952E+03  0.00000000000E+00 0. -1.
         -3    1    6    6    0  503  0.44417499817E+02  0.18562164250E+03  0.52340071606E+02  0.19790854340E+03  0.00000000000E+00 0.  1.
<mgrwt>
<rscale>  0 0.12985539E+04</rscale>
<asrwt>0</asrwt>
<pdfrwt beam="1">  1        3 0.55607899E-01 0.12985539E+04</pdfrwt>
<pdfrwt beam="2">  1       -4 0.17943070E+00 0.12985539E+04</pdfrwt>
<totfact> 0.12954230E+00</totfact>
</mgrwt>
</event>
<event>
12    4  0.4280696E-008  0.1862148E+04  0.7818608E-02  0.8673931E-01
          1   -1    0    0  501    0  0.00000000000E+00  0.00000000000E+00  0.26138929896E+04  0.26138929896E+04  0.00000000000E+00 0. -1.
         -2   -1    0    0    0  501 -0.00000000000E+00 -0.00000000000E+00 -0.33165038246E+03  0.33165038246E+03  0.00000000000E+00 0.  1.
        -24    2    1    2    0    0  0.52376048980E+03  0.39379662093E+03  0.80488334789E+03  0.10414109558E+04  0.85432698100E+02 0.  0.
        254    2    1    2    0    0 -0.52376048980E+03 -0.39379662093E+03  0.14773592593E+04  0.19041324163E+04  0.10068411237E+04 0.  0.
         23    2    4    4    0    0  0.17507407302E+03 -0.43563821114E+03  0.44465466681E+03  0.65327079496E+03  0.92808279650E+02 0.  0.
         23    2    4    4    0    0 -0.69883456283E+03  0.41841590211E+02  0.10327045925E+04  0.12508616213E+04  0.89752746167E+02 0.  0.
          1    1    3    3  502    0  0.28399107741E+03  0.23270413097E+03  0.38745207679E+03  0.53378015739E+03  0.00000000000E+00 0. -1.
         -2    1    3    3    0  502  0.23976941240E+03  0.16109248996E+03  0.41743127111E+03  0.50763079845E+03  0.00000000000E+00 0.  1.
         11    1    5    5    0    0 -0.10161872033E+02 -0.43416113193E+02  0.47565450906E+02  0.65197351540E+02  0.00000000000E+00 0. -1.
        -11    1    5    5    0    0  0.18523594506E+03 -0.39222209795E+03  0.39708921591E+03  0.58807344342E+03  0.00000000000E+00 0.  1.
          2    1    6    6  503    0 -0.57936928392E+02 -0.10803888436E+02  0.12783956500E+03  0.14077061504E+03  0.00000000000E+00 0. -1.
         -2    1    6    6    0  503 -0.64089763444E+03  0.52645478647E+02  0.90486502747E+03  0.11100910063E+04  0.00000000000E+00 0.  1.
<mgrwt>
<rscale>  0 0.18621478E+04</rscale>
<asrwt>0</asrwt>
<pdfrwt beam="1">  1        1 0.40213737E+00 0.18621478E+04</pdfrwt>
<pdfrwt beam="2">  1       -2 0.51023138E-01 0.18621478E+04</pdfrwt>
<totfact> 0.33811851E+00</totfact>
</mgrwt>
</event>
<event>
12    4  0.4280696E-008  0.1261036E+04  0.7818608E-02  0.9061047E-01
         -2   -1    0    0    0  501 -0.00000000000E+00  0.00000000000E+00  0.20219878502E+03  0.20219878502E+03  0.00000000000E+00 0.  1.
          1   -1    0    0  501    0  0.00000000000E+00 -0.00000000000E+00 -0.19661505069E+04  0.19661505069E+04  0.00000000000E+00 0. -1.
        -24    2    1    2    0    0  0.16233182770E+03  0.24335065924E+03 -0.30464018342E+03  0.42911105241E+03  0.75891292698E+02 0.  0.
        254    2    1    2    0    0 -0.16233182770E+03 -0.24335065924E+03 -0.14593115384E+04  0.17392382395E+04  0.89988239334E+03 0.  0.
         23    2    4    4    0    0  0.42013490567E+02 -0.20567572447E+03  0.31062375885E+02  0.23171448335E+03  0.93054250700E+02 0.  0.
         23    2    4    4    0    0 -0.20434531827E+03 -0.37674934773E+02 -0.14903739143E+04  0.15075237561E+04  0.90758255968E+02 0.  0.
          1    1    3    3  502    0  0.59556654013E+02  0.39142033494E+02 -0.50928490486E+02  0.87594548726E+02  0.00000000000E+00 0. -1.
         -2    1    3    3    0  502  0.10277517369E+03  0.20420862575E+03 -0.25371169294E+03  0.34151650369E+03  0.00000000000E+00 0.  1.
         11    1    5    5    0    0  0.46866631602E+02 -0.21448681081E+03  0.30265720021E+02  0.22162375093E+03  0.00000000000E+00 0.  1.
        -11    1    5    5    0    0 -0.48531410357E+01  0.88110863338E+01  0.79665586403E+00  0.10090732424E+02  0.00000000000E+00 0. -1.
          1    1    6    6  503    0 -0.10027188583E+02 -0.28050456021E+02 -0.28456574304E+03  0.28612066459E+03  0.00000000000E+00 0. -1.
         -1    1    6    6    0  503 -0.19431812968E+03 -0.96244787514E+01 -0.12058081713E+04  0.12214030915E+04  0.00000000000E+00 0.  1.
<mgrwt>
<rscale>  0 0.12610365E+04</rscale>
<asrwt>0</asrwt>
<pdfrwt beam="1">  1        1 0.30248469E+00 0.12610365E+04</pdfrwt>
<pdfrwt beam="2">  1       -2 0.31107506E-01 0.12610365E+04</pdfrwt>
<totfact> 0.26072484E+01</totfact>
</mgrwt>
</event>
<event>
12    4  0.4280696E-008  0.2426412E+04  0.7818608E-02  0.8429681E-01
         -2   -1    0    0    0  501 -0.00000000000E+00  0.00000000000E+00  0.14694932283E+04  0.14694932283E+04  0.00000000000E+00 0.  1.
          1   -1    0    0  501    0  0.00000000000E+00 -0.00000000000E+00 -0.10016169452E+04  0.10016169452E+04  0.00000000000E+00 0. -1.
        -24    2    1    2    0    0 -0.34777651617E+02  0.10421125072E+04  0.25599234348E+03  0.10767244935E+04  0.81213251509E+02 0.  0.
        254    2    1    2    0    0  0.34777651617E+02 -0.10421125072E+04  0.21188393967E+03  0.13943856800E+04  0.90122619694E+03 0.  0.
         23    2    4    4    0    0  0.39721416912E+03 -0.20445391868E+03  0.12646717408E+03  0.47353512968E+03  0.93064880083E+02 0.  0.
         23    2    4    4    0    0 -0.36243651751E+03 -0.83765858852E+03  0.85416765587E+02  0.92085055034E+03  0.87393203831E+02 0.  0.
          3    1    3    3  502    0 -0.11992551955E+02  0.75851669701E+03  0.15122106052E+03  0.77353681883E+03  0.00000000000E+00 0. -1.
         -2    1    3    3    0  502 -0.22785099663E+02  0.28359581019E+03  0.10477128296E+03  0.30318767465E+03  0.00000000000E+00 0.  1.
         11    1    5    5    0    0  0.21440522406E+03 -0.16124086896E+03  0.67151693765E+02  0.27654577904E+03  0.00000000000E+00 0.  1.
        -11    1    5    5    0    0  0.18280894507E+03 -0.43213049719E+02  0.59315480316E+02  0.19698935065E+03  0.00000000000E+00 0. -1.
          2    1    6    6  503    0 -0.27565915165E+03 -0.53521706803E+03  0.65260363470E+02  0.60556105624E+03  0.00000000000E+00 0. -1.
         -2    1    6    6    0  503 -0.86777365856E+02 -0.30244152049E+03  0.20156402116E+02  0.31528949410E+03  0.00000000000E+00 0.  1.
<mgrwt>
<rscale>  0 0.24264124E+04</rscale>
<asrwt>0</asrwt>
<pdfrwt beam="1">  1        1 0.15409492E+00 0.24264124E+04</pdfrwt>
<pdfrwt beam="2">  1       -2 0.22607588E+00 0.24264124E+04</pdfrwt>
<totfact> 0.10702633E+00</totfact>
</mgrwt>
</event>
<event>
12    4  0.4280696E-008  0.1969608E+04  0.7818608E-02  0.8620963E-01
         -2   -1    0    0    0  501 -0.00000000000E+00  0.00000000000E+00  0.41951686671E+03  0.41951686671E+03  0.00000000000E+00 0.  1.
          1   -1    0    0  501    0  0.00000000000E+00 -0.00000000000E+00 -0.23117987853E+04  0.23117987853E+04  0.00000000000E+00 0. -1.
        -24    2    1    2    0    0  0.38045133036E+03  0.67759449617E+02 -0.16643366065E+04  0.17103891423E+04  0.77975128630E+02 0.  0.
        254    2    1    2    0    0 -0.38045133036E+03 -0.67759449617E+02 -0.22794531208E+03  0.10209265097E+04  0.91705905756E+03 0.  0.
         23    2    4    4    0    0  0.28646606514E+03  0.52669663858E+02 -0.22995221301E+02  0.30707703493E+03  0.94501985227E+02 0.  0.
         23    2    4    4    0    0 -0.66691739549E+03 -0.12042911348E+03 -0.20495009078E+03  0.71384947473E+03  0.91074415109E+02 0.  0.
          3    1    3    3  502    0  0.76253997275E+02  0.32532577061E+02 -0.47975163935E+03  0.48686207095E+03  0.00000000000E+00 0. -1.
         -4    1    3    3    0  502  0.30419733308E+03  0.35226872556E+02 -0.11845849671E+04  0.12235270714E+04  0.00000000000E+00 0.  1.
         11    1    5    5    0    0  0.12625186682E+02  0.25283385239E+02  0.98262356647E+01  0.29919889961E+02  0.00000000000E+00 0. -1.
        -11    1    5    5    0    0  0.27384087845E+03  0.27386278619E+02 -0.32821456966E+02  0.27715714497E+03  0.00000000000E+00 0.  1.
          4    1    6    6  503    0 -0.54696456850E+03 -0.80111358789E+02 -0.19772089330E+03  0.58709592116E+03  0.00000000000E+00 0.  1.
         -4    1    6    6    0  503 -0.11995282699E+03 -0.40317754687E+02 -0.72291974760E+01  0.12675355357E+03  0.00000000000E+00 0. -1.
<mgrwt>
<rscale>  0 0.19696077E+04</rscale>
<asrwt>0</asrwt>
<pdfrwt beam="1">  1        1 0.35566135E+00 0.19696077E+04</pdfrwt>
<pdfrwt beam="2">  1       -2 0.64541056E-01 0.19696077E+04</pdfrwt>
<totfact> 0.33090465E+00</totfact>
</mgrwt>
</event>
<event>
12    4  0.4280696E-008  0.3461301E+04  0.7818608E-02  0.8123023E-01
         -4   -1    0    0    0  501 -0.00000000000E+00  0.00000000000E+00  0.18248546865E+04  0.18248546865E+04  0.00000000000E+00 0.  1.
          3   -1    0    0  501    0  0.00000000000E+00 -0.00000000000E+00 -0.16413093385E+04  0.16413093385E+04  0.00000000000E+00 0. -1.
        -24    2    1    2    0    0  0.12251901499E+04  0.82218582744E+03 -0.55875177863E+03  0.15797619355E+04  0.79773331479E+02 0.  0.
        254    2    1    2    0    0 -0.12251901499E+04 -0.82218582744E+03  0.74229712661E+03  0.18864020895E+04  0.91127788346E+03 0.  0.
         23    2    4    4    0    0 -0.11649800584E+04 -0.61526442854E+03  0.90492559370E+03  0.16009564100E+04  0.91881679005E+02 0.  0.
         23    2    4    4    0    0 -0.60210091505E+02 -0.20692139890E+03 -0.16262846708E+03  0.28544567957E+03  0.92679540538E+02 0.  0.
          3    1    3    3  502    0  0.43639788530E+03  0.29129244358E+03 -0.23973444370E+03  0.57685960639E+03  0.00000000000E+00 0. -1.
         -4    1    3    3    0  502  0.78879226465E+03  0.53089338386E+03 -0.31901733492E+03  0.10029023291E+04  0.00000000000E+00 0.  1.
         11    1    5    5    0    0 -0.11629985520E+04 -0.61081512694E+03  0.90624078662E+03  0.15959113743E+04  0.00000000000E+00 0.  1.
        -11    1    5    5    0    0 -0.19815063957E+01 -0.44493016035E+01 -0.13151929255E+01  0.50450356576E+01  0.00000000000E+00 0. -1.
          3    1    6    6  503    0 -0.52446508678E+01  0.81471385364E+01  0.90357852202E+00  0.97313248431E+01  0.00000000000E+00 0. -1.
         -3    1    6    6    0  503 -0.54965440638E+02 -0.21506853744E+03 -0.16353204561E+03  0.27571435472E+03  0.00000000000E+00 0.  1.
<mgrwt>
<rscale>  0 0.34613009E+04</rscale>
<asrwt>0</asrwt>
<pdfrwt beam="1">  1        3 0.25250913E+00 0.34613009E+04</pdfrwt>
<pdfrwt beam="2">  1       -4 0.28074688E+00 0.34613009E+04</pdfrwt>
<totfact> 0.54135009E-03</totfact>
</mgrwt>
</event>
<event>
12    4  0.4280696E-008  0.1357720E+04  0.7818608E-02  0.8985005E-01
         -2   -1    0    0    0  501 -0.00000000000E+00  0.00000000000E+00  0.13735944584E+03  0.13735944584E+03  0.00000000000E+00 0.  1.
          1   -1    0    0  501    0  0.00000000000E+00 -0.00000000000E+00 -0.33550732550E+04  0.33550732550E+04  0.00000000000E+00 0. -1.
        -24    2    1    2    0    0  0.36380527997E+03  0.16591724304E+02 -0.11078473305E+04  0.11702427163E+04  0.97533277480E+02 0.  0.
        254    2    1    2    0    0 -0.36380527997E+03 -0.16591724304E+02 -0.21098664786E+04  0.23221899846E+04  0.89911078273E+03 0.  0.
         23    2    4    4    0    0 -0.93268973018E+01  0.16366878758E+03 -0.14035202282E+02  0.18739893204E+03  0.89704569487E+02 0.  0.
         23    2    4    4    0    0 -0.35447838266E+03 -0.18026051188E+03 -0.20958312764E+04  0.21347910525E+04  0.81702649959E+02 0.  0.
          3    1    3    3  502    0  0.82861664148E+02  0.13996495408E+02 -0.39885429282E+03  0.40761097160E+03  0.00000000000E+00 0. -1.
         -2    1    3    3    0  502  0.28094361582E+03  0.25952288961E+01 -0.70899303770E+03  0.76263174468E+03  0.00000000000E+00 0.  1.
         11    1    5    5    0    0 -0.13392763394E+02  0.15219296182E+03  0.17323175359E+02  0.15376006030E+03  0.00000000000E+00 0. -1.
        -11    1    5    5    0    0  0.40658660920E+01  0.11475825760E+02 -0.31358377641E+02  0.33638871745E+02  0.00000000000E+00 0.  1.
          4    1    6    6  503    0 -0.23505321750E+03 -0.14767300899E+03 -0.15887138041E+04  0.16127829624E+04  0.00000000000E+00 0. -1.
         -4    1    6    6    0  503 -0.11942516517E+03 -0.32587502888E+02 -0.50711747231E+03  0.52200809011E+03  0.00000000000E+00 0.  1.
<mgrwt>
<rscale>  0 0.13577202E+04</rscale>
<asrwt>0</asrwt>
<pdfrwt beam="1">  1        1 0.51616509E+00 0.13577202E+04</pdfrwt>
<pdfrwt beam="2">  1       -2 0.21132223E-01 0.13577202E+04</pdfrwt>
<totfact> 0.54725196E+00</totfact>
</mgrwt>
</event>
<event>
12    4  0.4280696E-008  0.1833189E+04  0.7818608E-02  0.8688846E-01
          1   -1    0    0  501    0  0.00000000000E+00  0.00000000000E+00  0.20799950401E+04  0.20799950401E+04  0.00000000000E+00 0. -1.
         -2   -1    0    0    0  501 -0.00000000000E+00 -0.00000000000E+00 -0.40391712974E+03  0.40391712974E+03  0.00000000000E+00 0.  1.
        -24    2    1    2    0    0  0.29870011929E+03 -0.11354411821E+03 -0.19533683514E+03  0.38398087817E+03  0.84680621132E+02 0.  0.
        254    2    1    2    0    0 -0.29870011929E+03  0.11354411821E+03  0.18714147455E+04  0.20999312917E+04  0.89744317480E+03 0.  0.
         23    2    4    4    0    0 -0.28741800785E+03  0.30026543724E+03  0.31495887277E+03  0.52959810944E+03  0.92231350141E+02 0.  0.
         23    2    4    4    0    0 -0.11282111439E+02 -0.18672131903E+03  0.15564558728E+04  0.15703331822E+04  0.91647599081E+02 0.  0.
          1    1    3    3  502    0  0.14435769014E+03 -0.87310471377E+02 -0.13547903173E+03  0.21637196943E+03  0.00000000000E+00 0. -1.
         -2    1    3    3    0  502  0.15434242915E+03 -0.26233646838E+02 -0.59857803405E+02  0.16760890875E+03  0.00000000000E+00 0.  1.
         11    1    5    5    0    0 -0.94088762611E+02  0.44350685008E+02  0.93243820272E+02  0.13969283636E+03  0.00000000000E+00 0. -1.
        -11    1    5    5    0    0 -0.19332924524E+03  0.25591475223E+03  0.22171505250E+03  0.38990527309E+03  0.00000000000E+00 0.  1.
          4    1    6    6  503    0  0.31719414383E+02 -0.23570587613E+02  0.28025804111E+03  0.28303049917E+03  0.00000000000E+00 0. -1.
         -4    1    6    6    0  503 -0.43001525822E+02 -0.16315073141E+03  0.12761978316E+04  0.12873026831E+04  0.00000000000E+00 0.  1.
<mgrwt>
<rscale>  0 0.18331892E+04</rscale>
<asrwt>0</asrwt>
<pdfrwt beam="1">  1        1 0.31999923E+00 0.18331892E+04</pdfrwt>
<pdfrwt beam="2">  1       -2 0.62141098E-01 0.18331892E+04</pdfrwt>
<totfact> 0.52240571E+00</totfact>
</mgrwt>
</event>
<event>
12    4  0.4280696E-008  0.1487813E+04  0.7818608E-02  0.8892598E-01
         -2   -1    0    0    0  501 -0.00000000000E+00  0.00000000000E+00  0.47969938724E+03  0.47969938724E+03  0.00000000000E+00 0.  1.
          1   -1    0    0  501    0  0.00000000000E+00 -0.00000000000E+00 -0.11536319309E+04  0.11536319309E+04  0.00000000000E+00 0. -1.
        -24    2    1    2    0    0 -0.16002786635E+03 -0.34736956224E+03  0.72690112815E+02  0.39759085690E+03  0.80747174641E+02 0.  0.
        254    2    1    2    0    0  0.16002786635E+03  0.34736956224E+03 -0.74662265652E+03  0.12357404613E+04  0.90737785164E+03 0.  0.
         23    2    4    4    0    0 -0.26547282871E+03 -0.13268429548E+03 -0.38680299677E+03  0.49568537987E+03  0.89479005692E+02 0.  0.
         23    2    4    4    0    0  0.42550069505E+03  0.48005385771E+03 -0.35981965975E+03  0.74005508141E+03  0.81907192519E+02 0.  0.
          3    1    3    3  502    0 -0.16491333080E+02 -0.19579310682E+01  0.34418506596E+00  0.16610720159E+02  0.00000000000E+00 0. -1.
         -4    1    3    3    0  502 -0.14353653327E+03 -0.34541163117E+03  0.72345927749E+02  0.38098013674E+03  0.00000000000E+00 0.  1.
         11    1    5    5    0    0 -0.87680467950E+02 -0.25702104745E+02 -0.18452032382E+03  0.20590340587E+03  0.00000000000E+00 0. -1.
        -11    1    5    5    0    0 -0.17779236076E+03 -0.10698219073E+03 -0.20228267295E+03  0.28978197400E+03  0.00000000000E+00 0.  1.
          1    1    6    6  503    0  0.17062855518E+03  0.13485996449E+03 -0.11450209776E+03  0.24578861702E+03  0.00000000000E+00 0. -1.
         -1    1    6    6    0  503  0.25487213987E+03  0.34519389322E+03 -0.24531756199E+03  0.49426646439E+03  0.00000000000E+00 0.  1.
<mgrwt>
<rscale>  0 0.14878125E+04</rscale>
<asrwt>0</asrwt>
<pdfrwt beam="1">  1        1 0.17748183E+00 0.14878125E+04</pdfrwt>
<pdfrwt beam="2">  1       -2 0.73799906E-01 0.14878125E+04</pdfrwt>
<totfact> 0.16246257E+01</totfact>
</mgrwt>
</event>
<event>
12    4  0.4280696E-008  0.1255411E+04  0.7818608E-02  0.9065692E-01
         -2   -1    0    0    0  501 -0.00000000000E+00  0.00000000000E+00  0.46093978555E+03  0.46093978555E+03  0.00000000000E+00 0.  1.
          1   -1    0    0  501    0  0.00000000000E+00 -0.00000000000E+00 -0.85480563782E+03  0.85480563782E+03  0.00000000000E+00 0. -1.
        -24    2    1    2    0    0 -0.25804751851E+03 -0.11767450901E+03 -0.18521001974E+03  0.34709285535E+03  0.75729036307E+02 0.  0.
        254    2    1    2    0    0  0.25804751851E+03  0.11767450901E+03 -0.20865583253E+03  0.96865256802E+03  0.90239388805E+03 0.  0.
         23    2    4    4    0    0  0.63551893481E+02 -0.33046844257E+03 -0.30333783108E+03  0.46250993041E+03  0.93023444706E+02 0.  0.
         23    2    4    4    0    0  0.19449562503E+03  0.44814295158E+03  0.94681998545E+02  0.50614263760E+03  0.92493435132E+02 0.  0.
          1    1    3    3  502    0 -0.18986153766E+03 -0.93857317166E+02 -0.17378925351E+03  0.27396953135E+03  0.00000000000E+00 0. -1.
         -2    1    3    3    0  502 -0.68185980847E+02 -0.23817191848E+02 -0.11420766224E+02  0.73123324000E+02  0.00000000000E+00 0.  1.
         11    1    5    5    0    0  0.64101383167E+02 -0.10235756185E+03 -0.96587933513E+02  0.15464568113E+03  0.00000000000E+00 0.  1.
        -11    1    5    5    0    0 -0.54948968565E+00 -0.22811088072E+03 -0.20674989757E+03  0.30786424928E+03  0.00000000000E+00 0. -1.
          3    1    6    6  503    0  0.19632244184E+03  0.36936518158E+03  0.75751428217E+02  0.42510165538E+03  0.00000000000E+00 0. -1.
         -3    1    6    6    0  503 -0.18268168074E+01  0.78777770004E+02  0.18930570328E+02  0.81040982221E+02  0.00000000000E+00 0.  1.
<mgrwt>
<rscale>  0 0.12554106E+04</rscale>
<asrwt>0</asrwt>
<pdfrwt beam="1">  1        1 0.13150856E+00 0.12554106E+04</pdfrwt>
<pdfrwt beam="2">  1       -2 0.70913814E-01 0.12554106E+04</pdfrwt>
<totfact> 0.30974653E+01</totfact>
</mgrwt>
</event>
<event>
12    4  0.4280696E-008  0.2200830E+04  0.7818608E-02  0.8518083E-01
         -2   -1    0    0    0  501 -0.00000000000E+00  0.00000000000E+00  0.38422247311E+03  0.38422247311E+03  0.00000000000E+00 0.  1.
          1   -1    0    0  501    0  0.00000000000E+00 -0.00000000000E+00 -0.31515947193E+04  0.31515947193E+04  0.00000000000E+00 0. -1.
        -24    2    1    2    0    0 -0.28291485203E+02  0.90646883590E+03 -0.10893588442E+04  0.14198501448E+04  0.82374653440E+02 0.  0.
        254    2    1    2    0    0  0.28291485203E+02 -0.90646883590E+03 -0.16780134020E+04  0.21159670477E+04  0.91602478731E+03 0.  0.
         23    2    4    4    0    0  0.45877484126E+03 -0.53768589268E+03 -0.99118876268E+03  0.12207206082E+04  0.90128606941E+02 0.  0.
         23    2    4    4    0    0 -0.43048335606E+03 -0.36878294322E+03 -0.68682463931E+03  0.89524643950E+03  0.91767767890E+02 0.  0.
          3    1    3    3  502    0 -0.77269240834E+01  0.34203943136E+03 -0.47413227660E+03  0.58468118977E+03  0.00000000000E+00 0. -1.
         -4    1    3    3    0  502 -0.20564561120E+02  0.56442940454E+03 -0.61522656761E+03  0.83516895499E+03  0.00000000000E+00 0.  1.
         11    1    5    5    0    0  0.46227018634E+01  0.16598618915E+01 -0.19864933945E+02  0.20463140391E+02  0.00000000000E+00 0.  1.
        -11    1    5    5    0    0  0.45415213940E+03 -0.53934575457E+03 -0.97132382874E+03  0.12002574678E+04  0.00000000000E+00 0. -1.
          3    1    6    6  503    0 -0.32449112217E+03 -0.22304485193E+03 -0.45838669408E+03  0.60428623652E+03  0.00000000000E+00 0. -1.
         -3    1    6    6    0  503 -0.10599223389E+03 -0.14573809129E+03 -0.22843794523E+03  0.29096020298E+03  0.00000000000E+00 0.  1.
<mgrwt>
<rscale>  0 0.22008303E+04</rscale>
<asrwt>0</asrwt>
<pdfrwt beam="1">  1        1 0.48486071E+00 0.22008303E+04</pdfrwt>
<pdfrwt beam="2">  1       -2 0.59111151E-01 0.22008303E+04</pdfrwt>
<totfact> 0.99083962E-01</totfact>
</mgrwt>
</event>
<event>
12    4  0.4280696E-008  0.1400960E+04  0.7818608E-02  0.8953124E-01
         -2   -1    0    0    0  501 -0.00000000000E+00  0.00000000000E+00  0.25561967018E+03  0.25561967018E+03  0.00000000000E+00 0.  1.
          1   -1    0    0  501    0  0.00000000000E+00 -0.00000000000E+00 -0.19195407892E+04  0.19195407892E+04  0.00000000000E+00 0. -1.
        -24    2    1    2    0    0  0.19197895947E+03  0.33750272211E+03 -0.67112966870E+03  0.77949545826E+03  0.80213022160E+02 0.  0.
        254    2    1    2    0    0 -0.19197895947E+03 -0.33750272211E+03 -0.99279145032E+03  0.13956650011E+04  0.90082291447E+03 0.  0.
         23    2    4    4    0    0 -0.94150432534E+02  0.41630687395E+02  0.13549198162E+03  0.19750679316E+03  0.10026683490E+03 0.  0.
         23    2    4    4    0    0 -0.97828526938E+02 -0.37913340951E+03 -0.11282834319E+04  0.11981582080E+04  0.96161456170E+02 0.  0.
          3    1    3    3  502    0  0.18302710222E+03  0.32536444841E+03 -0.66613496595E+03  0.76360771165E+03  0.00000000000E+00 0. -1.
         -4    1    3    3    0  502  0.89518572515E+01  0.12138273697E+02 -0.49947027522E+01  0.15887746605E+02  0.00000000000E+00 0.  1.
         11    1    5    5    0    0 -0.47847816789E+01 -0.22601566404E+02  0.19761751038E+00  0.23103332927E+02  0.00000000000E+00 0. -1.
        -11    1    5    5    0    0 -0.89365650855E+02  0.64232253799E+02  0.13529436411E+03  0.17440346023E+03  0.00000000000E+00 0.  1.
          3    1    6    6  503    0  0.27379402562E+01 -0.11900492989E+03 -0.25484940680E+03  0.28127902481E+03  0.00000000000E+00 0. -1.
         -3    1    6    6    0  503 -0.10056646719E+03 -0.26012847961E+03 -0.87343402514E+03  0.91687918315E+03  0.00000000000E+00 0.  1.
<mgrwt>
<rscale>  0 0.14009602E+04</rscale>
<asrwt>0</asrwt>
<pdfrwt beam="1">  1        1 0.29531398E+00 0.14009602E+04</pdfrwt>
<pdfrwt beam="2">  1       -2 0.39326101E-01 0.14009602E+04</pdfrwt>
<totfact> 0.17695634E+01</totfact>
</mgrwt>
</event>
<event>
12    4  0.4280696E-008  0.1970439E+04  0.7818608E-02  0.8620568E-01
         -2   -1    0    0    0  501 -0.00000000000E+00  0.00000000000E+00  0.53804719410E+03  0.53804719410E+03  0.00000000000E+00 0.  1.
          1   -1    0    0  501    0  0.00000000000E+00 -0.00000000000E+00 -0.18040374217E+04  0.18040374217E+04  0.00000000000E+00 0. -1.
        -24    2    1    2    0    0 -0.16056148753E+03 -0.58110345864E+03  0.79056220734E+02  0.61334854875E+03  0.80531579467E+02 0.  0.
        254    2    1    2    0    0  0.16056148753E+03  0.58110345864E+03 -0.13450464483E+04  0.17287360670E+04  0.90328136280E+03 0.  0.
         23    2    4    4    0    0  0.35235192827E+03 -0.33257300643E+02 -0.21195414461E+03  0.42245509725E+03  0.91026481759E+02 0.  0.
         23    2    4    4    0    0 -0.19179044073E+03  0.61436075929E+03 -0.11330923037E+04  0.13062809698E+04  0.90824487657E+02 0.  0.
          3    1    3    3  502    0 -0.51135706381E+02 -0.11132585176E+03 -0.97201902155E+01  0.12289340029E+03  0.00000000000E+00 0. -1.
         -4    1    3    3    0  502 -0.10942578115E+03 -0.46977760688E+03  0.88776410949E+02  0.49045514846E+03  0.00000000000E+00 0.  1.
         11    1    5    5    0    0  0.33216230110E+03 -0.53408586842E+02 -0.20099487859E+03  0.39189694135E+03  0.00000000000E+00 0. -1.
        -11    1    5    5    0    0  0.20189627162E+02  0.20151286199E+02 -0.10959266016E+02  0.30558155900E+02  0.00000000000E+00 0.  1.
          1    1    6    6  503    0 -0.89741731333E+02  0.33949341361E+03 -0.70202023827E+03  0.78494698621E+03  0.00000000000E+00 0. -1.
         -1    1    6    6    0  503 -0.10204870940E+03  0.27486734568E+03 -0.43107206543E+03  0.52133398355E+03  0.00000000000E+00 0.  1.
<mgrwt>
<rscale>  0 0.19704388E+04</rscale>
<asrwt>0</asrwt>
<pdfrwt beam="1">  1        1 0.27754422E+00 0.19704388E+04</pdfrwt>
<pdfrwt beam="2">  1       -2 0.82776492E-01 0.19704388E+04</pdfrwt>
<totfact> 0.42303924E+00</totfact>
</mgrwt>
</event>
<event>
12    4  0.4280696E-008  0.2493381E+04  0.7818608E-02  0.8405347E-01
          1   -1    0    0  501    0  0.00000000000E+00  0.00000000000E+00  0.11981413112E+04  0.11981413112E+04  0.00000000000E+00 0. -1.
         -2   -1    0    0    0  501 -0.00000000000E+00 -0.00000000000E+00 -0.12972074094E+04  0.12972074094E+04  0.00000000000E+00 0.  1.
        -24    2    1    2    0    0 -0.86260220164E+03 -0.65236901774E+03 -0.10380176727E+01  0.10844393030E+04  0.79621799262E+02 0.  0.
        254    2    1    2    0    0  0.86260220164E+03  0.65236901774E+03 -0.98028080535E+02  0.14109094175E+04  0.90077077341E+03 0.  0.
         23    2    4    4    0    0  0.45102287949E+03  0.24476036955E+03  0.38759275350E+03  0.64960458442E+03  0.91807936490E+02 0.  0.
         23    2    4    4    0    0  0.41157932215E+03  0.40760864818E+03 -0.48562083404E+03  0.76130483308E+03  0.90637221482E+02 0.  0.
          1    1    3    3  502    0 -0.50029170432E+03 -0.41081715483E+03  0.28605041427E+02  0.64798207731E+03  0.00000000000E+00 0. -1.
         -2    1    3    3    0  502 -0.36231049731E+03 -0.24155186290E+03 -0.29643059100E+02  0.43645722573E+03  0.00000000000E+00 0.  1.
         11    1    5    5    0    0  0.41048874510E+03  0.23814238326E+03  0.32666796251E+03  0.57612911946E+03  0.00000000000E+00 0.  1.
        -11    1    5    5    0    0  0.40534134385E+02  0.66179862930E+01  0.60924790993E+02  0.73475464956E+02  0.00000000000E+00 0. -1.
          3    1    6    6  503    0  0.22372956815E+00  0.17401029304E+02 -0.26668901767E+02  0.31844563072E+02  0.00000000000E+00 0. -1.
         -3    1    6    6    0  503  0.41135559258E+03  0.39020761888E+03 -0.45895193227E+03  0.72946027001E+03  0.00000000000E+00 0.  1.
<mgrwt>
<rscale>  0 0.24933815E+04</rscale>
<asrwt>0</asrwt>
<pdfrwt beam="1">  1        1 0.18432943E+00 0.24933815E+04</pdfrwt>
<pdfrwt beam="2">  1       -2 0.19957037E+00 0.24933815E+04</pdfrwt>
<totfact> 0.11191877E+00</totfact>
</mgrwt>
</event>
<event>
12    4  0.4280696E-008  0.1275607E+04  0.7818608E-02  0.9049136E-01
          1   -1    0    0  501    0  0.00000000000E+00  0.00000000000E+00  0.14622415425E+04  0.14622415425E+04  0.00000000000E+00 0. -1.
         -2   -1    0    0    0  501 -0.00000000000E+00 -0.00000000000E+00 -0.27819841550E+03  0.27819841550E+03  0.00000000000E+00 0.  1.
        -24    2    1    2    0    0 -0.12997370683E+03  0.23346824901E+03  0.70542759327E+02  0.28791601692E+03  0.80738863883E+02 0.  0.
        254    2    1    2    0    0  0.12997370683E+03 -0.23346824901E+03  0.11135003676E+04  0.14525239410E+04  0.89361185243E+03 0.  0.
         23    2    4    4    0    0  0.35681020026E+03 -0.36608972478E+03  0.31573859926E+03  0.60773016626E+03  0.91158577870E+02 0.  0.
         23    2    4    4    0    0 -0.22683649343E+03  0.13262147577E+03  0.79776176837E+03  0.84479377478E+03  0.90605917246E+02 0.  0.
          3    1    3    3  502    0 -0.50014504801E+02  0.16400629630E+03  0.59192017835E+02  0.18139242237E+03  0.00000000000E+00 0. -1.
         -4    1    3    3    0  502 -0.79959202031E+02  0.69461952707E+02  0.11350741493E+02  0.10652359455E+03  0.00000000000E+00 0.  1.
         11    1    5    5    0    0  0.30847606799E+02 -0.19287902412E+02  0.52397047601E+02  0.63789094851E+02  0.00000000000E+00 0.  1.
        -11    1    5    5    0    0  0.32596259346E+03 -0.34680182237E+03  0.26334155166E+03  0.54394107141E+03  0.00000000000E+00 0. -1.
          3    1    6    6  503    0 -0.17487527788E+03  0.14167848884E+03  0.63576128664E+03  0.67442313914E+03  0.00000000000E+00 0. -1.
         -3    1    6    6    0  503 -0.51961215550E+02 -0.90570130688E+01  0.16200048173E+03  0.17037063564E+03  0.00000000000E+00 0.  1.
<mgrwt>
<rscale>  0 0.12756070E+04</rscale>
<asrwt>0</asrwt>
<pdfrwt beam="1">  1        1 0.22496023E+00 0.12756070E+04</pdfrwt>
<pdfrwt beam="2">  1       -2 0.42799757E-01 0.12756070E+04</pdfrwt>
<totfact> 0.31058468E+01</totfact>
</mgrwt>
</event>
<event>
12    4  0.4280696E-008  0.2168787E+04  0.7818608E-02  0.8531533E-01
          1   -1    0    0  501    0  0.00000000000E+00  0.00000000000E+00  0.47609333430E+04  0.47609333430E+04  0.00000000000E+00 0. -1.
         -2   -1    0    0    0  501 -0.00000000000E+00 -0.00000000000E+00 -0.24699134603E+03  0.24699134603E+03  0.00000000000E+00 0.  1.
        -24    2    1    2    0    0  0.41528279552E+03  0.37768109747E+03  0.26119700835E+03  0.62374219542E+03  0.75681157065E+02 0.  0.
        254    2    1    2    0    0 -0.41528279552E+03 -0.37768109747E+03  0.42527449887E+04  0.43841824936E+04  0.90560111936E+03 0.  0.
         23    2    4    4    0    0  0.17470390635E+03 -0.22914075865E+03  0.52226061754E+03  0.60331257869E+03  0.90570264452E+02 0.  0.
         23    2    4    4    0    0 -0.58998670187E+03 -0.14854033882E+03  0.37304843711E+04  0.37808699150E+04  0.91187334711E+02 0.  0.
          1    1    3    3  502    0  0.22227976072E+03  0.18523895315E+03  0.95133891787E+02  0.30458532327E+03  0.00000000000E+00 0. -1.
         -2    1    3    3    0  502  0.19300303480E+03  0.19244214432E+03  0.16606311657E+03  0.31915687215E+03  0.00000000000E+00 0.  1.
         11    1    5    5    0    0  0.41972004983E+02 -0.12516873594E+03  0.20066014353E+03  0.24019441055E+03  0.00000000000E+00 0. -1.
        -11    1    5    5    0    0  0.13273190137E+03 -0.10397202271E+03  0.32160047402E+03  0.36311816814E+03  0.00000000000E+00 0.  1.
          4    1    6    6  503    0 -0.51576687331E+03 -0.10841056104E+03  0.30537693677E+04  0.30989152406E+04  0.00000000000E+00 0.  1.
         -4    1    6    6    0  503 -0.74219828555E+02 -0.40129777778E+02  0.67671500342E+03  0.68195467435E+03  0.00000000000E+00 0. -1.
<mgrwt>
<rscale>  0 0.21687871E+04</rscale>
<asrwt>0</asrwt>
<pdfrwt beam="1">  1        1 0.73245122E+00 0.21687871E+04</pdfrwt>
<pdfrwt beam="2">  1       -2 0.37998672E-01 0.21687871E+04</pdfrwt>
<totfact> 0.89474151E-02</totfact>
</mgrwt>
</event>
<event>
12    4  0.4280696E-008  0.1498626E+04  0.7818608E-02  0.8885367E-01
          1   -1    0    0  501    0  0.00000000000E+00  0.00000000000E+00  0.26578590435E+04  0.26578590435E+04  0.00000000000E+00 0. -1.
         -2   -1    0    0    0  501 -0.00000000000E+00 -0.00000000000E+00 -0.21124885289E+03  0.21124885289E+03  0.00000000000E+00 0.  1.
        -24    2    1    2    0    0 -0.93214141514E+02  0.34199016907E+03  0.17771305180E+03  0.40449874153E+03  0.79944675867E+02 0.  0.
        254    2    1    2    0    0  0.93214141514E+02 -0.34199016907E+03  0.22688971388E+04  0.24646091549E+04  0.89485077406E+03 0.  0.
         23    2    4    4    0    0 -0.36365609863E+02 -0.67089552353E+02 -0.46811669233E+02  0.12732244932E+03  0.90532911749E+02 0.  0.
         23    2    4    4    0    0  0.12957975138E+03 -0.27490061672E+03  0.23157088081E+04  0.23372867056E+04  0.89669388362E+02 0.  0.
          1    1    3    3  502    0 -0.23154129405E+02  0.12170973259E+02  0.14220146737E+02  0.29773459184E+02  0.00000000000E+00 0. -1.
         -2    1    3    3    0  502 -0.70060012109E+02  0.32981919581E+03  0.16349290507E+03  0.37472528235E+03  0.00000000000E+00 0.  1.
         11    1    5    5    0    0 -0.11043144185E+00  0.21519073842E+02 -0.19904968361E+01  0.21611219581E+02  0.00000000000E+00 0. -1.
        -11    1    5    5    0    0 -0.36255178421E+02 -0.88608626196E+02 -0.44821172397E+02  0.10571122974E+03  0.00000000000E+00 0.  1.
          4    1    6    6  503    0  0.83723005857E+01 -0.68812960440E+02  0.78045821366E+03  0.78353069003E+03  0.00000000000E+00 0. -1.
         -4    1    6    6    0  503  0.12120745079E+03 -0.20608765628E+03  0.15352505944E+04  0.15537560155E+04  0.00000000000E+00 0.  1.
<mgrwt>
<rscale>  0 0.14986256E+04</rscale>
<asrwt>0</asrwt>
<pdfrwt beam="1">  1        1 0.40890137E+00 0.14986256E+04</pdfrwt>
<pdfrwt beam="2">  1       -2 0.32499825E-01 0.14986256E+04</pdfrwt>
<totfact> 0.79040510E+00</totfact>
</mgrwt>
</event>
<event>
12    4  0.4280696E-008  0.1613664E+04  0.7818608E-02  0.8812198E-01
          1   -1    0    0  501    0  0.00000000000E+00  0.00000000000E+00  0.60591476363E+03  0.60591476363E+03  0.00000000000E+00 0. -1.
         -2   -1    0    0    0  501 -0.00000000000E+00 -0.00000000000E+00 -0.10743715461E+04  0.10743715461E+04  0.00000000000E+00 0.  1.
        -24    2    1    2    0    0  0.52904328802E+03 -0.21834549435E+03 -0.28538763679E+03  0.64456099918E+03  0.80319505287E+02 0.  0.
        254    2    1    2    0    0 -0.52904328802E+03  0.21834549435E+03 -0.18306914564E+03  0.10357253105E+04  0.84359412708E+03 0.  0.
         23    2    4    4    0    0 -0.37771661775E+03 -0.16424827508E+03 -0.38234944866E+03  0.56975188905E+03  0.93695117255E+02 0.  0.
         23    2    4    4    0    0 -0.15132667027E+03  0.38259376943E+03  0.19928030301E+03  0.46597342146E+03  0.90226585872E+02 0.  0.
          3    1    3    3  502    0  0.53171603220E+03 -0.21920162752E+03 -0.28381917843E+03  0.64134594288E+03  0.00000000000E+00 0. -1.
         -4    1    3    3    0  502 -0.26727441739E+01  0.85613316618E+00 -0.15684583591E+01  0.32150563046E+01  0.00000000000E+00 0.  1.
         11    1    5    5    0    0 -0.30583363728E+03 -0.16245010028E+03 -0.28366558623E+03  0.44764987835E+03  0.00000000000E+00 0. -1.
        -11    1    5    5    0    0 -0.71882980465E+02 -0.17981747941E+01 -0.98683862427E+02  0.12210201070E+03  0.00000000000E+00 0.  1.
          1    1    6    6  503    0 -0.61184506669E+02  0.11836929110E+03  0.21432897958E+02  0.13496000165E+03  0.00000000000E+00 0. -1.
         -1    1    6    6    0  503 -0.90142163604E+02  0.26422447833E+03  0.17784740506E+03  0.33101341981E+03  0.00000000000E+00 0.  1.
<mgrwt>
<rscale>  0 0.16136636E+04</rscale>
<asrwt>0</asrwt>
<pdfrwt beam="1">  1        1 0.93217657E-01 0.16136636E+04</pdfrwt>
<pdfrwt beam="2">  1       -2 0.16528793E+00 0.16136636E+04</pdfrwt>
<totfact> 0.65207660E+00</totfact>
</mgrwt>
</event>
<event>
12    4  0.4280696E-008  0.3485075E+04  0.7818608E-02  0.8117336E-01
         -2   -1    0    0    0  501 -0.00000000000E+00  0.00000000000E+00  0.12497847283E+04  0.12497847283E+04  0.00000000000E+00 0.  1.
          1   -1    0    0  501    0  0.00000000000E+00 -0.00000000000E+00 -0.24295680773E+04  0.24295680773E+04  0.00000000000E+00 0. -1.
        -24    2    1    2    0    0  0.13685866502E+04 -0.76924765646E+03 -0.96585940576E+03  0.18449859683E+04  0.79482421346E+02 0.  0.
        254    2    1    2    0    0 -0.13685866502E+04  0.76924765646E+03 -0.21392394327E+03  0.18343668374E+04  0.92431967654E+03 0.  0.
         23    2    4    4    0    0 -0.97085873304E+03  0.82371855237E+03 -0.45643097939E+03  0.13556626794E+04  0.91723106522E+02 0.  0.
         23    2    4    4    0    0 -0.39772791718E+03 -0.54470895913E+02  0.24250703612E+03  0.47870415800E+03  0.95882395216E+02 0.  0.
          1    1    3    3  502    0  0.11374472272E+03 -0.43556441459E+02 -0.88814858030E+02  0.15074184736E+03  0.00000000000E+00 0. -1.
         -2    1    3    3    0  502  0.12548419275E+04 -0.72569121500E+03 -0.87704454773E+03  0.16942441209E+04  0.00000000000E+00 0.  1.
         11    1    5    5    0    0 -0.61736959029E+03  0.58051740337E+03 -0.30041533131E+03  0.89910791228E+03  0.00000000000E+00 0.  1.
        -11    1    5    5    0    0 -0.35348914275E+03  0.24320114900E+03 -0.15601564808E+03  0.45655476710E+03  0.00000000000E+00 0. -1.
          3    1    6    6  503    0 -0.97508242105E+02  0.25671940200E+02  0.75260983482E+02  0.12582178439E+03  0.00000000000E+00 0. -1.
         -3    1    6    6    0  503 -0.30021967508E+03 -0.80142836113E+02  0.16724605264E+03  0.35288237362E+03  0.00000000000E+00 0.  1.
<mgrwt>
<rscale>  0 0.34850751E+04</rscale>
<asrwt>0</asrwt>
<pdfrwt beam="1">  1        1 0.37377970E+00 0.34850751E+04</pdfrwt>
<pdfrwt beam="2">  1       -2 0.19227458E+00 0.34850751E+04</pdfrwt>
<totfact> 0.16302245E-01</totfact>
</mgrwt>
</event>
<event>
12    4  0.4280696E-008  0.2241313E+04  0.7818608E-02  0.8501427E-01
          1   -1    0    0  501    0  0.00000000000E+00  0.00000000000E+00  0.13895130290E+04  0.13895130290E+04  0.00000000000E+00 0. -1.
         -2   -1    0    0    0  501 -0.00000000000E+00 -0.00000000000E+00 -0.90382082974E+03  0.90382082974E+03  0.00000000000E+00 0.  1.
        -24    2    1    2    0    0 -0.59878152392E+03 -0.52333689029E+03 -0.30429955263E+03  0.85531820213E+03  0.80933275178E+02 0.  0.
        254    2    1    2    0    0  0.59878152392E+03  0.52333689029E+03  0.78999175192E+03  0.14380156566E+04  0.90076703231E+03 0.  0.
         23    2    4    4    0    0  0.58602486524E+03  0.48367750882E+02  0.11104833625E+03  0.60451350010E+03  0.85675298715E+02 0.  0.
         23    2    4    4    0    0  0.12756658683E+02  0.47496913940E+03  0.67894341568E+03  0.83350215654E+03  0.89460983338E+02 0.  0.
          3    1    3    3  502    0 -0.16397508984E+03 -0.18787951180E+03 -0.77260042211E+02  0.26106638076E+03  0.00000000000E+00 0. -1.
         -4    1    3    3    0  502 -0.43480643409E+03 -0.33545737848E+03 -0.22703951042E+03  0.59425182136E+03  0.00000000000E+00 0.  1.
         11    1    5    5    0    0  0.20235283300E+03 -0.24058279538E+02  0.38256574036E+02  0.20733797359E+03  0.00000000000E+00 0.  1.
        -11    1    5    5    0    0  0.38367203224E+03  0.72426030420E+02  0.72791762210E+02  0.39717552650E+03  0.00000000000E+00 0. -1.
          3    1    6    6  503    0  0.10305204512E+02  0.47847185653E+03  0.67619024169E+03  0.82841701919E+03  0.00000000000E+00 0. -1.
         -3    1    6    6    0  503  0.24514541703E+01 -0.35027171293E+01  0.27531739913E+01  0.50851373495E+01  0.00000000000E+00 0.  1.
<mgrwt>
<rscale>  0 0.22413128E+04</rscale>
<asrwt>0</asrwt>
<pdfrwt beam="1">  1        1 0.21377124E+00 0.22413128E+04</pdfrwt>
<pdfrwt beam="2">  1       -2 0.13904936E+00 0.22413128E+04</pdfrwt>
<totfact> 0.22780478E+00</totfact>
</mgrwt>
</event>
<event>
12    4  0.4280696E-008  0.1358831E+04  0.7818608E-02  0.8984170E-01
         -2   -1    0    0    0  501 -0.00000000000E+00  0.00000000000E+00  0.18526165394E+03  0.18526165394E+03  0.00000000000E+00 0.  1.
          1   -1    0    0  501    0  0.00000000000E+00 -0.00000000000E+00 -0.24916392121E+04  0.24916392121E+04  0.00000000000E+00 0. -1.
        -24    2    1    2    0    0  0.28069898465E+03  0.85848602780E+02 -0.19556379462E+03  0.36166521781E+03  0.79966426836E+02 0.  0.
        254    2    1    2    0    0 -0.28069898465E+03 -0.85848602780E+02 -0.21108137635E+04  0.23152356482E+04  0.90477591698E+03 0.  0.
         23    2    4    4    0    0 -0.13299450038E+03 -0.22258386098E+03 -0.20718827289E+04  0.20899622142E+04  0.89514816156E+02 0.  0.
         23    2    4    4    0    0 -0.14770448428E+03  0.13673525820E+03 -0.38931034638E+02  0.22527343401E+03  0.93377454991E+02 0.  0.
          1    1    3    3  502    0 -0.18687222716E+01 -0.22776379355E+01 -0.14258166229E+02  0.14559363369E+02  0.00000000000E+00 0. -1.
         -2    1    3    3    0  502  0.28256770693E+03  0.88126240715E+02 -0.18130562839E+03  0.34710585444E+03  0.00000000000E+00 0.  1.
         11    1    5    5    0    0 -0.12559052448E+03 -0.18160888073E+03 -0.19135008601E+04  0.19261984080E+04  0.00000000000E+00 0.  1.
        -11    1    5    5    0    0 -0.74039758924E+01 -0.40974980251E+02 -0.15838186878E+03  0.16376380621E+03  0.00000000000E+00 0. -1.
          1    1    6    6  503    0 -0.55914018956E+02  0.38820362801E+02 -0.58360648791E+02  0.89662497239E+02  0.00000000000E+00 0. -1.
         -1    1    6    6    0  503 -0.91790465323E+02  0.97914895396E+02  0.19429614154E+02  0.13561093677E+03  0.00000000000E+00 0.  1.
<mgrwt>
<rscale>  0 0.13588307E+04</rscale>
<asrwt>0</asrwt>
<pdfrwt beam="1">  1        1 0.38332910E+00 0.13588307E+04</pdfrwt>
<pdfrwt beam="2">  1       -2 0.28501794E-01 0.13588307E+04</pdfrwt>
<totfact> 0.13352800E+01</totfact>
</mgrwt>
</event>
<event>
12    4  0.4280696E-008  0.1445854E+04  0.7818608E-02  0.8921280E-01
         -2   -1    0    0    0  501 -0.00000000000E+00  0.00000000000E+00  0.83108230269E+03  0.83108230269E+03  0.00000000000E+00 0.  1.
          1   -1    0    0  501    0  0.00000000000E+00 -0.00000000000E+00 -0.62884666142E+03  0.62884666142E+03  0.00000000000E+00 0. -1.
        -24    2    1    2    0    0 -0.15629801310E+03  0.15188557570E+03 -0.32621231687E+03  0.40094233675E+03  0.82716290531E+02 0.  0.
        254    2    1    2    0    0  0.15629801310E+03 -0.15188557570E+03  0.52844795813E+03  0.10589866274E+04  0.89145787083E+03 0.  0.
         23    2    4    4    0    0  0.45749883380E+03  0.53030426941E+02  0.49510952348E+03  0.68228053367E+03  0.90861858215E+02 0.  0.
         23    2    4    4    0    0 -0.30120082070E+03 -0.20491600264E+03  0.33338434649E+02  0.37670609369E+03  0.89908438268E+02 0.  0.
          1    1    3    3  502    0 -0.94094779830E+02  0.10926397217E+03 -0.27270929731E+03  0.30848469013E+03  0.00000000000E+00 0. -1.
         -2    1    3    3    0  502 -0.62203233268E+02  0.42621603532E+02 -0.53503019551E+02  0.92457646616E+02  0.00000000000E+00 0.  1.
         11    1    5    5    0    0  0.19008051667E+03  0.65186057157E+02  0.23209141084E+03  0.30699551764E+03  0.00000000000E+00 0.  1.
        -11    1    5    5    0    0  0.26741831712E+03 -0.12155630217E+02  0.26301811264E+03  0.37528501603E+03  0.00000000000E+00 0. -1.
          2    1    6    6  503    0 -0.29163011349E+03 -0.16863208772E+03  0.37477887736E+02  0.33895353100E+03  0.00000000000E+00 0. -1.
         -2    1    6    6    0  503 -0.95707072049E+01 -0.36283914917E+02 -0.41394530866E+01  0.37752562694E+02  0.00000000000E+00 0.  1.
<mgrwt>
<rscale>  0 0.14458538E+04</rscale>
<asrwt>0</asrwt>
<pdfrwt beam="1">  1        1 0.96745640E-01 0.14458538E+04</pdfrwt>
<pdfrwt beam="2">  1       -2 0.12785882E+00 0.14458538E+04</pdfrwt>
<totfact> 0.12313296E+01</totfact>
</mgrwt>
</event>
<event>
12    4  0.4280696E-008  0.2098584E+04  0.7818608E-02  0.8561867E-01
          1   -1    0    0  501    0  0.00000000000E+00  0.00000000000E+00  0.26426919848E+04  0.26426919848E+04  0.00000000000E+00 0. -1.
         -4   -1    0    0    0  501 -0.00000000000E+00 -0.00000000000E+00 -0.41662591548E+03  0.41662591548E+03  0.00000000000E+00 0.  1.
        -24    2    1    2    0    0 -0.43591667295E+03  0.58132646249E+03  0.26033369611E+03  0.77636390119E+03  0.83686749204E+02 0.  0.
        254    2    1    2    0    0  0.43591667295E+03 -0.58132646249E+03  0.19657323732E+04  0.22829539991E+04  0.90543436935E+03 0.  0.
         23    2    4    4    0    0 -0.11618661278E+03  0.16103776451E+03  0.52522017870E+03  0.56857506131E+03  0.89380499261E+02 0.  0.
         23    2    4    4    0    0  0.55210328573E+03 -0.74236422700E+03  0.14405121945E+04  0.17143789378E+04  0.89983754997E+02 0.  0.
          3    1    3    3  502    0 -0.11729518380E+03  0.20699335610E+03  0.58753231434E+02  0.24506397495E+03  0.00000000000E+00 0. -1.
         -4    1    3    3    0  502 -0.31862148915E+03  0.37433310639E+03  0.20158046468E+03  0.53129992624E+03  0.00000000000E+00 0.  1.
         11    1    5    5    0    0  0.92869999923E+01  0.93363767755E+01  0.89252412397E+02  0.90218675554E+02  0.00000000000E+00 0. -1.
        -11    1    5    5    0    0 -0.12547361277E+03  0.15170138774E+03  0.43596776630E+03  0.47835638576E+03  0.00000000000E+00 0.  1.
          3    1    6    6  503    0  0.55271359677E+02 -0.41989594665E+02  0.84632792843E+02  0.10945665300E+03  0.00000000000E+00 0. -1.
         -3    1    6    6    0  503  0.49683192605E+03 -0.70037463234E+03  0.13558794017E+04  0.16049222848E+04  0.00000000000E+00 0.  1.
<mgrwt>
<rscale>  0 0.20985843E+04</rscale>
<asrwt>0</asrwt>
<pdfrwt beam="1">  1        1 0.40656799E+00 0.20985843E+04</pdfrwt>
<pdfrwt beam="2">  1       -4 0.64096296E-01 0.20985843E+04</pdfrwt>
<totfact> 0.11161881E+00</totfact>
</mgrwt>
</event>
<event>
12    4  0.4280696E-008  0.2083022E+04  0.7818608E-02  0.8568759E-01
          1   -1    0    0  501    0  0.00000000000E+00  0.00000000000E+00  0.28181890014E+04  0.28181890014E+04  0.00000000000E+00 0. -1.
         -2   -1    0    0    0  501 -0.00000000000E+00 -0.00000000000E+00 -0.38490876973E+03  0.38490876973E+03  0.00000000000E+00 0.  1.
        -24    2    1    2    0    0 -0.60601052272E+03  0.10447061915E+03  0.18796018509E+04  0.19791757974E+04  0.77915693991E+02 0.  0.
        254    2    1    2    0    0  0.60601052272E+03 -0.10447061915E+03  0.55367838081E+03  0.12239219737E+04  0.90181061451E+03 0.  0.
         23    2    4    4    0    0  0.56878137755E+03  0.15830348094E+03 -0.77375097194E+01  0.59744461853E+03  0.91147987480E+02 0.  0.
         23    2    4    4    0    0  0.37229145170E+02 -0.26277410009E+03  0.56141589053E+03  0.62647735518E+03  0.82763745066E+02 0.  0.
          3    1    3    3  502    0 -0.49692043847E+03  0.77298667351E+02  0.14345584511E+04  0.15201522805E+04  0.00000000000E+00 0. -1.
         -4    1    3    3    0  502 -0.10909008426E+03  0.27171951799E+02  0.44504339980E+03  0.45902351699E+03  0.00000000000E+00 0.  1.
         11    1    5    5    0    0  0.53781825375E+03  0.16992260057E+03 -0.29677335665E+01  0.56403100242E+03  0.00000000000E+00 0.  1.
        -11    1    5    5    0    0  0.30963123803E+02 -0.11619119631E+02 -0.47697761530E+01  0.33413616104E+02  0.00000000000E+00 0. -1.
          1    1    6    6  503    0  0.16290654454E+02 -0.47694545519E+01  0.19105174107E+02  0.25556619435E+02  0.00000000000E+00 0. -1.
         -1    1    6    6    0  503  0.20938490716E+02 -0.25800464553E+03  0.54231071642E+03  0.60092073575E+03  0.00000000000E+00 0.  1.
<mgrwt>
<rscale>  0 0.20830225E+04</rscale>
<asrwt>0</asrwt>
<pdfrwt beam="1">  1        1 0.43356753E+00 0.20830225E+04</pdfrwt>
<pdfrwt beam="2">  1       -2 0.59216735E-01 0.20830225E+04</pdfrwt>
<totfact> 0.17446586E+00</totfact>
</mgrwt>
</event>
<event>
12    4  0.4280696E-008  0.1415330E+04  0.7818608E-02  0.8942796E-01
         -2   -1    0    0    0  501 -0.00000000000E+00  0.00000000000E+00  0.20727512766E+03  0.20727512766E+03  0.00000000000E+00 0.  1.
          1   -1    0    0  501    0  0.00000000000E+00 -0.00000000000E+00 -0.24160615639E+04  0.24160615639E+04  0.00000000000E+00 0. -1.
        -24    2    1    2    0    0 -0.12053682780E+03 -0.15804255744E+03 -0.13941911782E+04  0.14106060895E+04  0.80832676165E+02 0.  0.
        254    2    1    2    0    0  0.12053682780E+03  0.15804255744E+03 -0.81459525796E+03  0.12127306020E+04  0.87615267043E+03 0.  0.
         23    2    4    4    0    0 -0.25098160831E+03 -0.21152694865E+03 -0.17902966155E+03  0.38372050405E+03  0.86338796596E+02 0.  0.
         23    2    4    4    0    0  0.37151843611E+03  0.36956950609E+03 -0.63556559641E+03  0.82901009795E+03  0.93308879324E+02 0.  0.
          1    1    3    3  502    0 -0.12989167341E+03 -0.15456100331E+03 -0.12629009472E+04  0.12789369621E+04  0.00000000000E+00 0. -1.
         -2    1    3    3    0  502  0.93548456098E+01 -0.34815541261E+01 -0.13129023098E+03  0.13166912738E+03  0.00000000000E+00 0.  1.
         11    1    5    5    0    0 -0.17010719547E+03 -0.18878570964E+03 -0.14854082932E+03  0.29434822930E+03  0.00000000000E+00 0. -1.
        -11    1    5    5    0    0 -0.80874412836E+02 -0.22741239013E+02 -0.30488832227E+02  0.89372274750E+02  0.00000000000E+00 0.  1.
          2    1    6    6  503    0  0.10055651178E+03  0.13576376735E+03 -0.26136245069E+03  0.31121334036E+03  0.00000000000E+00 0. -1.
         -2    1    6    6    0  503  0.27096192433E+03  0.23380573874E+03 -0.37420314572E+03  0.51779675759E+03  0.00000000000E+00 0.  1.
<mgrwt>
<rscale>  0 0.14153296E+04</rscale>
<asrwt>0</asrwt>
<pdfrwt beam="1">  1        1 0.37170181E+00 0.14153296E+04</pdfrwt>
<pdfrwt beam="2">  1       -2 0.31888479E-01 0.14153296E+04</pdfrwt>
<totfact> 0.12143601E+01</totfact>
</mgrwt>
</event>
<event>
12    4  0.4280696E-008  0.2225915E+04  0.7818608E-02  0.8507718E-01
          1   -1    0    0  501    0  0.00000000000E+00  0.00000000000E+00  0.13713566655E+04  0.13713566655E+04  0.00000000000E+00 0. -1.
         -2   -1    0    0    0  501 -0.00000000000E+00 -0.00000000000E+00 -0.90324780287E+03  0.90324780287E+03  0.00000000000E+00 0.  1.
        -24    2    1    2    0    0  0.53075131890E+03  0.21559413093E+03 -0.55151372644E+03  0.79907804668E+03  0.78616425896E+02 0.  0.
        254    2    1    2    0    0 -0.53075131890E+03 -0.21559413093E+03  0.10196225890E+04  0.14755264217E+04  0.89965004592E+03 0.  0.
         23    2    4    4    0    0 -0.25271620673E+03 -0.30788204266E+03 -0.20803877322E+01  0.40869607189E+03  0.91494906017E+02 0.  0.
         23    2    4    4    0    0 -0.27803511217E+03  0.92287911726E+02  0.10217029768E+04  0.10668303498E+04  0.91811982886E+02 0.  0.
          1    1    3    3  502    0  0.24898113145E+02  0.30281313588E+02 -0.44207980681E+02  0.59086542856E+02  0.00000000000E+00 0. -1.
         -2    1    3    3    0  502  0.50585320576E+03  0.18531281735E+03 -0.50730574576E+03  0.73999150382E+03  0.00000000000E+00 0.  1.
         11    1    5    5    0    0 -0.13363603471E+03 -0.92418765025E+02  0.16257426053E+01  0.16248834094E+03  0.00000000000E+00 0. -1.
        -11    1    5    5    0    0 -0.11908017202E+03 -0.21546327764E+03 -0.37061303375E+01  0.24620773095E+03  0.00000000000E+00 0.  1.
          4    1    6    6  503    0 -0.20774088256E+03  0.75212734491E+02  0.60905574796E+03  0.64789052613E+03  0.00000000000E+00 0.  1.
         -4    1    6    6    0  503 -0.70294229613E+02  0.17075177234E+02  0.41264722881E+03  0.41893982365E+03  0.00000000000E+00 0. -1.
<mgrwt>
<rscale>  0 0.22259154E+04</rscale>
<asrwt>0</asrwt>
<pdfrwt beam="1">  1        1 0.21097795E+00 0.22259154E+04</pdfrwt>
<pdfrwt beam="2">  1       -2 0.13896120E+00 0.22259154E+04</pdfrwt>
<totfact> 0.23530876E+00</totfact>
</mgrwt>
</event>
<event>
12    4  0.4280696E-008  0.2006061E+04  0.7818608E-02  0.8603792E-01
          1   -1    0    0  501    0  0.00000000000E+00  0.00000000000E+00  0.15959841589E+04  0.15959841589E+04  0.00000000000E+00 0. -1.
         -2   -1    0    0    0  501 -0.00000000000E+00 -0.00000000000E+00 -0.63037604045E+03  0.63037604045E+03  0.00000000000E+00 0.  1.
        -24    2    1    2    0    0  0.28500888918E+03  0.53771612688E+03  0.96501105399E+03  0.11440017074E+04  0.84408958479E+02 0.  0.
        254    2    1    2    0    0 -0.28500888918E+03 -0.53771612688E+03  0.59706446064E+00  0.10823584919E+04  0.89505913129E+03 0.  0.
         23    2    4    4    0    0  0.16523803734E+03 -0.27419875777E+03  0.32125063870E+03  0.46306532681E+03  0.93482384838E+02 0.  0.
         23    2    4    4    0    0 -0.45024692652E+03 -0.26351736910E+03 -0.32065357424E+03  0.61929316510E+03  0.92420836445E+02 0.  0.
          1    1    3    3  502    0  0.25783524211E+03  0.43775775969E+03  0.83956438149E+03  0.98131504570E+03  0.00000000000E+00 0. -1.
         -2    1    3    3    0  502  0.27173647069E+02  0.99958367188E+02  0.12544667250E+03  0.16268666174E+03  0.00000000000E+00 0.  1.
         11    1    5    5    0    0  0.92399076799E+02 -0.18156017091E+03  0.14116754032E+03  0.24785067983E+03  0.00000000000E+00 0. -1.
        -11    1    5    5    0    0  0.72838960545E+02 -0.92638586865E+02  0.18008309838E+03  0.21521464697E+03  0.00000000000E+00 0.  1.
          3    1    6    6  503    0 -0.36301208257E+03 -0.23208442241E+03 -0.29789718147E+03  0.52381645826E+03  0.00000000000E+00 0.  1.
         -3    1    6    6    0  503 -0.87234843955E+02 -0.31432946696E+02 -0.22756392764E+02  0.95476706843E+02  0.00000000000E+00 0. -1.
<mgrwt>
<rscale>  0 0.20060610E+04</rscale>
<asrwt>0</asrwt>
<pdfrwt beam="1">  1        1 0.24553602E+00 0.20060610E+04</pdfrwt>
<pdfrwt beam="2">  1       -2 0.96980930E-01 0.20060610E+04</pdfrwt>
<totfact> 0.40586582E+00</totfact>
</mgrwt>
</event>
<event>
12    4  0.4280696E-008  0.1826589E+04  0.7818608E-02  0.8692286E-01
         -2   -1    0    0    0  501 -0.00000000000E+00  0.00000000000E+00  0.42150291651E+03  0.42150291651E+03  0.00000000000E+00 0.  1.
          1   -1    0    0  501    0  0.00000000000E+00 -0.00000000000E+00 -0.19788882409E+04  0.19788882409E+04  0.00000000000E+00 0. -1.
        -24    2    1    2    0    0 -0.38249788818E+03  0.58159238938E+02  0.14294353109E+03  0.41996011874E+03  0.79034908200E+02 0.  0.
        254    2    1    2    0    0  0.38249788818E+03 -0.58159238938E+02 -0.17003288555E+04  0.19804310387E+04  0.93877673096E+03 0.  0.
         23    2    4    4    0    0 -0.29524592081E+03  0.15035923387E+02 -0.71347929100E+03  0.77768484626E+03  0.91349814883E+02 0.  0.
         23    2    4    4    0    0  0.67774380899E+03 -0.73195162325E+02 -0.98684956449E+03  0.12027461924E+04  0.89622195877E+02 0.  0.
          1    1    3    3  502    0 -0.16301647280E+03  0.17199884070E+02  0.10171494951E+03  0.19291484486E+03  0.00000000000E+00 0. -1.
         -4    1    3    3    0  502 -0.21948141538E+03  0.40959354868E+02  0.41228581583E+02  0.22704527387E+03  0.00000000000E+00 0.  1.
         11    1    5    5    0    0 -0.26915503702E+03 -0.59281482390E+01 -0.57038881915E+03  0.63073209995E+03  0.00000000000E+00 0. -1.
        -11    1    5    5    0    0 -0.26090883793E+02  0.20964071626E+02 -0.14309047185E+03  0.14695274632E+03  0.00000000000E+00 0.  1.
          2    1    6    6  503    0  0.25231078073E+03 -0.26702576920E+02 -0.29361901229E+03  0.38805396798E+03  0.00000000000E+00 0.  1.
         -2    1    6    6    0  503  0.42543302826E+03 -0.46492585405E+02 -0.69323055220E+03  0.81469222442E+03  0.00000000000E+00 0. -1.
<mgrwt>
<rscale>  0 0.18265894E+04</rscale>
<asrwt>0</asrwt>
<pdfrwt beam="1">  1        1 0.30444434E+00 0.18265894E+04</pdfrwt>
<pdfrwt beam="2">  1       -2 0.64846603E-01 0.18265894E+04</pdfrwt>
<totfact> 0.55873432E+00</totfact>
</mgrwt>
</event>
<event>
12    4  0.4280696E-008  0.2092174E+04  0.7818608E-02  0.8564699E-01
         -2   -1    0    0    0  501 -0.00000000000E+00  0.00000000000E+00  0.74097228869E+03  0.74097228869E+03  0.00000000000E+00 0.  1.
          1   -1    0    0  501    0  0.00000000000E+00 -0.00000000000E+00 -0.14768406954E+04  0.14768406954E+04  0.00000000000E+00 0. -1.
        -24    2    1    2    0    0 -0.61017042155E+03 -0.51811538034E+00  0.33168959401E+03  0.69902379246E+03  0.79423320699E+02 0.  0.
        254    2    1    2    0    0  0.61017042155E+03  0.51811538034E+00 -0.10675580007E+04  0.15187891916E+04  0.89147760032E+03 0.  0.
         23    2    4    4    0    0 -0.21771289457E+03 -0.26245220416E+02 -0.16017901510E+03  0.28669933008E+03  0.91931892916E+02 0.  0.
         23    2    4    4    0    0  0.82788331612E+03  0.26763335796E+02 -0.90737898559E+03  0.12320898615E+04  0.92745577209E+02 0.  0.
          1    1    3    3  502    0 -0.12332882943E+02 -0.10548113047E+02  0.23425227227E+01  0.16396649146E+02  0.00000000000E+00 0. -1.
         -2    1    3    3    0  502 -0.59783753860E+03  0.10029997666E+02  0.32934707129E+03  0.68262714331E+03  0.00000000000E+00 0.  1.
         11    1    5    5    0    0 -0.37260576761E+02  0.30914102231E+02 -0.29740338327E+02  0.56820067064E+02  0.00000000000E+00 0.  1.
        -11    1    5    5    0    0 -0.18045231781E+03 -0.57159322647E+02 -0.13043867678E+03  0.22987926302E+03  0.00000000000E+00 0. -1.
          1    1    6    6  503    0  0.82368648854E+03  0.18205351014E+02 -0.89865677836E+03  0.12191697468E+04  0.00000000000E+00 0. -1.
         -1    1    6    6    0  503  0.41968275802E+01  0.85579847821E+01 -0.87222072291E+01  0.12920114714E+02  0.00000000000E+00 0.  1.
<mgrwt>
<rscale>  0 0.20921740E+04</rscale>
<asrwt>0</asrwt>
<pdfrwt beam="1">  1        1 0.22720626E+00 0.20921740E+04</pdfrwt>
<pdfrwt beam="2">  1       -2 0.11399574E+00 0.20921740E+04</pdfrwt>
<totfact> 0.33036596E+00</totfact>
</mgrwt>
</event>
<event>
12    4  0.4280696E-008  0.1197258E+04  0.7818608E-02  0.9115260E-01
          1   -1    0    0  501    0  0.00000000000E+00  0.00000000000E+00  0.49046035136E+03  0.49046035136E+03  0.00000000000E+00 0. -1.
         -2   -1    0    0    0  501 -0.00000000000E+00 -0.00000000000E+00 -0.73065367968E+03  0.73065367968E+03  0.00000000000E+00 0.  1.
        -24    2    1    2    0    0 -0.24914091173E+02  0.25493538658E+03 -0.57781539719E+02  0.27331520226E+03  0.75826975334E+02 0.  0.
        254    2    1    2    0    0  0.24914091173E+02 -0.25493538658E+03 -0.18241178860E+03  0.94779882878E+03  0.89411173572E+03 0.  0.
         23    2    4    4    0    0  0.24169455069E+03 -0.41424792813E+02  0.28265745386E+03  0.38546837792E+03  0.92511430976E+02 0.  0.
         23    2    4    4    0    0 -0.21678045952E+03 -0.21351059376E+03 -0.46506924246E+03  0.56233045086E+03  0.85706443181E+02 0.  0.
          1    1    3    3  502    0 -0.16842226103E+02  0.25294458418E+03 -0.44109070240E+02  0.25731349231E+03  0.00000000000E+00 0. -1.
         -2    1    3    3    0  502 -0.80718650701E+01  0.19908023968E+01 -0.13672469478E+02  0.16001709957E+02  0.00000000000E+00 0.  1.
         11    1    5    5    0    0  0.23274564977E+03 -0.56074616960E+02  0.23779453547E+03  0.33743316561E+03  0.00000000000E+00 0. -1.
        -11    1    5    5    0    0  0.89489009192E+01  0.14649824147E+02  0.44862918391E+02  0.48035212311E+02  0.00000000000E+00 0.  1.
          2    1    6    6  503    0 -0.16652432454E+03 -0.12601044112E+03 -0.36313855858E+03  0.41890165273E+03  0.00000000000E+00 0. -1.
         -2    1    6    6    0  503 -0.50256134975E+02 -0.87500152644E+02 -0.10193068388E+03  0.14342879813E+03  0.00000000000E+00 0.  1.
<mgrwt>
<rscale>  0 0.11972580E+04</rscale>
<asrwt>0</asrwt>
<pdfrwt beam="1">  1        1 0.75455439E-01 0.11972580E+04</pdfrwt>
<pdfrwt beam="2">  1       -2 0.11240826E+00 0.11972580E+04</pdfrwt>
<totfact> 0.24556142E+01</totfact>
</mgrwt>
</event>
<event>
12    4  0.4280696E-008  0.1562639E+04  0.7818608E-02  0.8843835E-01
         -2   -1    0    0    0  501 -0.00000000000E+00  0.00000000000E+00  0.12688396306E+04  0.12688396306E+04  0.00000000000E+00 0.  1.
          1   -1    0    0  501    0  0.00000000000E+00 -0.00000000000E+00 -0.48111662132E+03  0.48111662132E+03  0.00000000000E+00 0. -1.
        -24    2    1    2    0    0 -0.20586073112E+03 -0.45719690449E+03  0.41829900054E+03  0.65747576662E+03  0.76763791921E+02 0.  0.
        254    2    1    2    0    0  0.20586073112E+03  0.45719690449E+03  0.36942400872E+03  0.10924804853E+04  0.89756997634E+03 0.  0.
         23    2    4    4    0    0 -0.68686407767E+01  0.56486621570E+03  0.53873904119E+03  0.78613093313E+03  0.92957353966E+02 0.  0.
         23    2    4    4    0    0  0.21272937189E+03 -0.10766931121E+03 -0.16931503247E+03  0.30634955216E+03  0.91301706714E+02 0.  0.
          1    1    3    3  502    0 -0.64063786961E+02 -0.18877138300E+03  0.12461427011E+03  0.23509045101E+03  0.00000000000E+00 0. -1.
         -2    1    3    3    0  502 -0.14179694416E+03 -0.26842552149E+03  0.29368473043E+03  0.42238531561E+03  0.00000000000E+00 0.  1.
         11    1    5    5    0    0 -0.39491425656E+02  0.44601385308E+03  0.39824487629E+03  0.59923860968E+03  0.00000000000E+00 0. -1.
        -11    1    5    5    0    0  0.32622784880E+02  0.11885236262E+03  0.14049416490E+03  0.18689232345E+03  0.00000000000E+00 0.  1.
          4    1    6    6  503    0  0.18706649482E+03 -0.52745362221E+02 -0.12236932419E+03  0.22967411309E+03  0.00000000000E+00 0. -1.
         -4    1    6    6    0  503  0.25662877076E+02 -0.54923948986E+02 -0.46945708272E+02  0.76675439074E+02  0.00000000000E+00 0.  1.
<mgrwt>
<rscale>  0 0.15626386E+04</rscale>
<asrwt>0</asrwt>
<pdfrwt beam="1">  1        1 0.74017942E-01 0.15626386E+04</pdfrwt>
<pdfrwt beam="2">  1       -2 0.19520610E+00 0.15626386E+04</pdfrwt>
<totfact> 0.56230251E+00</totfact>
</mgrwt>
</event>
<event>
12    4  0.4280696E-008  0.1566838E+04  0.7818608E-02  0.8841184E-01
          1   -1    0    0  501    0  0.00000000000E+00  0.00000000000E+00  0.62086441184E+03  0.62086441184E+03  0.00000000000E+00 0. -1.
         -2   -1    0    0    0  501 -0.00000000000E+00 -0.00000000000E+00 -0.98853383144E+03  0.98853383144E+03  0.00000000000E+00 0.  1.
        -24    2    1    2    0    0 -0.21489524973E+03  0.46809055199E+03 -0.89662166606E+02  0.52894837682E+03  0.80363847620E+02 0.  0.
        254    2    1    2    0    0  0.21489524973E+03 -0.46809055199E+03 -0.27800725300E+03  0.10804498665E+04  0.90818233191E+03 0.  0.
         23    2    4    4    0    0 -0.24503810220E+03 -0.25725728930E+03 -0.41009567868E+03  0.54990769247E+03  0.89414876509E+02 0.  0.
         23    2    4    4    0    0  0.45993335193E+03 -0.21083326269E+03  0.13208842568E+03  0.53054217399E+03  0.89656529636E+02 0.  0.
          1    1    3    3  502    0 -0.43203742199E+01  0.52718570558E+01 -0.13070572902E+02  0.14741030704E+02  0.00000000000E+00 0. -1.
         -2    1    3    3    0  502 -0.21057487551E+03  0.46281869493E+03 -0.76591593704E+02  0.51420734612E+03  0.00000000000E+00 0.  1.
         11    1    5    5    0    0 -0.19485362349E+03 -0.24710461041E+03 -0.34264299276E+03  0.46522343401E+03  0.00000000000E+00 0. -1.
        -11    1    5    5    0    0 -0.50184478710E+02 -0.10152678890E+02 -0.67452685924E+02  0.84684258457E+02  0.00000000000E+00 0.  1.
          2    1    6    6  503    0  0.40371648897E+03 -0.17762066462E+03  0.14439648268E+03  0.46409745547E+03  0.00000000000E+00 0. -1.
         -2    1    6    6    0  503  0.56216862957E+02 -0.33212598074E+02 -0.12308056993E+02  0.66444718515E+02  0.00000000000E+00 0.  1.
<mgrwt>
<rscale>  0 0.15668382E+04</rscale>
<asrwt>0</asrwt>
<pdfrwt beam="1">  1        1 0.95517602E-01 0.15668382E+04</pdfrwt>
<pdfrwt beam="2">  1       -2 0.15208213E+00 0.15668382E+04</pdfrwt>
<totfact> 0.79204300E+00</totfact>
</mgrwt>
</event>
<event>
12    4  0.4280696E-008  0.1562765E+04  0.7818608E-02  0.8843755E-01
          3   -1    0    0  501    0  0.00000000000E+00  0.00000000000E+00  0.41527805191E+03  0.41527805191E+03  0.00000000000E+00 0. -1.
         -4   -1    0    0    0  501 -0.00000000000E+00 -0.00000000000E+00 -0.14702410738E+04  0.14702410738E+04  0.00000000000E+00 0.  1.
        -24    2    1    2    0    0 -0.14190874095E+03 -0.39884302067E+03  0.48155787428E+01  0.43245648765E+03  0.88213253072E+02 0.  0.
        254    2    1    2    0    0  0.14190874095E+03  0.39884302067E+03 -0.10597786006E+04  0.14530626381E+04  0.89947012283E+03 0.  0.
         23    2    4    4    0    0  0.21598363253E+03 -0.14241994115E+03 -0.79148782544E+03  0.83771412036E+03  0.91540157754E+02 0.  0.
         23    2    4    4    0    0 -0.74074891587E+02  0.54126296182E+03 -0.26829077521E+03  0.61534851771E+03  0.90670694138E+02 0.  0.
          1    1    3    3  502    0 -0.12694124115E+03 -0.23172530867E+03  0.12296934827E+02  0.26450314174E+03  0.00000000000E+00 0. -1.
         -2    1    3    3    0  502 -0.14967499796E+02 -0.16711771200E+03 -0.74813560845E+01  0.16795334591E+03  0.00000000000E+00 0.  1.
         11    1    5    5    0    0  0.52698774135E+02 -0.37731658716E+02 -0.34316108430E+03  0.34922824720E+03  0.00000000000E+00 0. -1.
        -11    1    5    5    0    0  0.16328485840E+03 -0.10468828243E+03 -0.44832674114E+03  0.48848587316E+03  0.00000000000E+00 0.  1.
          1    1    6    6  503    0 -0.66659110855E+02  0.36508145560E+03 -0.13737693786E+03  0.39572759487E+03  0.00000000000E+00 0. -1.
         -1    1    6    6    0  503 -0.74157807320E+01  0.17618150622E+03 -0.13091383735E+03  0.21962092284E+03  0.00000000000E+00 0.  1.
<mgrwt>
<rscale>  0 0.15627653E+04</rscale>
<asrwt>0</asrwt>
<pdfrwt beam="1">  1        3 0.63888932E-01 0.15627653E+04</pdfrwt>
<pdfrwt beam="2">  1       -4 0.22619093E+00 0.15627653E+04</pdfrwt>
<totfact> 0.46594914E-01</totfact>
</mgrwt>
</event>
<event>
12    4  0.4280696E-008  0.1260498E+04  0.7818608E-02  0.9061491E-01
          1   -1    0    0  501    0  0.00000000000E+00  0.00000000000E+00  0.10603974548E+04  0.10603974548E+04  0.00000000000E+00 0. -1.
         -2   -1    0    0    0  501 -0.00000000000E+00 -0.00000000000E+00 -0.37458933747E+03  0.37458933747E+03  0.00000000000E+00 0.  1.
        -24    2    1    2    0    0 -0.93467215756E+02 -0.27715931117E+03  0.24928156260E+03  0.39246393184E+03  0.79581632014E+02 0.  0.
        254    2    1    2    0    0  0.93467215756E+02  0.27715931117E+03  0.43652655474E+03  0.10425228604E+04  0.90041383672E+03 0.  0.
         23    2    4    4    0    0  0.33307933372E+03  0.36509008125E+03 -0.30349677492E+02  0.50265450013E+03  0.86647755817E+02 0.  0.
         23    2    4    4    0    0 -0.23961211797E+03 -0.87930770083E+02  0.46687623224E+03  0.53986836031E+03  0.91316169624E+02 0.  0.
          1    1    3    3  502    0 -0.43482662558E+01 -0.11231254228E+03  0.12227701635E+03  0.16608637301E+03  0.00000000000E+00 0. -1.
         -4    1    3    3    0  502 -0.89118949500E+02 -0.16484676889E+03  0.12700454626E+03  0.22637755883E+03  0.00000000000E+00 0.  1.
         11    1    5    5    0    0  0.17526353622E+03  0.12992054145E+03 -0.22597577563E+02  0.21933377471E+03  0.00000000000E+00 0.  1.
        -11    1    5    5    0    0  0.15781579750E+03  0.23516953981E+03 -0.77520999288E+01  0.28332072541E+03  0.00000000000E+00 0. -1.
          2    1    6    6  503    0 -0.51302716226E+02 -0.57121862715E+02  0.17566531937E+03  0.19171118987E+03  0.00000000000E+00 0. -1.
         -2    1    6    6    0  503 -0.18830940174E+03 -0.30808907368E+02  0.29121091287E+03  0.34815717044E+03  0.00000000000E+00 0.  1.
<mgrwt>
<rscale>  0 0.12604976E+04</rscale>
<asrwt>0</asrwt>
<pdfrwt beam="1">  1        1 0.16313807E+00 0.12604976E+04</pdfrwt>
<pdfrwt beam="2">  1       -2 0.57629129E-01 0.12604976E+04</pdfrwt>
<totfact> 0.33102806E+01</totfact>
</mgrwt>
</event>
<event>
12    4  0.4280696E-008  0.2131430E+04  0.7818608E-02  0.8547523E-01
          1   -1    0    0  501    0  0.00000000000E+00  0.00000000000E+00  0.52490151221E+03  0.52490151221E+03  0.00000000000E+00 0. -1.
         -2   -1    0    0    0  501 -0.00000000000E+00 -0.00000000000E+00 -0.21637354745E+04  0.21637354745E+04  0.00000000000E+00 0.  1.
        -24    2    1    2    0    0  0.68013625124E+03  0.61041444579E+03 -0.55348572657E+03  0.10715730013E+04  0.82043474617E+02 0.  0.
        254    2    1    2    0    0 -0.68013625124E+03 -0.61041444579E+03 -0.10853482358E+04  0.16170639854E+04  0.77570872385E+03 0.  0.
         23    2    4    4    0    0 -0.58144837473E+03 -0.58167768483E+03 -0.40193443428E+03  0.91997583855E+03  0.91504713233E+02 0.  0.
         23    2    4    4    0    0 -0.98687876511E+02 -0.28736760956E+02 -0.68341380148E+03  0.69708814689E+03  0.91172156280E+02 0.  0.
          1    1    3    3  502    0  0.46962639197E+03  0.42949994545E+03 -0.34101242861E+03  0.72201705495E+03  0.00000000000E+00 0. -1.
         -2    1    3    3    0  502  0.21050985927E+03  0.18091450034E+03 -0.21247329796E+03  0.34955594635E+03  0.00000000000E+00 0.  1.
         11    1    5    5    0    0 -0.40316163519E+03 -0.38135705320E+03 -0.22576874945E+03  0.59911938238E+03  0.00000000000E+00 0. -1.
        -11    1    5    5    0    0 -0.17828673954E+03 -0.20032063163E+03 -0.17616568483E+03  0.32085645617E+03  0.00000000000E+00 0.  1.
          3    1    6    6  503    0 -0.86896733984E+02 -0.42864220098E+02 -0.66111196791E+03  0.66817469112E+03  0.00000000000E+00 0. -1.
         -3    1    6    6    0  503 -0.11791142527E+02  0.14127459142E+02 -0.22301833571E+02  0.28913455770E+02  0.00000000000E+00 0.  1.
<mgrwt>
<rscale>  0 0.21314296E+04</rscale>
<asrwt>0</asrwt>
<pdfrwt beam="1">  1        1 0.80754077E-01 0.21314296E+04</pdfrwt>
<pdfrwt beam="2">  1       -2 0.33288239E+00 0.21314296E+04</pdfrwt>
<totfact> 0.66362632E-01</totfact>
</mgrwt>
</event>
<event>
12    4  0.4280696E-008  0.2095513E+04  0.7818608E-02  0.8563222E-01
         -2   -1    0    0    0  501 -0.00000000000E+00  0.00000000000E+00  0.20299730320E+04  0.20299730320E+04  0.00000000000E+00 0.  1.
          1   -1    0    0  501    0  0.00000000000E+00 -0.00000000000E+00 -0.54079249874E+03  0.54079249874E+03  0.00000000000E+00 0. -1.
        -24    2    1    2    0    0 -0.29094191785E+03  0.31894811785E+03  0.14331099888E+04  0.14989968115E+04  0.82535443466E+02 0.  0.
        254    2    1    2    0    0  0.29094191785E+03 -0.31894811785E+03  0.56070544505E+02  0.10717687193E+04  0.97937182940E+03 0.  0.
         23    2    4    4    0    0 -0.46243702459E+02 -0.34256025564E+02  0.45642307516E+03  0.46897444578E+03  0.91121084007E+02 0.  0.
         23    2    4    4    0    0  0.33718562031E+03 -0.28469209228E+03 -0.40035253065E+03  0.60279427350E+03  0.91296535625E+02 0.  0.
          3    1    3    3  502    0 -0.96658414319E+02  0.11535670273E+03  0.37421997006E+03  0.40334923319E+03  0.00000000000E+00 0. -1.
         -4    1    3    3    0  502 -0.19428350353E+03  0.20359141512E+03  0.10588900187E+04  0.10956475783E+04  0.00000000000E+00 0.  1.
         11    1    5    5    0    0 -0.44684319191E+01 -0.57564289414E+02  0.29566103744E+03  0.30124585202E+03  0.00000000000E+00 0.  1.
        -11    1    5    5    0    0 -0.41775270540E+02  0.23308263849E+02  0.16076203772E+03  0.16772859376E+03  0.00000000000E+00 0. -1.
          1    1    6    6  503    0  0.33005884990E+03 -0.25513599381E+03 -0.38882534636E+03  0.57027920329E+03  0.00000000000E+00 0. -1.
         -1    1    6    6    0  503  0.71267704064E+01 -0.29556098467E+02 -0.11527184298E+02  0.32515070212E+02  0.00000000000E+00 0.  1.
<mgrwt>
<rscale>  0 0.20955135E+04</rscale>
<asrwt>0</asrwt>
<pdfrwt beam="1">  1        1 0.83198847E-01 0.20955135E+04</pdfrwt>
<pdfrwt beam="2">  1       -2 0.31230354E+00 0.20955135E+04</pdfrwt>
<totfact> 0.85576185E-01</totfact>
</mgrwt>
</event>
<event>
12    4  0.4280696E-008  0.2141931E+04  0.7818608E-02  0.8542994E-01
         -2   -1    0    0    0  501 -0.00000000000E+00  0.00000000000E+00  0.32802739896E+03  0.32802739896E+03  0.00000000000E+00 0.  1.
          1   -1    0    0  501    0  0.00000000000E+00 -0.00000000000E+00 -0.34965593466E+04  0.34965593466E+04  0.00000000000E+00 0. -1.
        -24    2    1    2    0    0 -0.28731243838E+03 -0.39420205043E+03 -0.26153215421E+04  0.26616040484E+04  0.79282079580E+02 0.  0.
        254    2    1    2    0    0  0.28731243838E+03  0.39420205043E+03 -0.55321040554E+03  0.11629826971E+04  0.89919036207E+03 0.  0.
         23    2    4    4    0    0 -0.28889406515E+03  0.19590289472E+03 -0.44426469358E+02  0.36379902968E+03  0.92402910030E+02 0.  0.
         23    2    4    4    0    0  0.57620650353E+03  0.19829915571E+03 -0.50878393618E+03  0.79918366746E+03  0.92178906220E+02 0.  0.
          1    1    3    3  502    0 -0.19109112514E+03 -0.27257548353E+03 -0.19686449662E+04  0.19965911487E+04  0.00000000000E+00 0. -1.
         -2    1    3    3    0  502 -0.96221313240E+02 -0.12162656690E+03 -0.64667657588E+03  0.66501289964E+03  0.00000000000E+00 0.  1.
         11    1    5    5    0    0 -0.22659853754E+03  0.10336307406E+03 -0.39167966565E+02  0.25212090730E+03  0.00000000000E+00 0.  1.
        -11    1    5    5    0    0 -0.62295527611E+02  0.92539820653E+02 -0.52585027927E+01  0.11167812238E+03  0.00000000000E+00 0. -1.
          2    1    6    6  503    0  0.20177430071E+03  0.11667932603E+03 -0.19260047822E+03  0.30236050959E+03  0.00000000000E+00 0.  1.
         -2    1    6    6    0  503  0.37443220282E+03  0.81619829684E+02 -0.31618345796E+03  0.49682315787E+03  0.00000000000E+00 0. -1.
<mgrwt>
<rscale>  0 0.21419312E+04</rscale>
<asrwt>0</asrwt>
<pdfrwt beam="1">  1        1 0.53793223E+00 0.21419312E+04</pdfrwt>
<pdfrwt beam="2">  1       -2 0.50465752E-01 0.21419312E+04</pdfrwt>
<totfact> 0.75426417E-01</totfact>
</mgrwt>
</event>
<event>
12    4  0.4280696E-008  0.1431121E+04  0.7818608E-02  0.8931595E-01
         -4   -1    0    0    0  501 -0.00000000000E+00  0.00000000000E+00  0.75101582087E+03  0.75101582087E+03  0.00000000000E+00 0.  1.
          3   -1    0    0  501    0  0.00000000000E+00 -0.00000000000E+00 -0.68177881806E+03  0.68177881806E+03  0.00000000000E+00 0. -1.
        -24    2    1    2    0    0 -0.26832702080E+03 -0.78869817503E+02  0.41302196078E+03  0.50502637599E+03  0.79023174782E+02 0.  0.
        254    2    1    2    0    0  0.26832702080E+03  0.78869817503E+02 -0.34378495797E+03  0.92776826294E+03  0.81507423845E+03 0.  0.
         23    2    4    4    0    0  0.27726217777E+03 -0.31559674550E+03 -0.29576216785E+03  0.52177877849E+03  0.91116479108E+02 0.  0.
         23    2    4    4    0    0 -0.89351569659E+01  0.39446656300E+03 -0.48022790122E+02  0.40598948445E+03  0.82689580681E+02 0.  0.
          3    1    3    3  502    0 -0.21127508506E+02 -0.25076752881E+02  0.22669899645E+02  0.39864012601E+02  0.00000000000E+00 0. -1.
         -4    1    3    3    0  502 -0.24719951229E+03 -0.53793064623E+02  0.39035206113E+03  0.46516236339E+03  0.00000000000E+00 0.  1.
         11    1    5    5    0    0  0.20212101605E+02 -0.71640367661E+02 -0.65533307920E+02  0.99174017650E+02  0.00000000000E+00 0.  1.
        -11    1    5    5    0    0  0.25705007616E+03 -0.24395637784E+03 -0.23022885993E+03  0.42260476084E+03  0.00000000000E+00 0. -1.
          1    1    6    6  503    0 -0.16083146148E+02  0.37154640778E+03 -0.25012701325E+02  0.37273453818E+03  0.00000000000E+00 0. -1.
         -1    1    6    6    0  503  0.71479891826E+01  0.22920155223E+02 -0.23010088798E+02  0.33254946267E+02  0.00000000000E+00 0.  1.
<mgrwt>
<rscale>  0 0.14311208E+04</rscale>
<asrwt>0</asrwt>
<pdfrwt beam="1">  1        3 0.10488905E+00 0.14311208E+04</pdfrwt>
<pdfrwt beam="2">  1       -4 0.11554090E+00 0.14311208E+04</pdfrwt>
<totfact> 0.10106645E+00</totfact>
</mgrwt>
</event>
<event>
12    4  0.4280696E-008  0.1923955E+04  0.7818608E-02  0.8643023E-01
         -2   -1    0    0    0  501 -0.00000000000E+00  0.00000000000E+00  0.29354092236E+03  0.29354092236E+03  0.00000000000E+00 0.  1.
          1   -1    0    0  501    0  0.00000000000E+00 -0.00000000000E+00 -0.31525455082E+04  0.31525455082E+04  0.00000000000E+00 0. -1.
        -24    2    1    2    0    0  0.44935041466E+03 -0.31444838636E+03 -0.20508229553E+03  0.59098144754E+03  0.80042117419E+02 0.  0.
        254    2    1    2    0    0 -0.44935041466E+03  0.31444838636E+03 -0.26539222903E+04  0.28551049830E+04  0.89862526016E+03 0.  0.
         23    2    4    4    0    0 -0.12912552209E+03 -0.13737953110E+03 -0.19166218260E+04  0.19279785566E+04  0.90086374529E+02 0.  0.
         23    2    4    4    0    0 -0.32022489257E+03  0.45182791745E+03 -0.73730046430E+03  0.92712642639E+03  0.96223630340E+02 0.  0.
          1    1    3    3  502    0  0.59746588912E+02 -0.21342697718E+02 -0.45161823650E+02  0.77876542989E+02  0.00000000000E+00 0. -1.
         -2    1    3    3    0  502  0.38960382575E+03 -0.29310568864E+03 -0.15992047188E+03  0.51310490455E+03  0.00000000000E+00 0.  1.
         11    1    5    5    0    0 -0.47718105049E+02  0.16092822323E+01 -0.46798269316E+03  0.47041195609E+03  0.00000000000E+00 0. -1.
        -11    1    5    5    0    0 -0.81407417039E+02 -0.13898881333E+03 -0.14486391328E+04  0.14575666005E+04  0.00000000000E+00 0.  1.
          2    1    6    6  503    0 -0.74546323300E+02  0.50055676941E+02 -0.95523793795E+02  0.13110118341E+03  0.00000000000E+00 0. -1.
         -2    1    6    6    0  503 -0.24567856927E+03  0.40177224051E+03 -0.64177667051E+03  0.79602524298E+03  0.00000000000E+00 0.  1.
<mgrwt>
<rscale>  0 0.19239554E+04</rscale>
<asrwt>0</asrwt>
<pdfrwt beam="1">  1        1 0.48500697E+00 0.19239554E+04</pdfrwt>
<pdfrwt beam="2">  1       -2 0.45160145E-01 0.19239554E+04</pdfrwt>
<totfact> 0.17647987E+00</totfact>
</mgrwt>
</event>
<event>
12    4  0.4280696E-008  0.1040414E+04  0.7818608E-02  0.9265297E-01
         -2   -1    0    0    0  501 -0.00000000000E+00  0.00000000000E+00  0.15166273913E+04  0.15166273913E+04  0.00000000000E+00 0.  1.
          1   -1    0    0  501    0  0.00000000000E+00 -0.00000000000E+00 -0.17843224896E+03  0.17843224896E+03  0.00000000000E+00 0. -1.
        -24    2    1    2    0    0  0.51918411813E+02 -0.13435505992E+02  0.31271159788E+03  0.32718480551E+03  0.79908192335E+02 0.  0.
        254    2    1    2    0    0 -0.51918411813E+02  0.13435505992E+02  0.10254835445E+04  0.13678748348E+04  0.90365315763E+03 0.  0.
         23    2    4    4    0    0 -0.11876691428E+03 -0.42245246571E+03  0.41895604592E+03  0.61247535664E+03  0.83846457076E+02 0.  0.
         23    2    4    4    0    0  0.66848502462E+02  0.43588797170E+03  0.60652749855E+03  0.75539947812E+03  0.91025924302E+02 0.  0.
          3    1    3    3  502    0 -0.68518062921E+01 -0.32124143421E+02  0.13973229421E+03  0.14354101116E+03  0.00000000000E+00 0. -1.
         -4    1    3    3    0  502  0.58770218105E+02  0.18688637429E+02  0.17297930367E+03  0.18364379435E+03  0.00000000000E+00 0.  1.
         11    1    5    5    0    0  0.10913237656E+02 -0.72638998588E+02  0.61667346331E+02  0.95908208593E+02  0.00000000000E+00 0. -1.
        -11    1    5    5    0    0 -0.12968015193E+03 -0.34981346712E+03  0.35728869959E+03  0.51656714804E+03  0.00000000000E+00 0.  1.
          3    1    6    6  503    0  0.21177919678E+02  0.34885924114E+03  0.43856903050E+03  0.56079770766E+03  0.00000000000E+00 0. -1.
         -3    1    6    6    0  503  0.45670582784E+02  0.87028730567E+02  0.16795846806E+03  0.19460177046E+03  0.00000000000E+00 0.  1.
<mgrwt>
<rscale>  0 0.10404138E+04</rscale>
<asrwt>0</asrwt>
<pdfrwt beam="1">  1        1 0.27451116E-01 0.10404138E+04</pdfrwt>
<pdfrwt beam="2">  1       -2 0.23332728E+00 0.10404138E+04</pdfrwt>
<totfact> 0.12306934E+01</totfact>
</mgrwt>
</event>
<event>
12    4  0.4280696E-008  0.1226455E+04  0.7818608E-02  0.9090010E-01
          1   -1    0    0  501    0  0.00000000000E+00  0.00000000000E+00  0.10725417433E+04  0.10725417433E+04  0.00000000000E+00 0. -1.
         -2   -1    0    0    0  501 -0.00000000000E+00 -0.00000000000E+00 -0.35061405708E+03  0.35061405708E+03  0.00000000000E+00 0.  1.
        -24    2    1    2    0    0  0.16690612901E+03 -0.17080507043E+03 -0.29473366331E+02  0.25314477534E+03  0.78622960822E+02 0.  0.
        254    2    1    2    0    0 -0.16690612901E+03  0.17080507043E+03  0.75140105256E+03  0.11700110251E+04  0.86445950107E+03 0.  0.
         23    2    4    4    0    0 -0.48867842259E+01  0.50409086742E+03  0.48825205676E+03  0.70791591101E+03  0.92862171348E+02 0.  0.
         23    2    4    4    0    0 -0.16201934479E+03 -0.33328579698E+03  0.26314899580E+03  0.46209511404E+03  0.83395502741E+02 0.  0.
          3    1    3    3  502    0  0.33342355609E+02 -0.40245577918E+02  0.25907250825E+02  0.58331851204E+02  0.00000000000E+00 0. -1.
         -4    1    3    3    0  502  0.13356377340E+03 -0.13055949252E+03 -0.55380617157E+02  0.19481292413E+03  0.00000000000E+00 0.  1.
         11    1    5    5    0    0 -0.41355017085E+02  0.22409413940E+03  0.25200609060E+03  0.33975798806E+03  0.00000000000E+00 0. -1.
        -11    1    5    5    0    0  0.36468232859E+02  0.27999672802E+03  0.23624596615E+03  0.36815792295E+03  0.00000000000E+00 0.  1.
          1    1    6    6  503    0 -0.71141773090E+02 -0.21338484141E+03  0.12242661310E+03  0.25609083939E+03  0.00000000000E+00 0. -1.
         -1    1    6    6    0  503 -0.90877571697E+02 -0.11990095557E+03  0.14072238270E+03  0.20600427465E+03  0.00000000000E+00 0.  1.
<mgrwt>
<rscale>  0 0.12264554E+04</rscale>
<asrwt>0</asrwt>
<pdfrwt beam="1">  1        1 0.16500642E+00 0.12264554E+04</pdfrwt>
<pdfrwt beam="2">  1       -2 0.53940625E-01 0.12264554E+04</pdfrwt>
<totfact> 0.37292811E+01</totfact>
</mgrwt>
</event>
<event>
12    4  0.4280696E-008  0.1327344E+04  0.7818608E-02  0.9008158E-01
          1   -1    0    0  501    0  0.00000000000E+00  0.00000000000E+00  0.13029109303E+04  0.13029109303E+04  0.00000000000E+00 0. -1.
         -2   -1    0    0    0  501 -0.00000000000E+00 -0.00000000000E+00 -0.33805902552E+03  0.33805902552E+03  0.00000000000E+00 0.  1.
        -24    2    1    2    0    0  0.93161018361E+02 -0.41611161209E+02  0.66805752815E+03  0.68038977844E+03  0.78860164904E+02 0.  0.
        254    2    1    2    0    0 -0.93161018361E+02  0.41611161209E+02  0.29679437664E+03  0.96058017739E+03  0.90786392764E+03 0.  0.
         23    2    4    4    0    0  0.31805517077E+02 -0.38025279938E+03  0.32739132779E+03  0.51028703649E+03  0.87200893024E+02 0.  0.
         23    2    4    4    0    0 -0.12496653544E+03  0.42186396058E+03 -0.30596951153E+02  0.45029314091E+03  0.90784927767E+02 0.  0.
          3    1    3    3  502    0  0.23475800705E+02 -0.47566130004E+02  0.39373781037E+03  0.39729474356E+03  0.00000000000E+00 0. -1.
         -4    1    3    3    0  502  0.69685217656E+02  0.59549687950E+01  0.27431971778E+03  0.28309503488E+03  0.00000000000E+00 0.  1.
         11    1    5    5    0    0 -0.17330602275E+02 -0.35783692021E+02  0.14441632638E+02  0.42301100969E+02  0.00000000000E+00 0. -1.
        -11    1    5    5    0    0  0.49136119352E+02 -0.34446910735E+03  0.31294969515E+03  0.46798593552E+03  0.00000000000E+00 0.  1.
          1    1    6    6  503    0 -0.17035842490E+02  0.76530848448E+02  0.29030620392E+02  0.83606026182E+02  0.00000000000E+00 0. -1.
         -1    1    6    6    0  503 -0.10793069295E+03  0.34533311214E+03 -0.59627571546E+02  0.36668711473E+03  0.00000000000E+00 0.  1.
<mgrwt>
<rscale>  0 0.13273444E+04</rscale>
<asrwt>0</asrwt>
<pdfrwt beam="1">  1        1 0.20044783E+00 0.13273444E+04</pdfrwt>
<pdfrwt beam="2">  1       -2 0.52009081E-01 0.13273444E+04</pdfrwt>
<totfact> 0.27024667E+01</totfact>
</mgrwt>
</event>
<event>
12    4  0.4280696E-008  0.1733118E+04  0.7818608E-02  0.8742698E-01
         -2   -1    0    0    0  501 -0.00000000000E+00  0.00000000000E+00  0.37584878195E+03  0.37584878195E+03  0.00000000000E+00 0.  1.
          1   -1    0    0  501    0  0.00000000000E+00 -0.00000000000E+00 -0.19979420795E+04  0.19979420795E+04  0.00000000000E+00 0. -1.
        -24    2    1    2    0    0 -0.48916185018E+03  0.38668297971E+03 -0.66966217563E+03  0.92009534360E+03  0.96565881030E+02 0.  0.
        254    2    1    2    0    0  0.48916185018E+03 -0.38668297971E+03 -0.95243112190E+03  0.14536955178E+04  0.90404788264E+03 0.  0.
         23    2    4    4    0    0  0.57991870672E+03 -0.26087867800E+03 -0.10634248950E+04  0.12423717062E+04  0.90838086014E+02 0.  0.
         23    2    4    4    0    0 -0.90756856538E+02 -0.12580430171E+03  0.11099377312E+03  0.21132381167E+03  0.90964863369E+02 0.  0.
          3    1    3    3  502    0 -0.89086555779E+02  0.60085734885E+02 -0.17249025731E+03  0.20322302729E+03  0.00000000000E+00 0. -1.
         -4    1    3    3    0  502 -0.40007529441E+03  0.32659724483E+03 -0.49717191832E+03  0.71687231631E+03  0.00000000000E+00 0.  1.
         11    1    5    5    0    0  0.23750503740E+03 -0.11519090460E+03 -0.35773218246E+03  0.44457834142E+03  0.00000000000E+00 0. -1.
        -11    1    5    5    0    0  0.34241366932E+03 -0.14568777340E+03 -0.70569271256E+03  0.79779336474E+03  0.00000000000E+00 0.  1.
          1    1    6    6  503    0 -0.76536007577E+02 -0.28784976984E+02  0.49969263981E+02  0.95829341532E+02  0.00000000000E+00 0. -1.
         -1    1    6    6    0  503 -0.14220848962E+02 -0.97019324726E+02  0.61024509141E+02  0.11549447013E+03  0.00000000000E+00 0.  1.
<mgrwt>
<rscale>  0 0.17331175E+04</rscale>
<asrwt>0</asrwt>
<pdfrwt beam="1">  1        1 0.30737572E+00 0.17331175E+04</pdfrwt>
<pdfrwt beam="2">  1       -2 0.57822888E-01 0.17331175E+04</pdfrwt>
<totfact> 0.69760027E+00</totfact>
</mgrwt>
</event>
<event>
12    4  0.4280696E-008  0.1306739E+04  0.7818608E-02  0.9024238E-01
         -2   -1    0    0    0  501 -0.00000000000E+00  0.00000000000E+00  0.11139339186E+04  0.11139339186E+04  0.00000000000E+00 0.  1.
          1   -1    0    0  501    0  0.00000000000E+00 -0.00000000000E+00 -0.38322883433E+03  0.38322883433E+03  0.00000000000E+00 0. -1.
        -24    2    1    2    0    0  0.14763734696E+03  0.28457593793E+03  0.78395741721E+02  0.33918303103E+03  0.78223944878E+02 0.  0.
        254    2    1    2    0    0 -0.14763734696E+03 -0.28457593793E+03  0.65230934255E+03  0.11579797219E+04  0.90145954280E+03 0.  0.
         23    2    4    4    0    0 -0.43841217395E+03 -0.40988579810E+03  0.53440174418E+03  0.80886651754E+03  0.92022917036E+02 0.  0.
         23    2    4    4    0    0  0.29077482699E+03  0.12530986017E+03  0.11790759837E+03  0.34911320437E+03  0.87893496026E+02 0.  0.
          1    1    3    3  502    0  0.99495769790E+02  0.15546012836E+03  0.80509788843E+02  0.20136803574E+03  0.00000000000E+00 0. -1.
         -2    1    3    3    0  502  0.48141577170E+02  0.12911580957E+03 -0.21140471218E+01  0.13781499529E+03  0.00000000000E+00 0.  1.
         11    1    5    5    0    0  0.30634555377E+01 -0.11457533972E+02  0.16240052864E+02  0.20109678306E+02  0.00000000000E+00 0.  1.
        -11    1    5    5    0    0 -0.44147562949E+03 -0.39842826413E+03  0.51816169131E+03  0.78875683923E+03  0.00000000000E+00 0. -1.
          3    1    6    6  503    0  0.67362861238E+02  0.28618603912E+02  0.69455478921E+02  0.10090016410E+03  0.00000000000E+00 0. -1.
         -3    1    6    6    0  503  0.22341196575E+03  0.96691256261E+02  0.48452119447E+02  0.24821304026E+03  0.00000000000E+00 0.  1.
<mgrwt>
<rscale>  0 0.13067388E+04</rscale>
<asrwt>0</asrwt>
<pdfrwt beam="1">  1        1 0.58958282E-01 0.13067388E+04</pdfrwt>
<pdfrwt beam="2">  1       -2 0.17137445E+00 0.13067388E+04</pdfrwt>
<totfact> 0.11343457E+01</totfact>
</mgrwt>
</event>
<event>
12    4  0.4280696E-008  0.1691704E+04  0.7818608E-02  0.8766110E-01
         -2   -1    0    0    0  501 -0.00000000000E+00  0.00000000000E+00  0.59730494967E+03  0.59730494967E+03  0.00000000000E+00 0.  1.
          1   -1    0    0  501    0  0.00000000000E+00 -0.00000000000E+00 -0.11978229800E+04  0.11978229800E+04  0.00000000000E+00 0. -1.
        -24    2    1    2    0    0  0.40555116601E+03  0.14685445365E+03  0.23813284177E+03  0.49944371978E+03  0.81846197814E+02 0.  0.
        254    2    1    2    0    0 -0.40555116601E+03 -0.14685445365E+03 -0.83865087206E+03  0.12956842098E+04  0.88849553045E+03 0.  0.
         23    2    4    4    0    0  0.12188986250E+03 -0.35093706765E+03 -0.18128080657E+03  0.42378852993E+03  0.93381064632E+02 0.  0.
         23    2    4    4    0    0 -0.52744102851E+03  0.20408261401E+03 -0.65737006549E+03  0.87189567992E+03  0.90680327287E+02 0.  0.
          1    1    3    3  502    0  0.50996431244E+01 -0.76909766791E+01  0.16564648081E+01  0.93755724058E+01  0.00000000000E+00 0. -1.
         -2    1    3    3    0  502  0.40045152288E+03  0.15454543032E+03  0.23647637696E+03  0.49006814738E+03  0.00000000000E+00 0.  1.
         11    1    5    5    0    0  0.13343723375E+02 -0.17906313679E+02 -0.40566745653E+02  0.46307147137E+02  0.00000000000E+00 0.  1.
        -11    1    5    5    0    0  0.10854613913E+03 -0.33303075397E+03 -0.14071406092E+03  0.37748138279E+03  0.00000000000E+00 0. -1.
          4    1    6    6  503    0 -0.40460174618E+02  0.23038541398E+02 -0.97822932704E+02  0.10833801864E+03  0.00000000000E+00 0.  1.
         -4    1    6    6    0  503 -0.48698085389E+03  0.18104407261E+03 -0.55954713278E+03  0.76355766128E+03  0.00000000000E+00 0. -1.
<mgrwt>
<rscale>  0 0.16917040E+04</rscale>
<asrwt>0</asrwt>
<pdfrwt beam="1">  1        1 0.18428046E+00 0.16917040E+04</pdfrwt>
<pdfrwt beam="2">  1       -2 0.91893068E-01 0.16917040E+04</pdfrwt>
<totfact> 0.90214734E+00</totfact>
</mgrwt>
</event>
<event>
12    4  0.4280696E-008  0.1136946E+04  0.7818608E-02  0.9169911E-01
          1   -1    0    0  501    0  0.00000000000E+00  0.00000000000E+00  0.27734849644E+04  0.27734849644E+04  0.00000000000E+00 0. -1.
         -2   -1    0    0    0  501 -0.00000000000E+00 -0.00000000000E+00 -0.11651827528E+03  0.11651827528E+03  0.00000000000E+00 0.  1.
        -24    2    1    2    0    0  0.11486755074E+03  0.12098020972E+03  0.20757042685E+03  0.27791036050E+03  0.79485350923E+02 0.  0.
        254    2    1    2    0    0 -0.11486755074E+03 -0.12098020972E+03  0.24493962623E+04  0.26120928792E+04  0.89199573684E+03 0.  0.
         23    2    4    4    0    0 -0.54606886902E+02  0.29911148052E+03  0.18235171435E+04  0.18508610383E+04  0.89566850997E+02 0.  0.
         23    2    4    4    0    0 -0.60260663841E+02 -0.42009169024E+03  0.62587911883E+03  0.76123184089E+03  0.87412060869E+02 0.  0.
          3    1    3    3  502    0  0.45713007892E+01  0.38035955125E+02  0.85400185825E+02  0.93599265019E+02  0.00000000000E+00 0. -1.
         -4    1    3    3    0  502  0.11029624995E+03  0.82944254596E+02  0.12217024102E+03  0.18431109548E+03  0.00000000000E+00 0.  1.
         11    1    5    5    0    0 -0.72424506410E+02  0.20633443534E+03  0.11328528244E+04  0.11537654571E+04  0.00000000000E+00 0. -1.
        -11    1    5    5    0    0  0.17817619508E+02  0.92777045175E+02  0.69066431908E+03  0.69709558119E+03  0.00000000000E+00 0.  1.
          2    1    6    6  503    0 -0.16786607219E+01 -0.17565125074E+03  0.32262534886E+03  0.36734628828E+03  0.00000000000E+00 0. -1.
         -2    1    6    6    0  503 -0.58582003119E+02 -0.24444043950E+03  0.30325376997E+03  0.39388555261E+03  0.00000000000E+00 0.  1.
<mgrwt>
<rscale>  0 0.11369462E+04</rscale>
<asrwt>0</asrwt>
<pdfrwt beam="1">  1        1 0.42668995E+00 0.11369462E+04</pdfrwt>
<pdfrwt beam="2">  1       -2 0.17925891E-01 0.11369462E+04</pdfrwt>
<totfact> 0.19891249E+01</totfact>
</mgrwt>
</event>
<event>
12    4  0.4280696E-008  0.1789063E+04  0.7818608E-02  0.8712138E-01
         -2   -1    0    0    0  501 -0.00000000000E+00  0.00000000000E+00  0.27993644288E+03  0.27993644288E+03  0.00000000000E+00 0.  1.
          1   -1    0    0  501    0  0.00000000000E+00 -0.00000000000E+00 -0.28584567939E+04  0.28584567939E+04  0.00000000000E+00 0. -1.
        -24    2    1    2    0    0  0.38108169619E+03 -0.12769278284E+03 -0.19010984015E+04  0.19447358871E+04  0.79333678056E+02 0.  0.
        254    2    1    2    0    0 -0.38108169619E+03  0.12769278284E+03 -0.67742194953E+03  0.11936573497E+04  0.89687717375E+03 0.  0.
         23    2    4    4    0    0  0.69631027707E+02  0.41443366725E+03 -0.20922008015E+03  0.47728544216E+03  0.86166158035E+02 0.  0.
         23    2    4    4    0    0 -0.45071272389E+03 -0.28674088441E+03 -0.46820186938E+03  0.71637190753E+03  0.92808540208E+02 0.  0.
          1    1    3    3  502    0  0.36024207944E+03 -0.13833446012E+03 -0.18101925686E+04  0.18508668008E+04  0.00000000000E+00 0. -1.
         -2    1    3    3    0  502  0.20839616750E+02  0.10641677279E+02 -0.90905832904E+02  0.93869086379E+02  0.00000000000E+00 0.  1.
         11    1    5    5    0    0  0.31308152263E+02  0.36063018199E+03 -0.16517147244E+03  0.39788936134E+03  0.00000000000E+00 0. -1.
        -11    1    5    5    0    0  0.38322875444E+02  0.53803485261E+02 -0.44048607707E+02  0.79396080819E+02  0.00000000000E+00 0.  1.
          2    1    6    6  503    0 -0.26203121534E+03 -0.21591167858E+03 -0.31591745055E+03  0.46376938916E+03  0.00000000000E+00 0. -1.
         -2    1    6    6    0  503 -0.18868150855E+03 -0.70829205825E+02 -0.15228441883E+03  0.25260251837E+03  0.00000000000E+00 0.  1.
<mgrwt>
<rscale>  0 0.17890626E+04</rscale>
<asrwt>0</asrwt>
<pdfrwt beam="1">  1        1 0.43976257E+00 0.17890626E+04</pdfrwt>
<pdfrwt beam="2">  1       -2 0.43067146E-01 0.17890626E+04</pdfrwt>
<totfact> 0.32175847E+00</totfact>
</mgrwt>
</event>
<event>
12    4  0.4280696E-008  0.2818021E+04  0.7818608E-02  0.8297695E-01
         -2   -1    0    0    0  501 -0.00000000000E+00  0.00000000000E+00  0.12851647891E+04  0.12851647891E+04  0.00000000000E+00 0.  1.
          1   -1    0    0  501    0  0.00000000000E+00 -0.00000000000E+00 -0.15447901728E+04  0.15447901728E+04  0.00000000000E+00 0. -1.
        -24    2    1    2    0    0 -0.36885373099E+01  0.88690017582E+03 -0.10152548666E+04  0.13504231882E+04  0.79339876039E+02 0.  0.
        254    2    1    2    0    0  0.36885373099E+01 -0.88690017582E+03  0.75562948280E+03  0.14795317737E+04  0.91182938479E+03 0.  0.
         23    2    4    4    0    0 -0.34208293036E+03 -0.61254644743E+03  0.14770053642E+03  0.72279689416E+03  0.91575216322E+02 0.  0.
         23    2    4    4    0    0  0.34577146767E+03 -0.27435372840E+03  0.60792894638E+03  0.75673487955E+03  0.90786551610E+02 0.  0.
          1    1    3    3  502    0 -0.17042914666E+02  0.75410194609E+03 -0.82290534820E+03  0.11163034615E+04  0.00000000000E+00 0. -1.
         -2    1    3    3    0  502  0.13354377356E+02  0.13279822973E+03 -0.19234951835E+03  0.23411972669E+03  0.00000000000E+00 0.  1.
         11    1    5    5    0    0 -0.40676873771E+02 -0.33491290210E+02 -0.31770095599E+01  0.52786058477E+02  0.00000000000E+00 0. -1.
        -11    1    5    5    0    0 -0.30140605659E+03 -0.57905515722E+03  0.15087754598E+03  0.67001083568E+03  0.00000000000E+00 0.  1.
          1    1    6    6  503    0  0.20224111773E+03 -0.14799329409E+03  0.26947720881E+03  0.36799653648E+03  0.00000000000E+00 0. -1.
         -1    1    6    6    0  503  0.14353034994E+03 -0.12636043430E+03  0.33845173757E+03  0.38873834307E+03  0.00000000000E+00 0.  1.
<mgrwt>
<rscale>  0 0.28180205E+04</rscale>
<asrwt>0</asrwt>
<pdfrwt beam="1">  1        1 0.23766002E+00 0.28180205E+04</pdfrwt>
<pdfrwt beam="2">  1       -2 0.19771766E+00 0.28180205E+04</pdfrwt>
<totfact> 0.63671802E-01</totfact>
</mgrwt>
</event>
<event>
12    4  0.4280696E-008  0.1397610E+04  0.7818608E-02  0.8955550E-01
         -2   -1    0    0    0  501 -0.00000000000E+00  0.00000000000E+00  0.12209193253E+04  0.12209193253E+04  0.00000000000E+00 0.  1.
          1   -1    0    0  501    0  0.00000000000E+00 -0.00000000000E+00 -0.39996782622E+03  0.39996782622E+03  0.00000000000E+00 0. -1.
        -24    2    1    2    0    0  0.28789434142E+03  0.21321668512E+03  0.26750997128E+02  0.36761296871E+03  0.77969046921E+02 0.  0.
        254    2    1    2    0    0 -0.28789434142E+03 -0.21321668512E+03  0.79420050196E+03  0.12532741828E+04  0.90088691486E+03 0.  0.
         23    2    4    4    0    0 -0.26950553109E+03 -0.46305437736E+03  0.16367212218E+03  0.56882298130E+03  0.98582111927E+02 0.  0.
         23    2    4    4    0    0 -0.18388810328E+02  0.24983769223E+03  0.63052837977E+03  0.68445120152E+03  0.90279503537E+02 0.  0.
          1    1    3    3  502    0  0.27378155531E+03  0.17585531507E+03  0.14024696391E+02  0.32569636777E+03  0.00000000000E+00 0. -1.
         -2    1    3    3    0  502  0.14112786107E+02  0.37361370052E+02  0.12726300737E+02  0.41916600940E+02  0.00000000000E+00 0.  1.
         11    1    5    5    0    0 -0.21569594497E+03 -0.38564190648E+03  0.94409345977E+02  0.45183796356E+03  0.00000000000E+00 0. -1.
        -11    1    5    5    0    0 -0.53809586121E+02 -0.77412470880E+02  0.69262776208E+02  0.11698501773E+03  0.00000000000E+00 0.  1.
          4    1    6    6  503    0 -0.25620011530E+02  0.22495583160E+03  0.61216518397E+03  0.65269267165E+03  0.00000000000E+00 0. -1.
         -4    1    6    6    0  503  0.72312012014E+01  0.24881860636E+02  0.18363195805E+02  0.31758529873E+02  0.00000000000E+00 0.  1.
<mgrwt>
<rscale>  0 0.13976100E+04</rscale>
<asrwt>0</asrwt>
<pdfrwt beam="1">  1        1 0.61533512E-01 0.13976100E+04</pdfrwt>
<pdfrwt beam="2">  1       -2 0.18783374E+00 0.13976100E+04</pdfrwt>
<totfact> 0.81883410E+00</totfact>
</mgrwt>
</event>
<event>
12    4  0.4280696E-008  0.1558043E+04  0.7818608E-02  0.8846747E-01
         -2   -1    0    0    0  501 -0.00000000000E+00  0.00000000000E+00  0.16836087358E+04  0.16836087358E+04  0.00000000000E+00 0.  1.
          1   -1    0    0  501    0  0.00000000000E+00 -0.00000000000E+00 -0.36046033269E+03  0.36046033269E+03  0.00000000000E+00 0. -1.
        -24    2    1    2    0    0  0.37258946615E+03 -0.23139695110E+03  0.82888354221E+03  0.94119909362E+03  0.80251778931E+02 0.  0.
        254    2    1    2    0    0 -0.37258946615E+03  0.23139695110E+03  0.49426486085E+03  0.11028699748E+04  0.88298186246E+03 0.  0.
         23    2    4    4    0    0 -0.49062882670E+03  0.47891532591E+03  0.40637370483E+03  0.80232660248E+03  0.92259710000E+02 0.  0.
         23    2    4    4    0    0  0.11803936055E+03 -0.24751837481E+03  0.87891156027E+02  0.30054337235E+03  0.86039681816E+02 0.  0.
          3    1    3    3  502    0  0.14037345958E+02 -0.18564661158E+02  0.18105315332E+02  0.29487220431E+02  0.00000000000E+00 0. -1.
         -4    1    3    3    0  502  0.35855212019E+03 -0.21283228994E+03  0.81077822688E+03  0.91171187319E+03  0.00000000000E+00 0.  1.
         11    1    5    5    0    0 -0.31017600368E+03  0.31180681745E+03  0.20882407618E+03  0.48686768167E+03  0.00000000000E+00 0. -1.
        -11    1    5    5    0    0 -0.18045282302E+03  0.16710850846E+03  0.19754962865E+03  0.31545892080E+03  0.00000000000E+00 0.  1.
          3    1    6    6  503    0  0.23806031099E+02 -0.13669044157E+03  0.65223313243E+02  0.15331368016E+03  0.00000000000E+00 0. -1.
         -3    1    6    6    0  503  0.94233329451E+02 -0.11082793323E+03  0.22667842784E+02  0.14722969218E+03  0.00000000000E+00 0.  1.
<mgrwt>
<rscale>  0 0.15580426E+04</rscale>
<asrwt>0</asrwt>
<pdfrwt beam="1">  1        1 0.55455437E-01 0.15580426E+04</pdfrwt>
<pdfrwt beam="2">  1       -2 0.25901672E+00 0.15580426E+04</pdfrwt>
<totfact> 0.32818864E+00</totfact>
</mgrwt>
</event>
<event>
12    4  0.4280696E-008  0.1445663E+04  0.7818608E-02  0.8921413E-01
         -2   -1    0    0    0  501 -0.00000000000E+00  0.00000000000E+00  0.38916772599E+03  0.38916772599E+03  0.00000000000E+00 0.  1.
          1   -1    0    0  501    0  0.00000000000E+00 -0.00000000000E+00 -0.13425710317E+04  0.13425710317E+04  0.00000000000E+00 0. -1.
        -24    2    1    2    0    0 -0.40174709029E+03 -0.16193823812E+03 -0.27687435596E+03  0.51954833530E+03  0.75142173274E+02 0.  0.
        254    2    1    2    0    0  0.40174709029E+03  0.16193823812E+03 -0.67652894975E+03  0.12121904224E+04  0.90779374463E+03 0.  0.
         23    2    4    4    0    0  0.49430702927E+03 -0.53720675179E+02 -0.78889345109E+03  0.93702693349E+03  0.91876257981E+02 0.  0.
         23    2    4    4    0    0 -0.92559938980E+02  0.21565891330E+03  0.11236450134E+03  0.27516348891E+03  0.89515670565E+02 0.  0.
          3    1    3    3  502    0 -0.10637267767E+02 -0.21595238696E+02 -0.13898254677E+02  0.27796893405E+02  0.00000000000E+00 0. -1.
         -4    1    3    3    0  502 -0.39110982252E+03 -0.14034299942E+03 -0.26297610129E+03  0.49175144190E+03  0.00000000000E+00 0.  1.
         11    1    5    5    0    0  0.11034346995E+02 -0.61719864332E+01 -0.26622970187E+01  0.12920451059E+02  0.00000000000E+00 0. -1.
        -11    1    5    5    0    0  0.48327268227E+03 -0.47548688746E+02 -0.78623115407E+03  0.92410648243E+03  0.00000000000E+00 0.  1.
          2    1    6    6  503    0 -0.34519823529E+02  0.10403726787E+03  0.49323844022E+01  0.10972556557E+03  0.00000000000E+00 0.  1.
         -2    1    6    6    0  503 -0.58040115451E+02  0.11162164543E+03  0.10743211694E+03  0.16543792334E+03  0.00000000000E+00 0. -1.
<mgrwt>
<rscale>  0 0.14456629E+04</rscale>
<asrwt>0</asrwt>
<pdfrwt beam="1">  1        1 0.20654939E+00 0.14456629E+04</pdfrwt>
<pdfrwt beam="2">  1       -2 0.59871958E-01 0.14456629E+04</pdfrwt>
<totfact> 0.18704110E+01</totfact>
</mgrwt>
</event>
<event>
12    4  0.4280696E-008  0.1763052E+04  0.7818608E-02  0.8726199E-01
          1   -1    0    0  501    0  0.00000000000E+00  0.00000000000E+00  0.94262731911E+03  0.94262731911E+03  0.00000000000E+00 0. -1.
         -2   -1    0    0    0  501 -0.00000000000E+00 -0.00000000000E+00 -0.82438508989E+03  0.82438508989E+03  0.00000000000E+00 0.  1.
        -24    2    1    2    0    0  0.17543968219E+03 -0.14315766540E+03  0.62047835292E+03  0.66491416825E+03  0.76447795535E+02 0.  0.
        254    2    1    2    0    0 -0.17543968219E+03  0.14315766540E+03 -0.50223612370E+03  0.11020982407E+04  0.95451883641E+03 0.  0.
         23    2    4    4    0    0  0.19229854792E+03 -0.31683790119E+03 -0.24165762668E+03  0.45176653487E+03  0.91266677017E+02 0.  0.
         23    2    4    4    0    0 -0.36773823011E+03  0.45999556659E+03 -0.26057849703E+03  0.65033170588E+03  0.90569572147E+02 0.  0.
          1    1    3    3  502    0  0.15256996952E+03 -0.14930908184E+03  0.52971240917E+03  0.57110947632E+03  0.00000000000E+00 0. -1.
         -2    1    3    3    0  502  0.22869712669E+02  0.61514164356E+01  0.90765943753E+02  0.93804691925E+02  0.00000000000E+00 0.  1.
         11    1    5    5    0    0  0.74917532625E+02 -0.20573981449E+03 -0.12180011846E+03  0.25055294215E+03  0.00000000000E+00 0. -1.
        -11    1    5    5    0    0  0.11738101530E+03 -0.11109808669E+03 -0.11985750822E+03  0.20121359272E+03  0.00000000000E+00 0.  1.
          4    1    6    6  503    0 -0.34164367851E+03  0.44463674387E+03 -0.22651812373E+03  0.60475837940E+03  0.00000000000E+00 0. -1.
         -4    1    6    6    0  503 -0.26094551600E+02  0.15358822714E+02 -0.34060373292E+02  0.45573326488E+02  0.00000000000E+00 0.  1.
<mgrwt>
<rscale>  0 0.17630518E+04</rscale>
<asrwt>0</asrwt>
<pdfrwt beam="1">  1        1 0.14501959E+00 0.17630518E+04</pdfrwt>
<pdfrwt beam="2">  1       -2 0.12682848E+00 0.17630518E+04</pdfrwt>
<totfact> 0.64433647E+00</totfact>
</mgrwt>
</event>
<event>
12    4  0.4280696E-008  0.1417124E+04  0.7818608E-02  0.8941515E-01
          1   -1    0    0  501    0  0.00000000000E+00  0.00000000000E+00  0.70228229119E+03  0.70228229119E+03  0.00000000000E+00 0. -1.
         -2   -1    0    0    0  501 -0.00000000000E+00 -0.00000000000E+00 -0.71489833622E+03  0.71489833622E+03  0.00000000000E+00 0.  1.
        -24    2    1    2    0    0 -0.19824804758E+03  0.21045324184E+03  0.29937232945E+03  0.42380676859E+03  0.79972058178E+02 0.  0.
        254    2    1    2    0    0  0.19824804758E+03 -0.21045324184E+03 -0.31198837448E+03  0.99337385882E+03  0.89769817991E+03 0.  0.
         23    2    4    4    0    0  0.40694510278E+03  0.19470197622E+03 -0.25077439100E+03  0.52464145007E+03  0.94062105681E+02 0.  0.
         23    2    4    4    0    0 -0.20869705519E+03 -0.40515521806E+03 -0.61213983480E+02  0.46873240876E+03  0.90871930072E+02 0.  0.
          3    1    3    3  502    0 -0.15073684538E+03  0.10804654697E+03  0.20709704998E+03  0.27800151255E+03  0.00000000000E+00 0. -1.
         -4    1    3    3    0  502 -0.47511202207E+02  0.10240669487E+03  0.92275279469E+02  0.14580525604E+03  0.00000000000E+00 0.  1.
         11    1    5    5    0    0  0.22935911472E+03  0.16040331743E+03 -0.14770770143E+03  0.31646862848E+03  0.00000000000E+00 0. -1.
        -11    1    5    5    0    0  0.17758598805E+03  0.34298658791E+02 -0.10306668957E+03  0.20817282159E+03  0.00000000000E+00 0.  1.
          1    1    6    6  503    0 -0.19100025406E+02 -0.95081606240E+02  0.12815134945E+02  0.97824079344E+02  0.00000000000E+00 0. -1.
         -1    1    6    6    0  503 -0.18959702979E+03 -0.31007361182E+03 -0.74029118425E+02  0.37090832941E+03  0.00000000000E+00 0.  1.
<mgrwt>
<rscale>  0 0.14171245E+04</rscale>
<asrwt>0</asrwt>
<pdfrwt beam="1">  1        1 0.10804343E+00 0.14171245E+04</pdfrwt>
<pdfrwt beam="2">  1       -2 0.10998436E+00 0.14171245E+04</pdfrwt>
<totfact> 0.15190900E+01</totfact>
</mgrwt>
</event>
<event>
12    4  0.4280696E-008  0.1741481E+04  0.7818608E-02  0.8738054E-01
         -2   -1    0    0    0  501 -0.00000000000E+00  0.00000000000E+00  0.26052911506E+03  0.26052911506E+03  0.00000000000E+00 0.  1.
          1   -1    0    0  501    0  0.00000000000E+00 -0.00000000000E+00 -0.29101882067E+04  0.29101882067E+04  0.00000000000E+00 0. -1.
        -24    2    1    2    0    0 -0.94358970843E+02  0.63605158400E+02  0.16255713245E+03  0.21352598638E+03  0.78862500573E+02 0.  0.
        254    2    1    2    0    0  0.94358970843E+02 -0.63605158400E+02 -0.28122162241E+04  0.29571913353E+04  0.90745317863E+03 0.  0.
         23    2    4    4    0    0  0.40670530314E+03  0.20991401182E+03 -0.17934527899E+04  0.18532991506E+04  0.93657547296E+02 0.  0.
         23    2    4    4    0    0 -0.31234633229E+03 -0.27351917022E+03 -0.10187634342E+04  0.11038921847E+04  0.91247207730E+02 0.  0.
          1    1    3    3  502    0 -0.90086442821E+02  0.53541151925E+02  0.84260113691E+02  0.13446928604E+03  0.00000000000E+00 0. -1.
         -2    1    3    3    0  502 -0.42725280220E+01  0.10064006475E+02  0.78297018760E+02  0.79056700341E+02  0.00000000000E+00 0.  1.
         11    1    5    5    0    0  0.25631059521E+03  0.96310888314E+02 -0.92746580677E+03  0.96703863994E+03  0.00000000000E+00 0. -1.
        -11    1    5    5    0    0  0.15039470792E+03  0.11360312350E+03 -0.86598698311E+03  0.88626051066E+03  0.00000000000E+00 0.  1.
          2    1    6    6  503    0 -0.11595877086E+03 -0.14979346660E+03 -0.38791350263E+03  0.43169596327E+03  0.00000000000E+00 0. -1.
         -2    1    6    6    0  503 -0.19638756143E+03 -0.12372570362E+03 -0.63084993156E+03  0.67219622147E+03  0.00000000000E+00 0.  1.
<mgrwt>
<rscale>  0 0.17414807E+04</rscale>
<asrwt>0</asrwt>
<pdfrwt beam="1">  1        1 0.44772127E+00 0.17414807E+04</pdfrwt>
<pdfrwt beam="2">  1       -2 0.40081402E-01 0.17414807E+04</pdfrwt>
<totfact> 0.34187271E+00</totfact>
</mgrwt>
</event>
<event>
12    4  0.4280696E-008  0.2201492E+04  0.7818608E-02  0.8517807E-01
          1   -1    0    0  501    0  0.00000000000E+00  0.00000000000E+00  0.23255530807E+04  0.23255530807E+04  0.00000000000E+00 0. -1.
         -2   -1    0    0    0  501 -0.00000000000E+00 -0.00000000000E+00 -0.52101223785E+03  0.52101223785E+03  0.00000000000E+00 0.  1.
        -24    2    1    2    0    0 -0.62931495807E+03  0.47550656952E+02  0.16106585702E+04  0.17320083107E+04  0.85635140770E+02 0.  0.
        254    2    1    2    0    0  0.62931495807E+03 -0.47550656952E+02  0.19388227272E+03  0.11145570079E+04  0.89796915686E+03 0.  0.
         23    2    4    4    0    0  0.79022966434E+03 -0.29183252652E+02  0.35250322309E+03  0.87047221501E+03  0.90270538804E+02 0.  0.
         23    2    4    4    0    0 -0.16091470627E+03 -0.18367404300E+02 -0.15862095037E+03  0.24408479285E+03  0.90475830868E+02 0.  0.
          1    1    3    3  502    0 -0.52912486991E+03  0.13624552896E+02  0.13881118039E+04  0.14856019441E+04  0.00000000000E+00 0. -1.
         -2    1    3    3    0  502 -0.10019008816E+03  0.33926104056E+02  0.22254676630E+03  0.24640636658E+03  0.00000000000E+00 0.  1.
         11    1    5    5    0    0  0.69267456846E+03  0.25333421369E+01  0.31856452755E+03  0.76242234610E+03  0.00000000000E+00 0.  1.
        -11    1    5    5    0    0  0.97555095878E+02 -0.31716594789E+02  0.33938695538E+02  0.10804986891E+03  0.00000000000E+00 0. -1.
          2    1    6    6  503    0 -0.12388225077E+03 -0.28904406657E+02 -0.64996302014E+02  0.14285235754E+03  0.00000000000E+00 0.  1.
         -2    1    6    6    0  503 -0.37032455501E+02  0.10537002357E+02 -0.93624648358E+02  0.10123243531E+03  0.00000000000E+00 0. -1.
<mgrwt>
<rscale>  0 0.22014919E+04</rscale>
<asrwt>0</asrwt>
<pdfrwt beam="1">  1        1 0.35777739E+00 0.22014919E+04</pdfrwt>
<pdfrwt beam="2">  1       -2 0.80155730E-01 0.22014919E+04</pdfrwt>
<totfact> 0.19704207E+00</totfact>
</mgrwt>
</event>
<event>
12    4  0.4280696E-008  0.2202905E+04  0.7818608E-02  0.8517220E-01
          1   -1    0    0  501    0  0.00000000000E+00  0.00000000000E+00  0.13536612897E+04  0.13536612897E+04  0.00000000000E+00 0. -1.
         -2   -1    0    0    0  501 -0.00000000000E+00 -0.00000000000E+00 -0.89623433214E+03  0.89623433214E+03  0.00000000000E+00 0.  1.
        -24    2    1    2    0    0  0.38135487292E+03  0.33625545154E+03  0.96745885540E+03  0.10956907592E+04  0.77860998242E+02 0.  0.
        254    2    1    2    0    0 -0.38135487292E+03 -0.33625545154E+03 -0.51003189784E+03  0.11542048627E+04  0.90197397991E+03 0.  0.
         23    2    4    4    0    0 -0.57840732465E+03 -0.49477734850E+03 -0.38595469409E+03  0.85774877212E+03  0.86094554995E+02 0.  0.
         23    2    4    4    0    0  0.19705245172E+03  0.15852189696E+03 -0.12407720375E+03  0.29645609055E+03  0.92369911716E+02 0.  0.
          3    1    3    3  502    0  0.25089312109E+03  0.22663935531E+03  0.71756932003E+03  0.79323293214E+03  0.00000000000E+00 0. -1.
         -4    1    3    3    0  502  0.13046175183E+03  0.10961609623E+03  0.24988953538E+03  0.30245782703E+03  0.00000000000E+00 0.  1.
         11    1    5    5    0    0 -0.12378410330E+03 -0.12114646864E+03 -0.50602317794E+02  0.18044269356E+03  0.00000000000E+00 0.  1.
        -11    1    5    5    0    0 -0.45462322135E+03 -0.37363087986E+03 -0.33535237629E+03  0.67730607856E+03  0.00000000000E+00 0. -1.
          1    1    6    6  503    0  0.18538233815E+03  0.17052698889E+03 -0.11122305840E+03  0.27534820493E+03  0.00000000000E+00 0. -1.
         -1    1    6    6    0  503  0.11670113576E+02 -0.12005091927E+02 -0.12854145347E+02  0.21107885628E+02  0.00000000000E+00 0.  1.
<mgrwt>
<rscale>  0 0.22029051E+04</rscale>
<asrwt>0</asrwt>
<pdfrwt beam="1">  1        1 0.20825558E+00 0.22029051E+04</pdfrwt>
<pdfrwt beam="2">  1       -2 0.13788220E+00 0.22029051E+04</pdfrwt>
<totfact> 0.24761552E+00</totfact>
</mgrwt>
</event>
<event>
12    4  0.4280696E-008  0.1297910E+04  0.7818608E-02  0.9031224E-01
          1   -1    0    0  501    0  0.00000000000E+00  0.00000000000E+00  0.18956601413E+04  0.18956601413E+04  0.00000000000E+00 0. -1.
         -2   -1    0    0    0  501 -0.00000000000E+00 -0.00000000000E+00 -0.22216144267E+03  0.22216144267E+03  0.00000000000E+00 0.  1.
        -24    2    1    2    0    0 -0.62042404862E+02 -0.30377385520E+03  0.24829760623E+03  0.40517652893E+03  0.79928112850E+02 0.  0.
        254    2    1    2    0    0  0.62042404862E+02  0.30377385520E+03  0.14252010924E+04  0.17126450550E+04  0.89767873747E+03 0.  0.
         23    2    4    4    0    0 -0.21858692150E+03  0.51152756810E+03  0.66608879439E+03  0.87211325041E+03  0.86409168265E+02 0.  0.
         23    2    4    4    0    0  0.28062932636E+03 -0.20775371289E+03  0.75911229800E+03  0.84053180463E+03  0.91256833090E+02 0.  0.
          3    1    3    3  502    0 -0.47444287913E+01  0.44942342751E+01  0.37151890916E+01  0.75173383762E+01  0.00000000000E+00 0. -1.
         -4    1    3    3    0  502 -0.57297976070E+02 -0.30826808948E+03  0.24458241714E+03  0.39765919055E+03  0.00000000000E+00 0.  1.
         11    1    5    5    0    0 -0.15367794453E+03  0.27500884712E+03  0.33221728363E+03  0.45783741674E+03  0.00000000000E+00 0. -1.
        -11    1    5    5    0    0 -0.64908976969E+02  0.23651872098E+03  0.33387151076E+03  0.41427583367E+03  0.00000000000E+00 0.  1.
          2    1    6    6  503    0  0.15405934136E+02 -0.92856358365E+01  0.11328334438E+03  0.11470258041E+03  0.00000000000E+00 0.  1.
         -2    1    6    6    0  503  0.26522339223E+03 -0.19846807706E+03  0.64582895362E+03  0.72582922422E+03  0.00000000000E+00 0. -1.
<mgrwt>
<rscale>  0 0.12979100E+04</rscale>
<asrwt>0</asrwt>
<pdfrwt beam="1">  1        1 0.29164001E+00 0.12979100E+04</pdfrwt>
<pdfrwt beam="2">  1       -2 0.34178685E-01 0.12979100E+04</pdfrwt>
<totfact> 0.24277648E+01</totfact>
</mgrwt>
</event>
<event>
12    4  0.4280696E-008  0.2025376E+04  0.7818608E-02  0.8594848E-01
          1   -1    0    0  501    0  0.00000000000E+00  0.00000000000E+00  0.79273170049E+03  0.79273170049E+03  0.00000000000E+00 0. -1.
         -2   -1    0    0    0  501 -0.00000000000E+00 -0.00000000000E+00 -0.12936741760E+04  0.12936741760E+04  0.00000000000E+00 0.  1.
        -24    2    1    2    0    0 -0.55443376213E+03 -0.53151200987E+03  0.53123834405E+02  0.77404412931E+03  0.80127143471E+02 0.  0.
        254    2    1    2    0    0  0.55443376213E+03  0.53151200987E+03 -0.55406630993E+03  0.13123617472E+04  0.90851640958E+03 0.  0.
         23    2    4    4    0    0  0.20183698878E+02 -0.17529282897E+03  0.85526107256E+02  0.21596799782E+03  0.90512449262E+02 0.  0.
         23    2    4    4    0    0  0.53425006325E+03  0.70680483883E+03 -0.63959241719E+03  0.10963937494E+04  0.89468336712E+02 0.  0.
          3    1    3    3  502    0 -0.47815769243E+03 -0.49191993522E+03  0.53542400122E+02  0.68810376406E+03  0.00000000000E+00 0. -1.
         -4    1    3    3    0  502 -0.76276069695E+02 -0.39592074650E+02 -0.41856571741E+00  0.85940365257E+02  0.00000000000E+00 0.  1.
         11    1    5    5    0    0 -0.19511396038E+02 -0.14874773765E+03  0.57954557974E+02  0.16082697168E+03  0.00000000000E+00 0.  1.
        -11    1    5    5    0    0  0.39695094915E+02 -0.26545091319E+02  0.27571549282E+02  0.55141026136E+02  0.00000000000E+00 0. -1.
          1    1    6    6  503    0  0.20085523362E+03  0.20253765148E+03 -0.18427569993E+03  0.33959072238E+03  0.00000000000E+00 0. -1.
         -1    1    6    6    0  503  0.33339482963E+03  0.50426718735E+03 -0.45531671727E+03  0.75680302701E+03  0.00000000000E+00 0.  1.
<mgrwt>
<rscale>  0 0.20253755E+04</rscale>
<asrwt>0</asrwt>
<pdfrwt beam="1">  1        1 0.12195872E+00 0.20253755E+04</pdfrwt>
<pdfrwt beam="2">  1       -2 0.19902679E+00 0.20253755E+04</pdfrwt>
<totfact> 0.24548507E+00</totfact>
</mgrwt>
</event>
<event>
12    4  0.4280696E-008  0.2249546E+04  0.7818608E-02  0.8498085E-01
          1   -1    0    0  501    0  0.00000000000E+00  0.00000000000E+00  0.19766646066E+04  0.19766646066E+04  0.00000000000E+00 0. -1.
         -2   -1    0    0    0  501 -0.00000000000E+00 -0.00000000000E+00 -0.64002452194E+03  0.64002452194E+03  0.00000000000E+00 0.  1.
        -24    2    1    2    0    0 -0.85736006604E+02  0.92655915980E+03  0.57336632957E+03  0.10959477024E+04  0.80559785513E+02 0.  0.
        254    2    1    2    0    0  0.85736006604E+02 -0.92655915980E+03  0.76327375504E+03  0.15207414261E+04  0.92962633380E+03 0.  0.
         23    2    4    4    0    0 -0.13023152161E+02 -0.32306244679E+03  0.83411600981E+03  0.89927511696E+03  0.91691172708E+02 0.  0.
         23    2    4    4    0    0  0.98759158765E+02 -0.60349671301E+03 -0.70842254771E+02  0.62146630914E+03  0.85088743566E+02 0.  0.
          1    1    3    3  502    0 -0.76827160331E+02  0.91763909787E+03  0.56094786039E+03  0.10782515609E+04  0.00000000000E+00 0. -1.
         -2    1    3    3    0  502 -0.89088462729E+01  0.89200619302E+01  0.12418469181E+02  0.17696141487E+02  0.00000000000E+00 0.  1.
         11    1    5    5    0    0  0.29398133063E+02 -0.51082196796E+02  0.11385641268E+03  0.12820656678E+03  0.00000000000E+00 0. -1.
        -11    1    5    5    0    0 -0.42421285223E+02 -0.27198025000E+03  0.72025959713E+03  0.77106855018E+03  0.00000000000E+00 0.  1.
          2    1    6    6  503    0  0.77379150690E+02 -0.57999733676E+03 -0.72737864056E+02  0.58963992442E+03  0.00000000000E+00 0.  1.
         -2    1    6    6    0  503  0.21380008075E+02 -0.23499376252E+02  0.18956092848E+01  0.31826384715E+02  0.00000000000E+00 0. -1.
<mgrwt>
<rscale>  0 0.22495456E+04</rscale>
<asrwt>0</asrwt>
<pdfrwt beam="1">  1        1 0.30410224E+00 0.22495456E+04</pdfrwt>
<pdfrwt beam="2">  1       -2 0.98465312E-01 0.22495456E+04</pdfrwt>
<totfact> 0.21116665E+00</totfact>
</mgrwt>
</event>
<event>
12    4  0.4280696E-008  0.1428211E+04  0.7818608E-02  0.8933648E-01
         -2   -1    0    0    0  501 -0.00000000000E+00  0.00000000000E+00  0.30139928943E+03  0.30139928943E+03  0.00000000000E+00 0.  1.
          1   -1    0    0  501    0  0.00000000000E+00 -0.00000000000E+00 -0.16919297364E+04  0.16919297364E+04  0.00000000000E+00 0. -1.
        -24    2    1    2    0    0 -0.84590315233E+02 -0.30484941424E+03 -0.80917856397E+03  0.87232620221E+03  0.78066432466E+02 0.  0.
        254    2    1    2    0    0  0.84590315233E+02  0.30484941424E+03 -0.58135188305E+03  0.11210028237E+04  0.90475888055E+03 0.  0.
         23    2    4    4    0    0 -0.21060248295E+03 -0.13384313275E+03 -0.51408692217E+03  0.57876387152E+03  0.91732575621E+02 0.  0.
         23    2    4    4    0    0  0.29519279818E+03  0.43869254699E+03 -0.67264960886E+02  0.54223895214E+03  0.99541787086E+02 0.  0.
          1    1    3    3  502    0 -0.29360535936E+02 -0.23473781934E+03 -0.58151166280E+03  0.62778953390E+03  0.00000000000E+00 0. -1.
         -2    1    3    3    0  502 -0.55229779297E+02 -0.70111594905E+02 -0.22766690117E+03  0.24453666831E+03  0.00000000000E+00 0.  1.
         11    1    5    5    0    0 -0.39530051953E+02 -0.25018589945E+02 -0.34646761747E+02  0.58214714203E+02  0.00000000000E+00 0.  1.
        -11    1    5    5    0    0 -0.17107243099E+03 -0.10882454280E+03 -0.47944016042E+03  0.52054915732E+03  0.00000000000E+00 0. -1.
          1    1    6    6  503    0  0.19564158037E+03  0.36086299854E+03 -0.35972696356E+02  0.41205796506E+03  0.00000000000E+00 0. -1.
         -1    1    6    6    0  503  0.99551217808E+02  0.77829548456E+02 -0.31292264531E+02  0.13018098709E+03  0.00000000000E+00 0.  1.
<mgrwt>
<rscale>  0 0.14282107E+04</rscale>
<asrwt>0</asrwt>
<pdfrwt beam="1">  1        1 0.26029688E+00 0.14282107E+04</pdfrwt>
<pdfrwt beam="2">  1       -2 0.46369121E-01 0.14282107E+04</pdfrwt>
<totfact> 0.18176818E+01</totfact>
</mgrwt>
</event>
<event>
12    4  0.4280696E-008  0.1287988E+04  0.7818608E-02  0.9039145E-01
          1   -1    0    0  501    0  0.00000000000E+00  0.00000000000E+00  0.12485314729E+04  0.12485314729E+04  0.00000000000E+00 0. -1.
         -2   -1    0    0    0  501 -0.00000000000E+00 -0.00000000000E+00 -0.33217298882E+03  0.33217298882E+03  0.00000000000E+00 0.  1.
        -24    2    1    2    0    0 -0.24428677265E+03  0.20589235279E+03  0.22766771151E+03  0.40033034449E+03  0.79775369797E+02 0.  0.
        254    2    1    2    0    0  0.24428677265E+03 -0.20589235279E+03  0.68869077255E+03  0.11803741172E+04  0.90383648308E+03 0.  0.
         23    2    4    4    0    0 -0.30310709871E+03 -0.21529639368E+03  0.16174452590E+03  0.41521409304E+03  0.89526537853E+02 0.  0.
         23    2    4    4    0    0  0.54739387136E+03  0.94040408923E+01  0.52694624665E+03  0.76516002417E+03  0.89827775960E+02 0.  0.
          1    1    3    3  502    0 -0.76008149270E+01  0.55155884784E+01  0.32695028055E+02  0.34017039309E+02  0.00000000000E+00 0. -1.
         -2    1    3    3    0  502 -0.23668595772E+03  0.20037676431E+03  0.19497268346E+03  0.36631330518E+03  0.00000000000E+00 0.  1.
         11    1    5    5    0    0 -0.25200604669E+03 -0.21283424511E+03  0.15174019441E+03  0.36308476980E+03  0.00000000000E+00 0.  1.
        -11    1    5    5    0    0 -0.51101052017E+02 -0.24621485701E+01  0.10004331490E+02  0.52129323239E+02  0.00000000000E+00 0. -1.
          1    1    6    6  503    0  0.16960802666E+03  0.33520389532E+02  0.20538921607E+03  0.26846830222E+03  0.00000000000E+00 0. -1.
         -1    1    6    6    0  503  0.37778584470E+03 -0.24116348640E+02  0.32155703058E+03  0.49669172194E+03  0.00000000000E+00 0.  1.
<mgrwt>
<rscale>  0 0.12879882E+04</rscale>
<asrwt>0</asrwt>
<pdfrwt beam="1">  1        1 0.19208176E+00 0.12879882E+04</pdfrwt>
<pdfrwt beam="2">  1       -2 0.51103537E-01 0.12879882E+04</pdfrwt>
<totfact> 0.30745980E+01</totfact>
</mgrwt>
</event>
<event>
12    4  0.4280696E-008  0.1437284E+04  0.7818608E-02  0.8927264E-01
         -2   -1    0    0    0  501 -0.00000000000E+00  0.00000000000E+00  0.11055210429E+04  0.11055210429E+04  0.00000000000E+00 0.  1.
          1   -1    0    0  501    0  0.00000000000E+00 -0.00000000000E+00 -0.46715180932E+03  0.46715180932E+03  0.00000000000E+00 0. -1.
        -24    2    1    2    0    0  0.37171500988E+02 -0.21302017874E+03  0.60718625811E+03  0.64932992133E+03  0.78707545148E+02 0.  0.
        254    2    1    2    0    0 -0.37171500988E+02  0.21302017874E+03  0.31182975461E+02  0.92334293087E+03  0.89712344357E+03 0.  0.
         23    2    4    4    0    0 -0.43911018856E+03  0.22100830258E+03 -0.53374964344E+02  0.50289870176E+03  0.91628543102E+02 0.  0.
         23    2    4    4    0    0  0.40193868757E+03 -0.79881238474E+01  0.84557939806E+02  0.42044422911E+03  0.89469469180E+02 0.  0.
          3    1    3    3  502    0 -0.56630836233E+01 -0.36014472376E+01  0.12904258833E+01  0.68341888538E+01  0.00000000000E+00 0. -1.
         -4    1    3    3    0  502  0.42834584611E+02 -0.20941873150E+03  0.60589583223E+03  0.64249573248E+03  0.00000000000E+00 0.  1.
         11    1    5    5    0    0 -0.40741733803E+03  0.22314835551E+03 -0.34173080783E+02  0.46578093063E+03  0.00000000000E+00 0. -1.
        -11    1    5    5    0    0 -0.31692850534E+02 -0.21400529283E+01 -0.19201883562E+02  0.37117771132E+02  0.00000000000E+00 0.  1.
          1    1    6    6  503    0  0.26630092776E+03  0.18494391030E+02  0.91184517240E+02  0.28208658744E+03  0.00000000000E+00 0. -1.
         -1    1    6    6    0  503  0.13563775981E+03 -0.26482514877E+02 -0.66265774347E+01  0.13835764167E+03  0.00000000000E+00 0.  1.
<mgrwt>
<rscale>  0 0.14372838E+04</rscale>
<asrwt>0</asrwt>
<pdfrwt beam="1">  1        1 0.71869509E-01 0.14372838E+04</pdfrwt>
<pdfrwt beam="2">  1       -2 0.17008016E+00 0.14372838E+04</pdfrwt>
<totfact> 0.87954732E+00</totfact>
</mgrwt>
</event>
<event>
12    4  0.4280696E-008  0.2035599E+04  0.7818608E-02  0.8590155E-01
          1   -1    0    0  501    0  0.00000000000E+00  0.00000000000E+00  0.35904104191E+04  0.35904104191E+04  0.00000000000E+00 0. -1.
         -2   -1    0    0    0  501 -0.00000000000E+00 -0.00000000000E+00 -0.28852304020E+03  0.28852304020E+03  0.00000000000E+00 0.  1.
        -24    2    1    2    0    0  0.28235457728E+03 -0.20367832707E+03 -0.76152604618E+02  0.36542385043E+03  0.80786156264E+02 0.  0.
        254    2    1    2    0    0 -0.28235457728E+03  0.20367832707E+03  0.33780399835E+04  0.35135096089E+04  0.90132495424E+03 0.  0.
         23    2    4    4    0    0 -0.26284997647E+03 -0.18970627840E+03  0.27251558856E+04  0.27458447687E+04  0.90057261149E+02 0.  0.
         23    2    4    4    0    0 -0.19504600806E+02  0.39338460547E+03  0.65288409790E+03  0.76766484024E+03  0.88993170397E+02 0.  0.
          1    1    3    3  502    0  0.50103368976E+02 -0.71258443244E+02  0.11694777131E+01  0.87117627346E+02  0.00000000000E+00 0. -1.
         -2    1    3    3    0  502  0.23225120830E+03 -0.13241988382E+03 -0.77322082331E+02  0.27830622308E+03  0.00000000000E+00 0.  1.
         11    1    5    5    0    0 -0.25688304298E+03 -0.19556570041E+03  0.25309551915E+04  0.25514640938E+04  0.00000000000E+00 0. -1.
        -11    1    5    5    0    0 -0.59669334861E+01  0.58594220073E+01  0.19420069417E+03  0.19438067480E+03  0.00000000000E+00 0.  1.
          1    1    6    6  503    0 -0.31694677750E+02  0.30458119636E+03  0.56200252248E+03  0.64001647873E+03  0.00000000000E+00 0. -1.
         -1    1    6    6    0  503  0.12190076944E+02  0.88803409107E+02  0.90881575424E+02  0.12764836151E+03  0.00000000000E+00 0.  1.
<mgrwt>
<rscale>  0 0.20355993E+04</rscale>
<asrwt>0</asrwt>
<pdfrwt beam="1">  1        1 0.55237080E+00 0.20355993E+04</pdfrwt>
<pdfrwt beam="2">  1       -2 0.44388163E-01 0.20355993E+04</pdfrwt>
<totfact> 0.83201153E-01</totfact>
</mgrwt>
</event>
<event>
12    4  0.4280696E-008  0.1695335E+04  0.7818608E-02  0.8764030E-01
         -2   -1    0    0    0  501 -0.00000000000E+00  0.00000000000E+00  0.12272657315E+04  0.12272657315E+04  0.00000000000E+00 0.  1.
          1   -1    0    0  501    0  0.00000000000E+00 -0.00000000000E+00 -0.58548024606E+03  0.58548024606E+03  0.00000000000E+00 0. -1.
        -24    2    1    2    0    0  0.33230151169E+03 -0.75875194087E+02 -0.30285902267E+03  0.46317585030E+03  0.81406025218E+02 0.  0.
        254    2    1    2    0    0 -0.33230151169E+03  0.75875194087E+02  0.94464450811E+03  0.13495701273E+04  0.90155695436E+03 0.  0.
         23    2    4    4    0    0 -0.21957499408E+03  0.47880346321E+03  0.52876900729E+03  0.75271753243E+03  0.97576053133E+02 0.  0.
         23    2    4    4    0    0 -0.11272651761E+03 -0.40292826912E+03  0.41587550082E+03  0.59685259484E+03  0.90675961307E+02 0.  0.
          1    1    3    3  502    0  0.30642968111E+03 -0.68681081500E+02 -0.30292069829E+03  0.43632234630E+03  0.00000000000E+00 0. -1.
         -2    1    3    3    0  502  0.25871830581E+02 -0.71941125874E+01  0.61675627782E-01  0.26853504007E+02  0.00000000000E+00 0.  1.
         11    1    5    5    0    0 -0.10500193890E+03  0.12887748404E+03  0.14096489152E+03  0.21795851373E+03  0.00000000000E+00 0. -1.
        -11    1    5    5    0    0 -0.11457305518E+03  0.34992597917E+03  0.38780411577E+03  0.53475901870E+03  0.00000000000E+00 0.  1.
          4    1    6    6  503    0 -0.36800176088E+02 -0.11744606639E+03  0.18373455342E+03  0.22114750189E+03  0.00000000000E+00 0. -1.
         -4    1    6    6    0  503 -0.75926341520E+02 -0.28548220273E+03  0.23214094740E+03  0.37570509295E+03  0.00000000000E+00 0.  1.
<mgrwt>
<rscale>  0 0.16953346E+04</rscale>
<asrwt>0</asrwt>
<pdfrwt beam="1">  1        1 0.90073884E-01 0.16953346E+04</pdfrwt>
<pdfrwt beam="2">  1       -2 0.18881011E+00 0.16953346E+04</pdfrwt>
<totfact> 0.46634135E+00</totfact>
</mgrwt>
</event>
<event>
12    4  0.4280696E-008  0.2049345E+04  0.7818608E-02  0.8583892E-01
         -2   -1    0    0    0  501 -0.00000000000E+00  0.00000000000E+00  0.50989672237E+03  0.50989672237E+03  0.00000000000E+00 0.  1.
          1   -1    0    0  501    0  0.00000000000E+00 -0.00000000000E+00 -0.20591491100E+04  0.20591491100E+04  0.00000000000E+00 0. -1.
        -24    2    1    2    0    0  0.10488333401E+03 -0.15678866541E+03  0.37962901310E+03  0.43171529519E+03  0.81711132419E+02 0.  0.
        254    2    1    2    0    0 -0.10488333401E+03  0.15678866541E+03 -0.19288814007E+04  0.21373305371E+04  0.90111884216E+03 0.  0.
         23    2    4    4    0    0 -0.16814933345E+03  0.90657422809E+02 -0.75528927450E+01  0.21174854150E+03  0.91035333734E+02 0.  0.
         23    2    4    4    0    0  0.63265999442E+02  0.66131242606E+02 -0.19213285080E+04  0.19255819957E+04  0.89369225909E+02 0.  0.
          3    1    3    3  502    0 -0.74514524572E+01 -0.46163023707E+02  0.68788282389E+02  0.83176779786E+02  0.00000000000E+00 0. -1.
         -4    1    3    3    0  502  0.11233478646E+03 -0.11062564171E+03  0.31084073071E+03  0.34853851541E+03  0.00000000000E+00 0.  1.
         11    1    5    5    0    0 -0.51416184667E+02  0.27322062900E+02 -0.45197332831E+02  0.73708331021E+02  0.00000000000E+00 0.  1.
        -11    1    5    5    0    0 -0.11673314878E+03  0.63335359909E+02  0.37644440086E+02  0.13804021048E+03  0.00000000000E+00 0. -1.
          3    1    6    6  503    0  0.52437642088E+02  0.11096628950E+02 -0.14398732367E+04  0.14408704935E+04  0.00000000000E+00 0. -1.
         -3    1    6    6    0  503  0.10828357354E+02  0.55034613656E+02 -0.48145527130E+03  0.48471150212E+03  0.00000000000E+00 0.  1.
<mgrwt>
<rscale>  0 0.20493447E+04</rscale>
<asrwt>0</asrwt>
<pdfrwt beam="1">  1        1 0.31679217E+00 0.20493447E+04</pdfrwt>
<pdfrwt beam="2">  1       -2 0.78445651E-01 0.20493447E+04</pdfrwt>
<totfact> 0.31839633E+00</totfact>
</mgrwt>
</event>
<event>
12    4  0.4280696E-008  0.1495910E+04  0.7818608E-02  0.8887177E-01
          1   -1    0    0  501    0  0.00000000000E+00  0.00000000000E+00  0.49061377436E+03  0.49061377436E+03  0.00000000000E+00 0. -1.
         -2   -1    0    0    0  501 -0.00000000000E+00 -0.00000000000E+00 -0.11402795415E+04  0.11402795415E+04  0.00000000000E+00 0.  1.
        -24    2    1    2    0    0 -0.39329638666E+03  0.22778737902E+03  0.35994737003E+02  0.46273771036E+03  0.79129196274E+02 0.  0.
        254    2    1    2    0    0  0.39329638666E+03 -0.22778737902E+03 -0.68566050412E+03  0.11681556055E+04  0.82939016988E+03 0.  0.
         23    2    4    4    0    0  0.41539422563E+03 -0.44692520622E+03 -0.24055942963E+03  0.66316474762E+03  0.98102704613E+02 0.  0.
         23    2    4    4    0    0 -0.22097838974E+02  0.21913782720E+03 -0.44510107449E+03  0.50499085786E+03  0.91602937776E+02 0.  0.
          1    1    3    3  502    0 -0.27471906461E+03  0.13383281967E+03 -0.62988123811E+01  0.30564924852E+03  0.00000000000E+00 0. -1.
         -2    1    3    3    0  502 -0.11857732205E+03  0.93954559344E+02  0.42293549384E+02  0.15708846184E+03  0.00000000000E+00 0.  1.
         11    1    5    5    0    0  0.99955091596E+02 -0.12366728412E+03 -0.10882398716E+03  0.19268439916E+03  0.00000000000E+00 0. -1.
        -11    1    5    5    0    0  0.31543913404E+03 -0.32325792210E+03 -0.13173544247E+03  0.47048034846E+03  0.00000000000E+00 0.  1.
          1    1    6    6  503    0  0.29048474992E+02  0.36489077533E+02 -0.62816203897E+02  0.78237728434E+02  0.00000000000E+00 0. -1.
         -1    1    6    6    0  503 -0.51146313966E+02  0.18264874967E+03 -0.38228487060E+03  0.42675312943E+03  0.00000000000E+00 0.  1.
<mgrwt>
<rscale>  0 0.14959102E+04</rscale>
<asrwt>0</asrwt>
<pdfrwt beam="1">  1        1 0.75479042E-01 0.14959102E+04</pdfrwt>
<pdfrwt beam="2">  1       -2 0.17542762E+00 0.14959102E+04</pdfrwt>
<totfact> 0.75053372E+00</totfact>
</mgrwt>
</event>
<event>
12    4  0.4280696E-008  0.1883054E+04  0.7818608E-02  0.8663338E-01
          1   -1    0    0  501    0  0.00000000000E+00  0.00000000000E+00  0.17277124776E+04  0.17277124776E+04  0.00000000000E+00 0. -1.
         -2   -1    0    0    0  501 -0.00000000000E+00 -0.00000000000E+00 -0.51309038875E+03  0.51309038875E+03  0.00000000000E+00 0.  1.
        -24    2    1    2    0    0 -0.16356181054E+03 -0.50793032130E+03  0.10512115995E+04  0.11816541896E+04  0.80716291643E+02 0.  0.
        254    2    1    2    0    0  0.16356181054E+03  0.50793032130E+03  0.16341048936E+03  0.10591486768E+04  0.90019289837E+03 0.  0.
         23    2    4    4    0    0  0.12056194721E+03  0.44548909540E+03  0.51026089577E+03  0.69412821945E+03  0.91935227476E+02 0.  0.
         23    2    4    4    0    0  0.42999863325E+02  0.62441225898E+02 -0.34685040641E+03  0.36502045730E+03  0.84775202042E+02 0.  0.
          1    1    3    3  502    0 -0.34615965675E+02 -0.14105910166E+03  0.21523907318E+03  0.25966092094E+03  0.00000000000E+00 0. -1.
         -2    1    3    3    0  502 -0.12894584486E+03 -0.36687121964E+03  0.83597252633E+03  0.92199326868E+03  0.00000000000E+00 0.  1.
         11    1    5    5    0    0  0.30025834338E+01  0.15459066443E+03  0.13765774132E+03  0.20701918458E+03  0.00000000000E+00 0. -1.
        -11    1    5    5    0    0  0.11755936378E+03  0.29089843096E+03  0.37260315445E+03  0.48710903487E+03  0.00000000000E+00 0.  1.
          4    1    6    6  503    0  0.18644090134E+02  0.67164200466E+02 -0.32359002079E+03  0.33101228599E+03  0.00000000000E+00 0.  1.
         -4    1    6    6    0  503  0.24355773192E+02 -0.47229745679E+01 -0.23260385621E+02  0.34008171309E+02  0.00000000000E+00 0. -1.
<mgrwt>
<rscale>  0 0.18830535E+04</rscale>
<asrwt>0</asrwt>
<pdfrwt beam="1">  1        1 0.26580192E+00 0.18830535E+04</pdfrwt>
<pdfrwt beam="2">  1       -2 0.78936983E-01 0.18830535E+04</pdfrwt>
<totfact> 0.53463048E+00</totfact>
</mgrwt>
</event>
<event>
12    4  0.4280696E-008  0.1551468E+04  0.7818608E-02  0.8850931E-01
          1   -1    0    0  501    0  0.00000000000E+00  0.00000000000E+00  0.96423505572E+03  0.96423505572E+03  0.00000000000E+00 0. -1.
         -2   -1    0    0    0  501 -0.00000000000E+00 -0.00000000000E+00 -0.62408332257E+03  0.62408332257E+03  0.00000000000E+00 0.  1.
        -24    2    1    2    0    0 -0.92232038347E+02 -0.44968888887E+03  0.33987635484E+03  0.57663562224E+03  0.79157176505E+02 0.  0.
        254    2    1    2    0    0  0.92232038347E+02  0.44968888887E+03  0.27537830996E+00  0.10116827561E+04  0.90154039144E+03 0.  0.
         23    2    4    4    0    0 -0.31537825378E+03  0.29496009050E+03 -0.24294733668E+03  0.50406795113E+03  0.92715656750E+02 0.  0.
         23    2    4    4    0    0  0.40761029213E+03  0.15472879836E+03  0.24322271499E+03  0.50761480492E+03  0.91806044446E+02 0.  0.
          1    1    3    3  502    0 -0.29460010516E+02 -0.32379081884E+02  0.34301143597E+02  0.55613538058E+02  0.00000000000E+00 0. -1.
         -2    1    3    3    0  502 -0.62772027831E+02 -0.41730980698E+03  0.30557521125E+03  0.52102208419E+03  0.00000000000E+00 0.  1.
         11    1    5    5    0    0 -0.30546299898E+03  0.27046966458E+03 -0.20181858480E+03  0.45518372596E+03  0.00000000000E+00 0. -1.
        -11    1    5    5    0    0 -0.99152548011E+01  0.24490425927E+02 -0.41128751876E+02  0.48884225173E+02  0.00000000000E+00 0.  1.
          1    1    6    6  503    0  0.23167044173E+03  0.40802603011E+02  0.14289758383E+03  0.27523765267E+03  0.00000000000E+00 0. -1.
         -1    1    6    6    0  503  0.17593985040E+03  0.11392619535E+03  0.10032513116E+03  0.23237715225E+03  0.00000000000E+00 0.  1.
<mgrwt>
<rscale>  0 0.15514677E+04</rscale>
<asrwt>0</asrwt>
<pdfrwt beam="1">  1        1 0.14834385E+00 0.15514677E+04</pdfrwt>
<pdfrwt beam="2">  1       -2 0.96012819E-01 0.15514677E+04</pdfrwt>
<totfact> 0.12396241E+01</totfact>
</mgrwt>
</event>
<event>
12    4  0.4280696E-008  0.1727380E+04  0.7818608E-02  0.8745901E-01
         -2   -1    0    0    0  501 -0.00000000000E+00  0.00000000000E+00  0.13164303673E+04  0.13164303673E+04  0.00000000000E+00 0.  1.
          1   -1    0    0  501    0  0.00000000000E+00 -0.00000000000E+00 -0.56665423880E+03  0.56665423880E+03  0.00000000000E+00 0. -1.
        -24    2    1    2    0    0 -0.24010396744E+03  0.54335432149E+03  0.48527545308E+03  0.77172061646E+03  0.84714878535E+02 0.  0.
        254    2    1    2    0    0  0.24010396744E+03 -0.54335432149E+03  0.26450067543E+03  0.11113639896E+04  0.90126881467E+03 0.  0.
         23    2    4    4    0    0  0.29402188574E+03  0.11620825184E+03  0.29932122919E+03  0.44254531198E+03  0.79372084670E+02 0.  0.
         23    2    4    4    0    0 -0.53917918300E+02 -0.65956257333E+03 -0.34820553756E+02  0.66881867766E+03  0.90421361238E+02 0.  0.
          3    1    3    3  502    0 -0.10978429376E+03  0.30627349316E+03  0.21949599168E+03  0.39247233550E+03  0.00000000000E+00 0. -1.
         -4    1    3    3    0  502 -0.13031967368E+03  0.23708082833E+03  0.26577946140E+03  0.37924828096E+03  0.00000000000E+00 0.  1.
         11    1    5    5    0    0  0.15321328570E+03  0.17950006786E+02  0.14103247491E+03  0.20901357046E+03  0.00000000000E+00 0.  1.
        -11    1    5    5    0    0  0.14080860005E+03  0.98258245051E+02  0.15828875428E+03  0.23353174152E+03  0.00000000000E+00 0. -1.
          3    1    6    6  503    0  0.12902416280E+02 -0.38441540091E+03 -0.26701942700E+02  0.38555760471E+03  0.00000000000E+00 0. -1.
         -3    1    6    6    0  503 -0.66820334581E+02 -0.27514717242E+03 -0.81186110559E+01  0.28326107295E+03  0.00000000000E+00 0.  1.
<mgrwt>
<rscale>  0 0.17273805E+04</rscale>
<asrwt>0</asrwt>
<pdfrwt beam="1">  1        1 0.87177575E-01 0.17273805E+04</pdfrwt>
<pdfrwt beam="2">  1       -2 0.20252775E+00 0.17273805E+04</pdfrwt>
<totfact> 0.39520103E+00</totfact>
</mgrwt>
</event>
<event>
12    4  0.4280696E-008  0.2383249E+04  0.7818608E-02  0.8445801E-01
          1   -1    0    0  501    0  0.00000000000E+00  0.00000000000E+00  0.29220342624E+04  0.29220342624E+04  0.00000000000E+00 0. -1.
         -2   -1    0    0    0  501 -0.00000000000E+00 -0.00000000000E+00 -0.48595235683E+03  0.48595235683E+03  0.00000000000E+00 0.  1.
        -24    2    1    2    0    0  0.91211068011E+03  0.37473714879E+03  0.67767698320E+03  0.11991895210E+04  0.80222130168E+02 0.  0.
        254    2    1    2    0    0 -0.91211068011E+03 -0.37473714879E+03  0.17584049223E+04  0.22087970982E+04  0.90245383640E+03 0.  0.
         23    2    4    4    0    0 -0.27352567109E+03  0.26580040304E+03  0.31653160630E+03  0.50408967583E+03  0.91912983246E+02 0.  0.
         23    2    4    4    0    0 -0.63858500902E+03 -0.64053755183E+03  0.14418733160E+04  0.17047074224E+04  0.94602153560E+02 0.  0.
          3    1    3    3  502    0  0.75850446055E+03  0.30788074808E+03  0.52473773667E+03  0.97235243816E+03  0.00000000000E+00 0. -1.
         -2    1    3    3    0  502  0.15360621956E+03  0.66856400710E+02  0.15293924653E+03  0.22683708280E+03  0.00000000000E+00 0.  1.
         11    1    5    5    0    0 -0.65545919989E+02  0.10365026818E+03  0.61368489511E+02  0.13713401193E+03  0.00000000000E+00 0. -1.
        -11    1    5    5    0    0 -0.20797975110E+03  0.16215013486E+03  0.25516311679E+03  0.36695566391E+03  0.00000000000E+00 0.  1.
          3    1    6    6  503    0 -0.10847304859E+03 -0.14816215536E+03  0.34262376002E+03  0.38872801221E+03  0.00000000000E+00 0. -1.
         -3    1    6    6    0  503 -0.53011196043E+03 -0.49237539648E+03  0.10992495560E+04  0.13159794102E+04  0.00000000000E+00 0.  1.
<mgrwt>
<rscale>  0 0.23832494E+04</rscale>
<asrwt>0</asrwt>
<pdfrwt beam="1">  1        1 0.44954372E+00 0.23832494E+04</pdfrwt>
<pdfrwt beam="2">  1       -2 0.74761903E-01 0.23832494E+04</pdfrwt>
<totfact> 0.86421200E-01</totfact>
</mgrwt>
</event>
<event>
12    4  0.4280696E-008  0.1169173E+04  0.7818608E-02  0.9140276E-01
         -2   -1    0    0    0  501 -0.00000000000E+00  0.00000000000E+00  0.11363621630E+03  0.11363621630E+03  0.00000000000E+00 0.  1.
          1   -1    0    0  501    0  0.00000000000E+00 -0.00000000000E+00 -0.30073278061E+04  0.30073278061E+04  0.00000000000E+00 0. -1.
        -24    2    1    2    0    0 -0.97874874224E+02  0.21037442600E+03 -0.59695774891E+03  0.64539946417E+03  0.79655660540E+02 0.  0.
        254    2    1    2    0    0  0.97874874224E+02 -0.21037442600E+03 -0.22967338409E+04  0.24755645583E+04  0.89420168641E+03 0.  0.
         23    2    4    4    0    0 -0.28278434729E+03  0.61140325686E+02 -0.31285433533E+03  0.43536000325E+03  0.89192885371E+02 0.  0.
         23    2    4    4    0    0  0.38065922151E+03 -0.27151475168E+03 -0.19838795056E+04  0.20402045550E+04  0.89638330344E+02 0.  0.
          1    1    3    3  502    0 -0.79871490576E+02  0.19990908870E+03 -0.47273575035E+03  0.51944411481E+03  0.00000000000E+00 0. -1.
         -2    1    3    3    0  502 -0.18003383648E+02  0.10465337296E+02 -0.12422199856E+03  0.12595534936E+03  0.00000000000E+00 0.  1.
         11    1    5    5    0    0 -0.27831344849E+03  0.74692280931E+02 -0.29351031513E+03  0.41132179316E+03  0.00000000000E+00 0. -1.
        -11    1    5    5    0    0 -0.44708988023E+01 -0.13551955245E+02 -0.19344020195E+02  0.24038210091E+02  0.00000000000E+00 0.  1.
          4    1    6    6  503    0  0.24702338487E+03 -0.16246890247E+03 -0.10650918781E+04  0.11053675433E+04  0.00000000000E+00 0. -1.
         -4    1    6    6    0  503  0.13363583664E+03 -0.10904584921E+03 -0.91878762747E+03  0.93483701170E+03  0.00000000000E+00 0.  1.
<mgrwt>
<rscale>  0 0.11691730E+04</rscale>
<asrwt>0</asrwt>
<pdfrwt beam="1">  1        1 0.46266583E+00 0.11691730E+04</pdfrwt>
<pdfrwt beam="2">  1       -2 0.17482494E-01 0.11691730E+04</pdfrwt>
<totfact> 0.14096060E+01</totfact>
</mgrwt>
</event>
<event>
12    4  0.4280696E-008  0.2085496E+04  0.7818608E-02  0.8567659E-01
          1   -1    0    0  501    0  0.00000000000E+00  0.00000000000E+00  0.23209607724E+04  0.23209607724E+04  0.00000000000E+00 0. -1.
         -2   -1    0    0    0  501 -0.00000000000E+00 -0.00000000000E+00 -0.46848004627E+03  0.46848004627E+03  0.00000000000E+00 0.  1.
        -24    2    1    2    0    0  0.53879346503E+03 -0.52872025497E+03  0.24857642571E+03  0.79880200509E+03  0.80317482252E+02 0.  0.
        254    2    1    2    0    0 -0.53879346503E+03  0.52872025497E+03  0.16039043004E+04  0.19906388136E+04  0.90569883251E+03 0.  0.
         23    2    4    4    0    0 -0.13176588198E+03 -0.11293449128E+02 -0.78158587699E+02  0.17546766529E+03  0.84795914298E+02 0.  0.
         23    2    4    4    0    0 -0.40702758304E+03  0.54001370410E+03  0.16820628881E+04  0.18151711483E+04  0.90688940882E+02 0.  0.
          1    1    3    3  502    0  0.51286371353E+03 -0.50753509294E+03  0.21877917907E+03  0.75397970026E+03  0.00000000000E+00 0. -1.
         -2    1    3    3    0  502  0.25929751499E+02 -0.21185162031E+02  0.29797246637E+02  0.44822304829E+02  0.00000000000E+00 0.  1.
         11    1    5    5    0    0 -0.13663672394E+03 -0.13709082682E+02 -0.88789520367E+02  0.16352709930E+03  0.00000000000E+00 0.  1.
        -11    1    5    5    0    0  0.48708419553E+01  0.24156335542E+01  0.10630932667E+02  0.11940565991E+02  0.00000000000E+00 0. -1.
          3    1    6    6  503    0 -0.11416237683E+03  0.16022876555E+03  0.38653545805E+03  0.43372337488E+03  0.00000000000E+00 0. -1.
         -3    1    6    6    0  503 -0.29286520621E+03  0.37978493854E+03  0.12955274301E+04  0.13814477734E+04  0.00000000000E+00 0.  1.
<mgrwt>
<rscale>  0 0.20854964E+04</rscale>
<asrwt>0</asrwt>
<pdfrwt beam="1">  1        1 0.35707088E+00 0.20854964E+04</pdfrwt>
<pdfrwt beam="2">  1       -2 0.72073855E-01 0.20854964E+04</pdfrwt>
<totfact> 0.25399232E+00</totfact>
</mgrwt>
</event>
<event>
12    4  0.4280696E-008  0.1923979E+04  0.7818608E-02  0.8643011E-01
         -2   -1    0    0    0  501 -0.00000000000E+00  0.00000000000E+00  0.67939978016E+03  0.67939978016E+03  0.00000000000E+00 0.  1.
          1   -1    0    0  501    0  0.00000000000E+00 -0.00000000000E+00 -0.13621203411E+04  0.13621203411E+04  0.00000000000E+00 0. -1.
        -24    2    1    2    0    0  0.71060548639E+02 -0.25564442933E+03 -0.10169668222E+04  0.10541258648E+04  0.80970028637E+02 0.  0.
        254    2    1    2    0    0 -0.71060548639E+02  0.25564442933E+03  0.33424626133E+03  0.98739425641E+03  0.89040618740E+03 0.  0.
         23    2    4    4    0    0 -0.18638975161E+03  0.23777157203E+03  0.60305208491E+03  0.68066295803E+03  0.91399044601E+02 0.  0.
         23    2    4    4    0    0  0.11532920297E+03  0.17872857301E+02 -0.26880582358E+03  0.30673129838E+03  0.90593898962E+02 0.  0.
          3    1    3    3  502    0  0.52083054522E+02 -0.24527861377E+03 -0.86439963354E+03  0.90003387125E+03  0.00000000000E+00 0. -1.
         -4    1    3    3    0  502  0.18977494117E+02 -0.10365815562E+02 -0.15256718868E+03  0.15409199355E+03  0.00000000000E+00 0.  1.
         11    1    5    5    0    0 -0.79438392994E+02  0.17025789335E+03  0.39004951085E+03  0.43293975267E+03  0.00000000000E+00 0. -1.
        -11    1    5    5    0    0 -0.10695135861E+03  0.67513678679E+02  0.21300257406E+03  0.24772320536E+03  0.00000000000E+00 0.  1.
          1    1    6    6  503    0 -0.21229295529E+01 -0.14170238368E+02 -0.85416602403E+02  0.86610036666E+02  0.00000000000E+00 0. -1.
         -1    1    6    6    0  503  0.11745213252E+03  0.32043095669E+02 -0.18338922118E+03  0.22012126171E+03  0.00000000000E+00 0.  1.
<mgrwt>
<rscale>  0 0.19239795E+04</rscale>
<asrwt>0</asrwt>
<pdfrwt beam="1">  1        1 0.20955697E+00 0.19239795E+04</pdfrwt>
<pdfrwt beam="2">  1       -2 0.10452304E+00 0.19239795E+04</pdfrwt>
<totfact> 0.49748454E+00</totfact>
</mgrwt>
</event>
<event>
12    4  0.4280696E-008  0.2085516E+04  0.7818608E-02  0.8567651E-01
         -4   -1    0    0    0  501 -0.00000000000E+00  0.00000000000E+00  0.23282717140E+03  0.23282717140E+03  0.00000000000E+00 0.  1.
          1   -1    0    0  501    0  0.00000000000E+00 -0.00000000000E+00 -0.46701761155E+04  0.46701761155E+04  0.00000000000E+00 0. -1.
        -24    2    1    2    0    0  0.20024953105E+03 -0.25316324883E+03 -0.36327122683E+04  0.36479026212E+04  0.80022522898E+02 0.  0.
        254    2    1    2    0    0 -0.20024953105E+03  0.25316324883E+03 -0.80463667583E+03  0.12551006658E+04  0.90754944540E+03 0.  0.
         23    2    4    4    0    0 -0.51470019167E+03  0.36282179408E+02 -0.26439488903E+03  0.58705269072E+03  0.92160297804E+02 0.  0.
         23    2    4    4    0    0  0.31445066061E+03  0.21688106942E+03 -0.54024178680E+03  0.66804797503E+03  0.92251246654E+02 0.  0.
          1    1    3    3  502    0  0.18390775542E+03 -0.25275048866E+03 -0.32944186022E+04  0.33092142268E+04  0.00000000000E+00 0. -1.
         -2    1    3    3    0  502  0.16341775635E+02 -0.41276016232E+00 -0.33829366604E+03  0.33868839437E+03  0.00000000000E+00 0.  1.
         11    1    5    5    0    0 -0.79311920817E+02  0.13401131768E+02 -0.69677558204E+01  0.80737356518E+02  0.00000000000E+00 0.  1.
        -11    1    5    5    0    0 -0.43538827085E+03  0.22881047639E+02 -0.25742713321E+03  0.50631533420E+03  0.00000000000E+00 0. -1.
          1    1    6    6  503    0  0.25795539080E+03  0.21421137492E+03 -0.47887771530E+03  0.58459504188E+03  0.00000000000E+00 0. -1.
         -1    1    6    6    0  503  0.56495269814E+02  0.26696945036E+01 -0.61364071502E+02  0.83452933151E+02  0.00000000000E+00 0.  1.
<mgrwt>
<rscale>  0 0.20855157E+04</rscale>
<asrwt>0</asrwt>
<pdfrwt beam="1">  1        1 0.71848857E+00 0.20855157E+04</pdfrwt>
<pdfrwt beam="2">  1       -4 0.35819568E-01 0.20855157E+04</pdfrwt>
<totfact> 0.75851463E-02</totfact>
</mgrwt>
</event>
<event>
12    4  0.4280696E-008  0.1469683E+04  0.7818608E-02  0.8904867E-01
          1   -1    0    0  501    0  0.00000000000E+00  0.00000000000E+00  0.19635266439E+03  0.19635266439E+03  0.00000000000E+00 0. -1.
         -2   -1    0    0    0  501 -0.00000000000E+00 -0.00000000000E+00 -0.27501135143E+04  0.27501135143E+04  0.00000000000E+00 0.  1.
        -24    2    1    2    0    0 -0.26196870694E+02 -0.45404476796E+03 -0.64357393847E+03  0.79213137457E+03  0.80260656384E+02 0.  0.
        254    2    1    2    0    0  0.26196870694E+02  0.45404476796E+03 -0.19101869114E+04  0.21543348041E+04  0.88628521608E+03 0.  0.
         23    2    4    4    0    0 -0.11722247125E+03  0.62288893021E+03 -0.83225262205E+03  0.10500911050E+04  0.91187579906E+02 0.  0.
         23    2    4    4    0    0  0.14341934194E+03 -0.16884416225E+03 -0.10779342894E+04  0.11042436991E+04  0.91292694375E+02 0.  0.
          1    1    3    3  502    0 -0.14652328001E-01 -0.10731406767E+02 -0.65695033180E+00  0.10751506389E+02  0.00000000000E+00 0. -1.
         -2    1    3    3    0  502 -0.26182218366E+02 -0.44331336120E+03 -0.64291698813E+03  0.78137986819E+03  0.00000000000E+00 0.  1.
         11    1    5    5    0    0 -0.64246936309E+02  0.15387736066E+03 -0.18561417870E+03  0.24951660122E+03  0.00000000000E+00 0. -1.
        -11    1    5    5    0    0 -0.52975534940E+02  0.46901156955E+03 -0.64663844335E+03  0.80057450377E+03  0.00000000000E+00 0.  1.
          1    1    6    6  503    0  0.35539379013E+02  0.12547473655E+01 -0.11117843829E+03  0.11672731896E+03  0.00000000000E+00 0. -1.
         -1    1    6    6    0  503  0.10787996293E+03 -0.17009890961E+03 -0.96675585110E+03  0.98751638016E+03  0.00000000000E+00 0.  1.
<mgrwt>
<rscale>  0 0.14696831E+04</rscale>
<asrwt>0</asrwt>
<pdfrwt beam="1">  1        1 0.30208102E-01 0.14696831E+04</pdfrwt>
<pdfrwt beam="2">  1       -2 0.42309439E+00 0.14696831E+04</pdfrwt>
<totfact> 0.68133185E-01</totfact>
</mgrwt>
</event>
<event>
12    4  0.4280696E-008  0.1240339E+04  0.7818608E-02  0.9078262E-01
         -2   -1    0    0    0  501 -0.00000000000E+00  0.00000000000E+00  0.20672832475E+03  0.20672832475E+03  0.00000000000E+00 0.  1.
          1   -1    0    0  501    0  0.00000000000E+00 -0.00000000000E+00 -0.18604629350E+04  0.18604629350E+04  0.00000000000E+00 0. -1.
        -24    2    1    2    0    0 -0.14112827063E+03  0.18778382630E+02  0.51037710345E+02  0.17202361828E+03  0.81960117997E+02 0.  0.
        254    2    1    2    0    0  0.14112827063E+03 -0.18778382630E+02 -0.17047723206E+04  0.18951676415E+04  0.81556232615E+03 0.  0.
         23    2    4    4    0    0  0.18942600084E+03  0.11318392377E+03 -0.17135041126E+04  0.17300231289E+04  0.90503438802E+02 0.  0.
         23    2    4    4    0    0 -0.48297730213E+02 -0.13196230640E+03  0.87317919151E+01  0.16514451261E+03  0.86311904169E+02 0.  0.
          3    1    3    3  502    0  0.93778426146E+01 -0.66325773563E+01  0.16988880627E+01  0.11611254676E+02  0.00000000000E+00 0. -1.
         -4    1    3    3    0  502 -0.15050611325E+03  0.25410959987E+02  0.49338822282E+02  0.16041236360E+03  0.00000000000E+00 0.  1.
         11    1    5    5    0    0  0.15503885863E+03  0.61580428792E+02 -0.14370023039E+04  0.14466529710E+04  0.00000000000E+00 0. -1.
        -11    1    5    5    0    0  0.34387142214E+02  0.51603494979E+02 -0.27650180861E+03  0.28337015794E+03  0.00000000000E+00 0.  1.
          4    1    6    6  503    0  0.14732884182E+02 -0.47226300132E+02 -0.23442408313E+02  0.54744203420E+02  0.00000000000E+00 0.  1.
         -4    1    6    6    0  503 -0.63030614395E+02 -0.84736006269E+02  0.32174200229E+02  0.11040030919E+03  0.00000000000E+00 0. -1.
<mgrwt>
<rscale>  0 0.12403393E+04</rscale>
<asrwt>0</asrwt>
<pdfrwt beam="1">  1        1 0.28622506E+00 0.12403393E+04</pdfrwt>
<pdfrwt beam="2">  1       -2 0.31804359E-01 0.12403393E+04</pdfrwt>
<totfact> 0.29530513E+01</totfact>
</mgrwt>
</event>
<event>
12    4  0.4280696E-008  0.1616266E+04  0.7818608E-02  0.8810617E-01
         -2   -1    0    0    0  501 -0.00000000000E+00  0.00000000000E+00  0.12218438966E+04  0.12218438966E+04  0.00000000000E+00 0.  1.
          1   -1    0    0  501    0  0.00000000000E+00 -0.00000000000E+00 -0.53450289718E+03  0.53450289718E+03  0.00000000000E+00 0. -1.
        -24    2    1    2    0    0 -0.96327480268E+02  0.33718377655E+03 -0.22904063920E+03  0.42614698875E+03  0.78547813416E+02 0.  0.
        254    2    1    2    0    0  0.96327480268E+02 -0.33718377655E+03  0.91638163864E+03  0.13301998050E+04  0.89816720663E+03 0.  0.
         23    2    4    4    0    0  0.13811359918E+03 -0.11558151080E+03 -0.14014786588E+03  0.24615118145E+03  0.92274199549E+02 0.  0.
         23    2    4    4    0    0 -0.41786118916E+02 -0.22160226575E+03  0.10565295045E+04  0.10840486236E+04  0.89739514561E+02 0.  0.
          1    1    3    3  502    0 -0.95821738493E+02  0.33383842083E+03 -0.20800433277E+03  0.40484033796E+03  0.00000000000E+00 0. -1.
         -2    1    3    3    0  502 -0.50574177422E+00  0.33453557227E+01 -0.21036306432E+02  0.21306650791E+02  0.00000000000E+00 0.  1.
         11    1    5    5    0    0  0.12771966978E+03 -0.12677310636E+03 -0.14391001369E+03  0.23042097688E+03  0.00000000000E+00 0.  1.
        -11    1    5    5    0    0  0.10393929404E+02  0.11191595564E+02  0.37621478150E+01  0.15730204572E+02  0.00000000000E+00 0. -1.
          4    1    6    6  503    0 -0.77030694808E+01 -0.10211744065E+03  0.29082529955E+03  0.30832882418E+03  0.00000000000E+00 0. -1.
         -4    1    6    6    0  503 -0.34083049435E+02 -0.11948482511E+03  0.76570420496E+03  0.77571979940E+03  0.00000000000E+00 0.  1.
<mgrwt>
<rscale>  0 0.16162662E+04</rscale>
<asrwt>0</asrwt>
<pdfrwt beam="1">  1        1 0.82231215E-01 0.16162662E+04</pdfrwt>
<pdfrwt beam="2">  1       -2 0.18797598E+00 0.16162662E+04</pdfrwt>
<totfact> 0.54103757E+00</totfact>
</mgrwt>
</event>
<event>
12    4  0.4280696E-008  0.1312997E+04  0.7818608E-02  0.9019321E-01
          1   -1    0    0  501    0  0.00000000000E+00  0.00000000000E+00  0.18782025908E+04  0.18782025908E+04  0.00000000000E+00 0. -1.
         -2   -1    0    0    0  501 -0.00000000000E+00 -0.00000000000E+00 -0.22946958677E+03  0.22946958677E+03  0.00000000000E+00 0.  1.
        -24    2    1    2    0    0  0.18872573489E+03 -0.10065484978E+03  0.12808034675E+02  0.22851585794E+03  0.79414417975E+02 0.  0.
        254    2    1    2    0    0 -0.18872573489E+03  0.10065484978E+03  0.16359249693E+04  0.18791563196E+04  0.89957165722E+03 0.  0.
         23    2    4    4    0    0 -0.27858377945E+03 -0.25680842758E+03  0.13458263417E+04  0.14011426375E+04  0.91611450034E+02 0.  0.
         23    2    4    4    0    0  0.89858044558E+02  0.35746327736E+03  0.29009862759E+03  0.47801368214E+03  0.92116251283E+02 0.  0.
          1    1    3    3  502    0  0.36217945402E+01  0.62119522129E+01  0.12910274863E+02  0.14777717788E+02  0.00000000000E+00 0. -1.
         -2    1    3    3    0  502  0.18510394035E+03 -0.10686680199E+03 -0.10224018811E+00  0.21373814015E+03  0.00000000000E+00 0.  1.
         11    1    5    5    0    0 -0.87437470355E+02 -0.32076086771E+02  0.27083451751E+03  0.28640098191E+03  0.00000000000E+00 0.  1.
        -11    1    5    5    0    0 -0.19114630909E+03 -0.22473234081E+03  0.10749918242E+04  0.11147416556E+04  0.00000000000E+00 0. -1.
          1    1    6    6  503    0  0.10738212377E+03  0.31766863847E+03  0.24444975610E+03  0.41496983942E+03  0.00000000000E+00 0. -1.
         -1    1    6    6    0  503 -0.17524079207E+02  0.39794638893E+02  0.45648871492E+02  0.63043842722E+02  0.00000000000E+00 0.  1.
<mgrwt>
<rscale>  0 0.13129971E+04</rscale>
<asrwt>0</asrwt>
<pdfrwt beam="1">  1        1 0.28895423E+00 0.13129971E+04</pdfrwt>
<pdfrwt beam="2">  1       -2 0.35303015E-01 0.13129971E+04</pdfrwt>
<totfact> 0.23421964E+01</totfact>
</mgrwt>
</event>
<event>
12    4  0.4280696E-008  0.1593203E+04  0.7818608E-02  0.8824735E-01
         -2   -1    0    0    0  501 -0.00000000000E+00  0.00000000000E+00  0.56604751799E+03  0.56604751799E+03  0.00000000000E+00 0.  1.
          1   -1    0    0  501    0  0.00000000000E+00 -0.00000000000E+00 -0.11210611190E+04  0.11210611190E+04  0.00000000000E+00 0. -1.
        -24    2    1    2    0    0 -0.30604407765E+03 -0.29294593171E+03 -0.53905971261E+03  0.68935055400E+03  0.71683444213E+02 0.  0.
        254    2    1    2    0    0  0.30604407765E+03  0.29294593171E+03 -0.15953888420E+02  0.99775808301E+03  0.90320892892E+03 0.  0.
         23    2    4    4    0    0 -0.11804162488E+03  0.38309472674E+02  0.34549430817E+03  0.37841601076E+03  0.91820037688E+02 0.  0.
         23    2    4    4    0    0  0.42408570252E+03  0.25463645903E+03 -0.36144819659E+03  0.61934207224E+03  0.90837185555E+02 0.  0.
          3    1    3    3  502    0 -0.30790361668E+03 -0.27996874793E+03 -0.51693074649E+03  0.66362981673E+03  0.00000000000E+00 0. -1.
         -4    1    3    3    0  502  0.18595390382E+01 -0.12977183775E+02 -0.22128966120E+02  0.25720737270E+02  0.00000000000E+00 0.  1.
         11    1    5    5    0    0 -0.81455322941E+02  0.64979970713E+02  0.19286232874E+03  0.21921050175E+03  0.00000000000E+00 0. -1.
        -11    1    5    5    0    0 -0.36586301935E+02 -0.26670498038E+02  0.15263197944E+03  0.15920550902E+03  0.00000000000E+00 0.  1.
          4    1    6    6  503    0  0.99299192300E+02  0.18000529219E+02 -0.78965772192E+02  0.12814032083E+03  0.00000000000E+00 0. -1.
         -4    1    6    6    0  503  0.32478651022E+03  0.23663592981E+03 -0.28248242440E+03  0.49120175142E+03  0.00000000000E+00 0.  1.
<mgrwt>
<rscale>  0 0.15932029E+04</rscale>
<asrwt>0</asrwt>
<pdfrwt beam="1">  1        1 0.17247094E+00 0.15932029E+04</pdfrwt>
<pdfrwt beam="2">  1       -2 0.87084234E-01 0.15932029E+04</pdfrwt>
<totfact> 0.11733520E+01</totfact>
</mgrwt>
</event>
<event>
12    4  0.4280696E-008  0.1747444E+04  0.7818608E-02  0.8734758E-01
          1   -1    0    0  501    0  0.00000000000E+00  0.00000000000E+00  0.76795027505E+03  0.76795027505E+03  0.00000000000E+00 0. -1.
         -2   -1    0    0    0  501 -0.00000000000E+00 -0.00000000000E+00 -0.99406217535E+03  0.99406217535E+03  0.00000000000E+00 0.  1.
        -24    2    1    2    0    0 -0.39167235983E+03  0.50917882866E+03 -0.73500879788E+02  0.65128066635E+03  0.78062859462E+02 0.  0.
        254    2    1    2    0    0  0.39167235983E+03 -0.50917882866E+03 -0.15261102051E+03  0.11107317840E+04  0.89317672131E+03 0.  0.
         23    2    4    4    0    0  0.34398478945E+03 -0.85438897485E+01 -0.40673277950E+03  0.54022240966E+03  0.89499522598E+02 0.  0.
         23    2    4    4    0    0  0.47687570374E+02 -0.50063493891E+03  0.25412175899E+03  0.57050937438E+03  0.89407110668E+02 0.  0.
          1    1    3    3  502    0 -0.15776579132E+03  0.16300278821E+03  0.12658963933E+01  0.22685139710E+03  0.00000000000E+00 0. -1.
         -2    1    3    3    0  502 -0.23390656850E+03  0.34617604046E+03 -0.74766776182E+02  0.42442926925E+03  0.00000000000E+00 0.  1.
         11    1    5    5    0    0  0.36930975859E+02 -0.10582281970E+02 -0.95849095765E+02  0.10326146827E+03  0.00000000000E+00 0.  1.
        -11    1    5    5    0    0  0.30705381359E+03  0.20383922214E+01 -0.31088368374E+03  0.43696094139E+03  0.00000000000E+00 0. -1.
          1    1    6    6  503    0  0.65195463635E+02 -0.45495419344E+03  0.21281490554E+03  0.50648193514E+03  0.00000000000E+00 0. -1.
         -1    1    6    6    0  503 -0.17507893261E+02 -0.45680745473E+02  0.41306853455E+02  0.64027439241E+02  0.00000000000E+00 0.  1.
<mgrwt>
<rscale>  0 0.17474442E+04</rscale>
<asrwt>0</asrwt>
<pdfrwt beam="1">  1        1 0.11814620E+00 0.17474442E+04</pdfrwt>
<pdfrwt beam="2">  1       -2 0.15293264E+00 0.17474442E+04</pdfrwt>
<totfact> 0.55727588E+00</totfact>
</mgrwt>
</event>
<event>
12    4  0.4280696E-008  0.1243655E+04  0.7818608E-02  0.9075481E-01
          1   -1    0    0  501    0  0.00000000000E+00  0.00000000000E+00  0.44486676013E+04  0.44486676013E+04  0.00000000000E+00 0. -1.
         -2   -1    0    0    0  501 -0.00000000000E+00 -0.00000000000E+00 -0.86918023357E+02  0.86918023357E+02  0.00000000000E+00 0.  1.
        -24    2    1    2    0    0  0.46523870779E+02  0.32627210992E+02  0.18879160941E+02  0.99071529863E+02  0.78928701131E+02 0.  0.
        254    2    1    2    0    0 -0.46523870779E+02 -0.32627210992E+02  0.43428704170E+04  0.44365140948E+04  0.90493361578E+03 0.  0.
         23    2    4    4    0    0  0.22695279418E+02  0.21209305614E+03  0.39654862130E+04  0.39722475990E+04  0.90396584340E+02 0.  0.
         23    2    4    4    0    0 -0.69219150197E+02 -0.24472026714E+03  0.37738420398E+03  0.46426649572E+03  0.91897996380E+02 0.  0.
          3    1    3    3  502    0 -0.21327812394E+02 -0.34118146157E+00  0.83343161298E+01  0.22900934733E+02  0.00000000000E+00 0. -1.
         -4    1    3    3    0  502  0.67851683173E+02  0.32968392454E+02  0.10544844811E+02  0.76170595130E+02  0.00000000000E+00 0.  1.
         11    1    5    5    0    0  0.45012941529E+02  0.47770941218E+02  0.12004052558E+04  0.12021984054E+04  0.00000000000E+00 0. -1.
        -11    1    5    5    0    0 -0.22317662111E+02  0.16432211493E+03  0.27650809572E+04  0.27700491937E+04  0.00000000000E+00 0.  1.
          2    1    6    6  503    0 -0.66509200465E+02 -0.88882976357E+02  0.12087383803E+03  0.16411624524E+03  0.00000000000E+00 0. -1.
         -2    1    6    6    0  503 -0.27099497324E+01 -0.15583729078E+03  0.25651036595E+03  0.30015025048E+03  0.00000000000E+00 0.  1.
<mgrwt>
<rscale>  0 0.12436549E+04</rscale>
<asrwt>0</asrwt>
<pdfrwt beam="1">  1        1 0.68441022E+00 0.12436549E+04</pdfrwt>
<pdfrwt beam="2">  1       -2 0.13372007E-01 0.12436549E+04</pdfrwt>
<totfact> 0.14022814E+00</totfact>
</mgrwt>
</event>
<event>
12    4  0.4280696E-008  0.1272305E+04  0.7818608E-02  0.9051820E-01
          3   -1    0    0  501    0  0.00000000000E+00  0.00000000000E+00  0.19862814714E+04  0.19862814714E+04  0.00000000000E+00 0. -1.
         -4   -1    0    0    0  501 -0.00000000000E+00 -0.00000000000E+00 -0.20374260564E+03  0.20374260564E+03  0.00000000000E+00 0.  1.
        -24    2    1    2    0    0  0.14856506836E+03  0.21037808792E+02  0.90843951855E+03  0.92403728636E+03  0.77899799656E+02 0.  0.
        254    2    1    2    0    0 -0.14856506836E+03 -0.21037808792E+02  0.87409934725E+03  0.12659867907E+04  0.90341503003E+03 0.  0.
         23    2    4    4    0    0 -0.24845882516E+03 -0.35581952706E+03  0.16646332546E+03  0.47158566983E+03  0.79647232422E+02 0.  0.
         23    2    4    4    0    0  0.99893756807E+02  0.33478171827E+03  0.70763602179E+03  0.79440112088E+03  0.90922164449E+02 0.  0.
          3    1    3    3  502    0  0.65549537449E+02  0.15882749807E+02  0.62549364093E+03  0.62911946277E+03  0.00000000000E+00 0. -1.
         -4    1    3    3    0  502  0.83015530908E+02  0.51550589852E+01  0.28294587763E+03  0.29491782359E+03  0.00000000000E+00 0.  1.
         11    1    5    5    0    0 -0.97411975050E+02 -0.82854028840E+02  0.65528689552E+02  0.14369374424E+03  0.00000000000E+00 0. -1.
        -11    1    5    5    0    0 -0.15104685011E+03 -0.27296549822E+03  0.10093463590E+03  0.32789192560E+03  0.00000000000E+00 0.  1.
          1    1    6    6  503    0  0.60079030944E+02  0.70962636819E+02  0.15544590414E+03  0.18113148511E+03  0.00000000000E+00 0. -1.
         -1    1    6    6    0  503  0.39814725863E+02  0.26381908145E+03  0.55219011765E+03  0.61326963578E+03  0.00000000000E+00 0.  1.
<mgrwt>
<rscale>  0 0.12723053E+04</rscale>
<asrwt>0</asrwt>
<pdfrwt beam="1">  1        3 0.30558175E+00 0.12723053E+04</pdfrwt>
<pdfrwt beam="2">  1       -4 0.31345018E-01 0.12723053E+04</pdfrwt>
<totfact> 0.80871170E-01</totfact>
</mgrwt>
</event>
<event>
12    4  0.4280696E-008  0.1109652E+04  0.7818608E-02  0.9195835E-01
         -2   -1    0    0    0  501 -0.00000000000E+00  0.00000000000E+00  0.73577433733E+03  0.73577433733E+03  0.00000000000E+00 0.  1.
          1   -1    0    0  501    0  0.00000000000E+00 -0.00000000000E+00 -0.41837798772E+03  0.41837798772E+03  0.00000000000E+00 0. -1.
        -24    2    1    2    0    0  0.30232251182E+02  0.67173006070E+02  0.21755016049E+03  0.24337656214E+03  0.80485258980E+02 0.  0.
        254    2    1    2    0    0 -0.30232251182E+02 -0.67173006070E+02  0.99846189113E+02  0.91077576290E+03  0.90228433825E+03 0.  0.
         23    2    4    4    0    0  0.11372871830E+03 -0.41233182064E+03  0.24224545140E+03  0.50003114172E+03  0.91632594059E+02 0.  0.
         23    2    4    4    0    0 -0.14396096948E+03  0.34515881457E+03 -0.14239926228E+03  0.41074462118E+03  0.92597116177E+02 0.  0.
          3    1    3    3  502    0  0.53194105025E+02  0.43520082685E+02  0.10035703335E+03  0.12163529319E+03  0.00000000000E+00 0. -1.
         -4    1    3    3    0  502 -0.22961853843E+02  0.23652923385E+02  0.11719312714E+03  0.12174126895E+03  0.00000000000E+00 0.  1.
         11    1    5    5    0    0 -0.16100043854E+02 -0.44778377549E+02  0.24266970314E+02  0.53415356933E+02  0.00000000000E+00 0.  1.
        -11    1    5    5    0    0  0.12982876215E+03 -0.36755344309E+03  0.21797848108E+03  0.44661578479E+03  0.00000000000E+00 0. -1.
          3    1    6    6  503    0 -0.13417159650E+03  0.28349035851E+03 -0.15032634154E+03  0.34780283155E+03  0.00000000000E+00 0. -1.
         -3    1    6    6    0  503 -0.97893729789E+01  0.61668456061E+02  0.79270792604E+01  0.62941789630E+02  0.00000000000E+00 0.  1.
<mgrwt>
<rscale>  0 0.11096518E+04</rscale>
<asrwt>0</asrwt>
<pdfrwt beam="1">  1        1 0.64365844E-01 0.11096518E+04</pdfrwt>
<pdfrwt beam="2">  1       -2 0.11319605E+00 0.11096518E+04</pdfrwt>
<totfact> 0.30122897E+01</totfact>
</mgrwt>
</event>
<event>
12    4  0.4280696E-008  0.1185307E+04  0.7818608E-02  0.9125816E-01
          3   -1    0    0  501    0  0.00000000000E+00  0.00000000000E+00  0.72682375126E+03  0.72682375126E+03  0.00000000000E+00 0. -1.
         -4   -1    0    0    0  501 -0.00000000000E+00 -0.00000000000E+00 -0.48325041317E+03  0.48325041317E+03  0.00000000000E+00 0.  1.
        -24    2    1    2    0    0 -0.16925783187E+03 -0.16800347039E+03  0.79367155764E+02  0.26340787966E+03  0.78811077546E+02 0.  0.
        254    2    1    2    0    0  0.16925783187E+03  0.16800347039E+03  0.16420618232E+03  0.94666628477E+03  0.90129906507E+03 0.  0.
         23    2    4    4    0    0  0.30769828238E+03  0.48074659612E+03  0.92219887196E+02  0.58520230078E+03  0.90342141819E+02 0.  0.
         23    2    4    4    0    0 -0.13844045051E+03 -0.31274312573E+03  0.71986295122E+02  0.36146398398E+03  0.92196333976E+02 0.  0.
          1    1    3    3  502    0 -0.17268781650E+03 -0.16958845480E+03  0.67966865180E+02  0.25139773414E+03  0.00000000000E+00 0. -1.
         -2    1    3    3    0  502  0.34299846322E+01  0.15849844077E+01  0.11400290584E+02  0.12010145526E+02  0.00000000000E+00 0.  1.
         11    1    5    5    0    0  0.12434623741E+03  0.27761519328E+03  0.52635524599E+02  0.30871132268E+03  0.00000000000E+00 0. -1.
        -11    1    5    5    0    0  0.18335204497E+03  0.20313140284E+03  0.39584362597E+02  0.27649097811E+03  0.00000000000E+00 0.  1.
          2    1    6    6  503    0 -0.13849954330E+03 -0.21373162425E+03  0.60656826112E+02  0.26180638123E+03  0.00000000000E+00 0.  1.
         -2    1    6    6    0  503  0.59092786369E-01 -0.99011501487E+02  0.11329469010E+02  0.99657602754E+02  0.00000000000E+00 0. -1.
<mgrwt>
<rscale>  0 0.11853065E+04</rscale>
<asrwt>0</asrwt>
<pdfrwt beam="1">  1        3 0.11181904E+00 0.11853065E+04</pdfrwt>
<pdfrwt beam="2">  1       -4 0.74346217E-01 0.11853065E+04</pdfrwt>
<totfact> 0.24841834E+00</totfact>
</mgrwt>
</event>
<event>
12    4  0.4280696E-008  0.2534987E+04  0.7818608E-02  0.8390626E-01
         -2   -1    0    0    0  501 -0.00000000000E+00  0.00000000000E+00  0.20360339043E+04  0.20360339043E+04  0.00000000000E+00 0.  1.
          1   -1    0    0  501    0  0.00000000000E+00 -0.00000000000E+00 -0.78905354533E+03  0.78905354533E+03  0.00000000000E+00 0. -1.
        -24    2    1    2    0    0  0.46938942347E+03  0.23313182532E+03 -0.54094019437E+03  0.75745843449E+03  0.80312559753E+02 0.  0.
        254    2    1    2    0    0 -0.46938942347E+03 -0.23313182532E+03  0.17879205533E+04  0.20676290151E+04  0.89652270489E+03 0.  0.
         23    2    4    4    0    0 -0.31048237726E+02 -0.39748745049E+03  0.13822515039E+04  0.14415495064E+04  0.92116735189E+02 0.  0.
         23    2    4    4    0    0 -0.43834118574E+03  0.16435562517E+03  0.40566904942E+03  0.62607950877E+03  0.90842759757E+02 0.  0.
          3    1    3    3  502    0  0.26711488715E+03  0.96917727430E+02 -0.32528000157E+03  0.43191490858E+03  0.00000000000E+00 0. -1.
         -4    1    3    3    0  502  0.20227453632E+03  0.13621409789E+03 -0.21566019279E+03  0.32554352591E+03  0.00000000000E+00 0.  1.
         11    1    5    5    0    0  0.35693508446E+01 -0.17908843813E+03  0.47259195963E+03  0.50539941555E+03  0.00000000000E+00 0.  1.
        -11    1    5    5    0    0 -0.34617588570E+02 -0.21839901236E+03  0.90965954428E+03  0.93615009082E+03  0.00000000000E+00 0. -1.
          3    1    6    6  503    0 -0.42818675389E+03  0.14020623055E+03  0.38647540132E+03  0.59360333483E+03  0.00000000000E+00 0. -1.
         -3    1    6    6    0  503 -0.10154431853E+02  0.24149394614E+02  0.19193648105E+02  0.32476173944E+02  0.00000000000E+00 0.  1.
<mgrwt>
<rscale>  0 0.25349870E+04</rscale>
<asrwt>0</asrwt>
<pdfrwt beam="1">  1        1 0.12139285E+00 0.25349870E+04</pdfrwt>
<pdfrwt beam="2">  1       -2 0.31323598E+00 0.25349870E+04</pdfrwt>
<totfact> 0.46279154E-01</totfact>
</mgrwt>
</event>
<event>
12    4  0.4280696E-008  0.1766025E+04  0.7818608E-02  0.8724578E-01
          1   -1    0    0  501    0  0.00000000000E+00  0.00000000000E+00  0.68890791825E+03  0.68890791825E+03  0.00000000000E+00 0. -1.
         -2   -1    0    0    0  501 -0.00000000000E+00 -0.00000000000E+00 -0.11318079522E+04  0.11318079522E+04  0.00000000000E+00 0.  1.
        -24    2    1    2    0    0  0.43466347891E+03 -0.19715303041E+03  0.28742050694E+03  0.56280314418E+03  0.79593806235E+02 0.  0.
        254    2    1    2    0    0 -0.43466347891E+03  0.19715303041E+03 -0.73032054089E+03  0.12579127263E+04  0.90618688867E+03 0.  0.
         23    2    4    4    0    0  0.31803519966E+02  0.28527606341E+03  0.82709906253E+02  0.31242506100E+03  0.91512807362E+02 0.  0.
         23    2    4    4    0    0 -0.46646699887E+03 -0.88123032998E+02 -0.81303044714E+03  0.94548766528E+03  0.87013144074E+02 0.  0.
          1    1    3    3  502    0  0.42925321680E+03 -0.17971971174E+03  0.27999313747E+03  0.54309635973E+03  0.00000000000E+00 0. -1.
         -2    1    3    3    0  502  0.54102621025E+01 -0.17433318671E+02  0.74273694693E+01  0.19706784445E+02  0.00000000000E+00 0.  1.
         11    1    5    5    0    0 -0.15239007741E+02  0.22489353170E+02 -0.11257250260E+02  0.29406190613E+02  0.00000000000E+00 0. -1.
        -11    1    5    5    0    0  0.47042527707E+02  0.26278671024E+03  0.93967156513E+02  0.28301887039E+03  0.00000000000E+00 0.  1.
          3    1    6    6  503    0 -0.17155793714E+03 -0.73065261961E+02 -0.28746354418E+03  0.34264551294E+03  0.00000000000E+00 0. -1.
         -3    1    6    6    0  503 -0.29490906173E+03 -0.15057771037E+02 -0.52556690296E+03  0.60284215235E+03  0.00000000000E+00 0.  1.
<mgrwt>
<rscale>  0 0.17660254E+04</rscale>
<asrwt>0</asrwt>
<pdfrwt beam="1">  1        1 0.10598583E+00 0.17660254E+04</pdfrwt>
<pdfrwt beam="2">  1       -2 0.17412430E+00 0.17660254E+04</pdfrwt>
<totfact> 0.46065102E+00</totfact>
</mgrwt>
</event>
<event>
12    4  0.4280696E-008  0.1338078E+04  0.7818608E-02  0.8999902E-01
         -2   -1    0    0    0  501 -0.00000000000E+00  0.00000000000E+00  0.31486886089E+03  0.31486886089E+03  0.00000000000E+00 0.  1.
          1   -1    0    0  501    0  0.00000000000E+00 -0.00000000000E+00 -0.14215864700E+04  0.14215864700E+04  0.00000000000E+00 0. -1.
        -24    2    1    2    0    0  0.10371023210E+03 -0.22696976608E+03 -0.64516240776E+03  0.69629974576E+03  0.79546945888E+02 0.  0.
        254    2    1    2    0    0 -0.10371023210E+03  0.22696976608E+03 -0.46155520137E+03  0.10401555852E+04  0.89811989760E+03 0.  0.
         23    2    4    4    0    0  0.30811032107E+03  0.34378306120E+03 -0.35552642193E+03  0.58981473205E+03  0.91452820283E+02 0.  0.
         23    2    4    4    0    0 -0.41182055317E+03 -0.11681329512E+03 -0.10602877944E+03  0.45034085311E+03  0.91231946040E+02 0.  0.
          1    1    3    3  502    0  0.99645161797E+02 -0.19463780140E+03 -0.61163100873E+03  0.64954254891E+03  0.00000000000E+00 0. -1.
         -2    1    3    3    0  502  0.40650703069E+01 -0.32331964674E+02 -0.33531399034E+02  0.46757196852E+02  0.00000000000E+00 0.  1.
         11    1    5    5    0    0  0.78013469039E+02  0.34970645040E+02 -0.66484198126E+02  0.10830141258E+03  0.00000000000E+00 0. -1.
        -11    1    5    5    0    0  0.23009685203E+03  0.30881241616E+03 -0.28904222380E+03  0.48151331947E+03  0.00000000000E+00 0.  1.
          4    1    6    6  503    0 -0.19448766155E+03 -0.20449969487E+02 -0.16317901081E+02  0.19623945995E+03  0.00000000000E+00 0. -1.
         -4    1    6    6    0  503 -0.21733289162E+03 -0.96363325633E+02 -0.89710878358E+02  0.25410139315E+03  0.00000000000E+00 0.  1.
<mgrwt>
<rscale>  0 0.13380782E+04</rscale>
<asrwt>0</asrwt>
<pdfrwt beam="1">  1        1 0.21870562E+00 0.13380782E+04</pdfrwt>
<pdfrwt beam="2">  1       -2 0.48441362E-01 0.13380782E+04</pdfrwt>
<totfact> 0.25739927E+01</totfact>
</mgrwt>
</event>
<event>
12    4  0.4280696E-008  0.3183820E+04  0.7818608E-02  0.8193103E-01
         -2   -1    0    0    0  501 -0.00000000000E+00  0.00000000000E+00  0.11135839073E+04  0.11135839073E+04  0.00000000000E+00 0.  1.
          1   -1    0    0  501    0  0.00000000000E+00 -0.00000000000E+00 -0.22756950490E+04  0.22756950490E+04  0.00000000000E+00 0. -1.
        -24    2    1    2    0    0 -0.76931171345E+03  0.81523734376E+03  0.46606636001E+03  0.12165895983E+04  0.80124650781E+02 0.  0.
        254    2    1    2    0    0  0.76931171345E+03 -0.81523734376E+03 -0.16281775017E+04  0.21726893579E+04  0.90175641377E+03 0.  0.
         23    2    4    4    0    0  0.90237303901E+03 -0.59447773279E+03 -0.95023010624E+03  0.14417061062E+04  0.88872749739E+02 0.  0.
         23    2    4    4    0    0 -0.13306132555E+03 -0.22075961097E+03 -0.67794739547E+03  0.73098325167E+03  0.91014949345E+02 0.  0.
          3    1    3    3  502    0 -0.32045760387E+03  0.30044943923E+03  0.15179412741E+03  0.46476273359E+03  0.00000000000E+00 0. -1.
         -4    1    3    3    0  502 -0.44885410958E+03  0.51478790453E+03  0.31427223259E+03  0.75182686472E+03  0.00000000000E+00 0.  1.
         11    1    5    5    0    0  0.13366008820E+03 -0.11788293600E+03 -0.12866215705E+03  0.21980754408E+03  0.00000000000E+00 0. -1.
        -11    1    5    5    0    0  0.76871295081E+03 -0.47659479679E+03 -0.82156794919E+03  0.12218985622E+04  0.00000000000E+00 0.  1.
          4    1    6    6  503    0 -0.26736063445E+02  0.16626528254E+01 -0.70222332368E+02  0.75158216225E+02  0.00000000000E+00 0. -1.
         -4    1    6    6    0  503 -0.10632526211E+03 -0.22242226380E+03 -0.60772506311E+03  0.65582503545E+03  0.00000000000E+00 0.  1.
<mgrwt>
<rscale>  0 0.31838200E+04</rscale>
<asrwt>0</asrwt>
<pdfrwt beam="1">  1        1 0.35010693E+00 0.31838200E+04</pdfrwt>
<pdfrwt beam="2">  1       -2 0.17132060E+00 0.31838200E+04</pdfrwt>
<totfact> 0.29723030E-01</totfact>
</mgrwt>
</event>
<event>
12    4  0.4280696E-008  0.2555355E+04  0.7818608E-02  0.8383526E-01
          1   -1    0    0  501    0  0.00000000000E+00  0.00000000000E+00  0.25066779117E+04  0.25066779117E+04  0.00000000000E+00 0. -1.
         -2   -1    0    0    0  501 -0.00000000000E+00 -0.00000000000E+00 -0.65124435785E+03  0.65124435785E+03  0.00000000000E+00 0.  1.
        -24    2    1    2    0    0 -0.10710988610E+03 -0.88701992708E+02 -0.53566462924E+03  0.55893255725E+03  0.78284336401E+02 0.  0.
        254    2    1    2    0    0  0.10710988610E+03  0.88701992708E+02  0.23910981831E+04  0.25989897123E+04  0.10089878257E+04 0.  0.
         23    2    4    4    0    0 -0.79972331084E+02  0.52096159758E+03  0.11501860982E+04  0.12685577588E+04  0.92272243900E+02 0.  0.
         23    2    4    4    0    0  0.18708221718E+03 -0.43225960488E+03  0.12409120848E+04  0.13304319535E+04  0.91314065419E+02 0.  0.
          1    1    3    3  502    0 -0.37710421168E+02 -0.57233650806E+02 -0.37375613027E+03  0.37998869925E+03  0.00000000000E+00 0. -1.
         -2    1    3    3    0  502 -0.69399464931E+02 -0.31468341903E+02 -0.16190849897E+03  0.17894385799E+03  0.00000000000E+00 0.  1.
         11    1    5    5    0    0 -0.54900086563E+02  0.19740710245E+03  0.53753780297E+03  0.57526556756E+03  0.00000000000E+00 0.  1.
        -11    1    5    5    0    0 -0.25072244521E+02  0.32355449514E+03  0.61264829527E+03  0.69329219126E+03  0.00000000000E+00 0. -1.
          1    1    6    6  503    0  0.18760332566E+02 -0.25305363940E+02  0.37529315373E+02  0.48997561515E+02  0.00000000000E+00 0.  1.
         -1    1    6    6    0  503  0.16832188462E+03 -0.40695424094E+03  0.12033827695E+04  0.12814343920E+04  0.00000000000E+00 0. -1.
<mgrwt>
<rscale>  0 0.25553550E+04</rscale>
<asrwt>0</asrwt>
<pdfrwt beam="1">  1        1 0.38564275E+00 0.25553550E+04</pdfrwt>
<pdfrwt beam="2">  1       -2 0.10019144E+00 0.25553550E+04</pdfrwt>
<totfact> 0.85654116E-01</totfact>
</mgrwt>
</event>
<event>
12    4  0.4280696E-008  0.3792228E+04  0.7818608E-02  0.8047825E-01
          1   -1    0    0  501    0  0.00000000000E+00  0.00000000000E+00  0.19565006329E+04  0.19565006329E+04  0.00000000000E+00 0. -1.
         -2   -1    0    0    0  501 -0.00000000000E+00 -0.00000000000E+00 -0.18375914530E+04  0.18375914530E+04  0.00000000000E+00 0.  1.
        -24    2    1    2    0    0  0.96472880658E+03  0.44859881555E+03  0.14848589214E+04  0.18287607313E+04  0.87276735569E+02 0.  0.
        254    2    1    2    0    0 -0.96472880658E+03 -0.44859881555E+03 -0.13659497414E+04  0.19653313546E+04  0.92992799162E+03 0.  0.
         23    2    4    4    0    0 -0.59734679537E+03 -0.72428249772E+03 -0.86976370644E+03  0.12830478369E+04  0.91183969116E+02 0.  0.
         23    2    4    4    0    0 -0.36738201121E+03  0.27568368217E+03 -0.49618603501E+03  0.68228351771E+03  0.91319124123E+02 0.  0.
          1    1    3    3  502    0  0.58830890745E+03  0.22661042685E+03  0.88613618138E+03  0.10875187300E+04  0.00000000000E+00 0. -1.
         -2    1    3    3    0  502  0.37641989913E+03  0.22198838870E+03  0.59872273999E+03  0.74124200134E+03  0.00000000000E+00 0.  1.
         11    1    5    5    0    0 -0.16426916642E+02 -0.51041814066E+02 -0.58529734902E+02  0.79377832178E+02  0.00000000000E+00 0.  1.
        -11    1    5    5    0    0 -0.58091987873E+03 -0.67324068365E+03 -0.81123397154E+03  0.12036700047E+04  0.00000000000E+00 0. -1.
          2    1    6    6  503    0 -0.15432511627E+03  0.11112598279E+03 -0.27236135128E+03  0.33218358062E+03  0.00000000000E+00 0. -1.
         -2    1    6    6    0  503 -0.21305689494E+03  0.16455769938E+03 -0.22382468373E+03  0.35009993709E+03  0.00000000000E+00 0.  1.
<mgrwt>
<rscale>  0 0.37922283E+04</rscale>
<asrwt>0</asrwt>
<pdfrwt beam="1">  1        1 0.30100010E+00 0.37922283E+04</pdfrwt>
<pdfrwt beam="2">  1       -2 0.28270638E+00 0.37922283E+04</pdfrwt>
<totfact> 0.90503040E-02</totfact>
</mgrwt>
</event>
<event>
12    4  0.4280696E-008  0.1593039E+04  0.7818608E-02  0.8824836E-01
          1   -1    0    0  501    0  0.00000000000E+00  0.00000000000E+00  0.13777963398E+04  0.13777963398E+04  0.00000000000E+00 0. -1.
         -2   -1    0    0    0  501 -0.00000000000E+00 -0.00000000000E+00 -0.46047677572E+03  0.46047677572E+03  0.00000000000E+00 0.  1.
        -24    2    1    2    0    0 -0.28667446200E+03 -0.43656313825E+03  0.16718268967E+03  0.55421812828E+03  0.80237529509E+02 0.  0.
        254    2    1    2    0    0  0.28667446200E+03  0.43656313825E+03  0.75013687437E+03  0.12840549872E+04  0.90184381077E+03 0.  0.
         23    2    4    4    0    0  0.71000865328E+01  0.62749088240E+03  0.26951685792E+03  0.68888332621E+03  0.90142563195E+02 0.  0.
         23    2    4    4    0    0  0.27957437547E+03 -0.19092774415E+03  0.48062001645E+03  0.59517166099E+03  0.92835720115E+02 0.  0.
          3    1    3    3  502    0 -0.55567923879E+02 -0.10136868227E+03  0.42344254242E+01  0.11567771725E+03  0.00000000000E+00 0. -1.
         -4    1    3    3    0  502 -0.23110653813E+03 -0.33519445598E+03  0.16294826425E+03  0.43854041103E+03  0.00000000000E+00 0.  1.
         11    1    5    5    0    0  0.26356334103E+02  0.59755140015E+03  0.24989291979E+03  0.64823514524E+03  0.00000000000E+00 0.  1.
        -11    1    5    5    0    0 -0.19256247571E+02  0.29939482255E+02  0.19623938135E+02  0.40648180969E+02  0.00000000000E+00 0. -1.
          2    1    6    6  503    0  0.26655406479E+03 -0.14528556211E+03  0.41688088769E+03  0.51570208312E+03  0.00000000000E+00 0.  1.
         -2    1    6    6    0  503  0.13020310679E+02 -0.45642182045E+02  0.63739128756E+02  0.79469577868E+02  0.00000000000E+00 0. -1.
<mgrwt>
<rscale>  0 0.15930389E+04</rscale>
<asrwt>0</asrwt>
<pdfrwt beam="1">  1        1 0.21196867E+00 0.15930389E+04</pdfrwt>
<pdfrwt beam="2">  1       -2 0.70842581E-01 0.15930389E+04</pdfrwt>
<totfact> 0.12148223E+01</totfact>
</mgrwt>
</event>
<event>
12    4  0.4280696E-008  0.2014399E+04  0.7818608E-02  0.8599918E-01
          1   -1    0    0  501    0  0.00000000000E+00  0.00000000000E+00  0.65204124909E+03  0.65204124909E+03  0.00000000000E+00 0. -1.
         -2   -1    0    0    0  501 -0.00000000000E+00 -0.00000000000E+00 -0.15558070815E+04  0.15558070815E+04  0.00000000000E+00 0.  1.
        -24    2    1    2    0    0 -0.47499436226E+03  0.56111477674E+03 -0.75396628316E+03  0.10560779154E+04  0.79787031084E+02 0.  0.
        254    2    1    2    0    0  0.47499436226E+03 -0.56111477674E+03 -0.14979954927E+03  0.11517704152E+04  0.87387971002E+03 0.  0.
         23    2    4    4    0    0  0.35580924036E+03 -0.47603633192E+03  0.29769685649E+03  0.67090459307E+03  0.90987635460E+02 0.  0.
         23    2    4    4    0    0  0.11918512190E+03 -0.85078444824E+02 -0.44749640576E+03  0.48086582216E+03  0.97649734753E+02 0.  0.
          3    1    3    3  502    0 -0.25323299928E+02  0.63257281364E+02 -0.58940450485E+02  0.90092895770E+02  0.00000000000E+00 0. -1.
         -4    1    3    3    0  502 -0.44967106234E+03  0.49785749538E+03 -0.69502583268E+03  0.96598501960E+03  0.00000000000E+00 0.  1.
         11    1    5    5    0    0  0.50357368489E+02 -0.31840446122E+02  0.11928104993E+02  0.60761486644E+02  0.00000000000E+00 0.  1.
        -11    1    5    5    0    0  0.30545187187E+03 -0.44419588580E+03  0.28576875150E+03  0.61014310643E+03  0.00000000000E+00 0. -1.
          2    1    6    6  503    0  0.26634200143E+02 -0.75710655468E+02 -0.16573443321E+03  0.18414501438E+03  0.00000000000E+00 0. -1.
         -2    1    6    6    0  503  0.92550921759E+02 -0.93677893558E+01 -0.28176197255E+03  0.29672080778E+03  0.00000000000E+00 0.  1.
<mgrwt>
<rscale>  0 0.20143986E+04</rscale>
<asrwt>0</asrwt>
<pdfrwt beam="1">  1        1 0.10031404E+00 0.20143986E+04</pdfrwt>
<pdfrwt beam="2">  1       -2 0.23935493E+00 0.20143986E+04</pdfrwt>
<totfact> 0.18384817E+00</totfact>
</mgrwt>
</event>
<event>
12    4  0.4280696E-008  0.1674617E+04  0.7818608E-02  0.8775975E-01
         -2   -1    0    0    0  501 -0.00000000000E+00  0.00000000000E+00  0.22027934307E+03  0.22027934307E+03  0.00000000000E+00 0.  1.
          1   -1    0    0  501    0  0.00000000000E+00 -0.00000000000E+00 -0.31827111168E+04  0.31827111168E+04  0.00000000000E+00 0. -1.
        -24    2    1    2    0    0 -0.42168975061E+03  0.41374112565E+03 -0.12210821576E+04  0.13585828268E+04  0.75509580882E+02 0.  0.
        254    2    1    2    0    0  0.42168975061E+03 -0.41374112565E+03 -0.17413496161E+04  0.20444076331E+04  0.89347642375E+03 0.  0.
         23    2    4    4    0    0  0.12229318840E+03 -0.64061613873E+03 -0.86974874362E+03  0.10910051852E+04  0.92112843873E+02 0.  0.
         23    2    4    4    0    0  0.29939656221E+03  0.22687501307E+03 -0.87160087249E+03  0.95340244786E+03  0.90429937710E+02 0.  0.
          3    1    3    3  502    0 -0.28884800430E+03  0.29707293628E+03 -0.92801807604E+03  0.10163183795E+04  0.00000000000E+00 0. -1.
         -4    1    3    3    0  502 -0.13284174631E+03  0.11666818937E+03 -0.29306408157E+03  0.34226444729E+03  0.00000000000E+00 0.  1.
         11    1    5    5    0    0  0.45365647915E+02 -0.13921217024E+03 -0.14247124592E+03  0.20429421496E+03  0.00000000000E+00 0. -1.
        -11    1    5    5    0    0  0.76927540488E+02 -0.50140396849E+03 -0.72727749770E+03  0.88671097025E+03  0.00000000000E+00 0.  1.
          4    1    6    6  503    0  0.34285174151E+02  0.38134932974E+02 -0.59656718712E+02  0.78668102602E+02  0.00000000000E+00 0. -1.
         -4    1    6    6    0  503  0.26511138806E+03  0.18874008010E+03 -0.81194415378E+03  0.87473434526E+03  0.00000000000E+00 0.  1.
<mgrwt>
<rscale>  0 0.16746170E+04</rscale>
<asrwt>0</asrwt>
<pdfrwt beam="1">  1        1 0.48964787E+00 0.16746170E+04</pdfrwt>
<pdfrwt beam="2">  1       -2 0.33889129E-01 0.16746170E+04</pdfrwt>
<totfact> 0.30053727E+00</totfact>
</mgrwt>
</event>
<event>
12    4  0.4280696E-008  0.1364675E+04  0.7818608E-02  0.8979793E-01
          1   -1    0    0  501    0  0.00000000000E+00  0.00000000000E+00  0.35693633239E+03  0.35693633239E+03  0.00000000000E+00 0. -1.
         -2   -1    0    0    0  501 -0.00000000000E+00 -0.00000000000E+00 -0.13043913030E+04  0.13043913030E+04  0.00000000000E+00 0.  1.
        -24    2    1    2    0    0  0.17454050211E+03  0.13793886500E+03  0.93434207063E+02  0.25373739709E+03  0.78493300834E+02 0.  0.
        254    2    1    2    0    0 -0.17454050211E+03 -0.13793886500E+03 -0.10408891777E+04  0.14075902383E+04  0.92106920552E+03 0.  0.
         23    2    4    4    0    0  0.35952276159E+03 -0.84476566852E+02 -0.58421071330E+03  0.69703693844E+03  0.90362766482E+02 0.  0.
         23    2    4    4    0    0 -0.53406326370E+03 -0.53462298151E+02 -0.45667846435E+03  0.71055329983E+03  0.90823923810E+02 0.  0.
          3    1    3    3  502    0  0.15283342297E+03  0.14647256081E+03  0.90524336104E+02  0.23023232109E+03  0.00000000000E+00 0. -1.
         -4    1    3    3    0  502  0.21707079139E+02 -0.85336958022E+01  0.29098709598E+01  0.23505076001E+02  0.00000000000E+00 0.  1.
         11    1    5    5    0    0  0.35349181534E+03 -0.91486889671E+02 -0.53996209412E+03  0.65183232321E+03  0.00000000000E+00 0. -1.
        -11    1    5    5    0    0  0.60309462485E+01  0.70103228195E+01 -0.44248619181E+02  0.45204615230E+02  0.00000000000E+00 0.  1.
          3    1    6    6  503    0 -0.47736739998E+03 -0.59247714521E+02 -0.43804376542E+03  0.65059378007E+03  0.00000000000E+00 0. -1.
         -3    1    6    6    0  503 -0.56695863719E+02  0.57854163702E+01 -0.18634698929E+02  0.59959519758E+02  0.00000000000E+00 0.  1.
<mgrwt>
<rscale>  0 0.13646753E+04</rscale>
<asrwt>0</asrwt>
<pdfrwt beam="1">  1        1 0.54913282E-01 0.13646753E+04</pdfrwt>
<pdfrwt beam="2">  1       -2 0.20067558E+00 0.13646753E+04</pdfrwt>
<totfact> 0.78398481E+00</totfact>
</mgrwt>
</event>
<event>
12    4  0.4280696E-008  0.2741897E+04  0.7818608E-02  0.8321538E-01
          3   -1    0    0  501    0  0.00000000000E+00  0.00000000000E+00  0.15424816180E+04  0.15424816180E+04  0.00000000000E+00 0. -1.
         -4   -1    0    0    0  501 -0.00000000000E+00 -0.00000000000E+00 -0.12184905195E+04  0.12184905195E+04  0.00000000000E+00 0.  1.
        -24    2    1    2    0    0 -0.41905796444E+03  0.93861639885E+03 -0.51790586587E+03  0.11562116525E+04  0.10949236401E+03 0.  0.
        254    2    1    2    0    0  0.41905796444E+03 -0.93861639885E+03  0.84189696438E+03  0.16047604850E+04  0.89991965971E+03 0.  0.
         23    2    4    4    0    0 -0.11505487400E+03 -0.20344284109E+02  0.44102906855E+03  0.46547661871E+03  0.92251446220E+02 0.  0.
         23    2    4    4    0    0  0.53411283844E+03 -0.91827211474E+03  0.40086789582E+03  0.11392838663E+04  0.93661396740E+02 0.  0.
          1    1    3    3  502    0 -0.14887839086E+03  0.39211141160E+03 -0.26543396105E+03  0.49635805831E+03  0.00000000000E+00 0. -1.
         -2    1    3    3    0  502 -0.27017957358E+03  0.54650498726E+03 -0.25247190482E+03  0.65985359421E+03  0.00000000000E+00 0.  1.
         11    1    5    5    0    0 -0.52063049343E+02  0.30693355901E+02  0.26302828572E+03  0.26988242309E+03  0.00000000000E+00 0. -1.
        -11    1    5    5    0    0 -0.62991824661E+02 -0.51037640009E+02  0.17800078283E+03  0.19559419562E+03  0.00000000000E+00 0.  1.
          3    1    6    6  503    0  0.51662291055E+03 -0.84055050215E+03  0.37576137792E+03  0.10557561231E+04  0.00000000000E+00 0. -1.
         -3    1    6    6    0  503  0.17489927888E+02 -0.77721612590E+02  0.25106517900E+02  0.83527743189E+02  0.00000000000E+00 0.  1.
<mgrwt>
<rscale>  0 0.27418966E+04</rscale>
<asrwt>0</asrwt>
<pdfrwt beam="1">  1        3 0.23730486E+00 0.27418966E+04</pdfrwt>
<pdfrwt beam="2">  1       -4 0.18746008E+00 0.27418966E+04</pdfrwt>
<totfact> 0.27837660E-02</totfact>
</mgrwt>
</event>
<event>
12    4  0.4280696E-008  0.1533097E+04  0.7818608E-02  0.8862738E-01
          3   -1    0    0  501    0  0.00000000000E+00  0.00000000000E+00  0.60501374921E+03  0.60501374921E+03  0.00000000000E+00 0. -1.
         -4   -1    0    0    0  501 -0.00000000000E+00 -0.00000000000E+00 -0.97121139411E+03  0.97121139411E+03  0.00000000000E+00 0.  1.
        -24    2    1    2    0    0 -0.12135493707E+03  0.20411609577E+03  0.32345233126E+03  0.40934858962E+03  0.80959594395E+02 0.  0.
        254    2    1    2    0    0  0.12135493707E+03 -0.20411609577E+03 -0.68964997616E+03  0.11668765537E+04  0.91082018020E+03 0.  0.
         23    2    4    4    0    0  0.33899317437E+03  0.18126596307E+03 -0.71922358632E+02  0.40119947907E+03  0.89523598551E+02 0.  0.
         23    2    4    4    0    0 -0.21763823730E+03 -0.38538205884E+03 -0.61772761753E+03  0.76567707463E+03  0.93745610815E+02 0.  0.
          3    1    3    3  502    0 -0.12038764802E+03  0.13174391758E+03  0.23360372162E+03  0.29397337357E+03  0.00000000000E+00 0. -1.
         -2    1    3    3    0  502 -0.96728904986E+00  0.72372178191E+02  0.89848609636E+02  0.11537521605E+03  0.00000000000E+00 0.  1.
         11    1    5    5    0    0  0.57157526070E+02 -0.20914563857E+01 -0.22007463583E+02  0.61283647326E+02  0.00000000000E+00 0. -1.
        -11    1    5    5    0    0  0.28183564830E+03  0.18335741946E+03 -0.49914895050E+02  0.33991583175E+03  0.00000000000E+00 0.  1.
          4    1    6    6  503    0 -0.40320939138E+01 -0.48136693069E+02 -0.36422535854E+02  0.60497934833E+02  0.00000000000E+00 0. -1.
         -4    1    6    6    0  503 -0.21360614339E+03 -0.33724536577E+03 -0.58130508168E+03  0.70517913980E+03  0.00000000000E+00 0.  1.
<mgrwt>
<rscale>  0 0.15330965E+04</rscale>
<asrwt>0</asrwt>
<pdfrwt beam="1">  1        3 0.93079038E-01 0.15330965E+04</pdfrwt>
<pdfrwt beam="2">  1       -4 0.14941714E+00 0.15330965E+04</pdfrwt>
<totfact> 0.68569531E-01</totfact>
</mgrwt>
</event>
<event>
12    4  0.4280696E-008  0.1504752E+04  0.7818608E-02  0.8881299E-01
          3   -1    0    0  501    0  0.00000000000E+00  0.00000000000E+00  0.48484090606E+03  0.48484090606E+03  0.00000000000E+00 0. -1.
         -4   -1    0    0    0  501 -0.00000000000E+00 -0.00000000000E+00 -0.11675376499E+04  0.11675376499E+04  0.00000000000E+00 0.  1.
        -24    2    1    2    0    0  0.39456520895E+03  0.56979698318E+02  0.68945072735E+02  0.41367288160E+03  0.86275371837E+02 0.  0.
        254    2    1    2    0    0 -0.39456520895E+03 -0.56979698318E+02 -0.75164181656E+03  0.12387056743E+04  0.90027658922E+03 0.  0.
         23    2    4    4    0    0  0.13322224234E+03  0.92903063191E+02  0.10794733641E+03  0.21493291021E+03  0.90356977886E+02 0.  0.
         23    2    4    4    0    0 -0.52778745128E+03 -0.14988276151E+03 -0.85958915297E+03  0.10237727641E+04  0.90513671528E+02 0.  0.
          1    1    3    3  502    0  0.39010369037E+03  0.60957060524E+02  0.78343471628E+02  0.40253490783E+03  0.00000000000E+00 0. -1.
         -2    1    3    3    0  502  0.44615185739E+01 -0.39773622064E+01 -0.93983988923E+01  0.11137973777E+02  0.00000000000E+00 0.  1.
         11    1    5    5    0    0  0.26085584197E+02  0.19487868452E+02 -0.15218042751E+02  0.35941946870E+02  0.00000000000E+00 0. -1.
        -11    1    5    5    0    0  0.10713665814E+03  0.73415194739E+02  0.12316537916E+03  0.17899096334E+03  0.00000000000E+00 0.  1.
          2    1    6    6  503    0 -0.20824944501E+03 -0.19928994711E+02 -0.28402605234E+03  0.35275458124E+03  0.00000000000E+00 0. -1.
         -2    1    6    6    0  503 -0.31953800627E+03 -0.12995376680E+03 -0.57556310063E+03  0.67101818289E+03  0.00000000000E+00 0.  1.
<mgrwt>
<rscale>  0 0.15047525E+04</rscale>
<asrwt>0</asrwt>
<pdfrwt beam="1">  1        3 0.74590910E-01 0.15047525E+04</pdfrwt>
<pdfrwt beam="2">  1       -4 0.17962117E+00 0.15047525E+04</pdfrwt>
<totfact> 0.67883147E-01</totfact>
</mgrwt>
</event>
<event>
12    4  0.4280696E-008  0.2470176E+04  0.7818608E-02  0.8413688E-01
         -2   -1    0    0    0  501 -0.00000000000E+00  0.00000000000E+00  0.77086264643E+03  0.77086264643E+03  0.00000000000E+00 0.  1.
          1   -1    0    0  501    0  0.00000000000E+00 -0.00000000000E+00 -0.19788765094E+04  0.19788765094E+04  0.00000000000E+00 0. -1.
        -24    2    1    2    0    0 -0.55955223700E+03  0.31185453352E+03  0.42693702276E+03  0.77399401610E+03  0.80246866276E+02 0.  0.
        254    2    1    2    0    0  0.55955223700E+03 -0.31185453352E+03 -0.16349508857E+04  0.19757451397E+04  0.90562271527E+03 0.  0.
         23    2    4    4    0    0 -0.13476448864E+03 -0.19063230849E+02  0.11150096915E+02  0.16343170363E+03  0.89781528836E+02 0.  0.
         23    2    4    4    0    0  0.69431672564E+03 -0.29279130267E+03 -0.16461009826E+04  0.18123134361E+04  0.83839627908E+02 0.  0.
          3    1    3    3  502    0 -0.93704111465E+01  0.15640664021E+02  0.20064974564E+01  0.18342873497E+02  0.00000000000E+00 0. -1.
         -4    1    3    3    0  502 -0.55018182585E+03  0.29621386950E+03  0.42493052531E+03  0.75565114260E+03  0.00000000000E+00 0.  1.
         11    1    5    5    0    0 -0.47071745029E+02 -0.49639002182E+02  0.16625265507E+02  0.70400136157E+02  0.00000000000E+00 0.  1.
        -11    1    5    5    0    0 -0.87692743611E+02  0.30575771333E+02 -0.54751685925E+01  0.93031567469E+02  0.00000000000E+00 0. -1.
          3    1    6    6  503    0  0.67062498019E+03 -0.26883172330E+03 -0.15414949874E+04  0.17024145076E+04  0.00000000000E+00 0. -1.
         -3    1    6    6    0  503  0.23691745446E+02 -0.23959579365E+02 -0.10460599522E+03  0.10989892848E+03  0.00000000000E+00 0.  1.
<mgrwt>
<rscale>  0 0.24701757E+04</rscale>
<asrwt>0</asrwt>
<pdfrwt beam="1">  1        1 0.30444255E+00 0.24701757E+04</pdfrwt>
<pdfrwt beam="2">  1       -2 0.11859425E+00 0.24701757E+04</pdfrwt>
<totfact> 0.13180264E+00</totfact>
</mgrwt>
</event>
<event>
12    4  0.4280696E-008  0.2024864E+04  0.7818608E-02  0.8595083E-01
          1   -1    0    0  501    0  0.00000000000E+00  0.00000000000E+00  0.78998173241E+03  0.78998173241E+03  0.00000000000E+00 0. -1.
         -2   -1    0    0    0  501 -0.00000000000E+00 -0.00000000000E+00 -0.12975221399E+04  0.12975221399E+04  0.00000000000E+00 0.  1.
        -24    2    1    2    0    0  0.48798718321E+03 -0.15976011266E+03 -0.86685961735E+03  0.10106346913E+04  0.79259689977E+02 0.  0.
        254    2    1    2    0    0 -0.48798718321E+03  0.15976011266E+03  0.35931920983E+03  0.10768691811E+04  0.87571807905E+03 0.  0.
         23    2    4    4    0    0 -0.32800291179E+03 -0.33548897927E+03  0.99864476783E+02  0.48824794006E+03  0.90963574571E+02 0.  0.
         23    2    4    4    0    0 -0.15998427142E+03  0.49524909192E+03  0.25945473305E+03  0.58862124099E+03  0.91058095138E+02 0.  0.
          1    1    3    3  502    0  0.11068646512E+03 -0.67668700469E+02 -0.18559770703E+03  0.22644437603E+03  0.00000000000E+00 0. -1.
         -2    1    3    3    0  502  0.37730071810E+03 -0.92091412187E+02 -0.68126191032E+03  0.78419031525E+03  0.00000000000E+00 0.  1.
         11    1    5    5    0    0 -0.11663034479E+03 -0.91876613604E+02 -0.65506389637E+01  0.14861648739E+03  0.00000000000E+00 0.  1.
        -11    1    5    5    0    0 -0.21137256700E+03 -0.24361236567E+03  0.10641511575E+03  0.33963145267E+03  0.00000000000E+00 0. -1.
          3    1    6    6  503    0 -0.12813861524E+02  0.30039956740E+02 -0.59205058049E+01  0.33191059596E+02  0.00000000000E+00 0. -1.
         -3    1    6    6    0  503 -0.14717040990E+03  0.46520913518E+03  0.26537523885E+03  0.55543018139E+03  0.00000000000E+00 0.  1.
<mgrwt>
<rscale>  0 0.20248642E+04</rscale>
<asrwt>0</asrwt>
<pdfrwt beam="1">  1        1 0.12153565E+00 0.20248642E+04</pdfrwt>
<pdfrwt beam="2">  1       -2 0.19961879E+00 0.20248642E+04</pdfrwt>
<totfact> 0.24465789E+00</totfact>
</mgrwt>
</event>
<event>
12    4  0.4280696E-008  0.1345735E+04  0.7818608E-02  0.8994063E-01
          1   -1    0    0  501    0  0.00000000000E+00  0.00000000000E+00  0.57863146862E+03  0.57863146862E+03  0.00000000000E+00 0. -1.
         -4   -1    0    0    0  501 -0.00000000000E+00 -0.00000000000E+00 -0.78245059290E+03  0.78245059290E+03  0.00000000000E+00 0.  1.
        -24    2    1    2    0    0 -0.12448603203E+03 -0.25645573265E+02 -0.39772421717E+03  0.42519674207E+03  0.80332116577E+02 0.  0.
        254    2    1    2    0    0  0.12448603203E+03  0.25645573265E+02  0.19390509288E+03  0.93588531945E+03  0.90671256665E+03 0.  0.
         23    2    4    4    0    0  0.27055505728E+03  0.98069885421E+02 -0.28932582208E+03  0.41802193416E+03  0.90637545627E+02 0.  0.
         23    2    4    4    0    0 -0.14606902525E+03 -0.72424312155E+02  0.48323091496E+03  0.51786338529E+03  0.89938465175E+02 0.  0.
          1    1    3    3  502    0  0.64102604188E+01  0.76116867548E+01 -0.70476817184E+02  0.71175915690E+02  0.00000000000E+00 0. -1.
         -2    1    3    3    0  502 -0.13089629245E+03 -0.33257260020E+02 -0.32724739998E+03  0.35402082638E+03  0.00000000000E+00 0.  1.
         11    1    5    5    0    0  0.84245000621E+02 -0.11051999165E+02 -0.96054139511E+02  0.12824104075E+03  0.00000000000E+00 0.  1.
        -11    1    5    5    0    0  0.18631005665E+03  0.10912188459E+03 -0.19327168257E+03  0.28978089341E+03  0.00000000000E+00 0. -1.
          3    1    6    6  503    0 -0.53650506544E+02 -0.73781968536E+02  0.19740884817E+03  0.21746817944E+03  0.00000000000E+00 0. -1.
         -3    1    6    6    0  503 -0.92418518705E+02  0.13576563811E+01  0.28582206679E+03  0.30039520584E+03  0.00000000000E+00 0.  1.
<mgrwt>
<rscale>  0 0.13457348E+04</rscale>
<asrwt>0</asrwt>
<pdfrwt beam="1">  1        1 0.89020226E-01 0.13457348E+04</pdfrwt>
<pdfrwt beam="2">  1       -4 0.12037701E+00 0.13457348E+04</pdfrwt>
<totfact> 0.89261733E+00</totfact>
</mgrwt>
</event>
<event>
12    4  0.4280696E-008  0.1340391E+04  0.7818608E-02  0.8998134E-01
          1   -1    0    0  501    0  0.00000000000E+00  0.00000000000E+00  0.21557192652E+04  0.21557192652E+04  0.00000000000E+00 0. -1.
         -2   -1    0    0    0  501 -0.00000000000E+00 -0.00000000000E+00 -0.20835823111E+03  0.20835823111E+03  0.00000000000E+00 0.  1.
        -24    2    1    2    0    0 -0.33604849155E+03  0.10052159093E+03  0.68422105596E+03  0.77266700684E+03  0.76306429132E+02 0.  0.
        254    2    1    2    0    0  0.33604849155E+03 -0.10052159093E+03  0.12631399781E+04  0.15914104894E+04  0.90223697700E+03 0.  0.
         23    2    4    4    0    0 -0.11371766559E+03  0.31022619610E+03  0.35089809039E+03  0.49071790797E+03  0.92209517656E+02 0.  0.
         23    2    4    4    0    0  0.44976615714E+03 -0.41074778703E+03  0.91224188773E+03  0.11006925815E+04  0.91299269108E+02 0.  0.
          1    1    3    3  502    0 -0.26840650147E+02  0.12224250499E+02  0.11674913931E+03  0.12041683574E+03  0.00000000000E+00 0. -1.
         -2    1    3    3    0  502 -0.30920784141E+03  0.88297340435E+02  0.56747191665E+03  0.65225017110E+03  0.00000000000E+00 0.  1.
         11    1    5    5    0    0 -0.98474224866E+02  0.18502214852E+03  0.26610707491E+03  0.33873786875E+03  0.00000000000E+00 0.  1.
        -11    1    5    5    0    0 -0.15243440720E+02  0.12520404757E+03  0.84791015478E+02  0.15198003921E+03  0.00000000000E+00 0. -1.
          3    1    6    6  503    0  0.66008830539E+02 -0.90955096425E+02  0.21987176870E+03  0.24692830932E+03  0.00000000000E+00 0. -1.
         -3    1    6    6    0  503  0.38375732660E+03 -0.31979269061E+03  0.69237011903E+03  0.85376427215E+03  0.00000000000E+00 0.  1.
<mgrwt>
<rscale>  0 0.13403908E+04</rscale>
<asrwt>0</asrwt>
<pdfrwt beam="1">  1        1 0.33164910E+00 0.13403908E+04</pdfrwt>
<pdfrwt beam="2">  1       -2 0.32055114E-01 0.13403908E+04</pdfrwt>
<totfact> 0.18218662E+01</totfact>
</mgrwt>
</event>
<event>
12    4  0.4280696E-008  0.1254554E+04  0.7818608E-02  0.9066401E-01
         -2   -1    0    0    0  501 -0.00000000000E+00  0.00000000000E+00  0.35758230036E+03  0.35758230036E+03  0.00000000000E+00 0.  1.
          1   -1    0    0  501    0  0.00000000000E+00 -0.00000000000E+00 -0.11003806185E+04  0.11003806185E+04  0.00000000000E+00 0. -1.
        -24    2    1    2    0    0 -0.21514783328E+03  0.15873530556E+03 -0.10043865950E+03  0.29640700638E+03  0.79269803285E+02 0.  0.
        254    2    1    2    0    0  0.21514783328E+03 -0.15873530556E+03 -0.64235965861E+03  0.11615559125E+04  0.93010790737E+03 0.  0.
         23    2    4    4    0    0 -0.92578213382E+01 -0.56270080169E+02  0.22825867561E+03  0.25203940116E+03  0.90386987812E+02 0.  0.
         23    2    4    4    0    0  0.22440565462E+03 -0.10246522540E+03 -0.87061833423E+03  0.90951651130E+03  0.91580457494E+02 0.  0.
          3    1    3    3  502    0 -0.16612680649E+03  0.14577680588E+03 -0.10650378814E+03  0.24534068121E+03  0.00000000000E+00 0. -1.
         -4    1    3    3    0  502 -0.49021026789E+02  0.12958499687E+02  0.60651286389E+01  0.51066325176E+02  0.00000000000E+00 0.  1.
         11    1    5    5    0    0  0.37540919211E+02 -0.61696960820E+01  0.90217139194E+02  0.97910765339E+02  0.00000000000E+00 0. -1.
        -11    1    5    5    0    0 -0.46798740550E+02 -0.50100384087E+02  0.13804153642E+03  0.15412863582E+03  0.00000000000E+00 0.  1.
          2    1    6    6  503    0  0.20666059271E+03 -0.76301875106E+02 -0.64249456851E+03  0.67921266721E+03  0.00000000000E+00 0.  1.
         -2    1    6    6    0  503  0.17745061903E+02 -0.26163350289E+02 -0.22812376572E+03  0.23030384409E+03  0.00000000000E+00 0. -1.
<mgrwt>
<rscale>  0 0.12545543E+04</rscale>
<asrwt>0</asrwt>
<pdfrwt beam="1">  1        1 0.16928932E+00 0.12545543E+04</pdfrwt>
<pdfrwt beam="2">  1       -2 0.55012662E-01 0.12545543E+04</pdfrwt>
<totfact> 0.34034309E+01</totfact>
</mgrwt>
</event>
<event>
12    4  0.4280696E-008  0.1570288E+04  0.7818608E-02  0.8839012E-01
          1   -1    0    0  501    0  0.00000000000E+00  0.00000000000E+00  0.15444823244E+04  0.15444823244E+04  0.00000000000E+00 0. -1.
         -2   -1    0    0    0  501 -0.00000000000E+00 -0.00000000000E+00 -0.39913133233E+03  0.39913133233E+03  0.00000000000E+00 0.  1.
        -24    2    1    2    0    0 -0.31589336817E+03  0.42062285100E+03  0.38257783436E+03  0.65504326961E+03  0.77483436197E+02 0.  0.
        254    2    1    2    0    0  0.31589336817E+03 -0.42062285100E+03  0.76277315768E+03  0.12885703871E+04  0.89547671637E+03 0.  0.
         23    2    4    4    0    0  0.52883608796E+03 -0.52558494754E+03  0.70352619904E+03  0.10289519901E+04  0.88802816264E+02 0.  0.
         23    2    4    4    0    0 -0.21294271979E+03  0.10496209655E+03  0.59246958638E+02  0.25961839698E+03  0.86774802347E+02 0.  0.
          1    1    3    3  502    0 -0.13471806314E+03  0.13855929503E+03  0.17518691890E+03  0.26084112278E+03  0.00000000000E+00 0. -1.
         -2    1    3    3    0  502 -0.18117530503E+03  0.28206355596E+03  0.20739091546E+03  0.39420214684E+03  0.00000000000E+00 0.  1.
         11    1    5    5    0    0  0.29720673920E+03 -0.24099627772E+03  0.32899739153E+03  0.50462890854E+03  0.00000000000E+00 0.  1.
        -11    1    5    5    0    0  0.23162934876E+03 -0.28458866983E+03  0.37452880751E+03  0.52432308156E+03  0.00000000000E+00 0. -1.
          3    1    6    6  503    0 -0.13821731572E+02 -0.14239734579E+02  0.10609530496E+02  0.22502720766E+02  0.00000000000E+00 0. -1.
         -3    1    6    6    0  503 -0.19912098822E+03  0.11920183113E+03  0.48637428142E+02  0.23711567622E+03  0.00000000000E+00 0.  1.
<mgrwt>
<rscale>  0 0.15702882E+04</rscale>
<asrwt>0</asrwt>
<pdfrwt beam="1">  1        1 0.23761266E+00 0.15702882E+04</pdfrwt>
<pdfrwt beam="2">  1       -2 0.61404821E-01 0.15702882E+04</pdfrwt>
<totfact> 0.12683026E+01</totfact>
</mgrwt>
</event>
<event>
12    4  0.4280696E-008  0.1816799E+04  0.7818608E-02  0.8697417E-01
         -2   -1    0    0    0  501 -0.00000000000E+00  0.00000000000E+00  0.16594546772E+04  0.16594546772E+04  0.00000000000E+00 0.  1.
          1   -1    0    0  501    0  0.00000000000E+00 -0.00000000000E+00 -0.49726561313E+03  0.49726561313E+03  0.00000000000E+00 0. -1.
        -24    2    1    2    0    0  0.24311883228E+03  0.78449413549E+02 -0.31120654514E+03  0.41040843093E+03  0.79526658051E+02 0.  0.
        254    2    1    2    0    0 -0.24311883228E+03 -0.78449413549E+02  0.14733956092E+04  0.17463118594E+04  0.90191430409E+03 0.  0.
         23    2    4    4    0    0  0.28417275385E+03  0.55312518437E+02  0.90414347165E+03  0.95392186918E+03  0.93155174035E+02 0.  0.
         23    2    4    4    0    0 -0.52729158614E+03 -0.13376193199E+03  0.56925213753E+03  0.79238999018E+03  0.88911355861E+02 0.  0.
          3    1    3    3  502    0  0.18785775496E+03  0.89103158184E+02 -0.21598439586E+03  0.29979854595E+03  0.00000000000E+00 0. -1.
         -4    1    3    3    0  502  0.55261077321E+02 -0.10653744635E+02 -0.95222149279E+02  0.11060988498E+03  0.00000000000E+00 0.  1.
         11    1    5    5    0    0 -0.65348789936E+00 -0.30094440736E+01  0.78939860291E+02  0.78999907233E+02  0.00000000000E+00 0. -1.
        -11    1    5    5    0    0  0.28482624175E+03  0.58321962510E+02  0.82520361136E+03  0.87492196195E+03  0.00000000000E+00 0.  1.
          3    1    6    6  503    0 -0.11146768895E+03 -0.88094410213E+01  0.75677588684E+02  0.13501758907E+03  0.00000000000E+00 0. -1.
         -3    1    6    6    0  503 -0.41582389719E+03 -0.12495249096E+03  0.49357454885E+03  0.65737240111E+03  0.00000000000E+00 0.  1.
<mgrwt>
<rscale>  0 0.18167991E+04</rscale>
<asrwt>0</asrwt>
<pdfrwt beam="1">  1        1 0.76502402E-01 0.18167991E+04</pdfrwt>
<pdfrwt beam="2">  1       -2 0.25530072E+00 0.18167991E+04</pdfrwt>
<totfact> 0.21955169E+00</totfact>
</mgrwt>
</event>
<event>
12    4  0.4280696E-008  0.1790570E+04  0.7818608E-02  0.8711330E-01
         -2   -1    0    0    0  501 -0.00000000000E+00  0.00000000000E+00  0.14815206627E+04  0.14815206627E+04  0.00000000000E+00 0.  1.
          1   -1    0    0  501    0  0.00000000000E+00 -0.00000000000E+00 -0.54102208954E+03  0.54102208954E+03  0.00000000000E+00 0. -1.
        -24    2    1    2    0    0  0.63911239556E+03 -0.13140886357E+03  0.46733844451E+03  0.80676275147E+03  0.82024215066E+02 0.  0.
        254    2    1    2    0    0 -0.63911239556E+03  0.13140886357E+03  0.47316012863E+03  0.12157800008E+04  0.91022390615E+03 0.  0.
         23    2    4    4    0    0 -0.44805737247E+03 -0.31530446352E+03  0.46003989006E+03  0.72120415139E+03  0.91249185122E+02 0.  0.
         23    2    4    4    0    0 -0.19105502309E+03  0.44671332709E+03  0.13120238568E+02  0.49457584937E+03  0.91533117867E+02 0.  0.
          3    1    3    3  502    0  0.20230990260E+03 -0.70202800095E+01  0.16508132946E+03  0.26120954492E+03  0.00000000000E+00 0. -1.
         -4    1    3    3    0  502  0.43680249297E+03 -0.12438858356E+03  0.30225711505E+03  0.54555320655E+03  0.00000000000E+00 0.  1.
         11    1    5    5    0    0 -0.33417734739E+03 -0.19190528555E+03  0.29055259950E+03  0.48262091874E+03  0.00000000000E+00 0. -1.
        -11    1    5    5    0    0 -0.11388002508E+03 -0.12339917797E+03  0.16948729057E+03  0.23858323265E+03  0.00000000000E+00 0.  1.
          4    1    6    6  503    0 -0.19410432363E+02  0.61983583219E+01 -0.65206226934E+01  0.21393995670E+02  0.00000000000E+00 0.  1.
         -4    1    6    6    0  503 -0.17164459073E+03  0.44051496877E+03  0.19640861262E+02  0.47318185370E+03  0.00000000000E+00 0. -1.
<mgrwt>
<rscale>  0 0.17905702E+04</rscale>
<asrwt>0</asrwt>
<pdfrwt beam="1">  1        1 0.83234168E-01 0.17905702E+04</pdfrwt>
<pdfrwt beam="2">  1       -2 0.22792625E+00 0.17905702E+04</pdfrwt>
<totfact> 0.28893292E+00</totfact>
</mgrwt>
</event>
<event>
12    4  0.4280696E-008  0.1735722E+04  0.7818608E-02  0.8741249E-01
          1   -1    0    0  501    0  0.00000000000E+00  0.00000000000E+00  0.15701769644E+04  0.15701769644E+04  0.00000000000E+00 0. -1.
         -2   -1    0    0    0  501 -0.00000000000E+00 -0.00000000000E+00 -0.47968022223E+03  0.47968022223E+03  0.00000000000E+00 0.  1.
        -24    2    1    2    0    0  0.20498051089E+03  0.50935106263E+03  0.34670674478E+02  0.55599823157E+03  0.80476474777E+02 0.  0.
        254    2    1    2    0    0 -0.20498051089E+03 -0.50935106263E+03  0.10558260677E+04  0.14938589550E+04  0.90298968851E+03 0.  0.
         23    2    4    4    0    0  0.11337400960E+03 -0.31393867257E+03 -0.25004373797E+02  0.34680346786E+03  0.90753900333E+02 0.  0.
         23    2    4    4    0    0 -0.31835452049E+03 -0.19541239006E+03  0.10808304415E+04  0.11470554872E+04  0.89477620491E+02 0.  0.
          1    1    3    3  502    0  0.71173337088E+01  0.94900593477E+01  0.13518167979E+02  0.17984952906E+02  0.00000000000E+00 0. -1.
         -2    1    3    3    0  502  0.19786317718E+03  0.49986100328E+03  0.21152506500E+02  0.53801327866E+03  0.00000000000E+00 0.  1.
         11    1    5    5    0    0  0.38031485270E+02 -0.11297561023E+03  0.34477888381E+02  0.12409112445E+03  0.00000000000E+00 0. -1.
        -11    1    5    5    0    0  0.75342524328E+02 -0.20096306233E+03 -0.59482262178E+02  0.22271234341E+03  0.00000000000E+00 0.  1.
          2    1    6    6  503    0 -0.85827962920E+02 -0.16544755392E+02  0.18946767414E+03  0.20865801613E+03  0.00000000000E+00 0. -1.
         -2    1    6    6    0  503 -0.23252655757E+03 -0.17886763466E+03  0.89136276734E+03  0.93839747106E+03  0.00000000000E+00 0.  1.
<mgrwt>
<rscale>  0 0.17357221E+04</rscale>
<asrwt>0</asrwt>
<pdfrwt beam="1">  1        1 0.24156568E+00 0.17357221E+04</pdfrwt>
<pdfrwt beam="2">  1       -2 0.73796958E-01 0.17357221E+04</pdfrwt>
<totfact> 0.80618955E+00</totfact>
</mgrwt>
</event>
<event>
12    4  0.4280696E-008  0.1710811E+04  0.7818608E-02  0.8755223E-01
         -4   -1    0    0    0  501 -0.00000000000E+00  0.00000000000E+00  0.60239963503E+03  0.60239963503E+03  0.00000000000E+00 0.  1.
          3   -1    0    0  501    0  0.00000000000E+00 -0.00000000000E+00 -0.12146723545E+04  0.12146723545E+04  0.00000000000E+00 0. -1.
        -24    2    1    2    0    0  0.40758486641E+03  0.14213757859E+03 -0.69415105585E+03  0.82134033053E+03  0.80160686405E+02 0.  0.
        254    2    1    2    0    0 -0.40758486641E+03 -0.14213757859E+03  0.81878336357E+02  0.99573165903E+03  0.89355971275E+03 0.  0.
         23    2    4    4    0    0  0.25165117323E+03 -0.20683236911E+02  0.16273988386E+03  0.31442300618E+03  0.92851751399E+02 0.  0.
         23    2    4    4    0    0 -0.65923603964E+03 -0.12145434168E+03 -0.80861547505E+02  0.68130865285E+03  0.91102017054E+02 0.  0.
          1    1    3    3  502    0  0.20309013898E+03  0.92876220082E+02 -0.29317756798E+03  0.36854400440E+03  0.00000000000E+00 0. -1.
         -2    1    3    3    0  502  0.20449472742E+03  0.49261358509E+02 -0.40097348787E+03  0.45279632614E+03  0.00000000000E+00 0.  1.
         11    1    5    5    0    0  0.15281532318E+03  0.32171086830E+02  0.10650326767E+03  0.18902499266E+03  0.00000000000E+00 0. -1.
        -11    1    5    5    0    0  0.98835850049E+02 -0.52854323741E+02  0.56236616194E+02  0.12539801352E+03  0.00000000000E+00 0.  1.
          3    1    6    6  503    0 -0.13173149898E+03 -0.98762665858E+01 -0.50010587251E+02  0.14125079576E+03  0.00000000000E+00 0. -1.
         -3    1    6    6    0  503 -0.52750454066E+03 -0.11157807509E+03 -0.30850960254E+02  0.54005785709E+03  0.00000000000E+00 0.  1.
<mgrwt>
<rscale>  0 0.17108105E+04</rscale>
<asrwt>0</asrwt>
<pdfrwt beam="1">  1        3 0.18687267E+00 0.17108105E+04</pdfrwt>
<pdfrwt beam="2">  1       -4 0.92676867E-01 0.17108105E+04</pdfrwt>
<totfact> 0.38505170E-01</totfact>
</mgrwt>
</event>
<event>
12    4  0.4280696E-008  0.1988229E+04  0.7818608E-02  0.8612144E-01
          1   -1    0    0  501    0  0.00000000000E+00  0.00000000000E+00  0.13430630112E+04  0.13430630112E+04  0.00000000000E+00 0. -1.
         -2   -1    0    0    0  501 -0.00000000000E+00 -0.00000000000E+00 -0.73582805050E+03  0.73582805050E+03  0.00000000000E+00 0.  1.
        -24    2    1    2    0    0 -0.17147691293E+03  0.30845144049E+03  0.98193903099E+03  0.10464958008E+04  0.80016109571E+02 0.  0.
        254    2    1    2    0    0  0.17147691293E+03 -0.30845144049E+03 -0.37470407029E+03  0.10323952609E+04  0.89492469602E+03 0.  0.
         23    2    4    4    0    0 -0.23892352868E+03 -0.76841238725E+01  0.14942927191E+03  0.29607771084E+03  0.90495332684E+02 0.  0.
         23    2    4    4    0    0  0.41040044162E+03 -0.30076731662E+03 -0.52413334220E+03  0.73631755002E+03  0.92510933607E+02 0.  0.
          3    1    3    3  502    0 -0.14058404831E+03  0.27527377054E+03  0.76919923488E+03  0.82897948487E+03  0.00000000000E+00 0. -1.
         -4    1    3    3    0  502 -0.30892864623E+02  0.33177669951E+02  0.21273979611E+03  0.21751631598E+03  0.00000000000E+00 0.  1.
         11    1    5    5    0    0  0.35474181845E+00  0.10402849939E+02  0.22096967676E+02  0.24425828729E+02  0.00000000000E+00 0. -1.
        -11    1    5    5    0    0 -0.23927827050E+03 -0.18086973811E+02  0.12733230423E+03  0.27165188211E+03  0.00000000000E+00 0.  1.
          2    1    6    6  503    0  0.37004684339E+02 -0.26761431944E+02 -0.92789212015E+02  0.10341836766E+03  0.00000000000E+00 0. -1.
         -2    1    6    6    0  503  0.37339575728E+03 -0.27400588467E+03 -0.43134413018E+03  0.63289918236E+03  0.00000000000E+00 0.  1.
<mgrwt>
<rscale>  0 0.19882288E+04</rscale>
<asrwt>0</asrwt>
<pdfrwt beam="1">  1        1 0.20662508E+00 0.19882288E+04</pdfrwt>
<pdfrwt beam="2">  1       -2 0.11320432E+00 0.19882288E+04</pdfrwt>
<totfact> 0.42081216E+00</totfact>
</mgrwt>
</event>
<event>
12    4  0.4280696E-008  0.1065857E+04  0.7818608E-02  0.9239124E-01
         -2   -1    0    0    0  501 -0.00000000000E+00  0.00000000000E+00  0.62652909576E+03  0.62652909576E+03  0.00000000000E+00 0.  1.
          1   -1    0    0  501    0  0.00000000000E+00 -0.00000000000E+00 -0.45331115800E+03  0.45331115800E+03  0.00000000000E+00 0. -1.
        -24    2    1    2    0    0 -0.78456485396E+02 -0.65084694638E+02 -0.55943762229E+02  0.14080695703E+03  0.79406908010E+02 0.  0.
        254    2    1    2    0    0  0.78456485396E+02  0.65084694638E+02  0.22916169999E+03  0.93903329672E+03  0.90491823389E+03 0.  0.
         23    2    4    4    0    0 -0.66795840714E+02 -0.30638793283E+03  0.38173652610E+03  0.50225806849E+03  0.90582240474E+02 0.  0.
         23    2    4    4    0    0  0.14525232611E+03  0.37147262747E+03 -0.15257482611E+03  0.43677522823E+03  0.91669903665E+02 0.  0.
          3    1    3    3  502    0 -0.71206048302E+02 -0.68229285013E+02 -0.15779511986E+02  0.99872567038E+02  0.00000000000E+00 0. -1.
         -4    1    3    3    0  502 -0.72504370937E+01  0.31445903751E+01 -0.40164250243E+02  0.40934389995E+02  0.00000000000E+00 0.  1.
         11    1    5    5    0    0 -0.50293893947E+02 -0.30218113192E+03  0.34264260787E+03  0.45961600167E+03  0.00000000000E+00 0.  1.
        -11    1    5    5    0    0 -0.16501946767E+02 -0.42068009042E+01  0.39093918222E+02  0.42642066823E+02  0.00000000000E+00 0. -1.
          3    1    6    6  503    0  0.41615446525E+02  0.52741765599E+02 -0.57406733418E+02  0.88368955350E+02  0.00000000000E+00 0. -1.
         -3    1    6    6    0  503  0.10363687958E+03  0.31873086187E+03 -0.95168092689E+02  0.34840627288E+03  0.00000000000E+00 0.  1.
<mgrwt>
<rscale>  0 0.10658567E+04</rscale>
<asrwt>0</asrwt>
<pdfrwt beam="1">  1        1 0.69740178E-01 0.10658567E+04</pdfrwt>
<pdfrwt beam="2">  1       -2 0.96389092E-01 0.10658567E+04</pdfrwt>
<totfact> 0.39879220E+01</totfact>
</mgrwt>
</event>
<event>
12    4  0.4280696E-008  0.1794181E+04  0.7818608E-02  0.8709400E-01
          1   -1    0    0  501    0  0.00000000000E+00  0.00000000000E+00  0.74121389933E+03  0.74121389933E+03  0.00000000000E+00 0. -1.
         -2   -1    0    0    0  501 -0.00000000000E+00 -0.00000000000E+00 -0.10857483590E+04  0.10857483590E+04  0.00000000000E+00 0.  1.
        -24    2    1    2    0    0  0.63032108525E+03  0.24822886615E+03 -0.12437602522E+03  0.69338358734E+03  0.79932240246E+02 0.  0.
        254    2    1    2    0    0 -0.63032108525E+03 -0.24822886615E+03 -0.22015843445E+03  0.11335786710E+04  0.88182119875E+03 0.  0.
         23    2    4    4    0    0  0.21207378333E+03 -0.15984180097E+01 -0.49398101064E+02  0.23466958753E+03  0.87474558622E+02 0.  0.
         23    2    4    4    0    0 -0.84239486858E+03 -0.24663044814E+03 -0.17076033339E+03  0.89890908346E+03  0.91775575779E+02 0.  0.
          1    1    3    3  502    0  0.58407905821E+03  0.23408910602E+03 -0.93860017243E+02  0.63620417999E+03  0.00000000000E+00 0. -1.
         -2    1    3    3    0  502  0.46242027042E+02  0.14139760130E+02 -0.30516007980E+02  0.57179407347E+02  0.00000000000E+00 0.  1.
         11    1    5    5    0    0  0.81001424234E+02 -0.43254112955E+02 -0.22236422439E+02  0.94480725538E+02  0.00000000000E+00 0. -1.
        -11    1    5    5    0    0  0.13107235909E+03  0.41655694945E+02 -0.27161678625E+02  0.14018886199E+03  0.00000000000E+00 0.  1.
          4    1    6    6  503    0 -0.11137460097E+03 -0.48842096686E+01 -0.36716984914E+02  0.11737245941E+03  0.00000000000E+00 0. -1.
         -4    1    6    6    0  503 -0.73102026761E+03 -0.24174623847E+03 -0.13404334847E+03  0.78153662405E+03  0.00000000000E+00 0.  1.
<mgrwt>
<rscale>  0 0.17941815E+04</rscale>
<asrwt>0</asrwt>
<pdfrwt beam="1">  1        1 0.11403291E+00 0.17941815E+04</pdfrwt>
<pdfrwt beam="2">  1       -2 0.16703821E+00 0.17941815E+04</pdfrwt>
<totfact> 0.46139073E+00</totfact>
</mgrwt>
</event>
<event>
12    4  0.4280696E-008  0.1417832E+04  0.7818608E-02  0.8941011E-01
         -2   -1    0    0    0  501 -0.00000000000E+00  0.00000000000E+00  0.95174638959E+03  0.95174638959E+03  0.00000000000E+00 0.  1.
          1   -1    0    0  501    0  0.00000000000E+00 -0.00000000000E+00 -0.52804164299E+03  0.52804164299E+03  0.00000000000E+00 0. -1.
        -24    2    1    2    0    0  0.13332257664E+03 -0.14817885565E+03 -0.32233266236E+03  0.38761016408E+03  0.81310585819E+02 0.  0.
        254    2    1    2    0    0 -0.13332257664E+03  0.14817885565E+03  0.74603740896E+03  0.10921778685E+04  0.77236571530E+03 0.  0.
         23    2    4    4    0    0 -0.18829300073E+03  0.29042573731E+03  0.82429730569E+03  0.89836173956E+03  0.88240602465E+02 0.  0.
         23    2    4    4    0    0  0.54970424090E+02 -0.14224688166E+03 -0.78259896729E+02  0.19381612894E+03  0.90466333711E+02 0.  0.
          1    1    3    3  502    0  0.13839205021E+03 -0.11182066316E+03 -0.25527108127E+03  0.31115839247E+03  0.00000000000E+00 0. -1.
         -2    1    3    3    0  502 -0.50694735706E+01 -0.36358192491E+02 -0.67061581087E+02  0.76451771604E+02  0.00000000000E+00 0.  1.
         11    1    5    5    0    0 -0.10066409350E+02  0.48537301611E+02  0.19219510340E+03  0.19848465939E+03  0.00000000000E+00 0.  1.
        -11    1    5    5    0    0 -0.17822659138E+03  0.24188843570E+03  0.63210220229E+03  0.69987708016E+03  0.00000000000E+00 0. -1.
          1    1    6    6  503    0  0.71840719098E+02 -0.11022770310E+03 -0.32596871579E+02  0.13554995938E+03  0.00000000000E+00 0. -1.
         -1    1    6    6    0  503 -0.16870295008E+02 -0.32019178555E+02 -0.45663025151E+02  0.58266169557E+02  0.00000000000E+00 0.  1.
<mgrwt>
<rscale>  0 0.14178318E+04</rscale>
<asrwt>0</asrwt>
<pdfrwt beam="1">  1        1 0.81237176E-01 0.14178318E+04</pdfrwt>
<pdfrwt beam="2">  1       -2 0.14642252E+00 0.14178318E+04</pdfrwt>
<totfact> 0.11165562E+01</totfact>
</mgrwt>
</event>
<event>
12    4  0.4280696E-008  0.1431920E+04  0.7818608E-02  0.8931032E-01
          1   -1    0    0  501    0  0.00000000000E+00  0.00000000000E+00  0.62854273360E+03  0.62854273360E+03  0.00000000000E+00 0. -1.
         -4   -1    0    0    0  501 -0.00000000000E+00 -0.00000000000E+00 -0.81553512440E+03  0.81553512440E+03  0.00000000000E+00 0.  1.
        -24    2    1    2    0    0  0.98539647207E+02 -0.45254289694E+01 -0.47278754113E+03  0.48975031962E+03  0.81220532785E+02 0.  0.
        254    2    1    2    0    0 -0.98539647207E+02  0.45254289694E+01  0.28579515032E+03  0.95432753838E+03  0.90516939905E+03 0.  0.
         23    2    4    4    0    0 -0.18842518382E+03  0.24143054586E+03  0.51131118959E+03  0.60322293552E+03  0.92983971562E+02 0.  0.
         23    2    4    4    0    0  0.89885536615E+02 -0.23690511689E+03 -0.22551603927E+03  0.35110460286E+03  0.90628439672E+02 0.  0.
          3    1    3    3  502    0  0.58535931362E+02  0.25540862269E+02 -0.14888427301E+03  0.16200406679E+03  0.00000000000E+00 0. -1.
         -4    1    3    3    0  502  0.40003715845E+02 -0.30066291239E+02 -0.32390326812E+03  0.32774625284E+03  0.00000000000E+00 0.  1.
         11    1    5    5    0    0 -0.19377521585E+03  0.20084500344E+03  0.44264997618E+03  0.52328438836E+03  0.00000000000E+00 0.  1.
        -11    1    5    5    0    0  0.53500320255E+01  0.40585542428E+02  0.68661213403E+02  0.79938547164E+02  0.00000000000E+00 0. -1.
          2    1    6    6  503    0 -0.11888531896E+01  0.75458181926E+01 -0.29256136545E+01  0.81799730658E+01  0.00000000000E+00 0. -1.
         -2    1    6    6    0  503  0.91074389804E+02 -0.24445093509E+03 -0.22259042561E+03  0.34292462979E+03  0.00000000000E+00 0.  1.
<mgrwt>
<rscale>  0 0.14319199E+04</rscale>
<asrwt>0</asrwt>
<pdfrwt beam="1">  1        1 0.96698882E-01 0.14319199E+04</pdfrwt>
<pdfrwt beam="2">  1       -4 0.12546694E+00 0.14319199E+04</pdfrwt>
<totfact> 0.70945398E+00</totfact>
</mgrwt>
</event>
<event>
12    4  0.4280696E-008  0.1987199E+04  0.7818608E-02  0.8612629E-01
         -2   -1    0    0    0  501 -0.00000000000E+00  0.00000000000E+00  0.64573378489E+03  0.64573378489E+03  0.00000000000E+00 0.  1.
          1   -1    0    0  501    0  0.00000000000E+00 -0.00000000000E+00 -0.15288655900E+04  0.15288655900E+04  0.00000000000E+00 0. -1.
        -24    2    1    2    0    0  0.20806641309E+03  0.57571661005E+03  0.19615946354E+03  0.64760435688E+03  0.78559662522E+02 0.  0.
        254    2    1    2    0    0 -0.20806641309E+03 -0.57571661005E+03 -0.10792912686E+04  0.15269950180E+04  0.89000162646E+03 0.  0.
         23    2    4    4    0    0 -0.23148955906E+03 -0.73259325367E+03 -0.10971885338E+04  0.13430011513E+04  0.97719610670E+02 0.  0.
         23    2    4    4    0    0  0.23423145965E+02  0.15687664362E+03  0.17897265192E+02  0.18399386672E+03  0.91512325988E+02 0.  0.
          3    1    3    3  502    0  0.92503672422E+02  0.29713849952E+03  0.61090750586E+02  0.31714396906E+03  0.00000000000E+00 0. -1.
         -4    1    3    3    0  502  0.11556274067E+03  0.27857811053E+03  0.13506871295E+03  0.33046038782E+03  0.00000000000E+00 0.  1.
         11    1    5    5    0    0 -0.23103945225E+03 -0.62000180814E+03 -0.94926614373E+03  0.11571031424E+04  0.00000000000E+00 0.  1.
        -11    1    5    5    0    0 -0.45010680359E+00 -0.11259144552E+03 -0.14792239010E+03  0.18589800885E+03  0.00000000000E+00 0. -1.
          1    1    6    6  503    0 -0.55320616842E+01 -0.97980892597E+01  0.93112620200E+01  0.14604994352E+02  0.00000000000E+00 0. -1.
         -1    1    6    6    0  503  0.28955207649E+02  0.16667473288E+03  0.85860031724E+01  0.16938887237E+03  0.00000000000E+00 0.  1.
<mgrwt>
<rscale>  0 0.19871992E+04</rscale>
<asrwt>0</asrwt>
<pdfrwt beam="1">  1        1 0.23521009E+00 0.19871992E+04</pdfrwt>
<pdfrwt beam="2">  1       -2 0.99343661E-01 0.19871992E+04</pdfrwt>
<totfact> 0.42724930E+00</totfact>
</mgrwt>
</event>
<event>
12    4  0.4280696E-008  0.1960330E+04  0.7818608E-02  0.8625396E-01
          1   -1    0    0  501    0  0.00000000000E+00  0.00000000000E+00  0.24452907686E+04  0.24452907686E+04  0.00000000000E+00 0. -1.
         -2   -1    0    0    0  501 -0.00000000000E+00 -0.00000000000E+00 -0.39288723603E+03  0.39288723603E+03  0.00000000000E+00 0.  1.
        -24    2    1    2    0    0 -0.33712244093E+03  0.57487745308E+03  0.13769609174E+04  0.15318794531E+04  0.80608091563E+02 0.  0.
        254    2    1    2    0    0  0.33712244093E+03 -0.57487745308E+03  0.67544261519E+03  0.13062985516E+04  0.89780708020E+03 0.  0.
         23    2    4    4    0    0  0.11180021950E+03 -0.42079574857E+03  0.85723988153E+03  0.96590228275E+03  0.92404838763E+02 0.  0.
         23    2    4    4    0    0  0.22532222143E+03 -0.15408170451E+03 -0.18179726634E+03  0.34039626885E+03  0.91148772156E+02 0.  0.
          3    1    3    3  502    0 -0.17585810759E+03  0.34232785095E+03  0.86898343266E+03  0.95039288601E+03  0.00000000000E+00 0. -1.
         -4    1    3    3    0  502 -0.16126433334E+03  0.23254960213E+03  0.50797748476E+03  0.58148656707E+03  0.00000000000E+00 0.  1.
         11    1    5    5    0    0  0.28652001383E+02 -0.22300737826E+02  0.96319859085E+02  0.10293578263E+03  0.00000000000E+00 0. -1.
        -11    1    5    5    0    0  0.83148218112E+02 -0.39849501075E+03  0.76092002245E+03  0.86296650012E+03  0.00000000000E+00 0.  1.
          2    1    6    6  503    0  0.22518362250E+02 -0.20092571724E+01  0.77272876564E+01  0.23891938543E+02  0.00000000000E+00 0. -1.
         -2    1    6    6    0  503  0.20280385918E+03 -0.15207244734E+03 -0.18952455400E+03  0.31650433031E+03  0.00000000000E+00 0.  1.
<mgrwt>
<rscale>  0 0.19603301E+04</rscale>
<asrwt>0</asrwt>
<pdfrwt beam="1">  1        1 0.37619857E+00 0.19603301E+04</pdfrwt>
<pdfrwt beam="2">  1       -2 0.60444192E-01 0.19603301E+04</pdfrwt>
<totfact> 0.30834873E+00</totfact>
</mgrwt>
</event>
<event>
12    4  0.4280696E-008  0.1307409E+04  0.7818608E-02  0.9023710E-01
         -2   -1    0    0    0  501 -0.00000000000E+00  0.00000000000E+00  0.39882652861E+03  0.39882652861E+03  0.00000000000E+00 0.  1.
          1   -1    0    0  501    0  0.00000000000E+00 -0.00000000000E+00 -0.10714672969E+04  0.10714672969E+04  0.00000000000E+00 0. -1.
        -24    2    1    2    0    0  0.17742801115E+03  0.21342019131E+03  0.12628055758E+03  0.31478314418E+03  0.78184214745E+02 0.  0.
        254    2    1    2    0    0 -0.17742801115E+03 -0.21342019131E+03 -0.79892132591E+03  0.11555106814E+04  0.78733777539E+03 0.  0.
         23    2    4    4    0    0 -0.35747868677E+03 -0.40484656286E+03 -0.45228795578E+03  0.71045599902E+03  0.92149772859E+02 0.  0.
         23    2    4    4    0    0  0.18005067562E+03  0.19142637155E+03 -0.34663337013E+03  0.44505468235E+03  0.94109911708E+02 0.  0.
          1    1    3    3  502    0  0.18633897484E+02  0.22887858214E+02  0.44925465071E+02  0.53752893884E+02  0.00000000000E+00 0. -1.
         -2    1    3    3    0  502  0.15879411367E+03  0.19053233310E+03  0.81355092505E+02  0.26103025029E+03  0.00000000000E+00 0.  1.
         11    1    5    5    0    0  0.39600085906E+01 -0.11011130352E+02 -0.27782328222E+01  0.12026854837E+02  0.00000000000E+00 0. -1.
        -11    1    5    5    0    0 -0.36143869536E+03 -0.39383543251E+03 -0.44950972296E+03  0.69842914418E+03  0.00000000000E+00 0.  1.
          1    1    6    6  503    0  0.22422293685E+02  0.85307596261E+02 -0.93555228304E+02  0.12857964838E+03  0.00000000000E+00 0. -1.
         -1    1    6    6    0  503  0.15762838193E+03  0.10611877529E+03 -0.25307814183E+03  0.31647503398E+03  0.00000000000E+00 0.  1.
<mgrwt>
<rscale>  0 0.13074090E+04</rscale>
<asrwt>0</asrwt>
<pdfrwt beam="1">  1        1 0.16484112E+00 0.13074090E+04</pdfrwt>
<pdfrwt beam="2">  1       -2 0.61357927E-01 0.13074090E+04</pdfrwt>
<totfact> 0.28339204E+01</totfact>
</mgrwt>
</event>
<event>
12    4  0.4280696E-008  0.2342739E+04  0.7818608E-02  0.8461258E-01
         -2   -1    0    0    0  501 -0.00000000000E+00  0.00000000000E+00  0.81799696727E+03  0.81799696727E+03  0.00000000000E+00 0.  1.
          1   -1    0    0  501    0  0.00000000000E+00 -0.00000000000E+00 -0.16773973647E+04  0.16773973647E+04  0.00000000000E+00 0. -1.
        -24    2    1    2    0    0 -0.87948357338E+03 -0.30309079946E+03 -0.76414927863E+03  0.12064999600E+04  0.79766188861E+02 0.  0.
        254    2    1    2    0    0  0.87948357338E+03  0.30309079946E+03 -0.95251118804E+02  0.12888943720E+04  0.88702905133E+03 0.  0.
         23    2    4    4    0    0  0.16478762806E+03 -0.97235671096E+02 -0.36668442603E+03  0.42158586401E+03  0.81654359012E+02 0.  0.
         23    2    4    4    0    0  0.71469594532E+03  0.40032647056E+03  0.27143330723E+03  0.86730850796E+03  0.86581928997E+02 0.  0.
          3    1    3    3  502    0 -0.72784148119E+03 -0.23148729127E+03 -0.59361159907E+03  0.96732327497E+03  0.00000000000E+00 0. -1.
         -4    1    3    3    0  502 -0.15164209219E+03 -0.71603508192E+02 -0.17053767956E+03  0.23917668503E+03  0.00000000000E+00 0.  1.
         11    1    5    5    0    0  0.15895280967E+03 -0.10906298335E+03 -0.32505447800E+03  0.37791684760E+03  0.00000000000E+00 0.  1.
        -11    1    5    5    0    0  0.58348183950E+01  0.11827312250E+02 -0.41629948033E+02  0.43669016407E+02  0.00000000000E+00 0. -1.
          4    1    6    6  503    0  0.36960964037E+03  0.15886940240E+03  0.12169291301E+03  0.42030933650E+03  0.00000000000E+00 0. -1.
         -4    1    6    6    0  503  0.34508630495E+03  0.24145706816E+03  0.14974039422E+03  0.44699917146E+03  0.00000000000E+00 0.  1.
<mgrwt>
<rscale>  0 0.23427385E+04</rscale>
<asrwt>0</asrwt>
<pdfrwt beam="1">  1        1 0.25806113E+00 0.23427385E+04</pdfrwt>
<pdfrwt beam="2">  1       -2 0.12584569E+00 0.23427385E+04</pdfrwt>
<totfact> 0.18413944E+00</totfact>
</mgrwt>
</event>
<event>
12    4  0.4280696E-008  0.1702269E+04  0.7818608E-02  0.8760072E-01
         -2   -1    0    0    0  501 -0.00000000000E+00  0.00000000000E+00  0.15378447670E+04  0.15378447670E+04  0.00000000000E+00 0.  1.
          1   -1    0    0  501    0  0.00000000000E+00 -0.00000000000E+00 -0.47106810799E+03  0.47106810799E+03  0.00000000000E+00 0. -1.
        -24    2    1    2    0    0  0.39729953153E+03 -0.45572740097E+03  0.49367216421E+03  0.78464742525E+03  0.80156063335E+02 0.  0.
        254    2    1    2    0    0 -0.39729953153E+03  0.45572740097E+03  0.57310449484E+03  0.12242654498E+04  0.89713028472E+03 0.  0.
         23    2    4    4    0    0  0.17725352919E+02  0.32726091792E+03 -0.15305268085E+03  0.37293366090E+03  0.90777176538E+02 0.  0.
         23    2    4    4    0    0 -0.41502488445E+03  0.12846648304E+03  0.72615717569E+03  0.85133178888E+03  0.93339589476E+02 0.  0.
          3    1    3    3  502    0  0.10339012562E+03 -0.11900634154E+03  0.17615349358E+03  0.23639391004E+03  0.00000000000E+00 0. -1.
         -4    1    3    3    0  502  0.29390940591E+03 -0.33672105942E+03  0.31751867063E+03  0.54825351521E+03  0.00000000000E+00 0.  1.
         11    1    5    5    0    0 -0.89816412870E+01  0.91127382011E+01 -0.26635447671E+02  0.29549263111E+02  0.00000000000E+00 0. -1.
        -11    1    5    5    0    0  0.26706994206E+02  0.31814817972E+03 -0.12641723318E+03  0.34338439779E+03  0.00000000000E+00 0.  1.
          2    1    6    6  503    0 -0.13921753814E+03  0.49729378391E+02  0.33603998251E+03  0.36712042145E+03  0.00000000000E+00 0. -1.
         -2    1    6    6    0  503 -0.27580734631E+03  0.78737104652E+02  0.39011719319E+03  0.48421136743E+03  0.00000000000E+00 0.  1.
<mgrwt>
<rscale>  0 0.17022686E+04</rscale>
<asrwt>0</asrwt>
<pdfrwt beam="1">  1        1 0.72472018E-01 0.17022686E+04</pdfrwt>
<pdfrwt beam="2">  1       -2 0.23659150E+00 0.17022686E+04</pdfrwt>
<totfact> 0.31131228E+00</totfact>
</mgrwt>
</event>
<event>
12    4  0.4280696E-008  0.1245914E+04  0.7818608E-02  0.9073591E-01
         -2   -1    0    0    0  501 -0.00000000000E+00  0.00000000000E+00  0.42498609365E+03  0.42498609365E+03  0.00000000000E+00 0.  1.
          1   -1    0    0  501    0  0.00000000000E+00 -0.00000000000E+00 -0.91314824183E+03  0.91314824183E+03  0.00000000000E+00 0. -1.
        -24    2    1    2    0    0 -0.20368806894E+03  0.18361766745E+03 -0.39717889101E+02  0.28761414172E+03  0.77072086844E+02 0.  0.
        254    2    1    2    0    0  0.20368806894E+03 -0.18361766745E+03 -0.44844425907E+03  0.10505201938E+04  0.90955271798E+03 0.  0.
         23    2    4    4    0    0  0.55020799737E+02  0.33207751840E+03 -0.33421073217E+01  0.34743002675E+03  0.85986552288E+02 0.  0.
         23    2    4    4    0    0  0.14866726920E+03 -0.51569518585E+03 -0.44510215175E+03  0.70309016702E+03  0.90423314564E+02 0.  0.
          3    1    3    3  502    0 -0.57899530468E+02  0.82031890584E+02 -0.44575725273E+02  0.10985709802E+03  0.00000000000E+00 0. -1.
         -4    1    3    3    0  502 -0.14578853847E+03  0.10158577687E+03  0.48578361724E+01  0.17775704370E+03  0.00000000000E+00 0.  1.
         11    1    5    5    0    0  0.48383981312E+02  0.33274479321E+03 -0.12051219384E+02  0.33646001091E+03  0.00000000000E+00 0.  1.
        -11    1    5    5    0    0  0.66368184251E+01 -0.66727480986E+00  0.87091120623E+01  0.10970015834E+02  0.00000000000E+00 0. -1.
          2    1    6    6  503    0  0.15822618969E+03 -0.43661901802E+03 -0.37300659696E+03  0.59565561810E+03  0.00000000000E+00 0.  1.
         -2    1    6    6    0  503 -0.95589204831E+01 -0.79076167837E+02 -0.72095554789E+02  0.10743454892E+03  0.00000000000E+00 0. -1.
<mgrwt>
<rscale>  0 0.12459138E+04</rscale>
<asrwt>0</asrwt>
<pdfrwt beam="1">  1        1 0.14048434E+00 0.12459138E+04</pdfrwt>
<pdfrwt beam="2">  1       -2 0.65382478E-01 0.12459138E+04</pdfrwt>
<totfact> 0.33089424E+01</totfact>
</mgrwt>
</event>
<event>
12    4  0.4280696E-008  0.2002549E+04  0.7818608E-02  0.8605430E-01
          1   -1    0    0  501    0  0.00000000000E+00  0.00000000000E+00  0.20453649780E+04  0.20453649780E+04  0.00000000000E+00 0. -1.
         -2   -1    0    0    0  501 -0.00000000000E+00 -0.00000000000E+00 -0.49015747297E+03  0.49015747297E+03  0.00000000000E+00 0.  1.
        -24    2    1    2    0    0 -0.34594703529E+03 -0.29824653369E+03  0.14481046291E+04  0.15205444464E+04  0.80112736025E+02 0.  0.
        254    2    1    2    0    0  0.34594703529E+03  0.29824653369E+03  0.10710287592E+03  0.10149780046E+04  0.90004387543E+03 0.  0.
         23    2    4    4    0    0  0.61983979183E+03  0.10260316828E+03  0.17773364162E+03  0.65920735514E+03  0.90754129570E+02 0.  0.
         23    2    4    4    0    0 -0.27389275654E+03  0.19564336540E+03 -0.70630765691E+02  0.35577064946E+03  0.91052080920E+02 0.  0.
          1    1    3    3  502    0 -0.27746656048E+03 -0.27374434686E+03  0.12580977875E+04  0.13170928982E+04  0.00000000000E+00 0. -1.
         -2    1    3    3    0  502 -0.68480474812E+02 -0.24502186831E+02  0.19000684160E+03  0.20345154815E+03  0.00000000000E+00 0.  1.
         11    1    5    5    0    0  0.28036924594E+03  0.45880629418E+02  0.12745012350E+03  0.31137674963E+03  0.00000000000E+00 0.  1.
        -11    1    5    5    0    0  0.33947054589E+03  0.56722538867E+02  0.50283518111E+02  0.34783060551E+03  0.00000000000E+00 0. -1.
          1    1    6    6  503    0 -0.15220946417E+03  0.13643875737E+03 -0.28657369635E+01  0.20442961611E+03  0.00000000000E+00 0. -1.
         -1    1    6    6    0  503 -0.12168329238E+03  0.59204608032E+02 -0.67765028728E+02  0.15134103335E+03  0.00000000000E+00 0.  1.
<mgrwt>
<rscale>  0 0.20025493E+04</rscale>
<asrwt>0</asrwt>
<pdfrwt beam="1">  1        1 0.31467153E+00 0.20025493E+04</pdfrwt>
<pdfrwt beam="2">  1       -2 0.75408843E-01 0.20025493E+04</pdfrwt>
<totfact> 0.35672259E+00</totfact>
</mgrwt>
</event>
<event>
12    4  0.4280696E-008  0.1436968E+04  0.7818608E-02  0.8927485E-01
          1   -1    0    0  501    0  0.00000000000E+00  0.00000000000E+00  0.12256907254E+04  0.12256907254E+04  0.00000000000E+00 0. -1.
         -2   -1    0    0    0  501 -0.00000000000E+00 -0.00000000000E+00 -0.42116612362E+03  0.42116612362E+03  0.00000000000E+00 0.  1.
        -24    2    1    2    0    0  0.20961633388E+03 -0.33424085970E+03  0.44905858225E+03  0.60290479578E+03  0.78642372558E+02 0.  0.
        254    2    1    2    0    0 -0.20961633388E+03  0.33424085970E+03  0.35546601957E+03  0.10439520533E+04  0.89879020842E+03 0.  0.
         23    2    4    4    0    0  0.38087712796E+02 -0.68829085981E+02  0.52016880067E+03  0.53469241197E+03  0.95562949319E+02 0.  0.
         23    2    4    4    0    0 -0.24770404668E+03  0.40306994568E+03 -0.16470278110E+03  0.50925964131E+03  0.91628054179E+02 0.  0.
          1    1    3    3  502    0  0.17606168137E+03 -0.29462753695E+03  0.42326041088E+03  0.54493346071E+03  0.00000000000E+00 0. -1.
         -2    1    3    3    0  502  0.33554652518E+02 -0.39613322743E+02  0.25798171364E+02  0.57971335072E+02  0.00000000000E+00 0.  1.
         11    1    5    5    0    0  0.61769528396E+02 -0.43357151141E+02  0.45101254397E+03  0.45728287964E+03  0.00000000000E+00 0.  1.
        -11    1    5    5    0    0 -0.23681815599E+02 -0.25471934840E+02  0.69156256705E+02  0.77409532333E+02  0.00000000000E+00 0. -1.
          1    1    6    6  503    0 -0.93394663179E+02  0.17969346475E+03 -0.25361896296E+02  0.20409686467E+03  0.00000000000E+00 0. -1.
         -1    1    6    6    0  503 -0.15430938350E+03  0.22337648093E+03 -0.13934088480E+03  0.30516277664E+03  0.00000000000E+00 0.  1.
<mgrwt>
<rscale>  0 0.14369682E+04</rscale>
<asrwt>0</asrwt>
<pdfrwt beam="1">  1        1 0.18856780E+00 0.14369682E+04</pdfrwt>
<pdfrwt beam="2">  1       -2 0.64794788E-01 0.14369682E+04</pdfrwt>
<totfact> 0.19182320E+01</totfact>
</mgrwt>
</event>
<event>
12    4  0.4280696E-008  0.1362093E+04  0.7818608E-02  0.8981724E-01
          1   -1    0    0  501    0  0.00000000000E+00  0.00000000000E+00  0.11208846054E+04  0.11208846054E+04  0.00000000000E+00 0. -1.
         -2   -1    0    0    0  501 -0.00000000000E+00 -0.00000000000E+00 -0.41380224387E+03  0.41380224387E+03  0.00000000000E+00 0.  1.
        -24    2    1    2    0    0  0.12334640517E+03  0.25819041084E+03 -0.69933311763E+02  0.30454859917E+03  0.77346992481E+02 0.  0.
        254    2    1    2    0    0 -0.12334640517E+03 -0.25819041084E+03  0.77701567324E+03  0.12301382501E+04  0.90973080297E+03 0.  0.
         23    2    4    4    0    0  0.72850242400E+02 -0.53095151736E+03  0.67469850082E+03  0.86713099008E+03  0.97372559489E+02 0.  0.
         23    2    4    4    0    0 -0.19619664757E+03  0.27276110652E+03  0.10231717242E+03  0.36300725998E+03  0.91726339053E+02 0.  0.
          1    1    3    3  502    0  0.76585974119E+01 -0.44353030243E+01  0.10795130105E+01  0.89157936032E+01  0.00000000000E+00 0. -1.
         -2    1    3    3    0  502  0.11568780775E+03  0.26262571386E+03 -0.71012824773E+02  0.29563280556E+03  0.00000000000E+00 0.  1.
         11    1    5    5    0    0  0.96934617534E+02 -0.40619337421E+03  0.52165549648E+03  0.66821690666E+03  0.00000000000E+00 0. -1.
        -11    1    5    5    0    0 -0.24084375134E+02 -0.12475814315E+03  0.15304300434E+03  0.19891408342E+03  0.00000000000E+00 0.  1.
          1    1    6    6  503    0 -0.17086611049E+03  0.26848700907E+03  0.78068364996E+02  0.32768150904E+03  0.00000000000E+00 0. -1.
         -1    1    6    6    0  503 -0.25330537076E+02  0.42740974513E+01  0.24248807428E+02  0.35325750937E+02  0.00000000000E+00 0.  1.
<mgrwt>
<rscale>  0 0.13620933E+04</rscale>
<asrwt>0</asrwt>
<pdfrwt beam="1">  1        1 0.17244378E+00 0.13620933E+04</pdfrwt>
<pdfrwt beam="2">  1       -2 0.63661884E-01 0.13620933E+04</pdfrwt>
<totfact> 0.23940500E+01</totfact>
</mgrwt>
</event>
<event>
12    4  0.4280696E-008  0.1779344E+04  0.7818608E-02  0.8717362E-01
         -2   -1    0    0    0  501 -0.00000000000E+00  0.00000000000E+00  0.50307421623E+03  0.50307421623E+03  0.00000000000E+00 0.  1.
          1   -1    0    0  501    0  0.00000000000E+00 -0.00000000000E+00 -0.15733580644E+04  0.15733580644E+04  0.00000000000E+00 0. -1.
        -24    2    1    2    0    0 -0.16342201117E+03 -0.25220483643E+03  0.28042415065E+03  0.41880881475E+03  0.80306200207E+02 0.  0.
        254    2    1    2    0    0  0.16342201117E+03  0.25220483643E+03 -0.13507079988E+04  0.16576234658E+04  0.91268254242E+03 0.  0.
         23    2    4    4    0    0 -0.18753597301E+03 -0.15253984191E+03 -0.66235404927E+02  0.26284372586E+03  0.79129961546E+02 0.  0.
         23    2    4    4    0    0  0.35095798418E+03  0.40474467835E+03 -0.12844725939E+04  0.13947797400E+04  0.92471170407E+02 0.  0.
          3    1    3    3  502    0 -0.81967058516E+02 -0.58196080747E+02  0.85090547822E+02  0.13170339337E+03  0.00000000000E+00 0. -1.
         -4    1    3    3    0  502 -0.81454952656E+02 -0.19400875568E+03  0.19533360283E+03  0.28710542139E+03  0.00000000000E+00 0.  1.
         11    1    5    5    0    0 -0.18799599532E+03 -0.12464076724E+03 -0.65703991355E+02  0.23493579888E+03  0.00000000000E+00 0. -1.
        -11    1    5    5    0    0  0.46002230860E+00 -0.27899074672E+02 -0.53141357225E+00  0.27907926982E+02  0.00000000000E+00 0.  1.
          2    1    6    6  503    0  0.31475756919E+03  0.37624354717E+03 -0.12248652228E+04  0.13194416805E+04  0.00000000000E+00 0. -1.
         -2    1    6    6    0  503  0.36200414991E+02  0.28501131174E+02 -0.59607371027E+02  0.75338059468E+02  0.00000000000E+00 0.  1.
<mgrwt>
<rscale>  0 0.17793436E+04</rscale>
<asrwt>0</asrwt>
<pdfrwt beam="1">  1        1 0.24205508E+00 0.17793436E+04</pdfrwt>
<pdfrwt beam="2">  1       -2 0.77396034E-01 0.17793436E+04</pdfrwt>
<totfact> 0.71891916E+00</totfact>
</mgrwt>
</event>
<event>
12    4  0.4280696E-008  0.1140625E+04  0.7818608E-02  0.9166476E-01
          1   -1    0    0  501    0  0.00000000000E+00  0.00000000000E+00  0.59161005738E+03  0.59161005738E+03  0.00000000000E+00 0. -1.
         -2   -1    0    0    0  501 -0.00000000000E+00 -0.00000000000E+00 -0.54978178405E+03  0.54978178405E+03  0.00000000000E+00 0.  1.
        -24    2    1    2    0    0  0.82671218918E+02  0.13537302307E+03  0.12137734839E+03  0.22029079302E+03  0.92925706735E+02 0.  0.
        254    2    1    2    0    0 -0.82671218918E+02 -0.13537302307E+03 -0.79549075063E+02  0.92110104841E+03  0.90384661322E+03 0.  0.
         23    2    4    4    0    0 -0.54609661958E+02  0.36949186796E+03 -0.12856999993E+03  0.40508227859E+03  0.89749383719E+02 0.  0.
         23    2    4    4    0    0 -0.28061556960E+02 -0.50486489104E+03  0.49020924865E+02  0.51601876982E+03  0.90533477536E+02 0.  0.
          3    1    3    3  502    0  0.64146705205E+02  0.13535297859E+03  0.13137985232E+03  0.19923828497E+03  0.00000000000E+00 0. -1.
         -4    1    3    3    0  502  0.18524513713E+02  0.20044486660E-01 -0.10002503935E+02  0.21052508046E+02  0.00000000000E+00 0.  1.
         11    1    5    5    0    0 -0.43038498658E+02  0.65880081119E+02 -0.41787544507E+02  0.89099362124E+02  0.00000000000E+00 0.  1.
        -11    1    5    5    0    0 -0.11571163300E+02  0.30361178684E+03 -0.86782455420E+02  0.31598291647E+03  0.00000000000E+00 0. -1.
          2    1    6    6  503    0 -0.46899846741E+02 -0.45625713395E+03  0.27082829324E+02  0.45946016971E+03  0.00000000000E+00 0. -1.
         -2    1    6    6    0  503  0.18838289781E+02 -0.48607757082E+02  0.21938095541E+02  0.56558600110E+02  0.00000000000E+00 0.  1.
<mgrwt>
<rscale>  0 0.11406251E+04</rscale>
<asrwt>0</asrwt>
<pdfrwt beam="1">  1        1 0.91016932E-01 0.11406251E+04</pdfrwt>
<pdfrwt beam="2">  1       -2 0.84581813E-01 0.11406251E+04</pdfrwt>
<totfact> 0.37055122E+01</totfact>
</mgrwt>
</event>
<event>
12    4  0.4280696E-008  0.1632831E+04  0.7818608E-02  0.8800629E-01
          1   -1    0    0  501    0  0.00000000000E+00  0.00000000000E+00  0.17326386490E+04  0.17326386490E+04  0.00000000000E+00 0. -1.
         -4   -1    0    0    0  501 -0.00000000000E+00 -0.00000000000E+00 -0.38469328980E+03  0.38469328980E+03  0.00000000000E+00 0.  1.
        -24    2    1    2    0    0  0.33376843776E+03  0.73609128898E+02  0.10900780189E+04  0.11451569644E+04  0.79339221181E+02 0.  0.
        254    2    1    2    0    0 -0.33376843776E+03 -0.73609128898E+02  0.25786734039E+03  0.97217497444E+03  0.87281667135E+03 0.  0.
         23    2    4    4    0    0 -0.13087117933E+03  0.67142737497E+02 -0.30492621022E+03  0.35084778713E+03  0.92080200242E+02 0.  0.
         23    2    4    4    0    0 -0.20289725842E+03 -0.14075186640E+03  0.56279355061E+03  0.62132718731E+03  0.91282570722E+02 0.  0.
          3    1    3    3  502    0  0.10971316587E+03 -0.11196020108E+02  0.38547569176E+03  0.40094119092E+03  0.00000000000E+00 0. -1.
         -4    1    3    3    0  502  0.22405527188E+03  0.84805149006E+02  0.70460232709E+03  0.74421577348E+03  0.00000000000E+00 0.  1.
         11    1    5    5    0    0 -0.10924118784E+03  0.39930378594E+02 -0.13864074100E+03  0.18096775216E+03  0.00000000000E+00 0. -1.
        -11    1    5    5    0    0 -0.21629991492E+02  0.27212358903E+02 -0.16628546922E+03  0.16988003497E+03  0.00000000000E+00 0.  1.
          3    1    6    6  503    0 -0.16769033579E+01 -0.14841234788E+02  0.10102099923E+03  0.10211912916E+03  0.00000000000E+00 0. -1.
         -3    1    6    6    0  503 -0.20122035506E+03 -0.12591063161E+03  0.46177255138E+03  0.51920805816E+03  0.00000000000E+00 0.  1.
<mgrwt>
<rscale>  0 0.16328312E+04</rscale>
<asrwt>0</asrwt>
<pdfrwt beam="1">  1        1 0.26655979E+00 0.16328312E+04</pdfrwt>
<pdfrwt beam="2">  1       -4 0.59183584E-01 0.16328312E+04</pdfrwt>
<totfact> 0.57602514E+00</totfact>
</mgrwt>
</event>
<event>
12    4  0.4280696E-008  0.1080708E+04  0.7818608E-02  0.9224202E-01
         -2   -1    0    0    0  501 -0.00000000000E+00  0.00000000000E+00  0.13265613304E+04  0.13265613304E+04  0.00000000000E+00 0.  1.
          1   -1    0    0  501    0  0.00000000000E+00 -0.00000000000E+00 -0.22010458518E+03  0.22010458518E+03  0.00000000000E+00 0. -1.
        -24    2    1    2    0    0  0.12569102700E+03  0.33120209125E+02  0.14811679951E+03  0.21241133511E+03  0.79276771278E+02 0.  0.
        254    2    1    2    0    0 -0.12569102700E+03 -0.33120209125E+02  0.95833994567E+03  0.13342545804E+04  0.91919783041E+03 0.  0.
         23    2    4    4    0    0 -0.31054940404E+03 -0.27728816886E+03  0.91586717760E+03  0.10100960584E+04  0.90286760842E+02 0.  0.
         23    2    4    4    0    0  0.18485837704E+03  0.24416795974E+03  0.42472768065E+02  0.32415852207E+03  0.97386853724E+02 0.  0.
          3    1    3    3  502    0  0.56132197149E+02 -0.24038622916E+02  0.47250643324E+02  0.77209469905E+02  0.00000000000E+00 0. -1.
         -4    1    3    3    0  502  0.69558829856E+02  0.57158832041E+02  0.10086615619E+03  0.13520186521E+03  0.00000000000E+00 0.  1.
         11    1    5    5    0    0 -0.20384082828E+03 -0.21770321630E+03  0.57067543606E+03  0.64390700181E+03  0.00000000000E+00 0.  1.
        -11    1    5    5    0    0 -0.10670857577E+03 -0.59584952558E+02  0.34519174154E+03  0.36618905655E+03  0.00000000000E+00 0. -1.
          2    1    6    6  503    0  0.66185227160E+02  0.14651678088E+03 -0.11719920449E+02  0.16119865976E+03  0.00000000000E+00 0. -1.
         -2    1    6    6    0  503  0.11867314988E+03  0.97651178858E+02  0.54192688514E+02  0.16295986231E+03  0.00000000000E+00 0.  1.
<mgrwt>
<rscale>  0 0.10807076E+04</rscale>
<asrwt>0</asrwt>
<pdfrwt beam="1">  1        1 0.33862245E-01 0.10807076E+04</pdfrwt>
<pdfrwt beam="2">  1       -2 0.20408635E+00 0.10807076E+04</pdfrwt>
<totfact> 0.14283344E+01</totfact>
</mgrwt>
</event>
<event>
12    4  0.4280696E-008  0.1553525E+04  0.7818608E-02  0.8849619E-01
          1   -1    0    0  501    0  0.00000000000E+00  0.00000000000E+00  0.17129994527E+04  0.17129994527E+04  0.00000000000E+00 0. -1.
         -2   -1    0    0    0  501 -0.00000000000E+00 -0.00000000000E+00 -0.35222443990E+03  0.35222443990E+03  0.00000000000E+00 0.  1.
        -24    2    1    2    0    0 -0.50855466878E+02 -0.23510011612E+03  0.10632396824E+04  0.10930813243E+04  0.80559394223E+02 0.  0.
        254    2    1    2    0    0  0.50855466878E+02  0.23510011612E+03  0.29753533037E+03  0.97214256836E+03  0.89368649833E+03 0.  0.
         23    2    4    4    0    0  0.12492913981E+03 -0.32088452248E+03  0.97386488245E+02  0.36942283425E+03  0.91732958288E+02 0.  0.
         23    2    4    4    0    0 -0.74073672936E+02  0.55598463859E+03  0.20014884212E+03  0.60271973411E+03  0.92766866415E+02 0.  0.
          1    1    3    3  502    0 -0.38028910975E+02 -0.23505145891E+03  0.10354469573E+04  0.10624715469E+04  0.00000000000E+00 0. -1.
         -2    1    3    3    0  502 -0.12826555903E+02 -0.48657210056E-01  0.27792725103E+02  0.30609777401E+02  0.00000000000E+00 0.  1.
         11    1    5    5    0    0  0.13477086245E+03 -0.31770369903E+03  0.89809408469E+02  0.35660139595E+03  0.00000000000E+00 0.  1.
        -11    1    5    5    0    0 -0.98417226401E+01 -0.31808234498E+01  0.75770797752E+01  0.12821438307E+02  0.00000000000E+00 0. -1.
          1    1    6    6  503    0 -0.43909289905E+02  0.15220176583E+03  0.93725625438E+02  0.18405949073E+03  0.00000000000E+00 0. -1.
         -1    1    6    6    0  503 -0.30164383031E+02  0.40378287276E+03  0.10642321669E+03  0.41866024338E+03  0.00000000000E+00 0.  1.
<mgrwt>
<rscale>  0 0.15535254E+04</rscale>
<asrwt>0</asrwt>
<pdfrwt beam="1">  1        1 0.26353837E+00 0.15535254E+04</pdfrwt>
<pdfrwt beam="2">  1       -2 0.54188376E-01 0.15535254E+04</pdfrwt>
<totfact> 0.12659057E+01</totfact>
</mgrwt>
</event>
<event>
12    4  0.4280696E-008  0.2812813E+04  0.7818608E-02  0.8299301E-01
          1   -1    0    0  501    0  0.00000000000E+00  0.00000000000E+00  0.13283065092E+04  0.13283065092E+04  0.00000000000E+00 0. -1.
         -2   -1    0    0    0  501 -0.00000000000E+00 -0.00000000000E+00 -0.14890985178E+04  0.14890985178E+04  0.00000000000E+00 0.  1.
        -24    2    1    2    0    0  0.90306856274E+03 -0.72237555223E+03  0.42977382633E+03  0.12363471604E+04  0.80557381207E+02 0.  0.
        254    2    1    2    0    0 -0.90306856274E+03  0.72237555223E+03 -0.59056583489E+03  0.15810578667E+04  0.90200704263E+03 0.  0.
         23    2    4    4    0    0 -0.31476431402E+02  0.37336524330E+03 -0.50112861405E+03  0.63239657046E+03  0.91668772643E+02 0.  0.
         23    2    4    4    0    0 -0.87159213134E+03  0.34901030894E+03 -0.89437220843E+02  0.94866129621E+03  0.10236307588E+03 0.  0.
          1    1    3    3  502    0  0.67656667207E+03 -0.55928282180E+03  0.35919542162E+03  0.94845194260E+03  0.00000000000E+00 0. -1.
         -2    1    3    3    0  502  0.22650189067E+03 -0.16309273044E+03  0.70578404709E+02  0.28789521776E+03  0.00000000000E+00 0.  1.
         11    1    5    5    0    0  0.31040834846E+02  0.16875518088E+03 -0.23333532357E+03  0.28963290166E+03  0.00000000000E+00 0. -1.
        -11    1    5    5    0    0 -0.62517266248E+02  0.20461006241E+03 -0.26779329048E+03  0.34276366880E+03  0.00000000000E+00 0.  1.
          4    1    6    6  503    0 -0.99898254702E+02  0.62672383284E+02 -0.38204488895E+02  0.12396399433E+03  0.00000000000E+00 0. -1.
         -4    1    6    6    0  503 -0.77169387664E+03  0.28633792565E+03 -0.51232731948E+02  0.82469730188E+03  0.00000000000E+00 0.  1.
<mgrwt>
<rscale>  0 0.28128130E+04</rscale>
<asrwt>0</asrwt>
<pdfrwt beam="1">  1        1 0.20435485E+00 0.28128130E+04</pdfrwt>
<pdfrwt beam="2">  1       -2 0.22909208E+00 0.28128130E+04</pdfrwt>
<totfact> 0.56784447E-01</totfact>
</mgrwt>
</event>
<event>
12    4  0.4280696E-008  0.1383086E+04  0.7818608E-02  0.8966154E-01
         -2   -1    0    0    0  501 -0.00000000000E+00  0.00000000000E+00  0.52074573222E+03  0.52074573222E+03  0.00000000000E+00 0.  1.
          1   -1    0    0  501    0  0.00000000000E+00 -0.00000000000E+00 -0.91835918951E+03  0.91835918951E+03  0.00000000000E+00 0. -1.
        -24    2    1    2    0    0 -0.62512050410E+02  0.33408939504E+03  0.97253806623E+02  0.36226990036E+03  0.79105609663E+02 0.  0.
        254    2    1    2    0    0  0.62512050410E+02 -0.33408939504E+03 -0.49486726392E+03  0.10768350214E+04  0.89395557721E+03 0.  0.
         23    2    4    4    0    0  0.34904188053E+03 -0.35931468562E+03 -0.57182138130E+03  0.76545142261E+03  0.89436628919E+02 0.  0.
         23    2    4    4    0    0 -0.28652983012E+03  0.25225290585E+02  0.76954117380E+02  0.31138359876E+03  0.91116137752E+02 0.  0.
          1    1    3    3  502    0 -0.67265265473E+02  0.32170242621E+03  0.10718623133E+03  0.34569633373E+03  0.00000000000E+00 0. -1.
         -2    1    3    3    0  502  0.47532150636E+01  0.12386968832E+02 -0.99324247081E+01  0.16573566631E+02  0.00000000000E+00 0.  1.
         11    1    5    5    0    0 -0.35040548258E+01 -0.82828179898E+01 -0.24002898345E+01  0.93083223711E+01  0.00000000000E+00 0. -1.
        -11    1    5    5    0    0  0.35254593536E+03 -0.35103186763E+03 -0.56942109146E+03  0.75614310023E+03  0.00000000000E+00 0.  1.
          3    1    6    6  503    0 -0.32512196398E+02  0.34622401765E+02  0.10308516727E+02  0.48600608388E+02  0.00000000000E+00 0. -1.
         -3    1    6    6    0  503 -0.25401763373E+03 -0.93971111797E+01  0.66645600654E+02  0.26278299037E+03  0.00000000000E+00 0.  1.
<mgrwt>
<rscale>  0 0.13830859E+04</rscale>
<asrwt>0</asrwt>
<pdfrwt beam="1">  1        1 0.14128603E+00 0.13830859E+04</pdfrwt>
<pdfrwt beam="2">  1       -2 0.80114730E-01 0.13830859E+04</pdfrwt>
<totfact> 0.20728036E+01</totfact>
</mgrwt>
</event>
<event>
12    4  0.4280696E-008  0.2468456E+04  0.7818608E-02  0.8414310E-01
          1   -1    0    0  501    0  0.00000000000E+00  0.00000000000E+00  0.99495078373E+03  0.99495078373E+03  0.00000000000E+00 0. -1.
         -4   -1    0    0    0  501 -0.00000000000E+00 -0.00000000000E+00 -0.15310489868E+04  0.15310489868E+04  0.00000000000E+00 0.  1.
        -24    2    1    2    0    0  0.72535403363E+03 -0.53811224146E+03 -0.82119683767E+03  0.12233390860E+04  0.80566834060E+02 0.  0.
        254    2    1    2    0    0 -0.72535403363E+03  0.53811224146E+03  0.28509863463E+03  0.13026606845E+04  0.89439385555E+03 0.  0.
         23    2    4    4    0    0 -0.21275360674E+03  0.57132339449E+03  0.44047532665E+03  0.75815549204E+03  0.95429127883E+02 0.  0.
         23    2    4    4    0    0 -0.51260042689E+03 -0.33211153030E+02 -0.15537669202E+03  0.54450519242E+03  0.92096741596E+02 0.  0.
          1    1    3    3  502    0  0.38041803824E+02 -0.85501005848E+01 -0.39053776985E+02  0.55185872785E+02  0.00000000000E+00 0. -1.
         -4    1    3    3    0  502  0.68731222980E+03 -0.52956214087E+03 -0.78214306069E+03  0.11681532133E+04  0.00000000000E+00 0.  1.
         11    1    5    5    0    0 -0.58321443163E+02  0.29011349570E+03  0.19891637793E+03  0.35655989192E+03  0.00000000000E+00 0.  1.
        -11    1    5    5    0    0 -0.15443216357E+03  0.28120989878E+03  0.24155894873E+03  0.40159560011E+03  0.00000000000E+00 0. -1.
          1    1    6    6  503    0 -0.41441942441E+03 -0.42248133808E+02 -0.15890369131E+03  0.44584610265E+03  0.00000000000E+00 0. -1.
         -1    1    6    6    0  503 -0.98181002483E+02  0.90369807784E+01  0.35269992829E+01  0.98659089769E+02  0.00000000000E+00 0.  1.
<mgrwt>
<rscale>  0 0.24684557E+04</rscale>
<asrwt>0</asrwt>
<pdfrwt beam="1">  1        1 0.15306935E+00 0.24684557E+04</pdfrwt>
<pdfrwt beam="2">  1       -4 0.23554600E+00 0.24684557E+04</pdfrwt>
<totfact> 0.50959459E-01</totfact>
</mgrwt>
</event>
<event>
12    4  0.4280696E-008  0.1233927E+04  0.7818608E-02  0.9083668E-01
         -2   -1    0    0    0  501 -0.00000000000E+00  0.00000000000E+00  0.51447862780E+03  0.51447862780E+03  0.00000000000E+00 0.  1.
          1   -1    0    0  501    0  0.00000000000E+00 -0.00000000000E+00 -0.73986296500E+03  0.73986296500E+03  0.00000000000E+00 0. -1.
        -24    2    1    2    0    0 -0.13136066643E+03 -0.11760154937E+03  0.17066032667E+03  0.25709312273E+03  0.76721428259E+02 0.  0.
        254    2    1    2    0    0  0.13136066643E+03  0.11760154937E+03 -0.39604466388E+03  0.99724847007E+03  0.89809096765E+03 0.  0.
         23    2    4    4    0    0  0.11061395602E+03  0.12534689527E+03  0.26686495876E+03  0.32774064292E+03  0.90828031937E+02 0.  0.
         23    2    4    4    0    0  0.20746710404E+02 -0.77453458970E+01 -0.66290962264E+03  0.66950782715E+03  0.91110627571E+02 0.  0.
          1    1    3    3  502    0 -0.33653721728E+02 -0.41927229009E+02  0.10473195503E+02  0.54773655552E+02  0.00000000000E+00 0. -1.
         -2    1    3    3    0  502 -0.97706944699E+02 -0.75674320361E+02  0.16018713117E+03  0.20231946717E+03  0.00000000000E+00 0.  1.
         11    1    5    5    0    0  0.88504046404E+02  0.13840862709E+03  0.22430715271E+03  0.27803527301E+03  0.00000000000E+00 0.  1.
        -11    1    5    5    0    0  0.22109909620E+02 -0.13061731821E+02  0.42557806056E+02  0.49705369910E+02  0.00000000000E+00 0. -1.
          1    1    6    6  503    0 -0.35317093230E+02  0.16012796155E+01 -0.19735707347E+03  0.20049856762E+03  0.00000000000E+00 0. -1.
         -1    1    6    6    0  503  0.56063803634E+02 -0.93466255125E+01 -0.46555254917E+03  0.46900925953E+03  0.00000000000E+00 0.  1.
<mgrwt>
<rscale>  0 0.12339266E+04</rscale>
<asrwt>0</asrwt>
<pdfrwt beam="1">  1        1 0.11382507E+00 0.12339266E+04</pdfrwt>
<pdfrwt beam="2">  1       -2 0.79150558E-01 0.12339266E+04</pdfrwt>
<totfact> 0.30639629E+01</totfact>
</mgrwt>
</event>
<event>
12    4  0.4280696E-008  0.1919011E+04  0.7818608E-02  0.8645451E-01
          3   -1    0    0  501    0  0.00000000000E+00  0.00000000000E+00  0.55692441494E+03  0.55692441494E+03  0.00000000000E+00 0. -1.
         -4   -1    0    0    0  501 -0.00000000000E+00 -0.00000000000E+00 -0.16530981949E+04  0.16530981949E+04  0.00000000000E+00 0.  1.
        -24    2    1    2    0    0 -0.20461772125E+03  0.72102344175E+03 -0.49057232772E+03  0.89928464581E+03  0.79425751809E+02 0.  0.
        254    2    1    2    0    0  0.20461772125E+03 -0.72102344175E+03 -0.60560145222E+03  0.13107379640E+04  0.88855932610E+03 0.  0.
         23    2    4    4    0    0  0.53761555494E+02 -0.27254042222E+03 -0.75256406633E+03  0.80747942504E+03  0.92204996247E+02 0.  0.
         23    2    4    4    0    0  0.15085616576E+03 -0.44848301953E+03  0.14696261410E+03  0.50325853899E+03  0.88184724152E+02 0.  0.
          3    1    3    3  502    0 -0.13573486904E+03  0.35947971825E+03 -0.27786727703E+03  0.47419389088E+03  0.00000000000E+00 0. -1.
         -4    1    3    3    0  502 -0.68882852215E+02  0.36154372350E+03 -0.21270505070E+03  0.42509075492E+03  0.00000000000E+00 0.  1.
         11    1    5    5    0    0  0.50879595844E+02 -0.21416229691E+03 -0.47081654004E+03  0.51973304404E+03  0.00000000000E+00 0.  1.
        -11    1    5    5    0    0  0.28819596502E+01 -0.58378125309E+02 -0.28174752629E+03  0.28774638100E+03  0.00000000000E+00 0. -1.
          2    1    6    6  503    0 -0.11085109803E+02 -0.22018624908E+02  0.26193935055E+01  0.24790335304E+02  0.00000000000E+00 0. -1.
         -2    1    6    6    0  503  0.16194127556E+03 -0.42646439462E+03  0.14434322060E+03  0.47846820369E+03  0.00000000000E+00 0.  1.
<mgrwt>
<rscale>  0 0.19190109E+04</rscale>
<asrwt>0</asrwt>
<pdfrwt beam="1">  1        3 0.85680682E-01 0.19190109E+04</pdfrwt>
<pdfrwt beam="2">  1       -4 0.25432279E+00 0.19190109E+04</pdfrwt>
<totfact> 0.15826992E-01</totfact>
</mgrwt>
</event>
<event>
12    4  0.4280696E-008  0.1794695E+04  0.7818608E-02  0.8709126E-01
         -2   -1    0    0    0  501 -0.00000000000E+00  0.00000000000E+00  0.47210890638E+03  0.47210890638E+03  0.00000000000E+00 0.  1.
          1   -1    0    0  501    0  0.00000000000E+00 -0.00000000000E+00 -0.17056078856E+04  0.17056078856E+04  0.00000000000E+00 0. -1.
        -24    2    1    2    0    0  0.36434510562E+03 -0.53806068253E+03 -0.19222953735E+03  0.68280120665E+03  0.83717612870E+02 0.  0.
        254    2    1    2    0    0 -0.36434510562E+03  0.53806068253E+03 -0.10412694419E+04  0.14949155853E+04  0.85338965462E+03 0.  0.
         23    2    4    4    0    0 -0.58573349275E+03  0.20093187955E+03 -0.80003106372E+03  0.10161293346E+04  0.94930379649E+02 0.  0.
         23    2    4    4    0    0  0.22138838714E+03  0.33712880298E+03 -0.24123837816E+03  0.47878625073E+03  0.91496836161E+02 0.  0.
          1    1    3    3  502    0  0.11767402367E+02 -0.57985998254E+02 -0.10795372778E+02  0.60144724003E+02  0.00000000000E+00 0. -1.
         -2    1    3    3    0  502  0.35257770325E+03 -0.48007468428E+03 -0.18143416457E+03  0.62265648265E+03  0.00000000000E+00 0.  1.
         11    1    5    5    0    0 -0.42040507700E+03  0.10204583736E+03 -0.52371255981E+03  0.67928537964E+03  0.00000000000E+00 0. -1.
        -11    1    5    5    0    0 -0.16532841576E+03  0.98886042187E+02 -0.27631850391E+03  0.33684395497E+03  0.00000000000E+00 0.  1.
          1    1    6    6  503    0  0.16066034005E+03  0.30518163861E+03 -0.19805258817E+03  0.39770894520E+03  0.00000000000E+00 0. -1.
         -1    1    6    6    0  503  0.60728047091E+02  0.31947164373E+02 -0.43185789990E+02  0.81077305530E+02  0.00000000000E+00 0.  1.
<mgrwt>
<rscale>  0 0.17946952E+04</rscale>
<asrwt>0</asrwt>
<pdfrwt beam="1">  1        1 0.26240121E+00 0.17946952E+04</pdfrwt>
<pdfrwt beam="2">  1       -2 0.72632140E-01 0.17946952E+04</pdfrwt>
<totfact> 0.67107321E+00</totfact>
</mgrwt>
</event>
<event>
12    4  0.4280696E-008  0.2080513E+04  0.7818608E-02  0.8569877E-01
         -2   -1    0    0    0  501 -0.00000000000E+00  0.00000000000E+00  0.20135579549E+04  0.20135579549E+04  0.00000000000E+00 0.  1.
          1   -1    0    0  501    0  0.00000000000E+00 -0.00000000000E+00 -0.53742353887E+03  0.53742353887E+03  0.00000000000E+00 0. -1.
        -24    2    1    2    0    0 -0.17720390304E+03 -0.44857253669E+03 -0.24262304393E+03  0.54800277750E+03  0.93928476940E+02 0.  0.
        254    2    1    2    0    0  0.17720390304E+03  0.44857253669E+03  0.17187574599E+04  0.20029787162E+04  0.90839307999E+03 0.  0.
         23    2    4    4    0    0 -0.10536090260E+03  0.23344716071E+03  0.15900587800E+04  0.16138222768E+04  0.10264950301E+03 0.  0.
         23    2    4    4    0    0  0.28256480564E+03  0.21512537597E+03  0.12869867989E+03  0.38915643945E+03  0.93581982162E+02 0.  0.
          3    1    3    3  502    0 -0.18119215848E+03 -0.40216756414E+03 -0.23796268329E+03  0.50119416056E+03  0.00000000000E+00 0. -1.
         -4    1    3    3    0  502  0.39882554385E+01 -0.46404972547E+02 -0.46603606359E+01  0.46808616939E+02  0.00000000000E+00 0.  1.
         11    1    5    5    0    0 -0.54014350437E+02  0.55554600665E+02  0.27196664607E+03  0.28278917992E+03  0.00000000000E+00 0. -1.
        -11    1    5    5    0    0 -0.51346552167E+02  0.17789256005E+03  0.13180921340E+04  0.13310330969E+04  0.00000000000E+00 0.  1.
          2    1    6    6  503    0  0.10030539432E+03  0.46611556134E+02  0.79216430816E+02  0.13604797759E+03  0.00000000000E+00 0. -1.
         -2    1    6    6    0  503  0.18225941132E+03  0.16851381984E+03  0.49482249073E+02  0.25310846186E+03  0.00000000000E+00 0.  1.
<mgrwt>
<rscale>  0 0.20805129E+04</rscale>
<asrwt>0</asrwt>
<pdfrwt beam="1">  1        1 0.82680545E-01 0.20805129E+04</pdfrwt>
<pdfrwt beam="2">  1       -2 0.30977814E+00 0.20805129E+04</pdfrwt>
<totfact> 0.89587992E-01</totfact>
</mgrwt>
</event>
<event>
12    4  0.4280696E-008  0.1404695E+04  0.7818608E-02  0.8950427E-01
         -2   -1    0    0    0  501 -0.00000000000E+00  0.00000000000E+00  0.20777602907E+04  0.20777602907E+04  0.00000000000E+00 0.  1.
          1   -1    0    0  501    0  0.00000000000E+00 -0.00000000000E+00 -0.23741534719E+03  0.23741534719E+03  0.00000000000E+00 0. -1.
        -24    2    1    2    0    0 -0.27923740967E+02  0.40178583436E+03  0.43473095314E+03  0.59743375232E+03  0.75660391175E+02 0.  0.
        254    2    1    2    0    0  0.27923740967E+02 -0.40178583436E+03  0.14056139903E+04  0.17177418855E+04  0.90148483264E+03 0.  0.
         23    2    4    4    0    0 -0.37520673016E+03 -0.34399417414E+03  0.10534792142E+04  0.11735701990E+04  0.91304299667E+02 0.  0.
         23    2    4    4    0    0  0.40313047113E+03 -0.57791660222E+02  0.35213477615E+03  0.54417168650E+03  0.79182517438E+02 0.  0.
          1    1    3    3  502    0 -0.70093435355E-01  0.35666234110E+03  0.38302000534E+03  0.52336636782E+03  0.00000000000E+00 0. -1.
         -2    1    3    3    0  502 -0.27853647531E+02  0.45123493257E+02  0.51710947799E+02  0.74067384501E+02  0.00000000000E+00 0.  1.
         11    1    5    5    0    0 -0.36093716738E+03 -0.29513242936E+03  0.94732817250E+03  0.10558453751E+04  0.00000000000E+00 0. -1.
        -11    1    5    5    0    0 -0.14269562780E+02 -0.48861744779E+02  0.10615104169E+03  0.11772482396E+03  0.00000000000E+00 0.  1.
          4    1    6    6  503    0  0.27264280368E+03 -0.58003349253E+02  0.19634798049E+03  0.34095603290E+03  0.00000000000E+00 0. -1.
         -4    1    6    6    0  503  0.13048766745E+03  0.21168903155E+00  0.15578679565E+03  0.20321565360E+03  0.00000000000E+00 0.  1.
<mgrwt>
<rscale>  0 0.14046952E+04</rscale>
<asrwt>0</asrwt>
<pdfrwt beam="1">  1        1 0.36525439E-01 0.14046952E+04</pdfrwt>
<pdfrwt beam="2">  1       -2 0.31965542E+00 0.14046952E+04</pdfrwt>
<totfact> 0.24498602E+00</totfact>
</mgrwt>
</event>
<event>
12    4  0.4280696E-008  0.4926303E+04  0.7818608E-02  0.7839977E-01
          1   -1    0    0  501    0  0.00000000000E+00  0.00000000000E+00  0.26150735751E+04  0.26150735751E+04  0.00000000000E+00 0. -1.
         -2   -1    0    0    0  501 -0.00000000000E+00 -0.00000000000E+00 -0.23200548708E+04  0.23200548708E+04  0.00000000000E+00 0.  1.
        -24    2    1    2    0    0  0.19036928188E+04  0.75854387667E+03  0.13572424979E+04  0.24591481628E+04  0.76598481184E+02 0.  0.
        254    2    1    2    0    0 -0.19036928188E+04 -0.75854387667E+03 -0.10622237936E+04  0.24759802831E+04  0.89594855498E+03 0.  0.
         23    2    4    4    0    0 -0.13660326854E+04 -0.75771560814E+03 -0.11244183979E+04  0.19269449544E+04  0.92854097375E+02 0.  0.
         23    2    4    4    0    0 -0.53766013340E+03 -0.82826853007E+00  0.62194604278E+02  0.54903532865E+03  0.92154860013E+02 0.  0.
          1    1    3    3  502    0  0.16826611417E+04  0.64624950130E+03  0.11800521222E+04  0.21544163819E+04  0.00000000000E+00 0. -1.
         -2    1    3    3    0  502  0.22103167716E+03  0.11229437537E+03  0.17719037565E+03  0.30473178086E+03  0.00000000000E+00 0.  1.
         11    1    5    5    0    0 -0.17048024790E+03 -0.12594369504E+03 -0.13306964739E+03  0.25026557954E+03  0.00000000000E+00 0.  1.
        -11    1    5    5    0    0 -0.11955524375E+04 -0.63177191310E+03 -0.99134875050E+03  0.16766793749E+04  0.00000000000E+00 0. -1.
          2    1    6    6  503    0 -0.50727599572E+03 -0.97962968483E+00  0.80407996108E+02  0.51361010635E+03  0.00000000000E+00 0. -1.
         -2    1    6    6    0  503 -0.30384137685E+02  0.15136115476E+00 -0.18213391830E+02  0.35425222300E+02  0.00000000000E+00 0.  1.
<mgrwt>
<rscale>  0 0.49263025E+04</rscale>
<asrwt>0</asrwt>
<pdfrwt beam="1">  1        1 0.40231901E+00 0.49263025E+04</pdfrwt>
<pdfrwt beam="2">  1       -2 0.35693152E+00 0.49263025E+04</pdfrwt>
<totfact> 0.10114097E-02</totfact>
</mgrwt>
</event>
<event>
12    4  0.4280696E-008  0.2753829E+04  0.7818608E-02  0.8317748E-01
          1   -1    0    0  501    0  0.00000000000E+00  0.00000000000E+00  0.15759138191E+04  0.15759138191E+04  0.00000000000E+00 0. -1.
         -2   -1    0    0    0  501 -0.00000000000E+00 -0.00000000000E+00 -0.12030439817E+04  0.12030439817E+04  0.00000000000E+00 0.  1.
        -24    2    1    2    0    0 -0.87544215878E+03  0.51611583159E+02 -0.70049189435E+03  0.11251078675E+04  0.78205438766E+02 0.  0.
        254    2    1    2    0    0  0.87544215878E+03 -0.51611583159E+02  0.10733617318E+04  0.16538499333E+04  0.90224800672E+03 0.  0.
         23    2    4    4    0    0 -0.99433183532E+02  0.23737593329E+02  0.49663189840E+03  0.51496990967E+03  0.90001855731E+02 0.  0.
         23    2    4    4    0    0  0.97487534232E+03 -0.75349176488E+02  0.57672983336E+03  0.11388800236E+04  0.91493037875E+02 0.  0.
          1    1    3    3  502    0 -0.17740815488E+03 -0.89561894158E+01 -0.17430985971E+03  0.24887304783E+03  0.00000000000E+00 0. -1.
         -2    1    3    3    0  502 -0.69803400391E+03  0.60567772575E+02 -0.52618203464E+03  0.87623481971E+03  0.00000000000E+00 0.  1.
         11    1    5    5    0    0  0.11681548013E+02 -0.13650148641E+02  0.89969164507E+02  0.91745494080E+02  0.00000000000E+00 0. -1.
        -11    1    5    5    0    0 -0.11111473154E+03  0.37387741969E+02  0.40666273389E+03  0.42322441559E+03  0.00000000000E+00 0.  1.
          3    1    6    6  503    0  0.25634696915E+03  0.19428237526E+02  0.14047772068E+03  0.29295940848E+03  0.00000000000E+00 0. -1.
         -3    1    6    6    0  503  0.71852837316E+03 -0.94777414014E+02  0.43625211268E+03  0.84592061511E+03  0.00000000000E+00 0.  1.
<mgrwt>
<rscale>  0 0.27538291E+04</rscale>
<asrwt>0</asrwt>
<pdfrwt beam="1">  1        1 0.24244828E+00 0.27538291E+04</pdfrwt>
<pdfrwt beam="2">  1       -2 0.18508369E+00 0.27538291E+04</pdfrwt>
<totfact> 0.74058076E-01</totfact>
</mgrwt>
</event>
<event>
12    4  0.4280696E-008  0.2583645E+04  0.7818608E-02  0.8373778E-01
          1   -1    0    0  501    0  0.00000000000E+00  0.00000000000E+00  0.28736888115E+04  0.28736888115E+04  0.00000000000E+00 0. -1.
         -2   -1    0    0    0  501 -0.00000000000E+00 -0.00000000000E+00 -0.58071877113E+03  0.58071877113E+03  0.00000000000E+00 0.  1.
        -24    2    1    2    0    0 -0.88415453240E+01 -0.87615255907E+03  0.77124770415E+01  0.88005127084E+03  0.81910178329E+02 0.  0.
        254    2    1    2    0    0  0.88415453240E+01  0.87615255907E+03  0.22852575634E+04  0.25743563118E+04  0.79823981964E+03 0.  0.
         23    2    4    4    0    0  0.50575411648E+01  0.32921334886E+02  0.11668139006E+04  0.11708061674E+04  0.90680814213E+02 0.  0.
         23    2    4    4    0    0  0.37840041593E+01  0.84323122419E+03  0.11184436628E+04  0.14035501444E+04  0.89350797072E+02 0.  0.
          3    1    3    3  502    0 -0.36247202945E+02 -0.39422548444E+03  0.28371682776E+02  0.39690369699E+03  0.00000000000E+00 0. -1.
         -4    1    3    3    0  502  0.27405657621E+02 -0.48192707464E+03 -0.20659205735E+02  0.48314757385E+03  0.00000000000E+00 0.  1.
         11    1    5    5    0    0 -0.20821577798E+02 -0.25286227603E+02  0.36617608033E+03  0.36763820968E+03  0.00000000000E+00 0. -1.
        -11    1    5    5    0    0  0.25879118963E+02  0.58207562489E+02  0.80063782022E+03  0.80316795772E+03  0.00000000000E+00 0.  1.
          2    1    6    6  503    0  0.23169309209E+02  0.11116184648E+03  0.18576529970E+03  0.21772119689E+03  0.00000000000E+00 0. -1.
         -2    1    6    6    0  503 -0.19385305049E+02  0.73206937771E+03  0.93267836311E+03  0.11858289476E+04  0.00000000000E+00 0.  1.
<mgrwt>
<rscale>  0 0.25836447E+04</rscale>
<asrwt>0</asrwt>
<pdfrwt beam="1">  1        1 0.44210596E+00 0.25836447E+04</pdfrwt>
<pdfrwt beam="2">  1       -2 0.89341351E-01 0.25836447E+04</pdfrwt>
<totfact> 0.61512269E-01</totfact>
</mgrwt>
</event>
<event>
12    4  0.4280696E-008  0.2504860E+04  0.7818608E-02  0.8401256E-01
          1   -1    0    0  501    0  0.00000000000E+00  0.00000000000E+00  0.22073030559E+04  0.22073030559E+04  0.00000000000E+00 0. -1.
         -2   -1    0    0    0  501 -0.00000000000E+00 -0.00000000000E+00 -0.71063259753E+03  0.71063259753E+03  0.00000000000E+00 0.  1.
        -24    2    1    2    0    0  0.66291495359E+03  0.74113817346E+03  0.12442268044E+03  0.10053169364E+04  0.80244073687E+02 0.  0.
        254    2    1    2    0    0 -0.66291495359E+03 -0.74113817346E+03  0.13722477779E+04  0.19126187170E+04  0.88673804744E+03 0.  0.
         23    2    4    4    0    0 -0.19471659907E+03 -0.37084505921E+03  0.16895866797E+02  0.42898269128E+03  0.91104704636E+02 0.  0.
         23    2    4    4    0    0 -0.46819835452E+03 -0.37029311425E+03  0.13553519111E+04  0.14836360257E+04  0.88715073260E+02 0.  0.
          3    1    3    3  502    0  0.31569787653E+03  0.30597835373E+03  0.79746335897E+02  0.44681918075E+03  0.00000000000E+00 0. -1.
         -4    1    3    3    0  502  0.34721707706E+03  0.43515981973E+03  0.44676344542E+02  0.55849775566E+03  0.00000000000E+00 0.  1.
         11    1    5    5    0    0 -0.13588672455E+03 -0.18395826532E+03 -0.20123963881E+02  0.22958836907E+03  0.00000000000E+00 0.  1.
        -11    1    5    5    0    0 -0.58829874523E+02 -0.18688679389E+03  0.37019830679E+02  0.19939432221E+03  0.00000000000E+00 0. -1.
          2    1    6    6  503    0 -0.14999316658E+03 -0.15347218722E+03  0.40735541522E+03  0.46042382277E+03  0.00000000000E+00 0. -1.
         -2    1    6    6    0  503 -0.31820518794E+03 -0.21682092703E+03  0.94799649590E+03  0.10232122029E+04  0.00000000000E+00 0.  1.
<mgrwt>
<rscale>  0 0.25048605E+04</rscale>
<asrwt>0</asrwt>
<pdfrwt beam="1">  1        1 0.33958508E+00 0.25048605E+04</pdfrwt>
<pdfrwt beam="2">  1       -2 0.10932809E+00 0.25048605E+04</pdfrwt>
<totfact> 0.11208215E+00</totfact>
</mgrwt>
</event>
<event>
12    4  0.4280696E-008  0.1080492E+04  0.7818608E-02  0.9224417E-01
         -2   -1    0    0    0  501 -0.00000000000E+00  0.00000000000E+00  0.30364253526E+03  0.30364253526E+03  0.00000000000E+00 0.  1.
          1   -1    0    0  501    0  0.00000000000E+00 -0.00000000000E+00 -0.96121418178E+03  0.96121418178E+03  0.00000000000E+00 0. -1.
        -24    2    1    2    0    0  0.82436414041E+02 -0.44616842092E+01 -0.25501412305E+03  0.27987682091E+03  0.80518090770E+02 0.  0.
        254    2    1    2    0    0 -0.82436414041E+02  0.44616842092E+01 -0.40255752346E+03  0.98497989613E+03  0.89516320696E+03 0.  0.
         23    2    4    4    0    0 -0.26027584477E+03 -0.37567083343E+03 -0.25616534638E+03  0.53124807271E+03  0.87930311079E+02 0.  0.
         23    2    4    4    0    0  0.17783943073E+03  0.38013251764E+03 -0.14639217708E+03  0.45373182342E+03  0.91182805306E+02 0.  0.
          1    1    3    3  502    0  0.68864102143E+02 -0.38849437657E+01 -0.25704786446E+03  0.26614086867E+03  0.00000000000E+00 0. -1.
         -2    1    3    3    0  502  0.13572311899E+02 -0.57674044353E+00  0.20337414109E+01  0.13735952240E+02  0.00000000000E+00 0.  1.
         11    1    5    5    0    0 -0.56451492354E+02 -0.82271891469E+02 -0.16698136087E+02  0.10116453363E+03  0.00000000000E+00 0.  1.
        -11    1    5    5    0    0 -0.20382435242E+03 -0.29339894197E+03 -0.23946721030E+03  0.43008353909E+03  0.00000000000E+00 0. -1.
          2    1    6    6  503    0  0.21638169601E+02  0.14725281858E+03 -0.57681440651E+02  0.15962064891E+03  0.00000000000E+00 0. -1.
         -2    1    6    6    0  503  0.15620126113E+03  0.23287969906E+03 -0.88710736428E+02  0.29411117451E+03  0.00000000000E+00 0.  1.
<mgrwt>
<rscale>  0 0.10804916E+04</rscale>
<asrwt>0</asrwt>
<pdfrwt beam="1">  1        1 0.14787911E+00 0.10804916E+04</pdfrwt>
<pdfrwt beam="2">  1       -2 0.46714236E-01 0.10804916E+04</pdfrwt>
<totfact> 0.61677050E+01</totfact>
</mgrwt>
</event>
<event>
12    4  0.4280696E-008  0.3106959E+04  0.7818608E-02  0.8213831E-01
          1   -1    0    0  501    0  0.00000000000E+00  0.00000000000E+00  0.37131107278E+04  0.37131107278E+04  0.00000000000E+00 0. -1.
         -2   -1    0    0    0  501 -0.00000000000E+00 -0.00000000000E+00 -0.64993986364E+03  0.64993986364E+03  0.00000000000E+00 0.  1.
        -24    2    1    2    0    0  0.20795163925E+02  0.28184972912E+02  0.33985944938E+04  0.33997736786E+04  0.82399640323E+02 0.  0.
        254    2    1    2    0    0 -0.20795163925E+02 -0.28184972912E+02 -0.33542362967E+03  0.96327691282E+03  0.90231179084E+03 0.  0.
         23    2    4    4    0    0 -0.20656516969E+03 -0.28878599071E+03  0.13148074525E+03  0.39021423689E+03  0.94411050933E+02 0.  0.
         23    2    4    4    0    0  0.18577000577E+03  0.26060101779E+03 -0.46690437493E+03  0.57306267594E+03  0.89318249571E+02 0.  0.
          3    1    3    3  502    0  0.49431164305E+02  0.39458362592E+01  0.15324807401E+04  0.15332828272E+04  0.00000000000E+00 0. -1.
         -4    1    3    3    0  502 -0.28636000380E+02  0.24239136652E+02  0.18661137537E+04  0.18664908513E+04  0.00000000000E+00 0.  1.
         11    1    5    5    0    0 -0.18827858218E+03 -0.29317347379E+03  0.12210175976E+03  0.36919960723E+03  0.00000000000E+00 0.  1.
        -11    1    5    5    0    0 -0.18286587518E+02  0.43874830839E+01  0.93789854912E+01  0.21014629659E+02  0.00000000000E+00 0. -1.
          2    1    6    6  503    0  0.31512353771E+02  0.13511645282E+02 -0.20253618223E+02  0.39822130148E+02  0.00000000000E+00 0. -1.
         -2    1    6    6    0  503  0.15425765200E+03  0.24708937251E+03 -0.44665075670E+03  0.53324054579E+03  0.00000000000E+00 0.  1.
<mgrwt>
<rscale>  0 0.31069591E+04</rscale>
<asrwt>0</asrwt>
<pdfrwt beam="1">  1        1 0.57124779E+00 0.31069591E+04</pdfrwt>
<pdfrwt beam="2">  1       -2 0.99990751E-01 0.31069591E+04</pdfrwt>
<totfact> 0.10312558E-01</totfact>
</mgrwt>
</event>
<event>
12    4  0.4280696E-008  0.1911280E+04  0.7818608E-02  0.8649262E-01
          1   -1    0    0  501    0  0.00000000000E+00  0.00000000000E+00  0.11185063044E+04  0.11185063044E+04  0.00000000000E+00 0. -1.
         -2   -1    0    0    0  501 -0.00000000000E+00 -0.00000000000E+00 -0.81648836404E+03  0.81648836404E+03  0.00000000000E+00 0.  1.
        -24    2    1    2    0    0  0.29148206987E+03 -0.48361976099E+03 -0.25080383797E+03  0.62249516447E+03  0.75814209626E+02 0.  0.
        254    2    1    2    0    0 -0.29148206987E+03  0.48361976099E+03  0.55282177832E+03  0.13124995040E+04  0.10479471165E+04 0.  0.
         23    2    4    4    0    0 -0.69297180536E+02 -0.32449583504E+03  0.20151479863E+03  0.39854755934E+03  0.90179248196E+02 0.  0.
         23    2    4    4    0    0 -0.22218488933E+03  0.80811559603E+03  0.35130697969E+03  0.91395194462E+03  0.97337667433E+02 0.  0.
          1    1    3    3  502    0  0.31264233604E+02 -0.69727064768E+02 -0.86185830985E+01  0.76899907923E+02  0.00000000000E+00 0. -1.
         -2    1    3    3    0  502  0.26021783626E+03 -0.41389269622E+03 -0.24218525487E+03  0.54559525655E+03  0.00000000000E+00 0.  1.
         11    1    5    5    0    0  0.29988019482E+01  0.11376259123E+01  0.17105688703E+02  0.17403780964E+02  0.00000000000E+00 0. -1.
        -11    1    5    5    0    0 -0.72295982485E+02 -0.32563346095E+03  0.18440910992E+03  0.38114377838E+03  0.00000000000E+00 0.  1.
          3    1    6    6  503    0 -0.33763691951E+02  0.19602741766E+03  0.12388527737E+03  0.23433799803E+03  0.00000000000E+00 0. -1.
         -3    1    6    6    0  503 -0.18842119738E+03  0.61208817836E+03  0.22742170232E+03  0.67961394659E+03  0.00000000000E+00 0.  1.
<mgrwt>
<rscale>  0 0.19112796E+04</rscale>
<asrwt>0</asrwt>
<pdfrwt beam="1">  1        1 0.17207789E+00 0.19112796E+04</pdfrwt>
<pdfrwt beam="2">  1       -2 0.12561359E+00 0.19112796E+04</pdfrwt>
<totfact> 0.47670745E+00</totfact>
</mgrwt>
</event>
<event>
12    4  0.4280696E-008  0.2071938E+04  0.7818608E-02  0.8573706E-01
          1   -1    0    0  501    0  0.00000000000E+00  0.00000000000E+00  0.33972330350E+04  0.33972330350E+04  0.00000000000E+00 0. -1.
         -2   -1    0    0    0  501 -0.00000000000E+00 -0.00000000000E+00 -0.31591363135E+03  0.31591363135E+03  0.00000000000E+00 0.  1.
        -24    2    1    2    0    0  0.23747211681E+03  0.21712028128E+03  0.26540091862E+04  0.26746057484E+04  0.78847484964E+02 0.  0.
        254    2    1    2    0    0 -0.23747211681E+03 -0.21712028128E+03  0.42731021738E+03  0.10385409179E+04  0.89019042543E+03 0.  0.
         23    2    4    4    0    0 -0.59359230132E+02 -0.46998954397E+03 -0.25302310676E+02  0.48329668886E+03  0.92313557461E+02 0.  0.
         23    2    4    4    0    0 -0.17811288668E+03  0.25286926269E+03  0.45261252806E+03  0.55524422906E+03  0.88153212874E+02 0.  0.
          3    1    3    3  502    0  0.20553684327E+03  0.20872087196E+03  0.24995312368E+04  0.25166378762E+04  0.00000000000E+00 0. -1.
         -2    1    3    3    0  502  0.31935273536E+02  0.83994093176E+01  0.15447794947E+03  0.15796787219E+03  0.00000000000E+00 0.  1.
         11    1    5    5    0    0 -0.60207767035E+02 -0.45518022072E+03 -0.41880504319E+02  0.46105095725E+03  0.00000000000E+00 0. -1.
        -11    1    5    5    0    0  0.84853690270E+00 -0.14809323258E+02  0.16578193644E+02  0.22245731607E+02  0.00000000000E+00 0.  1.
          4    1    6    6  503    0 -0.93737329708E+02  0.98578330909E+02  0.26638937060E+03  0.29911146932E+03  0.00000000000E+00 0. -1.
         -4    1    6    6    0  503 -0.84375556969E+02  0.15429093178E+03  0.18622315745E+03  0.25613275975E+03  0.00000000000E+00 0.  1.
<mgrwt>
<rscale>  0 0.20719384E+04</rscale>
<asrwt>0</asrwt>
<pdfrwt beam="1">  1        1 0.52265121E+00 0.20719384E+04</pdfrwt>
<pdfrwt beam="2">  1       -2 0.48602099E-01 0.20719384E+04</pdfrwt>
<totfact> 0.97970080E-01</totfact>
</mgrwt>
</event>
<event>
12    4  0.4280696E-008  0.1390310E+04  0.7818608E-02  0.8960863E-01
          1   -1    0    0  501    0  0.00000000000E+00  0.00000000000E+00  0.17259631709E+04  0.17259631709E+04  0.00000000000E+00 0. -1.
         -2   -1    0    0    0  501 -0.00000000000E+00 -0.00000000000E+00 -0.27998312913E+03  0.27998312913E+03  0.00000000000E+00 0.  1.
        -24    2    1    2    0    0  0.84770738121E+02 -0.37300796364E+03  0.23102942733E+03  0.45400237557E+03  0.80140762121E+02 0.  0.
        254    2    1    2    0    0 -0.84770738121E+02  0.37300796364E+03  0.12149506145E+04  0.15519439245E+04  0.88662502231E+03 0.  0.
         23    2    4    4    0    0 -0.16210257281E+02 -0.28229459519E+03  0.38914197768E+03  0.49160983662E+03  0.10146793462E+03 0.  0.
         23    2    4    4    0    0 -0.68560480840E+02  0.65530255883E+03  0.82580863679E+03  0.10603340879E+04  0.90700000930E+02 0.  0.
          3    1    3    3  502    0  0.35621696149E+01 -0.89223672743E+01 -0.66507335424E+01  0.11684602980E+02  0.00000000000E+00 0. -1.
         -4    1    3    3    0  502  0.81208568506E+02 -0.36408559637E+03  0.23768016087E+03  0.44231777259E+03  0.00000000000E+00 0.  1.
         11    1    5    5    0    0 -0.69056184878E+01 -0.24864967849E+03  0.38220276886E+03  0.45601897625E+03  0.00000000000E+00 0. -1.
        -11    1    5    5    0    0 -0.93046387931E+01 -0.33644916694E+02  0.69392088218E+01  0.35590860365E+02  0.00000000000E+00 0.  1.
          3    1    6    6  503    0 -0.75881927528E+02  0.65043945234E+03  0.80479961027E+03  0.10375605817E+04  0.00000000000E+00 0. -1.
         -3    1    6    6    0  503  0.73214466884E+01  0.48631064854E+01  0.21009026517E+02  0.22773506131E+02  0.00000000000E+00 0.  1.
<mgrwt>
<rscale>  0 0.13903101E+04</rscale>
<asrwt>0</asrwt>
<pdfrwt beam="1">  1        1 0.26553279E+00 0.13903101E+04</pdfrwt>
<pdfrwt beam="2">  1       -2 0.43074329E-01 0.13903101E+04</pdfrwt>
<totfact> 0.20028999E+01</totfact>
</mgrwt>
</event>
<event>
12    4  0.4280696E-008  0.2133423E+04  0.7818608E-02  0.8546662E-01
          1   -1    0    0  501    0  0.00000000000E+00  0.00000000000E+00  0.84202551891E+03  0.84202551891E+03  0.00000000000E+00 0. -1.
         -2   -1    0    0    0  501 -0.00000000000E+00 -0.00000000000E+00 -0.13513520872E+04  0.13513520872E+04  0.00000000000E+00 0.  1.
        -24    2    1    2    0    0 -0.54898623405E+02 -0.54842601591E+03  0.51591850233E+03  0.75904366672E+03  0.78679305794E+02 0.  0.
        254    2    1    2    0    0  0.54898623405E+02  0.54842601591E+03 -0.10252450706E+04  0.14343339394E+04  0.83809393331E+03 0.  0.
         23    2    4    4    0    0  0.88046476663E+02  0.48393517425E+03 -0.11113371485E+03  0.51247964972E+03  0.91319515311E+02 0.  0.
         23    2    4    4    0    0 -0.33147853258E+02  0.64490841661E+02 -0.91411135573E+03  0.92185428963E+03  0.94646245566E+02 0.  0.
          1    1    3    3  502    0 -0.62061125664E+02 -0.30605369325E+03  0.32202077385E+03  0.44857309913E+03  0.00000000000E+00 0. -1.
         -2    1    3    3    0  502  0.71625022597E+01 -0.24237232266E+03  0.19389772848E+03  0.31047056759E+03  0.00000000000E+00 0.  1.
         11    1    5    5    0    0  0.30566295856E+02  0.37650894766E+03 -0.72311961982E+02  0.38460668996E+03  0.00000000000E+00 0. -1.
        -11    1    5    5    0    0  0.57480180807E+02  0.10742622658E+03 -0.38821752870E+02  0.12787295977E+03  0.00000000000E+00 0.  1.
          1    1    6    6  503    0 -0.59425172407E+02  0.67124929196E+02 -0.60351911321E+03  0.61014131743E+03  0.00000000000E+00 0. -1.
         -1    1    6    6    0  503  0.26277319148E+02 -0.26340875351E+01 -0.31059224253E+03  0.31171297220E+03  0.00000000000E+00 0.  1.
<mgrwt>
<rscale>  0 0.21334225E+04</rscale>
<asrwt>0</asrwt>
<pdfrwt beam="1">  1        1 0.12954239E+00 0.21334225E+04</pdfrwt>
<pdfrwt beam="2">  1       -2 0.20790032E+00 0.21334225E+04</pdfrwt>
<totfact> 0.19306167E+00</totfact>
</mgrwt>
</event>
<event>
12    4  0.4280696E-008  0.1498057E+04  0.7818608E-02  0.8885746E-01
          1   -1    0    0  501    0  0.00000000000E+00  0.00000000000E+00  0.53086201262E+03  0.53086201262E+03  0.00000000000E+00 0. -1.
         -4   -1    0    0    0  501 -0.00000000000E+00 -0.00000000000E+00 -0.10568535482E+04  0.10568535482E+04  0.00000000000E+00 0.  1.
        -24    2    1    2    0    0  0.85756299709E+02  0.33371418120E+03 -0.51551124121E+03  0.62505497026E+03  0.78883321129E+02 0.  0.
        254    2    1    2    0    0 -0.85756299709E+02 -0.33371418120E+03 -0.10480294414E+02  0.96266059061E+03  0.89882494317E+03 0.  0.
         23    2    4    4    0    0  0.32722748606E+03 -0.16116364298E+03 -0.24526857949E+03  0.44874366491E+03  0.90347403155E+02 0.  0.
         23    2    4    4    0    0 -0.41298378577E+03 -0.17255053822E+03  0.23478828508E+03  0.51391692570E+03  0.93036402318E+02 0.  0.
          1    1    3    3  502    0  0.66068448109E+01 -0.21772699290E+01 -0.20342433447E+02  0.21498965120E+02  0.00000000000E+00 0. -1.
         -2    1    3    3    0  502  0.79149454898E+02  0.33589145113E+03 -0.49516880776E+03  0.60355600514E+03  0.00000000000E+00 0.  1.
         11    1    5    5    0    0  0.15503920854E+03 -0.31499975851E+02 -0.81011872267E+02  0.17774230816E+03  0.00000000000E+00 0. -1.
        -11    1    5    5    0    0  0.17218827752E+03 -0.12966366713E+03 -0.16425670722E+03  0.27100135675E+03  0.00000000000E+00 0.  1.
          1    1    6    6  503    0 -0.32936029439E+03 -0.16693743711E+03  0.16326259051E+03  0.40373380450E+03  0.00000000000E+00 0. -1.
         -1    1    6    6    0  503 -0.83623491379E+02 -0.56131011120E+01  0.71525694565E+02  0.11018312120E+03  0.00000000000E+00 0.  1.
<mgrwt>
<rscale>  0 0.14980566E+04</rscale>
<asrwt>0</asrwt>
<pdfrwt beam="1">  1        1 0.81671079E-01 0.14980566E+04</pdfrwt>
<pdfrwt beam="2">  1       -4 0.16259285E+00 0.14980566E+04</pdfrwt>
<totfact> 0.45263993E+00</totfact>
</mgrwt>
</event>
<event>
12    4  0.4280696E-008  0.2233096E+04  0.7818608E-02  0.8504778E-01
          1   -1    0    0  501    0  0.00000000000E+00  0.00000000000E+00  0.15026235417E+04  0.15026235417E+04  0.00000000000E+00 0. -1.
         -2   -1    0    0    0  501 -0.00000000000E+00 -0.00000000000E+00 -0.82966822933E+03  0.82966822933E+03  0.00000000000E+00 0.  1.
        -24    2    1    2    0    0  0.52924233098E+03 -0.60140559482E+03 -0.21842597406E+03  0.83409468413E+03  0.78853671890E+02 0.  0.
        254    2    1    2    0    0 -0.52924233098E+03  0.60140559482E+03  0.89138128644E+03  0.14981970869E+04  0.89902601689E+03 0.  0.
         23    2    4    4    0    0 -0.10829149841E+03 -0.33341041210E+02  0.68957539687E+03  0.70504425885E+03  0.93458575371E+02 0.  0.
         23    2    4    4    0    0 -0.42095083257E+03  0.63474663603E+03  0.20180588957E+03  0.79315282807E+03  0.90900474203E+02 0.  0.
          1    1    3    3  502    0  0.42556082200E+03 -0.50631018519E+03 -0.15264203663E+03  0.67878686507E+03  0.00000000000E+00 0. -1.
         -2    1    3    3    0  502  0.10368150899E+03 -0.95095409632E+02 -0.65783937430E+02  0.15530781906E+03  0.00000000000E+00 0.  1.
         11    1    5    5    0    0 -0.79666185418E+02  0.23402210893E+02  0.36843365003E+03  0.37767409105E+03  0.00000000000E+00 0. -1.
        -11    1    5    5    0    0 -0.28625312991E+02 -0.56743252103E+02  0.32114174684E+03  0.32737016780E+03  0.00000000000E+00 0.  1.
          3    1    6    6  503    0 -0.25433208293E+03  0.35617516082E+03  0.71902582794E+02  0.44352625063E+03  0.00000000000E+00 0. -1.
         -3    1    6    6    0  503 -0.16661874965E+03  0.27857147521E+03  0.12990330678E+03  0.34962657744E+03  0.00000000000E+00 0.  1.
<mgrwt>
<rscale>  0 0.22330956E+04</rscale>
<asrwt>0</asrwt>
<pdfrwt beam="1">  1        1 0.23117285E+00 0.22330956E+04</pdfrwt>
<pdfrwt beam="2">  1       -2 0.12764127E+00 0.22330956E+04</pdfrwt>
<totfact> 0.23651340E+00</totfact>
</mgrwt>
</event>
<event>
12    4  0.4280696E-008  0.1138815E+04  0.7818608E-02  0.9168165E-01
          1   -1    0    0  501    0  0.00000000000E+00  0.00000000000E+00  0.86399913909E+03  0.86399913909E+03  0.00000000000E+00 0. -1.
         -2   -1    0    0    0  501 -0.00000000000E+00 -0.00000000000E+00 -0.37526047578E+03  0.37526047578E+03  0.00000000000E+00 0.  1.
        -24    2    1    2    0    0  0.10041451056E+03  0.12125496927E+03 -0.47786974096E+02  0.18333414066E+03  0.80882450114E+02 0.  0.
        254    2    1    2    0    0 -0.10041451056E+03 -0.12125496927E+03  0.53652563740E+03  0.10559254742E+04  0.89573043154E+03 0.  0.
         23    2    4    4    0    0  0.30135373367E+03 -0.32157407935E+03  0.23679413337E+03  0.50896621889E+03  0.93547790266E+02 0.  0.
         23    2    4    4    0    0 -0.40176824423E+03  0.20031911009E+03  0.29973150403E+03  0.54695925532E+03  0.88204220593E+02 0.  0.
          1    1    3    3  502    0 -0.13592638976E+02  0.69291255536E+01 -0.71139421967E+01  0.16833917810E+02  0.00000000000E+00 0. -1.
         -2    1    3    3    0  502  0.11400714953E+03  0.11432584371E+03 -0.40673031899E+02  0.16650022285E+03  0.00000000000E+00 0.  1.
         11    1    5    5    0    0  0.55665607462E+02 -0.15923833725E+02  0.38483730031E+02  0.69521405421E+02  0.00000000000E+00 0. -1.
        -11    1    5    5    0    0  0.24568812621E+03 -0.30565024563E+03  0.19831040334E+03  0.43944481347E+03  0.00000000000E+00 0.  1.
          3    1    6    6  503    0 -0.10027197686E+03  0.95042522618E+02  0.92568121522E+02  0.16630215745E+03  0.00000000000E+00 0. -1.
         -3    1    6    6    0  503 -0.30149626737E+03  0.10527658747E+03  0.20716338251E+03  0.38065709787E+03  0.00000000000E+00 0.  1.
<mgrwt>
<rscale>  0 0.11388147E+04</rscale>
<asrwt>0</asrwt>
<pdfrwt beam="1">  1        1 0.13292294E+00 0.11388147E+04</pdfrwt>
<pdfrwt beam="2">  1       -2 0.57732381E-01 0.11388147E+04</pdfrwt>
<totfact> 0.47698194E+01</totfact>
</mgrwt>
</event>
<event>
12    4  0.4280696E-008  0.1594140E+04  0.7818608E-02  0.8824156E-01
          1   -1    0    0  501    0  0.00000000000E+00  0.00000000000E+00  0.24066818372E+04  0.24066818372E+04  0.00000000000E+00 0. -1.
         -2   -1    0    0    0  501 -0.00000000000E+00 -0.00000000000E+00 -0.26398181716E+03  0.26398181716E+03  0.00000000000E+00 0.  1.
        -24    2    1    2    0    0 -0.41658214680E+03 -0.15643852916E+03  0.22196307116E+03  0.50349432328E+03  0.78900127867E+02 0.  0.
        254    2    1    2    0    0  0.41658214680E+03  0.15643852916E+03  0.19207369488E+04  0.21671693311E+04  0.89965481400E+03 0.  0.
         23    2    4    4    0    0  0.51140607036E+03 -0.72988916424E+02  0.50881486722E+03  0.73070120890E+03  0.90377745427E+02 0.  0.
         23    2    4    4    0    0 -0.94823923552E+02  0.22942744558E+03  0.14119220816E+04  0.14364681221E+04  0.91039398664E+02 0.  0.
          1    1    3    3  502    0 -0.48654388714E+02 -0.30411224790E+02  0.36418365732E+01  0.57492217804E+02  0.00000000000E+00 0. -1.
         -2    1    3    3    0  502 -0.36792775809E+03 -0.12602730437E+03  0.21832123459E+03  0.44600210548E+03  0.00000000000E+00 0.  1.
         11    1    5    5    0    0  0.22269365773E+03  0.77314283272E+01  0.24730788081E+03  0.33288650933E+03  0.00000000000E+00 0.  1.
        -11    1    5    5    0    0  0.28871241262E+03 -0.80720344752E+02  0.26150698641E+03  0.39781469958E+03  0.00000000000E+00 0. -1.
          2    1    6    6  503    0 -0.75812442410E+02  0.19416794208E+03  0.13176923213E+04  0.13340771229E+04  0.00000000000E+00 0. -1.
         -2    1    6    6    0  503 -0.19011481142E+02  0.35259503500E+02  0.94229760322E+02  0.10239099928E+03  0.00000000000E+00 0.  1.
<mgrwt>
<rscale>  0 0.15941396E+04</rscale>
<asrwt>0</asrwt>
<pdfrwt beam="1">  1        1 0.37025873E+00 0.15941396E+04</pdfrwt>
<pdfrwt beam="2">  1       -2 0.40612589E-01 0.15941396E+04</pdfrwt>
<totfact> 0.76191120E+00</totfact>
</mgrwt>
</event>
<event>
12    4  0.4280696E-008  0.1452438E+04  0.7818608E-02  0.8916712E-01
          1   -1    0    0  501    0  0.00000000000E+00  0.00000000000E+00  0.93972634007E+03  0.93972634007E+03  0.00000000000E+00 0. -1.
         -2   -1    0    0    0  501 -0.00000000000E+00 -0.00000000000E+00 -0.56122071486E+03  0.56122071486E+03  0.00000000000E+00 0.  1.
        -24    2    1    2    0    0 -0.43143302541E+02  0.42285115857E+03 -0.99344043379E+01  0.43267957539E+03  0.80302401653E+02 0.  0.
        254    2    1    2    0    0  0.43143302541E+02 -0.42285115857E+03  0.38844002955E+03  0.10682674795E+04  0.89980292534E+03 0.  0.
         23    2    4    4    0    0  0.18449271943E+03 -0.32287755392E+03 -0.21102979943E+03  0.43761769990E+03  0.93210496586E+02 0.  0.
         23    2    4    4    0    0 -0.14134941689E+03 -0.99973604652E+02  0.59946982898E+03  0.63064977964E+03  0.91546105436E+02 0.  0.
          1    1    3    3  502    0 -0.33129934696E+02  0.42062219456E+03 -0.12482104456E+02  0.42210949535E+03  0.00000000000E+00 0. -1.
         -2    1    3    3    0  502 -0.10013367845E+02  0.22289640055E+01  0.25477001179E+01  0.10570080039E+02  0.00000000000E+00 0.  1.
         11    1    5    5    0    0  0.17102950849E+03 -0.24935255469E+03 -0.13546223197E+03  0.33132733904E+03  0.00000000000E+00 0. -1.
        -11    1    5    5    0    0  0.13463210938E+02 -0.73524999230E+02 -0.75567567463E+02  0.10629036086E+03  0.00000000000E+00 0.  1.
          1    1    6    6  503    0 -0.73557040147E+02 -0.71314898644E+00  0.27365126008E+03  0.28336576872E+03  0.00000000000E+00 0. -1.
         -1    1    6    6    0  503 -0.67792376741E+02 -0.99260455666E+02  0.32581856890E+03  0.34728401093E+03  0.00000000000E+00 0.  1.
<mgrwt>
<rscale>  0 0.14524378E+04</rscale>
<asrwt>0</asrwt>
<pdfrwt beam="1">  1        1 0.14457328E+00 0.14524378E+04</pdfrwt>
<pdfrwt beam="2">  1       -2 0.86341649E-01 0.14524378E+04</pdfrwt>
<totfact> 0.16716272E+01</totfact>
</mgrwt>
</event>
<event>
12    4  0.4280696E-008  0.1384819E+04  0.7818608E-02  0.8964881E-01
          1   -1    0    0  501    0  0.00000000000E+00  0.00000000000E+00  0.27286142509E+04  0.27286142509E+04  0.00000000000E+00 0. -1.
         -2   -1    0    0    0  501 -0.00000000000E+00 -0.00000000000E+00 -0.17570501211E+03  0.17570501211E+03  0.00000000000E+00 0.  1.
        -24    2    1    2    0    0  0.60227450082E+02 -0.48343339301E+01 -0.73462495779E+02  0.12591410063E+03  0.82503975201E+02 0.  0.
        254    2    1    2    0    0 -0.60227450082E+02  0.48343339301E+01  0.26263717346E+04  0.27784051624E+04  0.90446450550E+03 0.  0.
         23    2    4    4    0    0 -0.21003164279E+02 -0.41277624189E+03  0.83237620980E+03  0.93368496578E+03  0.89956110981E+02 0.  0.
         23    2    4    4    0    0 -0.39224285803E+02  0.41761057582E+03  0.17939955248E+04  0.18447201966E+04  0.92927516127E+02 0.  0.
          3    1    3    3  502    0  0.80984019077E+01  0.56236912426E+01  0.17768691089E+02  0.20320836589E+02  0.00000000000E+00 0. -1.
         -4    1    3    3    0  502  0.52129048175E+02 -0.10458025173E+02 -0.91231186867E+02  0.10559326404E+03  0.00000000000E+00 0.  1.
         11    1    5    5    0    0  0.22603546669E+02 -0.12463607695E+03  0.19072886567E+03  0.22895976109E+03  0.00000000000E+00 0.  1.
        -11    1    5    5    0    0 -0.43606710949E+02 -0.28814016493E+03  0.64164734414E+03  0.70472520469E+03  0.00000000000E+00 0. -1.
          4    1    6    6  503    0 -0.58720715482E+02  0.39612955955E+03  0.16599560170E+04  0.17075774444E+04  0.00000000000E+00 0. -1.
         -4    1    6    6    0  503  0.19496429679E+02  0.21481016264E+02  0.13403950780E+03  0.13714275220E+03  0.00000000000E+00 0.  1.
<mgrwt>
<rscale>  0 0.13848194E+04</rscale>
<asrwt>0</asrwt>
<pdfrwt beam="1">  1        1 0.41978678E+00 0.13848194E+04</pdfrwt>
<pdfrwt beam="2">  1       -2 0.27031542E-01 0.13848194E+04</pdfrwt>
<totfact> 0.10042001E+01</totfact>
</mgrwt>
</event>
<event>
12    4  0.4280696E-008  0.1511385E+04  0.7818608E-02  0.8876917E-01
         -2   -1    0    0    0  501 -0.00000000000E+00  0.00000000000E+00  0.11766824016E+04  0.11766824016E+04  0.00000000000E+00 0.  1.
          1   -1    0    0  501    0  0.00000000000E+00 -0.00000000000E+00 -0.48532327767E+03  0.48532327767E+03  0.00000000000E+00 0. -1.
        -24    2    1    2    0    0  0.45482238046E+03 -0.53764963400E+02  0.14551341087E+03  0.48725427562E+03  0.80551271290E+02 0.  0.
        254    2    1    2    0    0 -0.45482238046E+03  0.53764963400E+02  0.54584571311E+03  0.11747514037E+04  0.93399103256E+03 0.  0.
         23    2    4    4    0    0 -0.28103163795E+02  0.18642029623E+03 -0.20681769510E+03  0.29445993649E+03  0.91601203737E+02 0.  0.
         23    2    4    4    0    0 -0.42671921667E+03 -0.13265533283E+03  0.75266340821E+03  0.88029146721E+03  0.93403072632E+02 0.  0.
          1    1    3    3  502    0  0.48125487124E+02  0.81708368368E+01 -0.52877307392E+01  0.49099747270E+02  0.00000000000E+00 0. -1.
         -2    1    3    3    0  502  0.40669689334E+03 -0.61935800236E+02  0.15080114161E+03  0.43815452835E+03  0.00000000000E+00 0.  1.
         11    1    5    5    0    0  0.66937294994E+01  0.23266472381E+02  0.51166278125E+01  0.24744992056E+02  0.00000000000E+00 0. -1.
        -11    1    5    5    0    0 -0.34796893294E+02  0.16315382385E+03 -0.21193432292E+03  0.26971494443E+03  0.00000000000E+00 0.  1.
          3    1    6    6  503    0 -0.12125960073E+03 -0.50036005663E+02  0.30567191926E+03  0.33263014724E+03  0.00000000000E+00 0. -1.
         -3    1    6    6    0  503 -0.30545961593E+03 -0.82619327171E+02  0.44699148895E+03  0.54766131996E+03  0.00000000000E+00 0.  1.
<mgrwt>
<rscale>  0 0.15113853E+04</rscale>
<asrwt>0</asrwt>
<pdfrwt beam="1">  1        1 0.74665120E-01 0.15113853E+04</pdfrwt>
<pdfrwt beam="2">  1       -2 0.18102806E+00 0.15113853E+04</pdfrwt>
<totfact> 0.69559602E+00</totfact>
</mgrwt>
</event>
<event>
12    4  0.4280696E-008  0.1613161E+04  0.7818608E-02  0.8812503E-01
          1   -1    0    0  501    0  0.00000000000E+00  0.00000000000E+00  0.86877171029E+03  0.86877171029E+03  0.00000000000E+00 0. -1.
         -2   -1    0    0    0  501 -0.00000000000E+00 -0.00000000000E+00 -0.74884095674E+03  0.74884095674E+03  0.00000000000E+00 0.  1.
        -24    2    1    2    0    0  0.23891737066E+03  0.82451419810E+02 -0.45069886869E+03  0.52275770864E+03  0.79160628324E+02 0.  0.
        254    2    1    2    0    0 -0.23891737066E+03 -0.82451419810E+02  0.57062962223E+03  0.10948549584E+04  0.89956070807E+03 0.  0.
         23    2    4    4    0    0  0.35944288082E+02  0.36811911509E+03  0.34283816622E+03  0.51253273033E+03  0.91368028875E+02 0.  0.
         23    2    4    4    0    0 -0.27486165874E+03 -0.45057053490E+03  0.22779145602E+03  0.58232222806E+03  0.92991889396E+02 0.  0.
          1    1    3    3  502    0 -0.16006211644E+01 -0.69402229601E+01 -0.22119212070E+02  0.23237646728E+02  0.00000000000E+00 0. -1.
         -2    1    3    3    0  502  0.24051799182E+03  0.89391642770E+02 -0.42857965662E+03  0.49952006192E+03  0.00000000000E+00 0.  1.
         11    1    5    5    0    0 -0.29813890282E+02  0.80990850491E+02  0.72319523711E+02  0.11259884292E+03  0.00000000000E+00 0.  1.
        -11    1    5    5    0    0  0.65758178364E+02  0.28712826460E+03  0.27051864250E+03  0.39993388741E+03  0.00000000000E+00 0. -1.
          4    1    6    6  503    0 -0.23284114772E+03 -0.37455832995E+03  0.22573413977E+03  0.49544408813E+03  0.00000000000E+00 0. -1.
         -4    1    6    6    0  503 -0.42020511019E+02 -0.76012204948E+02  0.20573162513E+01  0.86878139929E+02  0.00000000000E+00 0.  1.
<mgrwt>
<rscale>  0 0.16131607E+04</rscale>
<asrwt>0</asrwt>
<pdfrwt beam="1">  1        1 0.13365719E+00 0.16131607E+04</pdfrwt>
<pdfrwt beam="2">  1       -2 0.11520630E+00 0.16131607E+04</pdfrwt>
<totfact> 0.95220349E+00</totfact>
</mgrwt>
</event>
<event>
12    4  0.4280696E-008  0.2048724E+04  0.7818608E-02  0.8584173E-01
         -2   -1    0    0    0  501 -0.00000000000E+00  0.00000000000E+00  0.16819836387E+04  0.16819836387E+04  0.00000000000E+00 0.  1.
          1   -1    0    0  501    0  0.00000000000E+00 -0.00000000000E+00 -0.62385724113E+03  0.62385724113E+03  0.00000000000E+00 0. -1.
        -24    2    1    2    0    0 -0.39496560053E+03 -0.71411389798E+03  0.29142534145E+03  0.87019552377E+03  0.79718473702E+02 0.  0.
        254    2    1    2    0    0  0.39496560053E+03  0.71411389798E+03  0.76670105614E+03  0.14356453561E+04  0.89849351366E+03 0.  0.
         23    2    4    4    0    0  0.46113981111E+03  0.13695659959E+02  0.14496092377E+03  0.49185197862E+03  0.89817609411E+02 0.  0.
         23    2    4    4    0    0 -0.66174210583E+02  0.70041823803E+03  0.62174013237E+03  0.94379337747E+03  0.96022980876E+02 0.  0.
          1    1    3    3  502    0 -0.16153429755E+02 -0.58376526153E+02  0.38560230683E+02  0.71802809756E+02  0.00000000000E+00 0. -1.
         -2    1    3    3    0  502 -0.37881217077E+03 -0.65573737183E+03  0.25286511077E+03  0.79839271401E+03  0.00000000000E+00 0.  1.
         11    1    5    5    0    0  0.22342261585E+01  0.52030614667E+00 -0.77049578864E+01  0.80392077373E+01  0.00000000000E+00 0. -1.
        -11    1    5    5    0    0  0.45890558495E+03  0.13175353812E+02  0.15266588166E+03  0.48381277088E+03  0.00000000000E+00 0.  1.
          2    1    6    6  503    0  0.24635636278E+02  0.18388027799E+03  0.15638631642E+03  0.24264284694E+03  0.00000000000E+00 0. -1.
         -2    1    6    6    0  503 -0.90809846861E+02  0.51653796004E+03  0.46535381595E+03  0.70115053053E+03  0.00000000000E+00 0.  1.
<mgrwt>
<rscale>  0 0.20487242E+04</rscale>
<asrwt>0</asrwt>
<pdfrwt beam="1">  1        1 0.95978038E-01 0.20487242E+04</pdfrwt>
<pdfrwt beam="2">  1       -2 0.25876671E+00 0.20487242E+04</pdfrwt>
<totfact> 0.14861464E+00</totfact>
</mgrwt>
</event>
<event>
12    4  0.4280696E-008  0.1653777E+04  0.7818608E-02  0.8788175E-01
          1   -1    0    0  501    0  0.00000000000E+00  0.00000000000E+00  0.19344112668E+04  0.19344112668E+04  0.00000000000E+00 0. -1.
         -2   -1    0    0    0  501 -0.00000000000E+00 -0.00000000000E+00 -0.35346375385E+03  0.35346375385E+03  0.00000000000E+00 0.  1.
        -24    2    1    2    0    0  0.40789802468E+03  0.23065936344E+03  0.91097468213E+02  0.48387990436E+03  0.79097867557E+02 0.  0.
        254    2    1    2    0    0 -0.40789802468E+03 -0.23065936344E+03  0.14898500448E+04  0.18039951163E+04  0.90286249414E+03 0.  0.
         23    2    4    4    0    0 -0.16764796348E+03  0.66765752761E+02  0.13817594956E+04  0.13964954823E+04  0.91524985939E+02 0.  0.
         23    2    4    4    0    0 -0.24025006120E+03 -0.29742511620E+03  0.10809054916E+03  0.40749963400E+03  0.90501896298E+02 0.  0.
          3    1    3    3  502    0  0.51846255881E+02  0.19768096870E+01  0.14114417176E+02  0.53769496907E+02  0.00000000000E+00 0. -1.
         -4    1    3    3    0  502  0.35605176880E+03  0.22868255375E+03  0.76983051037E+02  0.43011040746E+03  0.00000000000E+00 0.  1.
         11    1    5    5    0    0 -0.11139258253E+03  0.51955481592E+02  0.11838513197E+04  0.11902149498E+04  0.00000000000E+00 0. -1.
        -11    1    5    5    0    0 -0.56255380949E+02  0.14810271169E+02  0.19790817587E+03  0.20628053251E+03  0.00000000000E+00 0.  1.
          4    1    6    6  503    0 -0.16336747290E+03 -0.25980556561E+03  0.76774698356E+02  0.31635773648E+03  0.00000000000E+00 0.  1.
         -4    1    6    6    0  503 -0.76882588307E+02 -0.37619550593E+02  0.31315850808E+02  0.91141897519E+02  0.00000000000E+00 0. -1.
<mgrwt>
<rscale>  0 0.16537766E+04</rscale>
<asrwt>0</asrwt>
<pdfrwt beam="1">  1        1 0.29760173E+00 0.16537766E+04</pdfrwt>
<pdfrwt beam="2">  1       -2 0.54379040E-01 0.16537766E+04</pdfrwt>
<totfact> 0.88165494E+00</totfact>
</mgrwt>
</event>
<event>
12    4  0.4280696E-008  0.1633518E+04  0.7818608E-02  0.8800217E-01
         -2   -1    0    0    0  501 -0.00000000000E+00  0.00000000000E+00  0.12644555547E+04  0.12644555547E+04  0.00000000000E+00 0.  1.
          1   -1    0    0  501    0  0.00000000000E+00 -0.00000000000E+00 -0.52757512683E+03  0.52757512683E+03  0.00000000000E+00 0. -1.
        -24    2    1    2    0    0  0.57282073625E+02 -0.29100490069E+03 -0.26758946156E+03  0.40731345191E+03  0.79592964413E+02 0.  0.
        254    2    1    2    0    0 -0.57282073625E+02  0.29100490069E+03  0.10044698895E+04  0.13847172297E+04  0.90582391174E+03 0.  0.
         23    2    4    4    0    0 -0.29174637501E+03 -0.19464402092E+03  0.61326989700E+03  0.71225766288E+03  0.90602260126E+02 0.  0.
         23    2    4    4    0    0  0.23446430139E+03  0.48564892161E+03  0.39119999245E+03  0.67245956678E+03  0.91301977906E+02 0.  0.
          1    1    3    3  502    0 -0.14544969146E+02 -0.89311910724E+02 -0.56663767346E+02  0.10676589369E+03  0.00000000000E+00 0. -1.
         -2    1    3    3    0  502  0.71827042771E+02 -0.20169298996E+03 -0.21092569422E+03  0.30054755822E+03  0.00000000000E+00 0.  1.
         11    1    5    5    0    0 -0.11783272588E+03 -0.65254157674E+02  0.15527325088E+03  0.20555398031E+03  0.00000000000E+00 0. -1.
        -11    1    5    5    0    0 -0.17391364913E+03 -0.12938986325E+03  0.45799664612E+03  0.50670368257E+03  0.00000000000E+00 0.  1.
          2    1    6    6  503    0  0.20425807668E+03  0.35633116352E+03  0.32678151330E+03  0.52486133161E+03  0.00000000000E+00 0. -1.
         -2    1    6    6    0  503  0.30206224711E+02  0.12931775809E+03  0.64418479150E+02  0.14759823516E+03  0.00000000000E+00 0.  1.
<mgrwt>
<rscale>  0 0.16335180E+04</rscale>
<asrwt>0</asrwt>
<pdfrwt beam="1">  1        1 0.81165405E-01 0.16335180E+04</pdfrwt>
<pdfrwt beam="2">  1       -2 0.19453162E+00 0.16335180E+04</pdfrwt>
<totfact> 0.49729891E+00</totfact>
</mgrwt>
</event>
<event>
12    4  0.4280696E-008  0.2390619E+04  0.7818608E-02  0.8443024E-01
          1   -1    0    0  501    0  0.00000000000E+00  0.00000000000E+00  0.19120325932E+04  0.19120325932E+04  0.00000000000E+00 0. -1.
         -2   -1    0    0    0  501 -0.00000000000E+00 -0.00000000000E+00 -0.74724907777E+03  0.74724907777E+03  0.00000000000E+00 0.  1.
        -24    2    1    2    0    0  0.33553216213E+03 -0.51053507847E+03  0.13932333418E+04  0.15233802770E+04  0.79752276188E+02 0.  0.
        254    2    1    2    0    0 -0.33553216213E+03  0.51053507847E+03 -0.22844982634E+03  0.11359013940E+04  0.92997567470E+03 0.  0.
         23    2    4    4    0    0  0.14476457707E+03  0.48919491380E+03 -0.35831797479E+03  0.62992848313E+03  0.90275557795E+02 0.  0.
         23    2    4    4    0    0 -0.48029673920E+03  0.21340164672E+02  0.12986814845E+03  0.50597291086E+03  0.89456638796E+02 0.  0.
          1    1    3    3  502    0  0.30212085264E+03 -0.48647510443E+03  0.12622254763E+04  0.13860549014E+04  0.00000000000E+00 0. -1.
         -2    1    3    3    0  502  0.33411309485E+02 -0.24059974047E+02  0.13100786552E+03  0.13732537559E+03  0.00000000000E+00 0.  1.
         11    1    5    5    0    0  0.13424862264E+03  0.47509166425E+03 -0.32157283762E+03  0.58918916488E+03  0.00000000000E+00 0. -1.
        -11    1    5    5    0    0  0.10515954431E+02  0.14103249551E+02 -0.36745137167E+02  0.40739318244E+02  0.00000000000E+00 0.  1.
          3    1    6    6  503    0 -0.23167430464E+03 -0.31867864981E+02  0.46781727042E+02  0.23848914909E+03  0.00000000000E+00 0. -1.
         -3    1    6    6    0  503 -0.24862243456E+03  0.53208029654E+02  0.83086421410E+02  0.26748376177E+03  0.00000000000E+00 0.  1.
<mgrwt>
<rscale>  0 0.23906188E+04</rscale>
<asrwt>0</asrwt>
<pdfrwt beam="1">  1        1 0.29415886E+00 0.23906188E+04</pdfrwt>
<pdfrwt beam="2">  1       -2 0.11496140E+00 0.23906188E+04</pdfrwt>
<totfact> 0.15898305E+00</totfact>
</mgrwt>
</event>
<event>
12    4  0.4280696E-008  0.2200899E+04  0.7818608E-02  0.8518054E-01
         -2   -1    0    0    0  501 -0.00000000000E+00  0.00000000000E+00  0.77982629644E+03  0.77982629644E+03  0.00000000000E+00 0.  1.
          1   -1    0    0  501    0  0.00000000000E+00 -0.00000000000E+00 -0.15528955326E+04  0.15528955326E+04  0.00000000000E+00 0. -1.
        -24    2    1    2    0    0  0.15834922799E+03 -0.91034456614E+03 -0.33786674308E+03  0.98764823040E+03  0.86564333395E+02 0.  0.
        254    2    1    2    0    0 -0.15834922799E+03  0.91034456614E+03 -0.43520249311E+03  0.13450735987E+04  0.87522572445E+03 0.  0.
         23    2    4    4    0    0 -0.49934390960E+03  0.62332511523E+03 -0.37105965078E+03  0.88561522022E+03  0.93544184851E+02 0.  0.
         23    2    4    4    0    0  0.34099468161E+03  0.28701945091E+03 -0.64142842332E+02  0.45945837846E+03  0.91269705944E+02 0.  0.
          3    1    3    3  502    0  0.50868968536E+01 -0.14021440316E+03 -0.78012844268E+02  0.16053647325E+03  0.00000000000E+00 0. -1.
         -4    1    3    3    0  502  0.15326233113E+03 -0.77013016298E+03 -0.25985389882E+03  0.82711175715E+03  0.00000000000E+00 0.  1.
         11    1    5    5    0    0 -0.16562095760E+03  0.14049166743E+03 -0.98303394487E+02  0.23839414335E+03  0.00000000000E+00 0.  1.
        -11    1    5    5    0    0 -0.33372295200E+03  0.48283344779E+03 -0.27275625629E+03  0.64722107687E+03  0.00000000000E+00 0. -1.
          2    1    6    6  503    0  0.30939856844E+03  0.26260893636E+03 -0.30009071205E+02  0.40692932059E+03  0.00000000000E+00 0. -1.
         -2    1    6    6    0  503  0.31596113175E+02  0.24410514556E+02 -0.34133771127E+02  0.52529057863E+02  0.00000000000E+00 0.  1.
<mgrwt>
<rscale>  0 0.22008987E+04</rscale>
<asrwt>0</asrwt>
<pdfrwt beam="1">  1        1 0.23890701E+00 0.22008987E+04</pdfrwt>
<pdfrwt beam="2">  1       -2 0.11997328E+00 0.22008987E+04</pdfrwt>
<totfact> 0.25570507E+00</totfact>
</mgrwt>
</event>
<event>
12    4  0.4280696E-008  0.1731765E+04  0.7818608E-02  0.8743452E-01
         -2   -1    0    0    0  501 -0.00000000000E+00  0.00000000000E+00  0.28211791156E+03  0.28211791156E+03  0.00000000000E+00 0.  1.
          1   -1    0    0  501    0  0.00000000000E+00 -0.00000000000E+00 -0.26575862275E+04  0.26575862275E+04  0.00000000000E+00 0. -1.
        -24    2    1    2    0    0 -0.20045435940E+03  0.13290254914E+03 -0.18601389807E+04  0.18773149567E+04  0.79683004590E+02 0.  0.
        254    2    1    2    0    0  0.20045435940E+03 -0.13290254914E+03 -0.51532933523E+03  0.10623891824E+04  0.89736359037E+03 0.  0.
         23    2    4    4    0    0  0.50095580475E+03 -0.41897904389E+02 -0.77981572730E+02  0.51689399691E+03  0.91575791887E+02 0.  0.
         23    2    4    4    0    0 -0.30050144535E+03 -0.91004644754E+02 -0.43734776250E+03  0.54549518547E+03  0.87800728840E+02 0.  0.
          3    1    3    3  502    0 -0.19055235401E+03  0.11916671940E+03 -0.18189376541E+04  0.18327697881E+04  0.00000000000E+00 0. -1.
         -4    1    3    3    0  502 -0.99020053921E+01  0.13735829746E+02 -0.41201326585E+02  0.44545168559E+02  0.00000000000E+00 0.  1.
         11    1    5    5    0    0  0.73002880119E+02 -0.37139898791E+02 -0.25059651013E+02  0.85654998084E+02  0.00000000000E+00 0.  1.
        -11    1    5    5    0    0  0.42795292463E+03 -0.47580055981E+01 -0.52921921718E+02  0.43123899883E+03  0.00000000000E+00 0. -1.
          3    1    6    6  503    0 -0.49373886693E+01  0.11048447830E+02 -0.27017016617E+02  0.29603465899E+02  0.00000000000E+00 0.  1.
         -3    1    6    6    0  503 -0.29556405668E+03 -0.10205309258E+03 -0.41033074588E+03  0.51589171957E+03  0.00000000000E+00 0. -1.
<mgrwt>
<rscale>  0 0.17317652E+04</rscale>
<asrwt>0</asrwt>
<pdfrwt beam="1">  1        1 0.40885940E+00 0.17317652E+04</pdfrwt>
<pdfrwt beam="2">  1       -2 0.43402758E-01 0.17317652E+04</pdfrwt>
<totfact> 0.44196928E+00</totfact>
</mgrwt>
</event>
<event>
12    4  0.4280696E-008  0.3066965E+04  0.7818608E-02  0.8224863E-01
          1   -1    0    0  501    0  0.00000000000E+00  0.00000000000E+00  0.14731760989E+04  0.14731760989E+04  0.00000000000E+00 0. -1.
         -2   -1    0    0    0  501 -0.00000000000E+00 -0.00000000000E+00 -0.15962579004E+04  0.15962579004E+04  0.00000000000E+00 0.  1.
        -24    2    1    2    0    0 -0.47933709440E+03 -0.61401334540E+03 -0.12176468684E+04  0.14476778906E+04  0.79567206401E+02 0.  0.
        254    2    1    2    0    0  0.47933709440E+03  0.61401334540E+03  0.10945650669E+04  0.16217561087E+04  0.90842927737E+03 0.  0.
         23    2    4    4    0    0  0.65262276114E+03  0.50262058476E+03  0.45911978353E+03  0.94747852013E+03  0.91545889532E+02 0.  0.
         23    2    4    4    0    0 -0.17328566674E+03  0.11139276064E+03  0.63544528339E+03  0.67427758857E+03  0.91778477043E+02 0.  0.
          1    1    3    3  502    0 -0.95624053873E+02 -0.92830781492E+02 -0.16656843478E+03  0.21332265969E+03  0.00000000000E+00 0. -1.
         -2    1    3    3    0  502 -0.38371304053E+03 -0.52118256391E+03 -0.10510784336E+04  0.12343552309E+04  0.00000000000E+00 0.  1.
         11    1    5    5    0    0  0.40477378024E+03  0.33028159846E+03  0.24275482186E+03  0.57607087323E+03  0.00000000000E+00 0. -1.
        -11    1    5    5    0    0  0.24784898090E+03  0.17233898630E+03  0.21636496168E+03  0.37140764690E+03  0.00000000000E+00 0.  1.
          3    1    6    6  503    0 -0.16970118375E+03  0.10735807926E+03  0.63759396248E+03  0.66846863049E+03  0.00000000000E+00 0. -1.
         -3    1    6    6    0  503 -0.35844829885E+01  0.40346813866E+01 -0.21486790953E+01  0.58089580856E+01  0.00000000000E+00 0.  1.
<mgrwt>
<rscale>  0 0.30669653E+04</rscale>
<asrwt>0</asrwt>
<pdfrwt beam="1">  1        1 0.22664248E+00 0.30669653E+04</pdfrwt>
<pdfrwt beam="2">  1       -2 0.24557814E+00 0.30669653E+04</pdfrwt>
<totfact> 0.34724104E-01</totfact>
</mgrwt>
</event>
<event>
12    4  0.4280696E-008  0.2185013E+04  0.7818608E-02  0.8524692E-01
          1   -1    0    0  501    0  0.00000000000E+00  0.00000000000E+00  0.26057332509E+04  0.26057332509E+04  0.00000000000E+00 0. -1.
         -2   -1    0    0    0  501 -0.00000000000E+00 -0.00000000000E+00 -0.45805564103E+03  0.45805564103E+03  0.00000000000E+00 0.  1.
        -24    2    1    2    0    0 -0.41803966077E+03 -0.69892509242E+03  0.33491230890E+03  0.88420971206E+03  0.80044471742E+02 0.  0.
        254    2    1    2    0    0  0.41803966077E+03  0.69892509242E+03  0.18127653009E+04  0.21795791799E+04  0.89509436494E+03 0.  0.
         23    2    4    4    0    0 -0.12323093599E+03 -0.95154368572E+02  0.80665818249E+02  0.19663126736E+03  0.88975635023E+02 0.  0.
         23    2    4    4    0    0  0.54127059676E+03  0.79407946099E+03  0.17320994827E+04  0.19829479125E+04  0.91530084773E+02 0.  0.
          3    1    3    3  502    0 -0.64273733955E+02 -0.13265077115E+03  0.31115614471E+02  0.15065032834E+03  0.00000000000E+00 0. -1.
         -2    1    3    3    0  502 -0.35376592682E+03 -0.56627432126E+03  0.30379669443E+03  0.73355938372E+03  0.00000000000E+00 0.  1.
         11    1    5    5    0    0 -0.68063907676E+02 -0.10274695866E+03  0.49491129774E+02  0.13281191576E+03  0.00000000000E+00 0. -1.
        -11    1    5    5    0    0 -0.55167028310E+02  0.75925900898E+01  0.31174688475E+02  0.63819351597E+02  0.00000000000E+00 0.  1.
          2    1    6    6  503    0  0.17269218840E+03  0.33175276677E+03  0.68372608874E+03  0.77933552121E+03  0.00000000000E+00 0. -1.
         -2    1    6    6    0  503  0.36857840835E+03  0.46232669422E+03  0.10483733940E+04  0.12036123913E+04  0.00000000000E+00 0.  1.
<mgrwt>
<rscale>  0 0.21850133E+04</rscale>
<asrwt>0</asrwt>
<pdfrwt beam="1">  1        1 0.40088203E+00 0.21850133E+04</pdfrwt>
<pdfrwt beam="2">  1       -2 0.70470100E-01 0.21850133E+04</pdfrwt>
<totfact> 0.16804124E+00</totfact>
</mgrwt>
</event>
<event>
12    4  0.4280696E-008  0.2504008E+04  0.7818608E-02  0.8401559E-01
          1   -1    0    0  501    0  0.00000000000E+00  0.00000000000E+00  0.11136208983E+04  0.11136208983E+04  0.00000000000E+00 0. -1.
         -4   -1    0    0    0  501 -0.00000000000E+00 -0.00000000000E+00 -0.14075836937E+04  0.14075836937E+04  0.00000000000E+00 0.  1.
        -24    2    1    2    0    0 -0.91752261279E+03  0.56337416869E+03  0.24555498766E+02  0.10801346106E+04  0.82762343395E+02 0.  0.
        254    2    1    2    0    0  0.91752261279E+03 -0.56337416869E+03 -0.31851829415E+03  0.14410699814E+04  0.90332197401E+03 0.  0.
         23    2    4    4    0    0  0.53547995271E+03 -0.78381290551E+03 -0.18783492166E+03  0.97212906875E+03  0.93013536249E+02 0.  0.
         23    2    4    4    0    0  0.38204266008E+03  0.22043873682E+03 -0.13068337249E+03  0.46894091267E+03  0.90981343811E+02 0.  0.
          1    1    3    3  502    0 -0.25406875589E+03  0.14615768951E+03  0.42618845533E+02  0.29619143964E+03  0.00000000000E+00 0. -1.
         -2    1    3    3    0  502 -0.66345385690E+03  0.41721647918E+03 -0.18063346767E+02  0.78394317092E+03  0.00000000000E+00 0.  1.
         11    1    5    5    0    0  0.55459614409E+01  0.20184421451E+01 -0.22238530550E+01  0.63069263043E+01  0.00000000000E+00 0. -1.
        -11    1    5    5    0    0  0.52993399126E+03 -0.78583134765E+03 -0.18561106860E+03  0.96582214244E+03  0.00000000000E+00 0.  1.
          2    1    6    6  503    0  0.13396025093E+02  0.21900476580E+02 -0.27670129865E+02  0.37745469257E+02  0.00000000000E+00 0. -1.
         -2    1    6    6    0  503  0.36864663499E+03  0.19853826024E+03 -0.10301324263E+03  0.43119544342E+03  0.00000000000E+00 0.  1.
<mgrwt>
<rscale>  0 0.25040085E+04</rscale>
<asrwt>0</asrwt>
<pdfrwt beam="1">  1        1 0.17132629E+00 0.25040085E+04</pdfrwt>
<pdfrwt beam="2">  1       -4 0.21655134E+00 0.25040085E+04</pdfrwt>
<totfact> 0.54533794E-01</totfact>
</mgrwt>
</event>
<event>
12    4  0.4280696E-008  0.1374791E+04  0.7818608E-02  0.8972271E-01
          1   -1    0    0  501    0  0.00000000000E+00  0.00000000000E+00  0.27893916584E+04  0.27893916584E+04  0.00000000000E+00 0. -1.
         -2   -1    0    0    0  501 -0.00000000000E+00 -0.00000000000E+00 -0.16939632764E+03  0.16939632764E+03  0.00000000000E+00 0.  1.
        -24    2    1    2    0    0  0.95735103571E+02  0.81322134937E+02 -0.33418933487E+02  0.15215882240E+03  0.79101089955E+02 0.  0.
        254    2    1    2    0    0 -0.95735103571E+02 -0.81322134937E+02  0.26534142642E+04  0.28066291636E+04  0.90596992485E+03 0.  0.
         23    2    4    4    0    0  0.16383304856E+03 -0.30844315319E+03  0.46354863349E+03  0.58739835117E+03  0.90449106097E+02 0.  0.
         23    2    4    4    0    0 -0.25956815213E+03  0.22712101825E+03  0.21898656307E+04  0.22192308124E+04  0.10253943483E+03 0.  0.
          1    1    3    3  502    0  0.13869613539E+02 -0.12597583782E+02 -0.19086716440E+02  0.26746365012E+02  0.00000000000E+00 0. -1.
         -2    1    3    3    0  502  0.81865490031E+02  0.93919718719E+02 -0.14332217047E+02  0.12541245739E+03  0.00000000000E+00 0.  1.
         11    1    5    5    0    0 -0.82814486934E+01 -0.28987947118E+02  0.60727052391E+02  0.67798660478E+02  0.00000000000E+00 0. -1.
        -11    1    5    5    0    0  0.17211449725E+03 -0.27945520607E+03  0.40282158110E+03  0.51959969069E+03  0.00000000000E+00 0.  1.
          1    1    6    6  503    0 -0.12424266883E+03  0.12975727416E+03  0.83229925037E+03  0.85146651908E+03  0.00000000000E+00 0. -1.
         -1    1    6    6    0  503 -0.13532548330E+03  0.97363744097E+02  0.13575663803E+04  0.13677642933E+04  0.00000000000E+00 0.  1.
<mgrwt>
<rscale>  0 0.13747912E+04</rscale>
<asrwt>0</asrwt>
<pdfrwt beam="1">  1        1 0.42913714E+00 0.13747912E+04</pdfrwt>
<pdfrwt beam="2">  1       -2 0.26060976E-01 0.13747912E+04</pdfrwt>
<totfact> 0.97359611E+00</totfact>
</mgrwt>
</event>
<event>
12    4  0.4280696E-008  0.3258822E+04  0.7818608E-02  0.8173453E-01
         -2   -1    0    0    0  501 -0.00000000000E+00  0.00000000000E+00  0.12164994996E+04  0.12164994996E+04  0.00000000000E+00 0.  1.
          1   -1    0    0  501    0  0.00000000000E+00 -0.00000000000E+00 -0.21824755381E+04  0.21824755381E+04  0.00000000000E+00 0. -1.
        -24    2    1    2    0    0  0.12390251419E+04  0.19185824852E+03  0.42173088585E+03  0.13252980300E+04  0.81024925252E+02 0.  0.
        254    2    1    2    0    0 -0.12390251419E+04 -0.19185824852E+03 -0.13877069243E+04  0.20736770077E+04  0.89577504692E+03 0.  0.
         23    2    4    4    0    0  0.58581216821E+01  0.18381543212E+03 -0.61267069287E+02  0.21383165007E+03  0.90265664103E+02 0.  0.
         23    2    4    4    0    0 -0.12448832636E+04 -0.37567368064E+03 -0.13264398550E+04  0.18598453576E+04  0.93364934684E+02 0.  0.
          3    1    3    3  502    0  0.19580036424E+03  0.54005485531E+02  0.87956667204E+02  0.22133854253E+03  0.00000000000E+00 0. -1.
         -4    1    3    3    0  502  0.10432247777E+04  0.13785276298E+03  0.33377421865E+03  0.11039594875E+04  0.00000000000E+00 0.  1.
         11    1    5    5    0    0  0.10004154274E+02  0.14903582213E+03 -0.73695068759E+01  0.14955289703E+03  0.00000000000E+00 0.  1.
        -11    1    5    5    0    0 -0.41460325915E+01  0.34779609993E+02 -0.53897562411E+02  0.64278753032E+02  0.00000000000E+00 0. -1.
          2    1    6    6  503    0 -0.20973816581E+03 -0.82147129850E+02 -0.27463348052E+03  0.35519262065E+03  0.00000000000E+00 0. -1.
         -2    1    6    6    0  503 -0.10351450978E+04 -0.29352655079E+03 -0.10518063745E+04  0.15046527370E+04  0.00000000000E+00 0.  1.
<mgrwt>
<rscale>  0 0.32588221E+04</rscale>
<asrwt>0</asrwt>
<pdfrwt beam="1">  1        1 0.33576547E+00 0.32588221E+04</pdfrwt>
<pdfrwt beam="2">  1       -2 0.18715377E+00 0.32588221E+04</pdfrwt>
<totfact> 0.26561127E-01</totfact>
</mgrwt>
</event>
<event>
12    4  0.4280696E-008  0.2481794E+04  0.7818608E-02  0.8409500E-01
         -2   -1    0    0    0  501 -0.00000000000E+00  0.00000000000E+00  0.12015802455E+04  0.12015802455E+04  0.00000000000E+00 0.  1.
          1   -1    0    0  501    0  0.00000000000E+00 -0.00000000000E+00 -0.12814999433E+04  0.12814999433E+04  0.00000000000E+00 0. -1.
        -24    2    1    2    0    0  0.50620259819E+03  0.56533833694E+03 -0.79933485039E+03  0.11050755232E+04  0.80045008589E+02 0.  0.
        254    2    1    2    0    0 -0.50620259819E+03 -0.56533833694E+03  0.71941515256E+03  0.13780046655E+04  0.89749105336E+03 0.  0.
         23    2    4    4    0    0 -0.73126289985E+03 -0.33496468882E+03  0.35685696789E+03  0.88452420279E+03  0.89941082569E+02 0.  0.
         23    2    4    4    0    0  0.22506030167E+03 -0.23037364812E+03  0.36255818466E+03  0.49348046274E+03  0.91380373724E+02 0.  0.
          1    1    3    3  502    0  0.10072719939E+03  0.96681880173E+02 -0.10706978539E+03  0.17594684878E+03  0.00000000000E+00 0. -1.
         -2    1    3    3    0  502  0.40547539879E+03  0.46865645677E+03 -0.69226506500E+03  0.92912867446E+03  0.00000000000E+00 0.  1.
         11    1    5    5    0    0 -0.37937123454E+03 -0.21294126354E+03  0.16242234606E+03  0.46437865349E+03  0.00000000000E+00 0. -1.
        -11    1    5    5    0    0 -0.35189166531E+03 -0.12202342528E+03  0.19443462184E+03  0.42014554931E+03  0.00000000000E+00 0.  1.
          3    1    6    6  503    0  0.12048517454E+03 -0.12661317237E+03  0.26262435864E+03  0.31546652192E+03  0.00000000000E+00 0. -1.
         -3    1    6    6    0  503  0.10457512713E+03 -0.10376047574E+03  0.99933826025E+02  0.17801394082E+03  0.00000000000E+00 0.  1.
<mgrwt>
<rscale>  0 0.24817937E+04</rscale>
<asrwt>0</asrwt>
<pdfrwt beam="1">  1        1 0.19715384E+00 0.24817937E+04</pdfrwt>
<pdfrwt beam="2">  1       -2 0.18485850E+00 0.24817937E+04</pdfrwt>
<totfact> 0.12229794E+00</totfact>
</mgrwt>
</event>
<event>
12    4  0.4280696E-008  0.2249116E+04  0.7818608E-02  0.8498258E-01
         -2   -1    0    0    0  501 -0.00000000000E+00  0.00000000000E+00  0.55771675209E+03  0.55771675209E+03  0.00000000000E+00 0.  1.
          1   -1    0    0  501    0  0.00000000000E+00 -0.00000000000E+00 -0.22675147320E+04  0.22675147320E+04  0.00000000000E+00 0. -1.
        -24    2    1    2    0    0 -0.37060291822E+03  0.35935747199E+03 -0.17131525327E+04  0.17909936756E+04  0.79261781577E+02 0.  0.
        254    2    1    2    0    0  0.37060291822E+03 -0.35935747199E+03  0.33545527547E+01  0.10342378085E+04  0.89618763434E+03 0.  0.
         23    2    4    4    0    0  0.33899018449E+03 -0.44193538006E+03 -0.34586927621E+03  0.66183373572E+03  0.90427386200E+02 0.  0.
         23    2    4    4    0    0  0.31612733734E+02  0.82577908074E+02  0.34922382897E+03  0.37240407283E+03  0.94387684084E+02 0.  0.
          3    1    3    3  502    0 -0.34102558244E+03  0.29401618645E+03 -0.14971572054E+04  0.15634013123E+04  0.00000000000E+00 0. -1.
         -4    1    3    3    0  502 -0.29577335780E+02  0.65341285539E+02 -0.21599532734E+03  0.22759236327E+03  0.00000000000E+00 0.  1.
         11    1    5    5    0    0  0.53834854766E+02 -0.26121739947E+02 -0.42671519765E+02  0.73494186740E+02  0.00000000000E+00 0.  1.
        -11    1    5    5    0    0  0.28515532972E+03 -0.41581364012E+03 -0.30319775645E+03  0.58833954898E+03  0.00000000000E+00 0. -1.
          3    1    6    6  503    0  0.47444178480E+02  0.94955018269E+02  0.25780210867E+03  0.27879980775E+03  0.00000000000E+00 0. -1.
         -3    1    6    6    0  503 -0.15831444746E+02 -0.12377110195E+02  0.91421720297E+02  0.93604265082E+02  0.00000000000E+00 0.  1.
<mgrwt>
<rscale>  0 0.22491162E+04</rscale>
<asrwt>0</asrwt>
<pdfrwt beam="1">  1        1 0.34884842E+00 0.22491162E+04</pdfrwt>
<pdfrwt beam="2">  1       -2 0.85802578E-01 0.22491162E+04</pdfrwt>
<totfact> 0.18428109E+00</totfact>
</mgrwt>
</event>
<event>
12    4  0.4280696E-008  0.1567726E+04  0.7818608E-02  0.8840624E-01
          1   -1    0    0  501    0  0.00000000000E+00  0.00000000000E+00  0.15115883544E+04  0.15115883544E+04  0.00000000000E+00 0. -1.
         -2   -1    0    0    0  501 -0.00000000000E+00 -0.00000000000E+00 -0.40648730430E+03  0.40648730430E+03  0.00000000000E+00 0.  1.
        -24    2    1    2    0    0 -0.11140717938E+03  0.38651977403E+03  0.77392257080E+03  0.87555089712E+03  0.76316004357E+02 0.  0.
        254    2    1    2    0    0  0.11140717938E+03 -0.38651977403E+03  0.33117847925E+03  0.10425247615E+04  0.90297818243E+03 0.  0.
         23    2    4    4    0    0 -0.27820548687E+03 -0.35379757646E+03 -0.82715516854E+02  0.46638024844E+03  0.89987006671E+02 0.  0.
         23    2    4    4    0    0  0.38961266625E+03 -0.32722197574E+02  0.41389399611E+03  0.57614451309E+03  0.88122006521E+02 0.  0.
          3    1    3    3  502    0 -0.24987030335E+02  0.17981346529E+03  0.28763904525E+03  0.34013740508E+03  0.00000000000E+00 0. -1.
         -4    1    3    3    0  502 -0.86420149043E+02  0.20670630874E+03  0.48628352555E+03  0.53541349204E+03  0.00000000000E+00 0.  1.
         11    1    5    5    0    0 -0.23724738425E+03 -0.29595544576E+03 -0.10227383629E+03  0.39285606117E+03  0.00000000000E+00 0.  1.
        -11    1    5    5    0    0 -0.40958102620E+02 -0.57842130700E+02  0.19558319434E+02  0.73524187267E+02  0.00000000000E+00 0. -1.
          3    1    6    6  503    0  0.19739417887E+02 -0.80544976464E+01  0.11185323552E+01  0.21348786042E+02  0.00000000000E+00 0. -1.
         -3    1    6    6    0  503  0.36987324836E+03 -0.24667699927E+02  0.41277546375E+03  0.55479572705E+03  0.00000000000E+00 0.  1.
<mgrwt>
<rscale>  0 0.15677263E+04</rscale>
<asrwt>0</asrwt>
<pdfrwt beam="1">  1        1 0.23255205E+00 0.15677263E+04</pdfrwt>
<pdfrwt beam="2">  1       -2 0.62536509E-01 0.15677263E+04</pdfrwt>
<totfact> 0.12857221E+01</totfact>
</mgrwt>
</event>
<event>
12    4  0.4280696E-008  0.1749351E+04  0.7818608E-02  0.8733707E-01
         -2   -1    0    0    0  501 -0.00000000000E+00  0.00000000000E+00  0.49300897954E+03  0.49300897954E+03  0.00000000000E+00 0.  1.
          1   -1    0    0  501    0  0.00000000000E+00 -0.00000000000E+00 -0.15518125240E+04  0.15518125240E+04  0.00000000000E+00 0. -1.
        -24    2    1    2    0    0 -0.26124149288E+03 -0.36202084751E+02 -0.10752218236E+04  0.11098055812E+04  0.77516125247E+02 0.  0.
        254    2    1    2    0    0  0.26124149288E+03  0.36202084751E+02  0.16418279152E+02  0.93501592228E+03  0.89689882734E+03 0.  0.
         23    2    4    4    0    0  0.47822652214E+02  0.37093930499E+03 -0.23983435083E+03  0.45359040835E+03  0.91327808797E+02 0.  0.
         23    2    4    4    0    0  0.21341884067E+03 -0.33473722023E+03  0.25625262998E+03  0.48142551393E+03  0.92241568314E+02 0.  0.
          3    1    3    3  502    0 -0.25954933959E+03 -0.40901089106E+02 -0.10722927677E+04  0.11040156423E+04  0.00000000000E+00 0. -1.
         -4    1    3    3    0  502 -0.16921532896E+01  0.46990043550E+01 -0.29290559218E+01  0.57899389700E+01  0.00000000000E+00 0.  1.
         11    1    5    5    0    0  0.44981735393E+01  0.16067271934E+02  0.80770730570E+01  0.18537257126E+02  0.00000000000E+00 0.  1.
        -11    1    5    5    0    0  0.43324478674E+02  0.35487203305E+03 -0.24791142389E+03  0.43505315122E+03  0.00000000000E+00 0. -1.
          3    1    6    6  503    0  0.26754049035E+02 -0.66604291407E+02  0.89175527047E+02  0.11447351396E+03  0.00000000000E+00 0. -1.
         -3    1    6    6    0  503  0.18666479163E+03 -0.26813292883E+03  0.16707710294E+03  0.36695199997E+03  0.00000000000E+00 0.  1.
<mgrwt>
<rscale>  0 0.17493513E+04</rscale>
<asrwt>0</asrwt>
<pdfrwt beam="1">  1        1 0.23874038E+00 0.17493513E+04</pdfrwt>
<pdfrwt beam="2">  1       -2 0.75847538E-01 0.17493513E+04</pdfrwt>
<totfact> 0.78017424E+00</totfact>
</mgrwt>
</event>
<event>
12    4  0.4280696E-008  0.1441007E+04  0.7818608E-02  0.8924659E-01
          1   -1    0    0  501    0  0.00000000000E+00  0.00000000000E+00  0.15586513942E+04  0.15586513942E+04  0.00000000000E+00 0. -1.
         -2   -1    0    0    0  501 -0.00000000000E+00 -0.00000000000E+00 -0.33306036355E+03  0.33306036355E+03  0.00000000000E+00 0.  1.
        -24    2    1    2    0    0 -0.15824086463E+03  0.35926155922E+03  0.12225028315E+03  0.41923228058E+03  0.81862898662E+02 0.  0.
        254    2    1    2    0    0  0.15824086463E+03 -0.35926155922E+03  0.11033407475E+04  0.14724794772E+04  0.89259507418E+03 0.  0.
         23    2    4    4    0    0 -0.32665367201E+03  0.37846790648E+02  0.41654063111E+03  0.53856887477E+03  0.91735132344E+02 0.  0.
         23    2    4    4    0    0  0.48489453664E+03 -0.39710834987E+03  0.68680011644E+03  0.93391060245E+03  0.87617693553E+02 0.  0.
          3    1    3    3  502    0  0.40334588111E+01  0.14363209222E+02  0.19325742063E+02  0.24414235098E+02  0.00000000000E+00 0. -1.
         -4    1    3    3    0  502 -0.16227432344E+03  0.34489835000E+03  0.10292454109E+03  0.39481804548E+03  0.00000000000E+00 0.  1.
         11    1    5    5    0    0 -0.26702396932E+03  0.39293978095E+02  0.38749146744E+03  0.47222394501E+03  0.00000000000E+00 0. -1.
        -11    1    5    5    0    0 -0.59629702691E+02 -0.14471874470E+01  0.29049163670E+02  0.66344929757E+02  0.00000000000E+00 0.  1.
          4    1    6    6  503    0  0.16441191836E+03 -0.86437529198E+02  0.22287841516E+03  0.29013361284E+03  0.00000000000E+00 0.  1.
         -4    1    6    6    0  503  0.32048261828E+03 -0.31067082067E+03  0.46392170128E+03  0.64377698961E+03  0.00000000000E+00 0. -1.
<mgrwt>
<rscale>  0 0.14410066E+04</rscale>
<asrwt>0</asrwt>
<pdfrwt beam="1">  1        1 0.23979252E+00 0.14410066E+04</pdfrwt>
<pdfrwt beam="2">  1       -2 0.51240057E-01 0.14410066E+04</pdfrwt>
<totfact> 0.18289328E+01</totfact>
</mgrwt>
</event>
<event>
12    4  0.4280696E-008  0.1387809E+04  0.7818608E-02  0.8962691E-01
          1   -1    0    0  501    0  0.00000000000E+00  0.00000000000E+00  0.81170137206E+03  0.81170137206E+03  0.00000000000E+00 0. -1.
         -2   -1    0    0    0  501 -0.00000000000E+00 -0.00000000000E+00 -0.59320229660E+03  0.59320229660E+03  0.00000000000E+00 0.  1.
        -24    2    1    2    0    0 -0.98134559071E+02  0.16754913635E+03  0.39874119830E+03  0.45064337100E+03  0.79886167941E+02 0.  0.
        254    2    1    2    0    0  0.98134559071E+02 -0.16754913635E+03 -0.18024212284E+03  0.95426029766E+03  0.91674554161E+03 0.  0.
         23    2    4    4    0    0  0.46419187721E+03 -0.25106338221E+03 -0.18840395753E+03  0.56756960278E+03  0.90179166289E+02 0.  0.
         23    2    4    4    0    0 -0.36605731814E+03  0.83514245864E+02  0.81618346879E+01  0.38669069487E+03  0.92143846940E+02 0.  0.
          1    1    3    3  502    0 -0.88434118735E+02  0.12752102651E+03  0.36758466533E+03  0.39899961371E+03  0.00000000000E+00 0. -1.
         -2    1    3    3    0  502 -0.97004403353E+01  0.40028109837E+02  0.31156532976E+02  0.51643757289E+02  0.00000000000E+00 0.  1.
         11    1    5    5    0    0  0.30071660682E+03 -0.12284163492E+03 -0.86482016604E+02  0.33615425638E+03  0.00000000000E+00 0.  1.
        -11    1    5    5    0    0  0.16347527039E+03 -0.12822174729E+03 -0.10192194092E+03  0.23141534640E+03  0.00000000000E+00 0. -1.
          1    1    6    6  503    0 -0.29012979554E+03  0.10341095914E+03  0.28764882824E+01  0.30802175072E+03  0.00000000000E+00 0. -1.
         -1    1    6    6    0  503 -0.75927522604E+02 -0.19896713280E+02  0.52853464055E+01  0.78668944157E+02  0.00000000000E+00 0.  1.
<mgrwt>
<rscale>  0 0.13878085E+04</rscale>
<asrwt>0</asrwt>
<pdfrwt beam="1">  1        1 0.12487713E+00 0.13878085E+04</pdfrwt>
<pdfrwt beam="2">  1       -2 0.91261892E-01 0.13878085E+04</pdfrwt>
<totfact> 0.18899427E+01</totfact>
</mgrwt>
</event>
<event>
12    4  0.4280696E-008  0.3703230E+04  0.7818608E-02  0.8067246E-01
          1   -1    0    0  501    0  0.00000000000E+00  0.00000000000E+00  0.21267303922E+04  0.21267303922E+04  0.00000000000E+00 0. -1.
         -2   -1    0    0    0  501 -0.00000000000E+00 -0.00000000000E+00 -0.16120885253E+04  0.16120885253E+04  0.00000000000E+00 0.  1.
        -24    2    1    2    0    0  0.50051536850E+03  0.12839197469E+04 -0.83146050268E+03  0.16113849520E+04  0.79179197784E+02 0.  0.
        254    2    1    2    0    0 -0.50051536850E+03 -0.12839197469E+04  0.13461023696E+04  0.21274339655E+04  0.90278354967E+03 0.  0.
         23    2    4    4    0    0 -0.17463051313E+03 -0.21673294693E+03  0.85707627655E+03  0.90574780264E+03  0.91270760794E+02 0.  0.
         23    2    4    4    0    0 -0.32588485537E+03 -0.10671868000E+04  0.48902609307E+03  0.12216861629E+04  0.91005251874E+02 0.  0.
          1    1    3    3  502    0  0.12886540843E+03  0.25325502326E+03 -0.15349214650E+03  0.32296166852E+03  0.00000000000E+00 0. -1.
         -2    1    3    3    0  502  0.37164996007E+03  0.10306647236E+04 -0.67796835618E+03  0.12884232835E+04  0.00000000000E+00 0.  1.
         11    1    5    5    0    0 -0.87170094141E+02 -0.17049134048E+03  0.61879694557E+03  0.64774654174E+03  0.00000000000E+00 0.  1.
        -11    1    5    5    0    0 -0.87460418992E+02 -0.46241606450E+02  0.23827933097E+03  0.25800126090E+03  0.00000000000E+00 0. -1.
          3    1    6    6  503    0 -0.15586754320E+03 -0.66215195703E+03  0.29363698741E+03  0.74092009394E+03  0.00000000000E+00 0. -1.
         -3    1    6    6    0  503 -0.17001731217E+03 -0.40503484293E+03  0.19538910566E+03  0.48076606893E+03  0.00000000000E+00 0.  1.
<mgrwt>
<rscale>  0 0.37032298E+04</rscale>
<asrwt>0</asrwt>
<pdfrwt beam="1">  1        1 0.32718929E+00 0.37032298E+04</pdfrwt>
<pdfrwt beam="2">  1       -2 0.24801362E+00 0.37032298E+04</pdfrwt>
<totfact> 0.11394747E-01</totfact>
</mgrwt>
</event>
<event>
12    4  0.4280696E-008  0.1343263E+04  0.7818608E-02  0.8995944E-01
          1   -1    0    0  501    0  0.00000000000E+00  0.00000000000E+00  0.35361432208E+04  0.35361432208E+04  0.00000000000E+00 0. -1.
         -2   -1    0    0    0  501 -0.00000000000E+00 -0.00000000000E+00 -0.12756517224E+03  0.12756517224E+03  0.00000000000E+00 0.  1.
        -24    2    1    2    0    0 -0.88896169021E+02  0.21253922979E+03  0.17666952188E+04  0.17834475018E+04  0.79984639566E+02 0.  0.
        254    2    1    2    0    0  0.88896169021E+02 -0.21253922979E+03  0.16418828297E+04  0.18802608912E+04  0.88686320214E+03 0.  0.
         23    2    4    4    0    0  0.34370541252E+03 -0.24465680727E+03  0.33642485244E+03  0.54690686345E+03  0.89079021152E+02 0.  0.
         23    2    4    4    0    0 -0.25480924350E+03  0.32117577478E+02  0.13054579773E+04  0.13333540277E+04  0.87482246481E+02 0.  0.
          1    1    3    3  502    0 -0.44752628758E+02  0.90252296405E+02  0.10694988059E+04  0.10742327357E+04  0.00000000000E+00 0. -1.
         -2    1    3    3    0  502 -0.44143540263E+02  0.12228693339E+03  0.69719641295E+03  0.70921476610E+03  0.00000000000E+00 0.  1.
         11    1    5    5    0    0  0.12949535418E+03 -0.57133650991E+02  0.15200889450E+03  0.20770172083E+03  0.00000000000E+00 0. -1.
        -11    1    5    5    0    0  0.21421005835E+03 -0.18752315628E+03  0.18441595795E+03  0.33920514263E+03  0.00000000000E+00 0.  1.
          1    1    6    6  503    0 -0.80978477716E+02 -0.27983492336E+02  0.34816070904E+03  0.35854772209E+03  0.00000000000E+00 0. -1.
         -1    1    6    6    0  503 -0.17383076579E+03  0.60101069813E+02  0.95729726826E+03  0.97480630566E+03  0.00000000000E+00 0.  1.
<mgrwt>
<rscale>  0 0.13432628E+04</rscale>
<asrwt>0</asrwt>
<pdfrwt beam="1">  1        1 0.54402196E+00 0.13432628E+04</pdfrwt>
<pdfrwt beam="2">  1       -2 0.19625414E-01 0.13432628E+04</pdfrwt>
<totfact> 0.45216256E+00</totfact>
</mgrwt>
</event>
<event>
12    4  0.4280696E-008  0.1905354E+04  0.7818608E-02  0.8652196E-01
          1   -1    0    0  501    0  0.00000000000E+00  0.00000000000E+00  0.16946075214E+04  0.16946075214E+04  0.00000000000E+00 0. -1.
         -2   -1    0    0    0  501 -0.00000000000E+00 -0.00000000000E+00 -0.53557711089E+03  0.53557711089E+03  0.00000000000E+00 0.  1.
        -24    2    1    2    0    0  0.48952170851E+03 -0.54751707499E+03  0.56869854224E+03  0.93223807635E+03  0.79014862839E+02 0.  0.
        254    2    1    2    0    0 -0.48952170851E+03  0.54751707499E+03  0.59033186832E+03  0.12979465560E+04  0.89261811371E+03 0.  0.
         23    2    4    4    0    0 -0.67485706526E+03  0.13998639478E+03  0.31706709565E+03  0.76530996962E+03  0.10069536835E+03 0.  0.
         23    2    4    4    0    0  0.18533535675E+03  0.40753068021E+03  0.27326477266E+03  0.53263658635E+03  0.92723499559E+02 0.  0.
          3    1    3    3  502    0  0.47828247052E+03 -0.51318110927E+03  0.52933890347E+03  0.87881092804E+03  0.00000000000E+00 0. -1.
         -4    1    3    3    0  502  0.11239237986E+02 -0.34335965712E+02  0.39359638774E+02  0.53427148308E+02  0.00000000000E+00 0.  1.
         11    1    5    5    0    0 -0.47172137057E+02 -0.11000171968E+02  0.39829666880E+02  0.62710578546E+02  0.00000000000E+00 0.  1.
        -11    1    5    5    0    0 -0.62768492820E+03  0.15098656675E+03  0.27723742877E+03  0.70259939108E+03  0.00000000000E+00 0. -1.
          3    1    6    6  503    0  0.16006378566E+03  0.38080669028E+03  0.27427208752E+03  0.49584204021E+03  0.00000000000E+00 0. -1.
         -3    1    6    6    0  503  0.25271571092E+02  0.26723989924E+02 -0.10073148552E+01  0.36794546147E+02  0.00000000000E+00 0.  1.
<mgrwt>
<rscale>  0 0.19053535E+04</rscale>
<asrwt>0</asrwt>
<pdfrwt beam="1">  1        1 0.26070885E+00 0.19053535E+04</pdfrwt>
<pdfrwt beam="2">  1       -2 0.82396479E-01 0.19053535E+04</pdfrwt>
<totfact> 0.51027678E+00</totfact>
</mgrwt>
</event>
<event>
12    4  0.4280696E-008  0.1449781E+04  0.7818608E-02  0.8918553E-01
         -4   -1    0    0    0  501 -0.00000000000E+00  0.00000000000E+00  0.45380233158E+03  0.45380233158E+03  0.00000000000E+00 0.  1.
          3   -1    0    0  501    0  0.00000000000E+00 -0.00000000000E+00 -0.11579181628E+04  0.11579181628E+04  0.00000000000E+00 0. -1.
        -24    2    1    2    0    0  0.43082767795E+03  0.82334619905E+02 -0.18549109046E+03  0.48274045056E+03  0.78993165795E+02 0.  0.
        254    2    1    2    0    0 -0.43082767795E+03 -0.82334619905E+02 -0.51862474074E+03  0.11289800438E+04  0.90179423367E+03 0.  0.
         23    2    4    4    0    0 -0.46235477716E+03  0.25569402613E+03 -0.56098707977E+03  0.77624805610E+03  0.93290760434E+02 0.  0.
         23    2    4    4    0    0  0.31527099206E+02 -0.33802864604E+03  0.42362339023E+02  0.35273198770E+03  0.85836844407E+02 0.  0.
          3    1    3    3  502    0  0.17194906853E+03  0.43114390581E+02 -0.11596891052E+03  0.21183512705E+03  0.00000000000E+00 0. -1.
         -4    1    3    3    0  502  0.25887860942E+03  0.39220229324E+02 -0.69522179938E+02  0.27090532351E+03  0.00000000000E+00 0.  1.
         11    1    5    5    0    0 -0.59253843941E+02  0.43073963276E+00 -0.56548703802E+02  0.81908238048E+02  0.00000000000E+00 0.  1.
        -11    1    5    5    0    0 -0.40310093321E+03  0.25526328650E+03 -0.50443837597E+03  0.69433981806E+03  0.00000000000E+00 0. -1.
          4    1    6    6  503    0  0.14507279237E+02 -0.28730566387E+03  0.54344345411E+01  0.28772302431E+03  0.00000000000E+00 0. -1.
         -4    1    6    6    0  503  0.17019819968E+02 -0.50722982166E+02  0.36927904482E+02  0.65008963390E+02  0.00000000000E+00 0.  1.
<mgrwt>
<rscale>  0 0.14497806E+04</rscale>
<asrwt>0</asrwt>
<pdfrwt beam="1">  1        3 0.17814125E+00 0.14497806E+04</pdfrwt>
<pdfrwt beam="2">  1       -4 0.69815744E-01 0.14497806E+04</pdfrwt>
<totfact> 0.85538852E-01</totfact>
</mgrwt>
</event>
<event>
12    4  0.4280696E-008  0.2325425E+04  0.7818608E-02  0.8467963E-01
         -2   -1    0    0    0  501 -0.00000000000E+00  0.00000000000E+00  0.94130140687E+03  0.94130140687E+03  0.00000000000E+00 0.  1.
          1   -1    0    0  501    0  0.00000000000E+00 -0.00000000000E+00 -0.14362030178E+04  0.14362030178E+04  0.00000000000E+00 0. -1.
        -24    2    1    2    0    0  0.81170568330E+03  0.40449358540E+03  0.18113666167E+03  0.92824916106E+03  0.79717237041E+02 0.  0.
        254    2    1    2    0    0 -0.81170568330E+03 -0.40449358540E+03 -0.67603827256E+03  0.14492552636E+04  0.90599773514E+03 0.  0.
         23    2    4    4    0    0  0.72394072610E+02 -0.69761765032E+02 -0.45388296062E+03  0.47383287099E+03  0.91652834520E+02 0.  0.
         23    2    4    4    0    0 -0.88409975591E+03 -0.33473182037E+03 -0.22215531193E+03  0.97542239258E+03  0.91750157240E+02 0.  0.
          1    1    3    3  502    0  0.45545204899E+03  0.21625210115E+03  0.61418012685E+02  0.50791112654E+03  0.00000000000E+00 0. -1.
         -2    1    3    3    0  502  0.35625363431E+03  0.18824148424E+03  0.11971864898E+03  0.42033803452E+03  0.00000000000E+00 0.  1.
         11    1    5    5    0    0  0.37889868278E+02 -0.34938426585E+02 -0.70510383817E+02  0.87338708465E+02  0.00000000000E+00 0. -1.
        -11    1    5    5    0    0  0.34504204331E+02 -0.34823338447E+02 -0.38337257681E+03  0.38649416252E+03  0.00000000000E+00 0.  1.
          1    1    6    6  503    0 -0.30708073144E+02 -0.31835164008E+02 -0.97716207480E+01  0.45298432596E+02  0.00000000000E+00 0. -1.
         -1    1    6    6    0  503 -0.85339168277E+03 -0.30289665636E+03 -0.21238369118E+03  0.93012395998E+03  0.00000000000E+00 0.  1.
<mgrwt>
<rscale>  0 0.23254246E+04</rscale>
<asrwt>0</asrwt>
<pdfrwt beam="1">  1        1 0.22095431E+00 0.23254246E+04</pdfrwt>
<pdfrwt beam="2">  1       -2 0.14481560E+00 0.23254246E+04</pdfrwt>
<totfact> 0.18863968E+00</totfact>
</mgrwt>
</event>
<event>
12    4  0.4280696E-008  0.1218515E+04  0.7818608E-02  0.9096803E-01
         -2   -1    0    0    0  501 -0.00000000000E+00  0.00000000000E+00  0.32810137014E+03  0.32810137014E+03  0.00000000000E+00 0.  1.
          1   -1    0    0  501    0  0.00000000000E+00 -0.00000000000E+00 -0.11313416801E+04  0.11313416801E+04  0.00000000000E+00 0. -1.
        -24    2    1    2    0    0  0.20733764286E+02  0.19634474688E+03  0.39155504429E+02  0.21635839035E+03  0.79351439422E+02 0.  0.
        254    2    1    2    0    0 -0.20733764286E+02 -0.19634474688E+03 -0.84239581442E+03  0.12430846599E+04  0.89255118339E+03 0.  0.
         23    2    4    4    0    0 -0.39454552935E+03 -0.16066003283E+03 -0.71261037902E+03  0.83525635945E+03  0.91442948465E+02 0.  0.
         23    2    4    4    0    0  0.37381176507E+03 -0.35684714047E+02 -0.12978543540E+03  0.40782830048E+03  0.92038192681E+02 0.  0.
          1    1    3    3  502    0  0.81339897006E+01 -0.58964236100E+01  0.41431449961E+00  0.10054912050E+02  0.00000000000E+00 0. -1.
         -2    1    3    3    0  502  0.12599774586E+02  0.20224117049E+03  0.38741189929E+02  0.20630347830E+03  0.00000000000E+00 0.  1.
         11    1    5    5    0    0 -0.45220177553E+02  0.10900345524E+02 -0.74311279640E+02  0.87668969837E+02  0.00000000000E+00 0. -1.
        -11    1    5    5    0    0 -0.34932535180E+03 -0.17156037836E+03 -0.63829909938E+03  0.74758738961E+03  0.00000000000E+00 0.  1.
          3    1    6    6  503    0  0.60600491598E+02 -0.39416382423E+02 -0.36593611334E+02  0.81025694540E+02  0.00000000000E+00 0. -1.
         -3    1    6    6    0  503  0.31321127347E+03  0.37316683760E+01 -0.93191824066E+02  0.32680260594E+03  0.00000000000E+00 0.  1.
<mgrwt>
<rscale>  0 0.12185151E+04</rscale>
<asrwt>0</asrwt>
<pdfrwt beam="1">  1        1 0.17405257E+00 0.12185151E+04</pdfrwt>
<pdfrwt beam="2">  1       -2 0.50477133E-01 0.12185151E+04</pdfrwt>
<totfact> 0.38632562E+01</totfact>
</mgrwt>
</event>
<event>
12    4  0.4280696E-008  0.1455081E+04  0.7818608E-02  0.8914885E-01
         -4   -1    0    0    0  501 -0.00000000000E+00  0.00000000000E+00  0.16112698238E+04  0.16112698238E+04  0.00000000000E+00 0.  1.
          3   -1    0    0  501    0  0.00000000000E+00 -0.00000000000E+00 -0.32850811414E+03  0.32850811414E+03  0.00000000000E+00 0. -1.
        -24    2    1    2    0    0  0.17543898242E+02 -0.12823333936E+03  0.97458293992E+03  0.98636329928E+03  0.79681074876E+02 0.  0.
        254    2    1    2    0    0 -0.17543898242E+02  0.12823333936E+03  0.30817876971E+03  0.95341463864E+03  0.89290186548E+03 0.  0.
         23    2    4    4    0    0  0.38799880319E+03  0.18917075471E+03  0.30213128711E+03  0.53328940534E+03  0.82374932358E+02 0.  0.
         23    2    4    4    0    0 -0.40554270143E+03 -0.60937415355E+02  0.60474825992E+01  0.42012523329E+03  0.91051569612E+02 0.  0.
          3    1    3    3  502    0  0.33597695736E+01 -0.71611829956E+02  0.26963359399E+03  0.27900146460E+03  0.00000000000E+00 0. -1.
         -2    1    3    3    0  502  0.14184128668E+02 -0.56621509402E+02  0.70494934593E+03  0.70736183468E+03  0.00000000000E+00 0.  1.
         11    1    5    5    0    0  0.37902030814E+03  0.19253170146E+03  0.30508171518E+03  0.52325873427E+03  0.00000000000E+00 0.  1.
        -11    1    5    5    0    0  0.89784950528E+01 -0.33609467444E+01 -0.29504280695E+01  0.10030671076E+02  0.00000000000E+00 0. -1.
          4    1    6    6  503    0 -0.27900984298E+03 -0.83882116724E+02  0.91759881464E+01  0.29149082446E+03  0.00000000000E+00 0.  1.
         -4    1    6    6    0  503 -0.12653285845E+03  0.22944701369E+02 -0.31285055472E+01  0.12863440883E+03  0.00000000000E+00 0. -1.
<mgrwt>
<rscale>  0 0.14550810E+04</rscale>
<asrwt>0</asrwt>
<pdfrwt beam="1">  1        3 0.50539711E-01 0.14550810E+04</pdfrwt>
<pdfrwt beam="2">  1       -4 0.24788766E+00 0.14550810E+04</pdfrwt>
<totfact> 0.56142384E-01</totfact>
</mgrwt>
</event>
<event>
12    4  0.4280696E-008  0.1227083E+04  0.7818608E-02  0.9089475E-01
         -2   -1    0    0    0  501 -0.00000000000E+00  0.00000000000E+00  0.16112536392E+03  0.16112536392E+03  0.00000000000E+00 0.  1.
          1   -1    0    0  501    0  0.00000000000E+00 -0.00000000000E+00 -0.23362763789E+04  0.23362763789E+04  0.00000000000E+00 0. -1.
        -24    2    1    2    0    0 -0.27527900612E+03 -0.11581529105E+03 -0.51278451849E+03  0.59876284003E+03  0.79857769484E+02 0.  0.
        254    2    1    2    0    0  0.27527900612E+03  0.11581529105E+03 -0.16623664965E+04  0.18986389028E+04  0.86728057840E+03 0.  0.
         23    2    4    4    0    0 -0.13580593348E+03  0.36145196249E+03 -0.49917585613E+03  0.63743934487E+03  0.89786470538E+02 0.  0.
         23    2    4    4    0    0  0.41108493960E+03 -0.24563667143E+03 -0.11631906404E+04  0.12611995579E+04  0.91014598524E+02 0.  0.
          1    1    3    3  502    0 -0.21457205694E+03 -0.95786791720E+02 -0.32992551492E+03  0.40505199973E+03  0.00000000000E+00 0. -1.
         -2    1    3    3    0  502 -0.60706949174E+02 -0.20028499332E+02 -0.18285900357E+03  0.19371084030E+03  0.00000000000E+00 0.  1.
         11    1    5    5    0    0 -0.11849449019E+03  0.31623059799E+03 -0.47634054595E+03  0.58390328911E+03  0.00000000000E+00 0.  1.
        -11    1    5    5    0    0 -0.17311443286E+02  0.45221364499E+02 -0.22835310174E+02  0.53536055762E+02  0.00000000000E+00 0. -1.
          4    1    6    6  503    0  0.19530121159E+03 -0.87811990051E+02 -0.61676847315E+03  0.65288349521E+03  0.00000000000E+00 0. -1.
         -4    1    6    6    0  503  0.21578372801E+03 -0.15782468138E+03 -0.54642216725E+03  0.60831606274E+03  0.00000000000E+00 0.  1.
<mgrwt>
<rscale>  0 0.12270833E+04</rscale>
<asrwt>0</asrwt>
<pdfrwt beam="1">  1        1 0.35942711E+00 0.12270833E+04</pdfrwt>
<pdfrwt beam="2">  1       -2 0.24788519E-01 0.12270833E+04</pdfrwt>
<totfact> 0.22299217E+01</totfact>
</mgrwt>
</event>
<event>
12    4  0.4280696E-008  0.1847725E+04  0.7818608E-02  0.8681324E-01
         -2   -1    0    0    0  501 -0.00000000000E+00  0.00000000000E+00  0.45529606736E+03  0.45529606736E+03  0.00000000000E+00 0.  1.
          1   -1    0    0  501    0  0.00000000000E+00 -0.00000000000E+00 -0.18746520132E+04  0.18746520132E+04  0.00000000000E+00 0. -1.
        -24    2    1    2    0    0  0.19807472612E+03  0.33457587249E+03  0.18854492010E+03  0.43939271431E+03  0.79637672698E+02 0.  0.
        254    2    1    2    0    0 -0.19807472612E+03 -0.33457587249E+03 -0.16079008660E+04  0.18905553663E+04  0.91524848351E+03 0.  0.
         23    2    4    4    0    0  0.32103329428E+03 -0.29197264576E+03 -0.53944385774E+03  0.69830332075E+03  0.91200055942E+02 0.  0.
         23    2    4    4    0    0 -0.51910802040E+03 -0.42603226734E+02 -0.10684570082E+04  0.11922520455E+04  0.92608800095E+02 0.  0.
          3    1    3    3  502    0  0.20000189903E+02  0.42682129232E+01  0.17838946213E+02  0.27137671965E+02  0.00000000000E+00 0. -1.
         -4    1    3    3    0  502  0.17807453622E+03  0.33030765957E+03  0.17070597389E+03  0.41225504235E+03  0.00000000000E+00 0.  1.
         11    1    5    5    0    0  0.15487684662E+03 -0.18382929530E+03 -0.24405000857E+03  0.34254992937E+03  0.00000000000E+00 0. -1.
        -11    1    5    5    0    0  0.16615644766E+03 -0.10814335046E+03 -0.29539384917E+03  0.35575339138E+03  0.00000000000E+00 0.  1.
          2    1    6    6  503    0 -0.25921313059E+03 -0.27466980361E+02 -0.63798009558E+03  0.68917667142E+03  0.00000000000E+00 0. -1.
         -2    1    6    6    0  503 -0.25989488981E+03 -0.15136246373E+02 -0.43047691267E+03  0.50307537412E+03  0.00000000000E+00 0.  1.
<mgrwt>
<rscale>  0 0.18477248E+04</rscale>
<asrwt>0</asrwt>
<pdfrwt beam="1">  1        1 0.28840800E+00 0.18477248E+04</pdfrwt>
<pdfrwt beam="2">  1       -2 0.70045550E-01 0.18477248E+04</pdfrwt>
<totfact> 0.55521395E+00</totfact>
</mgrwt>
</event>
<event>
12    4  0.4280696E-008  0.1990645E+04  0.7818608E-02  0.8611007E-01
         -2   -1    0    0    0  501 -0.00000000000E+00  0.00000000000E+00  0.49479532751E+03  0.49479532751E+03  0.00000000000E+00 0.  1.
          1   -1    0    0  501    0  0.00000000000E+00 -0.00000000000E+00 -0.20021747215E+04  0.20021747215E+04  0.00000000000E+00 0. -1.
        -24    2    1    2    0    0 -0.37511287837E+03  0.68611359886E+03 -0.73935509002E+03  0.10789632728E+04  0.77809079439E+02 0.  0.
        254    2    1    2    0    0  0.37511287837E+03 -0.68611359886E+03 -0.76802430394E+03  0.14180067762E+04  0.89967791116E+03 0.  0.
         23    2    4    4    0    0  0.51897963162E+03 -0.34506593379E+03 -0.81918037146E+03  0.10333255686E+04  0.91076303120E+02 0.  0.
         23    2    4    4    0    0 -0.14386675325E+03 -0.34104766507E+03  0.51156067519E+02  0.38468120761E+03  0.91386737059E+02 0.  0.
          1    1    3    3  502    0 -0.34636610726E+03  0.64406544161E+03 -0.71406377728E+03  0.10220943456E+04  0.00000000000E+00 0. -1.
         -2    1    3    3    0  502 -0.28746771115E+02  0.42048157250E+02 -0.25291312741E+02  0.56868927173E+02  0.00000000000E+00 0.  1.
         11    1    5    5    0    0  0.19743864517E+03 -0.10351566254E+03 -0.23317999624E+03  0.32259947558E+03  0.00000000000E+00 0. -1.
        -11    1    5    5    0    0  0.32154098645E+03 -0.24155027125E+03 -0.58600037522E+03  0.71072609299E+03  0.00000000000E+00 0.  1.
          4    1    6    6  503    0 -0.18895551589E+02 -0.45903789537E+02  0.40377123759E+02  0.63988373059E+02  0.00000000000E+00 0. -1.
         -4    1    6    6    0  503 -0.12497120166E+03 -0.29514387553E+03  0.10778943760E+02  0.32069283455E+03  0.00000000000E+00 0.  1.
<mgrwt>
<rscale>  0 0.19906448E+04</rscale>
<asrwt>0</asrwt>
<pdfrwt beam="1">  1        1 0.30802688E+00 0.19906448E+04</pdfrwt>
<pdfrwt beam="2">  1       -2 0.76122358E-01 0.19906448E+04</pdfrwt>
<totfact> 0.37409451E+00</totfact>
</mgrwt>
</event>
<event>
12    4  0.4280696E-008  0.1323949E+04  0.7818608E-02  0.9010786E-01
         -2   -1    0    0    0  501 -0.00000000000E+00  0.00000000000E+00  0.30848716955E+03  0.30848716955E+03  0.00000000000E+00 0.  1.
          1   -1    0    0  501    0  0.00000000000E+00 -0.00000000000E+00 -0.14205140094E+04  0.14205140094E+04  0.00000000000E+00 0. -1.
        -24    2    1    2    0    0  0.83521386288E+02 -0.23858780379E+03 -0.61330714758E+03  0.66816693265E+03  0.80008940272E+02 0.  0.
        254    2    1    2    0    0 -0.83521386288E+02  0.23858780379E+03 -0.49871969232E+03  0.10608342463E+04  0.90152537659E+03 0.  0.
         23    2    4    4    0    0 -0.24408799941E+03 -0.24251067226E+02  0.17271500436E+03  0.31561024807E+03  0.98042287986E+02 0.  0.
         23    2    4    4    0    0  0.16056661313E+03  0.26283887102E+03 -0.67143469668E+03  0.74522399828E+03  0.98327749585E+02 0.  0.
          3    1    3    3  502    0  0.58896790495E+02 -0.66188939004E+02 -0.16618732277E+03  0.18832958830E+03  0.00000000000E+00 0. -1.
         -2    1    3    3    0  502  0.24624595793E+02 -0.17239886479E+03 -0.44711982481E+03  0.47983734436E+03  0.00000000000E+00 0.  1.
         11    1    5    5    0    0 -0.19413577466E+03 -0.58495144653E+02  0.12211175620E+03  0.23668895613E+03  0.00000000000E+00 0. -1.
        -11    1    5    5    0    0 -0.49952224754E+02  0.34244077427E+02  0.50603248162E+02  0.78921291939E+02  0.00000000000E+00 0.  1.
          4    1    6    6  503    0  0.15546965328E+03  0.27167402513E+03 -0.65335379419E+03  0.72446447077E+03  0.00000000000E+00 0. -1.
         -4    1    6    6    0  503  0.50969598508E+01 -0.88351541076E+01 -0.18080902486E+02  0.20759527512E+02  0.00000000000E+00 0.  1.
<mgrwt>
<rscale>  0 0.13239492E+04</rscale>
<asrwt>0</asrwt>
<pdfrwt beam="1">  1        1 0.21854061E+00 0.13239492E+04</pdfrwt>
<pdfrwt beam="2">  1       -2 0.47459565E-01 0.13239492E+04</pdfrwt>
<totfact> 0.26905596E+01</totfact>
</mgrwt>
</event>
<event>
12    4  0.4280696E-008  0.1675188E+04  0.7818608E-02  0.8775643E-01
         -2   -1    0    0    0  501 -0.00000000000E+00  0.00000000000E+00  0.37521993446E+03  0.37521993446E+03  0.00000000000E+00 0.  1.
          1   -1    0    0  501    0  0.00000000000E+00 -0.00000000000E+00 -0.18697409145E+04  0.18697409145E+04  0.00000000000E+00 0. -1.
        -24    2    1    2    0    0 -0.13672810014E+03 -0.42493512038E+03 -0.19530185869E+02  0.45403522900E+03  0.80635793011E+02 0.  0.
        254    2    1    2    0    0  0.13672810014E+03  0.42493512038E+03 -0.14749907942E+04  0.17909256200E+04  0.91244304120E+03 0.  0.
         23    2    4    4    0    0  0.56671288705E+02  0.53510395782E+03 -0.33767606185E+03  0.64184666588E+03  0.91619534642E+02 0.  0.
         23    2    4    4    0    0  0.80056811435E+02 -0.11016883743E+03 -0.11373147323E+04  0.11490789541E+04  0.91385866174E+02 0.  0.
          1    1    3    3  502    0 -0.26996314702E+02 -0.58547749823E+02 -0.30694062064E+02  0.71405640273E+02  0.00000000000E+00 0. -1.
         -2    1    3    3    0  502 -0.10973178544E+03 -0.36638737056E+03  0.11163876195E+02  0.38262958873E+03  0.00000000000E+00 0.  1.
         11    1    5    5    0    0  0.70073415592E+02  0.31995535543E+03 -0.17188931380E+03  0.36990221578E+03  0.00000000000E+00 0.  1.
        -11    1    5    5    0    0 -0.13402126888E+02  0.21514860239E+03 -0.16578674805E+03  0.27194445010E+03  0.00000000000E+00 0. -1.
          1    1    6    6  503    0  0.89132813082E+02 -0.11250742465E+03 -0.88288584832E+03  0.89447750119E+03  0.00000000000E+00 0. -1.
         -1    1    6    6    0  503 -0.90760016472E+01  0.23385872118E+01 -0.25442888401E+03  0.25460145290E+03  0.00000000000E+00 0.  1.
<mgrwt>
<rscale>  0 0.16751884E+04</rscale>
<asrwt>0</asrwt>
<pdfrwt beam="1">  1        1 0.28765244E+00 0.16751884E+04</pdfrwt>
<pdfrwt beam="2">  1       -2 0.57726145E-01 0.16751884E+04</pdfrwt>
<totfact> 0.85934451E+00</totfact>
</mgrwt>
</event>
<event>
12    4  0.4280696E-008  0.1666561E+04  0.7818608E-02  0.8780669E-01
          1   -1    0    0  501    0  0.00000000000E+00  0.00000000000E+00  0.17355403854E+04  0.17355403854E+04  0.00000000000E+00 0. -1.
         -2   -1    0    0    0  501 -0.00000000000E+00 -0.00000000000E+00 -0.40008103284E+03  0.40008103284E+03  0.00000000000E+00 0.  1.
        -24    2    1    2    0    0 -0.16685060786E+03 -0.50582473965E+02  0.11869276077E+04  0.12023273129E+04  0.79975680031E+02 0.  0.
        254    2    1    2    0    0  0.16685060786E+03  0.50582473965E+02  0.14853174481E+03  0.93329410530E+03  0.90475327894E+03 0.  0.
         23    2    4    4    0    0 -0.36561288148E+03  0.73788851385E+01  0.76505972318E+02  0.38673121050E+03  0.99903144734E+02 0.  0.
         23    2    4    4    0    0  0.53246348934E+03  0.43203588827E+02  0.72025772492E+02  0.54656289480E+03  0.90329222868E+02 0.  0.
          1    1    3    3  502    0 -0.11468725690E+03 -0.19338441612E+02  0.97298919214E+03  0.97991586897E+03  0.00000000000E+00 0. -1.
         -2    1    3    3    0  502 -0.52163350956E+02 -0.31244032353E+02  0.21393841558E+03  0.22241144396E+03  0.00000000000E+00 0.  1.
         11    1    5    5    0    0 -0.36728725016E+03  0.17537331591E+02  0.79092392964E+02  0.37611579169E+03  0.00000000000E+00 0.  1.
        -11    1    5    5    0    0  0.16743686875E+01 -0.10158446452E+02 -0.25864206451E+01  0.10615418813E+02  0.00000000000E+00 0. -1.
          1    1    6    6  503    0  0.33771278553E+02  0.21210569779E+02 -0.89211973513E+01  0.40865331121E+02  0.00000000000E+00 0. -1.
         -1    1    6    6    0  503  0.49869221078E+03  0.21993019048E+02  0.80946969843E+02  0.50569756368E+03  0.00000000000E+00 0.  1.
<mgrwt>
<rscale>  0 0.16665615E+04</rscale>
<asrwt>0</asrwt>
<pdfrwt beam="1">  1        1 0.26700621E+00 0.16665615E+04</pdfrwt>
<pdfrwt beam="2">  1       -2 0.61550929E-01 0.16665615E+04</pdfrwt>
<totfact> 0.92626902E+00</totfact>
</mgrwt>
</event>
<event>
12    4  0.4280696E-008  0.1475102E+04  0.7818608E-02  0.8901181E-01
         -2   -1    0    0    0  501 -0.00000000000E+00  0.00000000000E+00  0.95527360511E+03  0.95527360511E+03  0.00000000000E+00 0.  1.
          3   -1    0    0  501    0  0.00000000000E+00 -0.00000000000E+00 -0.56945087940E+03  0.56945087940E+03  0.00000000000E+00 0. -1.
        -24    2    1    2    0    0 -0.53555305481E+02  0.15526401615E+03 -0.32146353830E+03  0.36936384550E+03  0.78203314828E+02 0.  0.
        254    2    1    2    0    0  0.53555305481E+02 -0.15526401615E+03  0.70728626401E+03  0.11553606390E+04  0.89868195789E+03 0.  0.
         23    2    4    4    0    0  0.45705388504E+03 -0.81315847103E+02  0.25409493990E+03  0.53711900024E+03  0.91771788224E+02 0.  0.
         23    2    4    4    0    0 -0.40349857956E+03 -0.73948169044E+02  0.45319132411E+03  0.61824163876E+03  0.92525197891E+02 0.  0.
          3    1    3    3  502    0 -0.66464207328E+02  0.13861937501E+03 -0.30836284088E+03  0.34455836025E+03  0.00000000000E+00 0. -1.
         -4    1    3    3    0  502  0.12908901846E+02  0.16644641139E+02 -0.13100697422E+02  0.24805485250E+02  0.00000000000E+00 0.  1.
         11    1    5    5    0    0  0.46158444124E+03 -0.79913759815E+02  0.25102601201E+03  0.53147009710E+03  0.00000000000E+00 0.  1.
        -11    1    5    5    0    0 -0.45305562028E+01 -0.14020872889E+01  0.30689278988E+01  0.56489031431E+01  0.00000000000E+00 0. -1.
          1    1    6    6  503    0 -0.15741947622E+02  0.65919854387E+01  0.51065434750E+02  0.53841822157E+02  0.00000000000E+00 0. -1.
         -1    1    6    6    0  503 -0.38775663194E+03 -0.80540154483E+02  0.40212588936E+03  0.56439981661E+03  0.00000000000E+00 0.  1.
<mgrwt>
<rscale>  0 0.14751019E+04</rscale>
<asrwt>0</asrwt>
<pdfrwt beam="1">  1        3 0.87607828E-01 0.14751019E+04</pdfrwt>
<pdfrwt beam="2">  1       -2 0.14696517E+00 0.14751019E+04</pdfrwt>
<totfact> 0.15129027E+00</totfact>
</mgrwt>
</event>
<event>
12    4  0.4280696E-008  0.1006963E+04  0.7818608E-02  0.9300941E-01
         -2   -1    0    0    0  501 -0.00000000000E+00  0.00000000000E+00  0.72608113847E+03  0.72608113847E+03  0.00000000000E+00 0.  1.
          1   -1    0    0  501    0  0.00000000000E+00 -0.00000000000E+00 -0.34912569608E+03  0.34912569608E+03  0.00000000000E+00 0. -1.
        -24    2    1    2    0    0 -0.42696552666E+02  0.20462070083E+01 -0.24688603058E+02  0.94545889706E+02  0.80636316673E+02 0.  0.
        254    2    1    2    0    0  0.42696552666E+02 -0.20462070083E+01  0.40164404546E+03  0.98066094485E+03  0.89361667785E+03 0.  0.
         23    2    4    4    0    0 -0.60727473644E+02  0.41274410840E+03  0.32619392950E+03  0.53713538865E+03  0.89813256392E+02 0.  0.
         23    2    4    4    0    0  0.10342402631E+03 -0.41479031541E+03  0.75450115956E+02  0.44352555620E+03  0.90965180318E+02 0.  0.
          1    1    3    3  502    0 -0.39190747394E+02 -0.23505982825E+02 -0.43131065273E+02  0.62838958469E+02  0.00000000000E+00 0. -1.
         -2    1    3    3    0  502 -0.35058052722E+01  0.25552189833E+02  0.18442462215E+02  0.31706931237E+02  0.00000000000E+00 0.  1.
         11    1    5    5    0    0 -0.16290614392E+02  0.33026653398E+03  0.27677130344E+03  0.43121192237E+03  0.00000000000E+00 0.  1.
        -11    1    5    5    0    0 -0.44436859252E+02  0.82477574420E+02  0.49422626055E+02  0.10592346628E+03  0.00000000000E+00 0. -1.
          4    1    6    6  503    0  0.79927348831E+02 -0.29276086210E+03  0.94398747706E+02  0.31781822956E+03  0.00000000000E+00 0. -1.
         -4    1    6    6    0  503  0.23496677479E+02 -0.12202945330E+03 -0.18948631750E+02  0.12570732664E+03  0.00000000000E+00 0.  1.
<mgrwt>
<rscale>  0 0.10069629E+04</rscale>
<asrwt>0</asrwt>
<pdfrwt beam="1">  1        1 0.53711646E-01 0.10069629E+04</pdfrwt>
<pdfrwt beam="2">  1       -2 0.11170479E+00 0.10069629E+04</pdfrwt>
<totfact> 0.39793137E+01</totfact>
</mgrwt>
</event>
<event>
12    4  0.4280696E-008  0.1708941E+04  0.7818608E-02  0.8756282E-01
          1   -1    0    0  501    0  0.00000000000E+00  0.00000000000E+00  0.68889510705E+03  0.68889510705E+03  0.00000000000E+00 0. -1.
         -2   -1    0    0    0  501 -0.00000000000E+00 -0.00000000000E+00 -0.10598412712E+04  0.10598412712E+04  0.00000000000E+00 0.  1.
        -24    2    1    2    0    0 -0.15461760491E+03  0.50230697204E+03 -0.45561092793E+03  0.70005253437E+03  0.79204389508E+02 0.  0.
        254    2    1    2    0    0  0.15461760491E+03 -0.50230697204E+03  0.84664763819E+02  0.10486838439E+04  0.90352132472E+03 0.  0.
         23    2    4    4    0    0  0.21857469703E+03  0.65946353815E+02 -0.27383270340E+03  0.36774211105E+03  0.90144833633E+02 0.  0.
         23    2    4    4    0    0 -0.63957092122E+02 -0.56825332585E+03  0.35849746721E+03  0.68094173280E+03  0.90326394257E+02 0.  0.
          1    1    3    3  502    0 -0.51094793612E+02  0.18288162234E+03 -0.11623126410E+03  0.22263439195E+03  0.00000000000E+00 0. -1.
         -2    1    3    3    0  502 -0.10352281129E+03  0.31942534970E+03 -0.33937966383E+03  0.47741814242E+03  0.00000000000E+00 0.  1.
         11    1    5    5    0    0 -0.49240854531E+01  0.15523979628E+02 -0.20191289568E+02  0.25940869982E+02  0.00000000000E+00 0.  1.
        -11    1    5    5    0    0  0.22349878248E+03  0.50422374188E+02 -0.25364141383E+03  0.34180124107E+03  0.00000000000E+00 0. -1.
          3    1    6    6  503    0 -0.78149986808E+02 -0.43241644432E+03  0.30171277310E+03  0.53303095521E+03  0.00000000000E+00 0. -1.
         -3    1    6    6    0  503  0.14192894686E+02 -0.13583688153E+03  0.56784694117E+02  0.14791077760E+03  0.00000000000E+00 0.  1.
<mgrwt>
<rscale>  0 0.17089406E+04</rscale>
<asrwt>0</asrwt>
<pdfrwt beam="1">  1        1 0.10598386E+00 0.17089406E+04</pdfrwt>
<pdfrwt beam="2">  1       -2 0.16305250E+00 0.17089406E+04</pdfrwt>
<totfact> 0.55559437E+00</totfact>
</mgrwt>
</event>
<event>
12    4  0.4280696E-008  0.1550726E+04  0.7818608E-02  0.8851404E-01
          1   -1    0    0  501    0  0.00000000000E+00  0.00000000000E+00  0.75610144003E+03  0.75610144003E+03  0.00000000000E+00 0. -1.
         -2   -1    0    0    0  501 -0.00000000000E+00 -0.00000000000E+00 -0.79511473828E+03  0.79511473828E+03  0.00000000000E+00 0.  1.
        -24    2    1    2    0    0  0.32399431389E+00  0.33269779186E+03  0.37270311041E+03  0.50604365397E+03  0.80527296832E+02 0.  0.
        254    2    1    2    0    0 -0.32399431389E+00 -0.33269779186E+03 -0.41171640865E+03  0.10451725243E+04  0.90121433566E+03 0.  0.
         23    2    4    4    0    0  0.22469802250E+03  0.22744855957E+03 -0.24614106786E+03  0.41293042222E+03  0.87772773346E+02 0.  0.
         23    2    4    4    0    0 -0.22502201682E+03 -0.56014635143E+03 -0.16557534080E+03  0.63224210212E+03  0.88972125641E+02 0.  0.
          3    1    3    3  502    0  0.25740847807E+02  0.83827634053E+02  0.13484072402E+03  0.16084677283E+03  0.00000000000E+00 0. -1.
         -4    1    3    3    0  502 -0.25416853493E+02  0.24887015781E+03  0.23786238639E+03  0.34519688114E+03  0.00000000000E+00 0.  1.
         11    1    5    5    0    0  0.18641990143E+03  0.16359816315E+03 -0.14485186578E+03  0.28722604627E+03  0.00000000000E+00 0. -1.
        -11    1    5    5    0    0  0.38278121077E+02  0.63850396422E+02 -0.10128920208E+03  0.12570437595E+03  0.00000000000E+00 0.  1.
          2    1    6    6  503    0 -0.21245557511E+03 -0.52370761171E+03 -0.13028873357E+03  0.57998464467E+03  0.00000000000E+00 0. -1.
         -2    1    6    6    0  503 -0.12566441703E+02 -0.36438739722E+02 -0.35286607227E+02  0.52257457451E+02  0.00000000000E+00 0.  1.
<mgrwt>
<rscale>  0 0.15507255E+04</rscale>
<asrwt>0</asrwt>
<pdfrwt beam="1">  1        1 0.11632330E+00 0.15507255E+04</pdfrwt>
<pdfrwt beam="2">  1       -2 0.12232534E+00 0.15507255E+04</pdfrwt>
<totfact> 0.10326882E+01</totfact>
</mgrwt>
</event>
<event>
12    4  0.4280696E-008  0.2799612E+04  0.7818608E-02  0.8303389E-01
         -2   -1    0    0    0  501 -0.00000000000E+00  0.00000000000E+00  0.28357942981E+04  0.28357942981E+04  0.00000000000E+00 0.  1.
          1   -1    0    0  501    0  0.00000000000E+00 -0.00000000000E+00 -0.69097305775E+03  0.69097305775E+03  0.00000000000E+00 0. -1.
        -24    2    1    2    0    0  0.25424511949E+03  0.28058958232E+02  0.25293014668E+04  0.25433185097E+04  0.75334224685E+02 0.  0.
        254    2    1    2    0    0 -0.25424511949E+03 -0.28058958232E+02 -0.38448022646E+03  0.98344884624E+03  0.86828492024E+03 0.  0.
         23    2    4    4    0    0 -0.23952444446E+03 -0.31172590562E+03 -0.51795531145E+03  0.65669749113E+03  0.91808989038E+02 0.  0.
         23    2    4    4    0    0 -0.14720675030E+02  0.28366694739E+03  0.13347508499E+03  0.32675135511E+03  0.90924223609E+02 0.  0.
          1    1    3    3  502    0  0.48345823887E+02  0.34470412796E+02  0.46878618906E+03  0.47253150064E+03  0.00000000000E+00 0. -1.
         -4    1    3    3    0  502  0.20589929560E+03 -0.64114545643E+01  0.20605152778E+04  0.20707870090E+04  0.00000000000E+00 0.  1.
         11    1    5    5    0    0 -0.14927195741E+03 -0.20372848243E+03 -0.39999568566E+03  0.47305809407E+03  0.00000000000E+00 0.  1.
        -11    1    5    5    0    0 -0.90252487049E+02 -0.10799742319E+03 -0.11795962579E+03  0.18363939706E+03  0.00000000000E+00 0. -1.
          2    1    6    6  503    0  0.81117758839E+01  0.25542000785E+03  0.13752742931E+03  0.29020505704E+03  0.00000000000E+00 0.  1.
         -2    1    6    6    0  503 -0.22832450914E+02  0.28246939540E+02 -0.40523443254E+01  0.36546298070E+02  0.00000000000E+00 0. -1.
<mgrwt>
<rscale>  0 0.27996124E+04</rscale>
<asrwt>0</asrwt>
<pdfrwt beam="1">  1        1 0.10630355E+00 0.27996124E+04</pdfrwt>
<pdfrwt beam="2">  1       -2 0.43627604E+00 0.27996124E+04</pdfrwt>
<totfact> 0.90162132E-02</totfact>
</mgrwt>
</event>
<event>
12    4  0.4280696E-008  0.1551041E+04  0.7818608E-02  0.8851203E-01
         -2   -1    0    0    0  501 -0.00000000000E+00  0.00000000000E+00  0.70268030881E+03  0.70268030881E+03  0.00000000000E+00 0.  1.
          1   -1    0    0  501    0  0.00000000000E+00 -0.00000000000E+00 -0.85591104297E+03  0.85591104297E+03  0.00000000000E+00 0. -1.
        -24    2    1    2    0    0 -0.49426062066E+03  0.16624809085E+03 -0.22151124185E+01  0.52773628044E+03  0.81047431274E+02 0.  0.
        254    2    1    2    0    0  0.49426062066E+03 -0.16624809085E+03 -0.15101562175E+03  0.10308550713E+04  0.87631299845E+03 0.  0.
         23    2    4    4    0    0  0.15060950308E+03 -0.27620222642E+03  0.30128337473E+03  0.44482598819E+03  0.90153178420E+02 0.  0.
         23    2    4    4    0    0  0.34365111758E+03  0.10995413557E+03 -0.45229899648E+03  0.58602908315E+03  0.93111232092E+02 0.  0.
          1    1    3    3  502    0 -0.44408701667E+03  0.14893096232E+03  0.23029744212E+02  0.46896063697E+03  0.00000000000E+00 0. -1.
         -2    1    3    3    0  502 -0.50173603994E+02  0.17317128535E+02 -0.25244856630E+02  0.58775643465E+02  0.00000000000E+00 0.  1.
         11    1    5    5    0    0  0.24922448288E+02 -0.99272729880E+02  0.53695692377E+02  0.11558300354E+03  0.00000000000E+00 0.  1.
        -11    1    5    5    0    0  0.12568705479E+03 -0.17692949654E+03  0.24758768236E+03  0.32924298465E+03  0.00000000000E+00 0. -1.
          1    1    6    6  503    0  0.33637311277E+03  0.12044822905E+03 -0.44689379804E+03  0.57216144016E+03  0.00000000000E+00 0. -1.
         -1    1    6    6    0  503  0.72780048175E+01 -0.10494093483E+02 -0.54051984356E+01  0.13867642997E+02  0.00000000000E+00 0.  1.
<mgrwt>
<rscale>  0 0.15510407E+04</rscale>
<asrwt>0</asrwt>
<pdfrwt beam="1">  1        1 0.13167862E+00 0.15510407E+04</pdfrwt>
<pdfrwt beam="2">  1       -2 0.10810466E+00 0.15510407E+04</pdfrwt>
<totfact> 0.11452016E+01</totfact>
</mgrwt>
</event>
<event>
12    4  0.4280696E-008  0.1289637E+04  0.7818608E-02  0.9037823E-01
         -2   -1    0    0    0  501 -0.00000000000E+00  0.00000000000E+00  0.83069596754E+03  0.83069596754E+03  0.00000000000E+00 0.  1.
          1   -1    0    0  501    0  0.00000000000E+00 -0.00000000000E+00 -0.50053353619E+03  0.50053353619E+03  0.00000000000E+00 0. -1.
        -24    2    1    2    0    0  0.24734868725E+03 -0.21436192244E+03  0.14719315434E+03  0.36832588943E+03  0.82859696263E+02 0.  0.
        254    2    1    2    0    0 -0.24734868725E+03  0.21436192244E+03  0.18296927700E+03  0.96290361429E+03  0.88688962516E+03 0.  0.
         23    2    4    4    0    0  0.26867377741E+03  0.14130605191E+03  0.28295370242E+03  0.42491061431E+03  0.91286545918E+02 0.  0.
         23    2    4    4    0    0 -0.51602246465E+03  0.73055870533E+02 -0.99984425415E+02  0.53799299999E+03  0.88449072715E+02 0.  0.
          3    1    3    3  502    0  0.18498510301E+02 -0.16186492798E+02  0.40439608419E+02  0.47323982942E+02  0.00000000000E+00 0. -1.
         -4    1    3    3    0  502  0.22885017694E+03 -0.19817542964E+03  0.10675354592E+03  0.32100190649E+03  0.00000000000E+00 0.  1.
         11    1    5    5    0    0  0.11354818334E+03  0.10967958536E+03  0.15644987603E+03  0.22225967942E+03  0.00000000000E+00 0.  1.
        -11    1    5    5    0    0  0.15512559406E+03  0.31626466550E+02  0.12650382638E+03  0.20265093489E+03  0.00000000000E+00 0. -1.
          3    1    6    6  503    0 -0.86946808205E+01  0.39238626136E+01  0.10506213870E+02  0.14190655456E+02  0.00000000000E+00 0. -1.
         -3    1    6    6    0  503 -0.50732778383E+03  0.69132007919E+02 -0.11049063929E+03  0.52380234453E+03  0.00000000000E+00 0.  1.
<mgrwt>
<rscale>  0 0.12896375E+04</rscale>
<asrwt>0</asrwt>
<pdfrwt beam="1">  1        1 0.77005160E-01 0.12896375E+04</pdfrwt>
<pdfrwt beam="2">  1       -2 0.12779938E+00 0.12896375E+04</pdfrwt>
<totfact> 0.17248456E+01</totfact>
</mgrwt>
</event>
<event>
12    4  0.4280696E-008  0.1451712E+04  0.7818608E-02  0.8917214E-01
         -2   -1    0    0    0  501 -0.00000000000E+00  0.00000000000E+00  0.90655014092E+03  0.90655014092E+03  0.00000000000E+00 0.  1.
          1   -1    0    0  501    0  0.00000000000E+00 -0.00000000000E+00 -0.58117811651E+03  0.58117811651E+03  0.00000000000E+00 0. -1.
        -24    2    1    2    0    0 -0.15922385948E+03 -0.63355533174E+02  0.51455000906E+03  0.54836817075E+03  0.81115829850E+02 0.  0.
        254    2    1    2    0    0  0.15922385948E+03  0.63355533174E+02 -0.18917798465E+03  0.93936008669E+03  0.90401487907E+03 0.  0.
         23    2    4    4    0    0  0.11743672712E+03  0.19962779571E+03  0.31841935634E+03  0.40414251184E+03  0.91091391961E+02 0.  0.
         23    2    4    4    0    0  0.41787132362E+02 -0.13627226253E+03 -0.50759734099E+03  0.53521757485E+03  0.92122189940E+02 0.  0.
          1    1    3    3  502    0 -0.97476782038E+02 -0.22015383047E+02  0.18213326892E+03  0.20774726900E+03  0.00000000000E+00 0. -1.
         -2    1    3    3    0  502 -0.61747077447E+02 -0.41340150127E+02  0.33241674014E+03  0.34062090175E+03  0.00000000000E+00 0.  1.
         11    1    5    5    0    0  0.80195634825E+01  0.61745123808E+02  0.14140974368E+03  0.15451048288E+03  0.00000000000E+00 0.  1.
        -11    1    5    5    0    0  0.10941716364E+03  0.13788267190E+03  0.17700961266E+03  0.24963202896E+03  0.00000000000E+00 0. -1.
          1    1    6    6  503    0 -0.16307386124E+02 -0.92226398537E+02 -0.23330053343E+03  0.25139764980E+03  0.00000000000E+00 0. -1.
         -1    1    6    6    0  503  0.58094518486E+02 -0.44045863997E+02 -0.27429680756E+03  0.28381992504E+03  0.00000000000E+00 0.  1.
<mgrwt>
<rscale>  0 0.14517122E+04</rscale>
<asrwt>0</asrwt>
<pdfrwt beam="1">  1        1 0.89412018E-01 0.14517122E+04</pdfrwt>
<pdfrwt beam="2">  1       -2 0.13946925E+00 0.14517122E+04</pdfrwt>
<totfact> 0.11045700E+01</totfact>
</mgrwt>
</event>
<event>
12    4  0.4280696E-008  0.1735350E+04  0.7818608E-02  0.8741456E-01
          1   -1    0    0  501    0  0.00000000000E+00  0.00000000000E+00  0.35410702807E+03  0.35410702807E+03  0.00000000000E+00 0. -1.
         -2   -1    0    0    0  501 -0.00000000000E+00 -0.00000000000E+00 -0.21260798454E+04  0.21260798454E+04  0.00000000000E+00 0.  1.
        -24    2    1    2    0    0 -0.72428335064E+02  0.22197198615E+03  0.18866795452E+03  0.31054993600E+03  0.79550231509E+02 0.  0.
        254    2    1    2    0    0  0.72428335064E+02 -0.22197198615E+03 -0.19606407718E+04  0.21696369375E+04  0.89927458426E+03 0.  0.
         23    2    4    4    0    0  0.44437904996E+03 -0.22094203810E+02 -0.67466741098E+03  0.81330579692E+03  0.91265053425E+02 0.  0.
         23    2    4    4    0    0 -0.37195071489E+03 -0.19987778233E+03 -0.12859733608E+04  0.13563311405E+04  0.87225087140E+02 0.  0.
          1    1    3    3  502    0 -0.61920923177E+02  0.20985376686E+03  0.19521459642E+03  0.29322609510E+03  0.00000000000E+00 0. -1.
         -2    1    3    3    0  502 -0.10507411887E+02  0.12118219288E+02 -0.65466419036E+01  0.17323840898E+02  0.00000000000E+00 0.  1.
         11    1    5    5    0    0  0.36413678320E+02 -0.81319325671E+01 -0.21468049763E+02  0.43046038803E+02  0.00000000000E+00 0. -1.
        -11    1    5    5    0    0  0.40796537164E+03 -0.13962271243E+02 -0.65319936122E+03  0.77025975811E+03  0.00000000000E+00 0.  1.
          1    1    6    6  503    0 -0.17856004530E+03 -0.12286087851E+03 -0.77073194402E+03  0.80062863725E+03  0.00000000000E+00 0. -1.
         -1    1    6    6    0  503 -0.19339066959E+03 -0.77016903823E+02 -0.51524141682E+03  0.55570250329E+03  0.00000000000E+00 0.  1.
<mgrwt>
<rscale>  0 0.17353499E+04</rscale>
<asrwt>0</asrwt>
<pdfrwt beam="1">  1        1 0.54478005E-01 0.17353499E+04</pdfrwt>
<pdfrwt beam="2">  1       -2 0.32708920E+00 0.17353499E+04</pdfrwt>
<totfact> 0.12701379E+00</totfact>
</mgrwt>
</event>
<event>
12    4  0.4280696E-008  0.1464483E+04  0.7818608E-02  0.8908421E-01
         -2   -1    0    0    0  501 -0.00000000000E+00  0.00000000000E+00  0.35741528590E+03  0.35741528590E+03  0.00000000000E+00 0.  1.
          1   -1    0    0  501    0  0.00000000000E+00 -0.00000000000E+00 -0.15001539283E+04  0.15001539283E+04  0.00000000000E+00 0. -1.
        -24    2    1    2    0    0 -0.40769645548E+03  0.15911762889E+03 -0.48443062254E+03  0.65779226897E+03  0.80515970002E+02 0.  0.
        254    2    1    2    0    0  0.40769645548E+03 -0.15911762889E+03 -0.65830801988E+03  0.11997769453E+04  0.90253002703E+03 0.  0.
         23    2    4    4    0    0  0.71597541766E+02 -0.22649783164E+03 -0.78214435137E+03  0.82269102789E+03  0.92969162969E+02 0.  0.
         23    2    4    4    0    0  0.33609891371E+03  0.67380202742E+02  0.12383633149E+03  0.37708591736E+03  0.96725283968E+02 0.  0.
          3    1    3    3  502    0 -0.25706322386E+03  0.93206932650E+02 -0.24374895934E+03  0.36630941639E+03  0.00000000000E+00 0. -1.
         -4    1    3    3    0  502 -0.15063323161E+03  0.65910696243E+02 -0.24068166320E+03  0.29148285258E+03  0.00000000000E+00 0.  1.
         11    1    5    5    0    0  0.30357928409E+01 -0.14908505716E+03 -0.40319947039E+03  0.42988996642E+03  0.00000000000E+00 0. -1.
        -11    1    5    5    0    0  0.68561748925E+02 -0.77412774473E+02 -0.37894488098E+03  0.39280106147E+03  0.00000000000E+00 0.  1.
          2    1    6    6  503    0  0.90857984222E+02 -0.25731450100E+01  0.74070478114E+02  0.11725284687E+03  0.00000000000E+00 0.  1.
         -2    1    6    6    0  503  0.24524092949E+03  0.69953347752E+02  0.49765853378E+02  0.25983307049E+03  0.00000000000E+00 0. -1.
<mgrwt>
<rscale>  0 0.14644835E+04</rscale>
<asrwt>0</asrwt>
<pdfrwt beam="1">  1        1 0.23079292E+00 0.14644835E+04</pdfrwt>
<pdfrwt beam="2">  1       -2 0.54986966E-01 0.14644835E+04</pdfrwt>
<totfact> 0.17316290E+01</totfact>
</mgrwt>
</event>
<event>
12    4  0.4280696E-008  0.2746127E+04  0.7818608E-02  0.8320192E-01
          1   -1    0    0  501    0  0.00000000000E+00  0.00000000000E+00  0.20630520846E+04  0.20630520846E+04  0.00000000000E+00 0. -1.
         -2   -1    0    0    0  501 -0.00000000000E+00 -0.00000000000E+00 -0.91384203464E+03  0.91384203464E+03  0.00000000000E+00 0.  1.
        -24    2    1    2    0    0 -0.39978844533E+03  0.34595176121E+03 -0.68794408266E+03  0.87142295970E+03  0.81224945156E+02 0.  0.
        254    2    1    2    0    0  0.39978844533E+03 -0.34595176121E+03  0.18371541326E+04  0.21054711595E+04  0.88224717314E+03 0.  0.
         23    2    4    4    0    0  0.23117799728E+03  0.26492469728E+02  0.32333435205E+02  0.25260291039E+03  0.92831362853E+02 0.  0.
         23    2    4    4    0    0  0.16861044806E+03 -0.37244423094E+03  0.18048206974E+04  0.18528682492E+04  0.92729771402E+02 0.  0.
          1    1    3    3  502    0 -0.98008851511E+02  0.68329376011E+02 -0.10731783249E+03  0.16059811883E+03  0.00000000000E+00 0. -1.
         -2    1    3    3    0  502 -0.30177959382E+03  0.27762238520E+03 -0.58062625018E+03  0.71082484088E+03  0.00000000000E+00 0.  1.
         11    1    5    5    0    0  0.20056288487E+03  0.52970075638E+02  0.13275629576E+02  0.20786423945E+03  0.00000000000E+00 0.  1.
        -11    1    5    5    0    0  0.30615112405E+02 -0.26477605910E+02  0.19057805629E+02  0.44738670943E+02  0.00000000000E+00 0. -1.
          1    1    6    6  503    0  0.88586955567E+02 -0.16255124299E+03  0.62442006726E+03  0.65128409753E+03  0.00000000000E+00 0. -1.
         -1    1    6    6    0  503  0.80023492490E+02 -0.20989298795E+03  0.11804006302E+04  0.12015841516E+04  0.00000000000E+00 0.  1.
<mgrwt>
<rscale>  0 0.27461272E+04</rscale>
<asrwt>0</asrwt>
<pdfrwt beam="1">  1        1 0.31739263E+00 0.27461272E+04</pdfrwt>
<pdfrwt beam="2">  1       -2 0.14059108E+00 0.27461272E+04</pdfrwt>
<totfact> 0.73332526E-01</totfact>
</mgrwt>
</event>
<event>
12    4  0.4280696E-008  0.1498000E+04  0.7818608E-02  0.8885784E-01
         -2   -1    0    0    0  501 -0.00000000000E+00  0.00000000000E+00  0.39948195891E+03  0.39948195891E+03  0.00000000000E+00 0.  1.
          1   -1    0    0  501    0  0.00000000000E+00 -0.00000000000E+00 -0.14043208067E+04  0.14043208067E+04  0.00000000000E+00 0. -1.
        -24    2    1    2    0    0 -0.31920767462E+03 -0.15691788949E+03  0.43568000410E+02  0.36577254315E+03  0.73311793640E+02 0.  0.
        254    2    1    2    0    0  0.31920767462E+03  0.15691788949E+03 -0.10484068482E+04  0.14380302224E+04  0.91774573698E+03 0.  0.
         23    2    4    4    0    0 -0.22819776373E+03 -0.20638687168E+03 -0.32819996221E+03  0.45907192937E+03  0.91444305281E+02 0.  0.
         23    2    4    4    0    0  0.54740543835E+03  0.36330476117E+03 -0.72020688595E+03  0.97895829304E+03  0.89545058663E+02 0.  0.
          3    1    3    3  502    0 -0.49270913610E+02 -0.22404363824E+01 -0.93257579874E+01  0.50195739313E+02  0.00000000000E+00 0. -1.
         -4    1    3    3    0  502 -0.26993676101E+03 -0.15467745311E+03  0.52893758398E+02  0.31557680384E+03  0.00000000000E+00 0.  1.
         11    1    5    5    0    0 -0.83920872198E+02 -0.45759167001E+02 -0.53042147647E+02  0.10931643784E+03  0.00000000000E+00 0. -1.
        -11    1    5    5    0    0 -0.14427689154E+03 -0.16062770468E+03 -0.27515781457E+03  0.34975549153E+03  0.00000000000E+00 0.  1.
          1    1    6    6  503    0  0.40397864988E+03  0.25895602228E+03 -0.58065677560E+03  0.75327236912E+03  0.00000000000E+00 0. -1.
         -1    1    6    6    0  503  0.14342678847E+03  0.10434873889E+03 -0.13955011035E+03  0.22568592392E+03  0.00000000000E+00 0.  1.
<mgrwt>
<rscale>  0 0.14979998E+04</rscale>
<asrwt>0</asrwt>
<pdfrwt beam="1">  1        1 0.21604935E+00 0.14979998E+04</pdfrwt>
<pdfrwt beam="2">  1       -2 0.61458763E-01 0.14979998E+04</pdfrwt>
<totfact> 0.15938522E+01</totfact>
</mgrwt>
</event>
<event>
12    4  0.4280696E-008  0.2083385E+04  0.7818608E-02  0.8568598E-01
          1   -1    0    0  501    0  0.00000000000E+00  0.00000000000E+00  0.68137963471E+03  0.68137963471E+03  0.00000000000E+00 0. -1.
         -2   -1    0    0    0  501 -0.00000000000E+00 -0.00000000000E+00 -0.15925386149E+04  0.15925386149E+04  0.00000000000E+00 0.  1.
        -24    2    1    2    0    0  0.29891883999E+03 -0.44609532385E+03  0.34205859875E+03  0.64254066234E+03  0.86607776312E+02 0.  0.
        254    2    1    2    0    0 -0.29891883999E+03  0.44609532385E+03 -0.12532175790E+04  0.16313775873E+04  0.89581528300E+03 0.  0.
         23    2    4    4    0    0 -0.13200557464E+03  0.13131104339E+03 -0.12465893013E+04  0.12636797779E+04  0.90739369498E+02 0.  0.
         23    2    4    4    0    0 -0.16691326535E+03  0.31478428046E+03 -0.66282777092E+01  0.36769780942E+03  0.90601123662E+02 0.  0.
          1    1    3    3  502    0  0.30396375458E+03 -0.42947554562E+03  0.32655212728E+03  0.61925721652E+03  0.00000000000E+00 0. -1.
         -2    1    3    3    0  502 -0.50449145896E+01 -0.16619778234E+02  0.15506471470E+02  0.23283445819E+02  0.00000000000E+00 0.  1.
         11    1    5    5    0    0 -0.12940438823E+03  0.14425642548E+03 -0.11773835292E+04  0.11932256227E+04  0.00000000000E+00 0.  1.
        -11    1    5    5    0    0 -0.26011864070E+01 -0.12945382088E+02 -0.69205772082E+02  0.70454155148E+02  0.00000000000E+00 0. -1.
          2    1    6    6  503    0 -0.85117213067E+02  0.22217103269E+03 -0.36172329044E+02  0.24065191692E+03  0.00000000000E+00 0. -1.
         -2    1    6    6    0  503 -0.81796052287E+02  0.92613247773E+02  0.29544051334E+02  0.12704589250E+03  0.00000000000E+00 0.  1.
<mgrwt>
<rscale>  0 0.20833851E+04</rscale>
<asrwt>0</asrwt>
<pdfrwt beam="1">  1        1 0.10482764E+00 0.20833851E+04</pdfrwt>
<pdfrwt beam="2">  1       -2 0.24500594E+00 0.20833851E+04</pdfrwt>
<totfact> 0.15791276E+00</totfact>
</mgrwt>
</event>
<event>
12    4  0.4280696E-008  0.1111283E+04  0.7818608E-02  0.9194264E-01
         -2   -1    0    0    0  501 -0.00000000000E+00  0.00000000000E+00  0.45288404988E+03  0.45288404988E+03  0.00000000000E+00 0.  1.
          1   -1    0    0  501    0  0.00000000000E+00 -0.00000000000E+00 -0.68171444279E+03  0.68171444279E+03  0.00000000000E+00 0. -1.
        -24    2    1    2    0    0  0.59587816659E+02 -0.98964931371E+02  0.88396025843E+02  0.16568859645E+03  0.79335288957E+02 0.  0.
        254    2    1    2    0    0 -0.59587816659E+02  0.98964931371E+02 -0.31722641876E+03  0.96890989622E+03  0.90818996949E+03 0.  0.
         23    2    4    4    0    0 -0.26979509727E+03  0.52342881636E+02  0.23209866970E+03  0.37188081741E+03  0.94320613418E+02 0.  0.
         23    2    4    4    0    0  0.21020728061E+03  0.46622049734E+02 -0.54932508846E+03  0.59702907881E+03  0.91241173767E+02 0.  0.
          3    1    3    3  502    0  0.17949335561E+02 -0.28648436706E+02 -0.12326711029E+02  0.35984154535E+02  0.00000000000E+00 0. -1.
         -4    1    3    3    0  502  0.41638481098E+02 -0.70316494665E+02  0.10072273687E+03  0.12970444192E+03  0.00000000000E+00 0.  1.
         11    1    5    5    0    0 -0.18164012774E+03  0.34150497127E+02  0.94827990615E+02  0.20772996959E+03  0.00000000000E+00 0.  1.
        -11    1    5    5    0    0 -0.88154969526E+02  0.18192384510E+02  0.13727067908E+03  0.16415084782E+03  0.00000000000E+00 0. -1.
          2    1    6    6  503    0  0.85301913396E+02  0.65424284031E+02 -0.25769993040E+03  0.27922393790E+03  0.00000000000E+00 0. -1.
         -2    1    6    6    0  503  0.12490536721E+03 -0.18802234297E+02 -0.29162515806E+03  0.31780514090E+03  0.00000000000E+00 0.  1.
<mgrwt>
<rscale>  0 0.11112832E+04</rscale>
<asrwt>0</asrwt>
<pdfrwt beam="1">  1        1 0.10487914E+00 0.11112832E+04</pdfrwt>
<pdfrwt beam="2">  1       -2 0.69674469E-01 0.11112832E+04</pdfrwt>
<totfact> 0.46456107E+01</totfact>
</mgrwt>
</event>
<event>
12    4  0.4280696E-008  0.1484547E+04  0.7818608E-02  0.8894794E-01
         -2   -1    0    0    0  501 -0.00000000000E+00  0.00000000000E+00  0.62501686666E+03  0.62501686666E+03  0.00000000000E+00 0.  1.
          1   -1    0    0  501    0  0.00000000000E+00 -0.00000000000E+00 -0.88152821362E+03  0.88152821362E+03  0.00000000000E+00 0. -1.
        -24    2    1    2    0    0 -0.23273882964E+02  0.32321881028E+02  0.39129602847E+03  0.40178662956E+03  0.82058126810E+02 0.  0.
        254    2    1    2    0    0  0.23273882964E+02 -0.32321881028E+02 -0.64780737543E+03  0.11047584507E+04  0.89400808786E+03 0.  0.
         23    2    4    4    0    0  0.29719987549E+03 -0.34787898238E+03 -0.31182437466E+03  0.56064367953E+03  0.87973532328E+02 0.  0.
         23    2    4    4    0    0 -0.27392599253E+03  0.31555710135E+03 -0.33598300077E+03  0.54411477119E+03  0.92544982735E+02 0.  0.
          3    1    3    3  502    0 -0.20902056451E+01 -0.20710554725E+02  0.33344799433E+02  0.39308671891E+02  0.00000000000E+00 0. -1.
         -4    1    3    3    0  502 -0.21183677319E+02  0.53032435753E+02  0.35795122903E+03  0.36247795767E+03  0.00000000000E+00 0.  1.
         11    1    5    5    0    0  0.24802168823E+03 -0.30201395055E+03 -0.22542265076E+03  0.45115690800E+03  0.00000000000E+00 0. -1.
        -11    1    5    5    0    0  0.49178187261E+02 -0.45865031825E+02 -0.86401723899E+02  0.10948677153E+03  0.00000000000E+00 0.  1.
          1    1    6    6  503    0 -0.21495851631E+03  0.22760638706E+03 -0.29624789865E+03  0.43101583337E+03  0.00000000000E+00 0. -1.
         -1    1    6    6    0  503 -0.58967476218E+02  0.87950714289E+02 -0.39735102125E+02  0.11309893782E+03  0.00000000000E+00 0.  1.
<mgrwt>
<rscale>  0 0.14845471E+04</rscale>
<asrwt>0</asrwt>
<pdfrwt beam="1">  1        1 0.13561973E+00 0.14845471E+04</pdfrwt>
<pdfrwt beam="2">  1       -2 0.96156441E-01 0.14845471E+04</pdfrwt>
<totfact> 0.14492888E+01</totfact>
</mgrwt>
</event>
<event>
12    4  0.4280696E-008  0.3428116E+04  0.7818608E-02  0.8131040E-01
          1   -1    0    0  501    0  0.00000000000E+00  0.00000000000E+00  0.14051336180E+04  0.14051336180E+04  0.00000000000E+00 0. -1.
         -2   -1    0    0    0  501 -0.00000000000E+00 -0.00000000000E+00 -0.20909008506E+04  0.20909008506E+04  0.00000000000E+00 0.  1.
        -24    2    1    2    0    0 -0.15550973842E+04 -0.25952119455E+03 -0.57098372068E+02  0.15797293894E+04  0.81274809471E+02 0.  0.
        254    2    1    2    0    0  0.15550973842E+04  0.25952119455E+03 -0.62866886056E+03  0.19163050793E+04  0.88956253054E+03 0.  0.
         23    2    4    4    0    0  0.77473791091E+03  0.23487904455E+02 -0.75635853544E+03  0.10866154151E+04  0.88793659621E+02 0.  0.
         23    2    4    4    0    0  0.78035947331E+03  0.23603329010E+03  0.12768967488E+03  0.82968966414E+03  0.86067787762E+02 0.  0.
          3    1    3    3  502    0 -0.36922266810E+03 -0.29412242878E+02 -0.11441010979E+00  0.37039232141E+03  0.00000000000E+00 0. -1.
         -4    1    3    3    0  502 -0.11858747161E+04 -0.23010895168E+03 -0.56983961958E+02  0.12093370679E+04  0.00000000000E+00 0.  1.
         11    1    5    5    0    0  0.43189213297E+03 -0.30841211614E+02 -0.42577199599E+03  0.60725924235E+03  0.00000000000E+00 0.  1.
        -11    1    5    5    0    0  0.34284577794E+03  0.54329116069E+02 -0.33058653945E+03  0.47935617277E+03  0.00000000000E+00 0. -1.
          3    1    6    6  503    0  0.12607555462E+03  0.15060567732E+02 -0.21920387620E+01  0.12699083119E+03  0.00000000000E+00 0. -1.
         -3    1    6    6    0  503  0.65428391869E+03  0.22097272237E+03  0.12988171365E+03  0.70269883295E+03  0.00000000000E+00 0.  1.
<mgrwt>
<rscale>  0 0.34281161E+04</rscale>
<asrwt>0</asrwt>
<pdfrwt beam="1">  1        1 0.21617440E+00 0.34281161E+04</pdfrwt>
<pdfrwt beam="2">  1       -2 0.32167705E+00 0.34281161E+04</pdfrwt>
<totfact> 0.12836046E-01</totfact>
</mgrwt>
</event>
<event>
12    4  0.4280696E-008  0.1534817E+04  0.7818608E-02  0.8861624E-01
          1   -1    0    0  501    0  0.00000000000E+00  0.00000000000E+00  0.12211428425E+04  0.12211428425E+04  0.00000000000E+00 0. -1.
         -2   -1    0    0    0  501 -0.00000000000E+00 -0.00000000000E+00 -0.48226630891E+03  0.48226630891E+03  0.00000000000E+00 0.  1.
        -24    2    1    2    0    0  0.36986253536E+03 -0.21395448934E+03  0.54782954536E+03  0.69931974468E+03  0.79725002097E+02 0.  0.
        254    2    1    2    0    0 -0.36986253536E+03  0.21395448934E+03  0.19104698827E+03  0.10040894068E+04  0.88832525941E+03 0.  0.
         23    2    4    4    0    0 -0.63200739322E+03  0.23399485344E+03  0.24214923460E+03  0.72115333514E+03  0.85081986573E+02 0.  0.
         23    2    4    4    0    0  0.26214485786E+03 -0.20040364103E+02 -0.51102246330E+02  0.28293607164E+03  0.91213147968E+02 0.  0.
          1    1    3    3  502    0  0.29170087511E+03 -0.20375689745E+03  0.44587871478E+03  0.57045078849E+03  0.00000000000E+00 0. -1.
         -2    1    3    3    0  502  0.78161660248E+02 -0.10197591895E+02  0.10195083058E+03  0.12886895619E+03  0.00000000000E+00 0.  1.
         11    1    5    5    0    0 -0.53235810186E+03  0.16270245414E+03  0.20299186815E+03  0.59252251918E+03  0.00000000000E+00 0.  1.
        -11    1    5    5    0    0 -0.99649291363E+02  0.71292399301E+02  0.39157366451E+02  0.12863081596E+03  0.00000000000E+00 0. -1.
          3    1    6    6  503    0  0.66597716627E+02 -0.45130752513E+02 -0.23859193593E+02  0.83912465112E+02  0.00000000000E+00 0. -1.
         -3    1    6    6    0  503  0.19554714123E+03  0.25090388410E+02 -0.27243052737E+02  0.19902360653E+03  0.00000000000E+00 0.  1.
<mgrwt>
<rscale>  0 0.15348173E+04</rscale>
<asrwt>0</asrwt>
<pdfrwt beam="1">  1        1 0.18786813E+00 0.15348173E+04</pdfrwt>
<pdfrwt beam="2">  1       -2 0.74194817E-01 0.15348173E+04</pdfrwt>
<totfact> 0.14269739E+01</totfact>
</mgrwt>
</event>
<event>
12    4  0.4280696E-008  0.1371519E+04  0.7818608E-02  0.8974697E-01
          1   -1    0    0  501    0  0.00000000000E+00  0.00000000000E+00  0.17155861569E+04  0.17155861569E+04  0.00000000000E+00 0. -1.
         -2   -1    0    0    0  501 -0.00000000000E+00 -0.00000000000E+00 -0.27411390496E+03  0.27411390496E+03  0.00000000000E+00 0.  1.
        -24    2    1    2    0    0 -0.15502432831E+03 -0.35017495665E+03  0.44211802172E+03  0.59030912862E+03  0.79633407317E+02 0.  0.
        254    2    1    2    0    0  0.15502432831E+03  0.35017495665E+03  0.99935423023E+03  0.13993909333E+04  0.90162689842E+03 0.  0.
         23    2    4    4    0    0  0.67820550213E+02 -0.14668242322E+03  0.84405319061E+03  0.86408922977E+03  0.90050253298E+02 0.  0.
         23    2    4    4    0    0  0.87203778101E+02  0.49685737987E+03  0.15530103962E+03  0.53530170348E+03  0.89206199325E+02 0.  0.
          3    1    3    3  502    0 -0.12148508411E+03 -0.29039148153E+03  0.40306289102E+03  0.51141522497E+03  0.00000000000E+00 0. -1.
         -4    1    3    3    0  502 -0.33539244207E+02 -0.59783475118E+02  0.39055130700E+02  0.78893903650E+02  0.00000000000E+00 0.  1.
         11    1    5    5    0    0  0.26977422777E+02 -0.11085858616E+03  0.37698190115E+03  0.39386896458E+03  0.00000000000E+00 0. -1.
        -11    1    5    5    0    0  0.40843127436E+02 -0.35823837057E+02  0.46707128945E+03  0.47022026519E+03  0.00000000000E+00 0.  1.
          3    1    6    6  503    0  0.60893942571E+02  0.26432367483E+03  0.12723901000E+03  0.29960781529E+03  0.00000000000E+00 0. -1.
         -3    1    6    6    0  503  0.26309835530E+02  0.23253370504E+03  0.28062029626E+02  0.23569388820E+03  0.00000000000E+00 0.  1.
<mgrwt>
<rscale>  0 0.13715189E+04</rscale>
<asrwt>0</asrwt>
<pdfrwt beam="1">  1        1 0.26393632E+00 0.13715189E+04</pdfrwt>
<pdfrwt beam="2">  1       -2 0.42171371E-01 0.13715189E+04</pdfrwt>
<totfact> 0.21262197E+01</totfact>
</mgrwt>
</event>
<event>
12    4  0.4280696E-008  0.1247054E+04  0.7818608E-02  0.9072638E-01
          1   -1    0    0  501    0  0.00000000000E+00  0.00000000000E+00  0.11601338150E+04  0.11601338150E+04  0.00000000000E+00 0. -1.
         -2   -1    0    0    0  501 -0.00000000000E+00 -0.00000000000E+00 -0.33512180915E+03  0.33512180915E+03  0.00000000000E+00 0.  1.
        -24    2    1    2    0    0  0.23150775288E+03 -0.14701421124E+03  0.32810415317E+03  0.43496278814E+03  0.79569301765E+02 0.  0.
        254    2    1    2    0    0 -0.23150775288E+03  0.14701421124E+03  0.49690785265E+03  0.10602928360E+04  0.89559726777E+03 0.  0.
         23    2    4    4    0    0  0.24122251420E+03 -0.83358911428E+02  0.45037926226E+03  0.52494335196E+03  0.87103578708E+02 0.  0.
         23    2    4    4    0    0 -0.47273026709E+03  0.23037312267E+03  0.46528590388E+02  0.53534948401E+03  0.88817111176E+02 0.  0.
          3    1    3    3  502    0  0.18867583416E+03 -0.12802729236E+03  0.30979895656E+03  0.38466212638E+03  0.00000000000E+00 0. -1.
         -4    1    3    3    0  502  0.42831918726E+02 -0.18986918882E+02  0.18305196611E+02  0.50300661759E+02  0.00000000000E+00 0.  1.
         11    1    5    5    0    0  0.15546053181E+03 -0.62214772191E+02  0.20834247112E+03  0.26729242432E+03  0.00000000000E+00 0. -1.
        -11    1    5    5    0    0  0.85761982398E+02 -0.21144139237E+02  0.24203679114E+03  0.25765092764E+03  0.00000000000E+00 0.  1.
          2    1    6    6  503    0 -0.39467029096E+03  0.19445664086E+03  0.71774691568E+02  0.44579101616E+03  0.00000000000E+00 0. -1.
         -2    1    6    6    0  503 -0.78059976122E+02  0.35916481813E+02 -0.25246101180E+02  0.89558467845E+02  0.00000000000E+00 0.  1.
<mgrwt>
<rscale>  0 0.12470544E+04</rscale>
<asrwt>0</asrwt>
<pdfrwt beam="1">  1        1 0.17848212E+00 0.12470544E+04</pdfrwt>
<pdfrwt beam="2">  1       -2 0.51557202E-01 0.12470544E+04</pdfrwt>
<totfact> 0.35141654E+01</totfact>
</mgrwt>
</event>
<event>
12    4  0.4280696E-008  0.1855328E+04  0.7818608E-02  0.8677417E-01
         -2   -1    0    0    0  501 -0.00000000000E+00  0.00000000000E+00  0.38677662398E+03  0.38677662398E+03  0.00000000000E+00 0.  1.
          1   -1    0    0  501    0  0.00000000000E+00 -0.00000000000E+00 -0.22249557218E+04  0.22249557218E+04  0.00000000000E+00 0. -1.
        -24    2    1    2    0    0 -0.52142883101E+03  0.22972521690E+03 -0.11943002803E+03  0.58761658627E+03  0.79799873257E+02 0.  0.
        254    2    1    2    0    0  0.52142883101E+03 -0.22972521690E+03 -0.17187490698E+04  0.20241157596E+04  0.90459081462E+03 0.  0.
         23    2    4    4    0    0  0.45471369358E+03 -0.23984947405E+03 -0.30305827477E+03  0.60368008420E+03  0.91065980590E+02 0.  0.
         23    2    4    4    0    0  0.66715137434E+02  0.10124257151E+02 -0.14156907951E+04  0.14204356754E+04  0.94359262456E+02 0.  0.
          3    1    3    3  502    0 -0.17493853162E+03  0.62837553515E+02 -0.34190469789E+01  0.18591325359E+03  0.00000000000E+00 0. -1.
         -4    1    3    3    0  502 -0.34649029939E+03  0.16688766339E+03 -0.11601098105E+03  0.40170333268E+03  0.00000000000E+00 0.  1.
         11    1    5    5    0    0  0.18211061311E+03 -0.10724001425E+03 -0.17582154514E+03  0.27491437175E+03  0.00000000000E+00 0.  1.
        -11    1    5    5    0    0  0.27260308047E+03 -0.13260945980E+03 -0.12723672963E+03  0.32876571245E+03  0.00000000000E+00 0. -1.
          4    1    6    6  503    0  0.80375002517E+02 -0.16515859745E+02 -0.84942056651E+03  0.85337460325E+03  0.00000000000E+00 0. -1.
         -4    1    6    6    0  503 -0.13659865083E+02  0.26640116896E+02 -0.56627022856E+03  0.56706107211E+03  0.00000000000E+00 0.  1.
<mgrwt>
<rscale>  0 0.18553284E+04</rscale>
<asrwt>0</asrwt>
<pdfrwt beam="1">  1        1 0.34230088E+00 0.18553284E+04</pdfrwt>
<pdfrwt beam="2">  1       -2 0.59504095E-01 0.18553284E+04</pdfrwt>
<totfact> 0.45554997E+00</totfact>
</mgrwt>
</event>
<event>
12    4  0.4280696E-008  0.2291358E+04  0.7818608E-02  0.8481336E-01
         -2   -1    0    0    0  501 -0.00000000000E+00  0.00000000000E+00  0.81235853186E+03  0.81235853186E+03  0.00000000000E+00 0.  1.
          1   -1    0    0  501    0  0.00000000000E+00 -0.00000000000E+00 -0.16157647423E+04  0.16157647423E+04  0.00000000000E+00 0. -1.
        -24    2    1    2    0    0  0.16998951569E+03  0.85501473478E+03  0.10414567758E+03  0.88154235999E+03  0.79523444066E+02 0.  0.
        254    2    1    2    0    0 -0.16998951569E+03 -0.85501473478E+03 -0.90755188805E+03  0.15465809142E+04  0.89906365878E+03 0.  0.
         23    2    4    4    0    0  0.16422146694E+03  0.11580263521E+03 -0.18723091364E+03  0.28914492022E+03  0.90390427243E+02 0.  0.
         23    2    4    4    0    0 -0.33421098263E+03 -0.97081736999E+03 -0.72032097440E+03  0.12574359940E+04  0.89997922331E+02 0.  0.
          3    1    3    3  502    0  0.17123053808E+01  0.15982005257E+02  0.13542628883E+02  0.21018070292E+02  0.00000000000E+00 0. -1.
         -4    1    3    3    0  502  0.16827721031E+03  0.83903272952E+03  0.90603048700E+02  0.86052428969E+03  0.00000000000E+00 0.  1.
         11    1    5    5    0    0  0.21902273219E+02  0.52545532402E+02 -0.86884160658E+02  0.10387299900E+03  0.00000000000E+00 0. -1.
        -11    1    5    5    0    0  0.14231919372E+03  0.63257102811E+02 -0.10034675299E+03  0.18527192122E+03  0.00000000000E+00 0.  1.
          3    1    6    6  503    0 -0.35133280201E+02 -0.84593685330E+02 -0.97142374605E+02  0.13351808836E+03  0.00000000000E+00 0. -1.
         -3    1    6    6    0  503 -0.29907770243E+03 -0.88622368466E+03 -0.62317859980E+03  0.11239179056E+04  0.00000000000E+00 0.  1.
<mgrwt>
<rscale>  0 0.22913579E+04</rscale>
<asrwt>0</asrwt>
<pdfrwt beam="1">  1        1 0.24857919E+00 0.22913579E+04</pdfrwt>
<pdfrwt beam="2">  1       -2 0.12497824E+00 0.22913579E+04</pdfrwt>
<totfact> 0.20738705E+00</totfact>
</mgrwt>
</event>
<event>
12    4  0.4280696E-008  0.1834451E+04  0.7818608E-02  0.8688191E-01
         -2   -1    0    0    0  501 -0.00000000000E+00  0.00000000000E+00  0.88659660674E+03  0.88659660674E+03  0.00000000000E+00 0.  1.
          1   -1    0    0  501    0  0.00000000000E+00 -0.00000000000E+00 -0.94891219990E+03  0.94891219990E+03  0.00000000000E+00 0. -1.
        -24    2    1    2    0    0 -0.46852948078E+03 -0.35770999878E+03  0.33749479406E+03  0.68390468894E+03  0.79665362260E+02 0.  0.
        254    2    1    2    0    0  0.46852948078E+03  0.35770999878E+03 -0.39981038722E+03  0.11516041177E+04  0.90491291326E+03 0.  0.
         23    2    4    4    0    0  0.16052074352E+03 -0.94592023043E+02  0.23187084161E+03  0.31084418307E+03  0.90252196839E+02 0.  0.
         23    2    4    4    0    0  0.30800873726E+03  0.45230202182E+03 -0.63168122883E+03  0.84075993463E+03  0.91703825687E+02 0.  0.
          3    1    3    3  502    0 -0.17157631500E+03 -0.93460933030E+02  0.13759386466E+03  0.23896746529E+03  0.00000000000E+00 0. -1.
         -4    1    3    3    0  502 -0.29695316578E+03 -0.26424906575E+03  0.19990092940E+03  0.44493722365E+03  0.00000000000E+00 0.  1.
         11    1    5    5    0    0  0.17566121000E+02 -0.49458364877E+02  0.91441921799E+02  0.10543397709E+03  0.00000000000E+00 0.  1.
        -11    1    5    5    0    0  0.14295462252E+03 -0.45133658166E+02  0.14042891982E+03  0.20541020598E+03  0.00000000000E+00 0. -1.
          2    1    6    6  503    0  0.10394388644E+02  0.29115248332E+01 -0.35219645858E+02  0.36836717369E+02  0.00000000000E+00 0. -1.
         -2    1    6    6    0  503  0.29761434862E+03  0.44939049699E+03 -0.59646158297E+03  0.80392321726E+03  0.00000000000E+00 0.  1.
<mgrwt>
<rscale>  0 0.18344507E+04</rscale>
<asrwt>0</asrwt>
<pdfrwt beam="1">  1        1 0.14598649E+00 0.18344507E+04</pdfrwt>
<pdfrwt beam="2">  1       -2 0.13639948E+00 0.18344507E+04</pdfrwt>
<totfact> 0.52616148E+00</totfact>
</mgrwt>
</event>
<event>
12    4  0.4280696E-008  0.2406440E+04  0.7818608E-02  0.8437097E-01
         -2   -1    0    0    0  501 -0.00000000000E+00  0.00000000000E+00  0.72262538183E+03  0.72262538183E+03  0.00000000000E+00 0.  1.
          1   -1    0    0  501    0  0.00000000000E+00 -0.00000000000E+00 -0.20034417844E+04  0.20034417844E+04  0.00000000000E+00 0. -1.
        -24    2    1    2    0    0 -0.10245218073E+04  0.14124440529E+03 -0.50278820285E+03  0.11527074895E+04  0.79647120642E+02 0.  0.
        254    2    1    2    0    0  0.10245218073E+04 -0.14124440529E+03 -0.77802819974E+03  0.15733596767E+04  0.89472782295E+03 0.  0.
         23    2    4    4    0    0  0.67991058289E+03 -0.20862432666E+03 -0.93365524098E+03  0.11772871491E+04  0.92143431253E+02 0.  0.
         23    2    4    4    0    0  0.34461122439E+03  0.67379921370E+02  0.15562704124E+03  0.39607252768E+03  0.96730147492E+02 0.  0.
          3    1    3    3  502    0 -0.72821770132E+03  0.11055367731E+03 -0.39593131623E+03  0.83623246962E+03  0.00000000000E+00 0. -1.
         -4    1    3    3    0  502 -0.29630410597E+03  0.30690727981E+02 -0.10685688662E+03  0.31647501989E+03  0.00000000000E+00 0.  1.
         11    1    5    5    0    0  0.37427555528E+03 -0.15161343304E+03 -0.57499160363E+03  0.70262662105E+03  0.00000000000E+00 0.  1.
        -11    1    5    5    0    0  0.30563502761E+03 -0.57010893622E+02 -0.35866363735E+03  0.47466052801E+03  0.00000000000E+00 0. -1.
          3    1    6    6  503    0  0.10647991119E+03  0.64394961847E+02  0.71402023427E+02  0.14346752785E+03  0.00000000000E+00 0. -1.
         -3    1    6    6    0  503  0.23813131320E+03  0.29849595225E+01  0.84225017817E+02  0.25260499983E+03  0.00000000000E+00 0.  1.
<mgrwt>
<rscale>  0 0.24064396E+04</rscale>
<asrwt>0</asrwt>
<pdfrwt beam="1">  1        1 0.30822181E+00 0.24064396E+04</pdfrwt>
<pdfrwt beam="2">  1       -2 0.11117314E+00 0.24064396E+04</pdfrwt>
<totfact> 0.14934858E+00</totfact>
</mgrwt>
</event>
<event>
12    4  0.4280696E-008  0.1180624E+04  0.7818608E-02  0.9129987E-01
         -2   -1    0    0    0  501 -0.00000000000E+00  0.00000000000E+00  0.19086530240E+03  0.19086530240E+03  0.00000000000E+00 0.  1.
          1   -1    0    0  501    0  0.00000000000E+00 -0.00000000000E+00 -0.18257287237E+04  0.18257287237E+04  0.00000000000E+00 0. -1.
        -24    2    1    2    0    0  0.14957236545E+03  0.41892437257E+02 -0.66514982510E+03  0.68769856790E+03  0.79863393723E+02 0.  0.
        254    2    1    2    0    0 -0.14957236545E+03 -0.41892437257E+02 -0.96971359620E+03  0.13288954582E+04  0.89526075050E+03 0.  0.
         23    2    4    4    0    0  0.21319731772E+03  0.14288205966E+03  0.20339383284E+01  0.27118173761E+03  0.87561513536E+02 0.  0.
         23    2    4    4    0    0 -0.36276968317E+03 -0.18477449692E+03 -0.97174753453E+03  0.10577137206E+04  0.93389432716E+02 0.  0.
          1    1    3    3  502    0  0.75422757633E+02  0.39176023764E+02 -0.49250200315E+03  0.49978152859E+03  0.00000000000E+00 0. -1.
         -2    1    3    3    0  502  0.74149607815E+02  0.27164134933E+01 -0.17264782195E+03  0.18791703931E+03  0.00000000000E+00 0.  1.
         11    1    5    5    0    0  0.14695381088E+03  0.47206884946E+02 -0.66087879071E+01  0.15449138680E+03  0.00000000000E+00 0. -1.
        -11    1    5    5    0    0  0.66243506840E+02  0.95675174717E+02  0.86427262355E+01  0.11669035081E+03  0.00000000000E+00 0.  1.
          2    1    6    6  503    0 -0.33745657212E+03 -0.13861926953E+03 -0.83712087815E+03  0.91316132451E+03  0.00000000000E+00 0. -1.
         -2    1    6    6    0  503 -0.25313111050E+02 -0.46155227395E+02 -0.13462665638E+03  0.14455239609E+03  0.00000000000E+00 0.  1.
<mgrwt>
<rscale>  0 0.11806240E+04</rscale>
<asrwt>0</asrwt>
<pdfrwt beam="1">  1        1 0.28088134E+00 0.11806240E+04</pdfrwt>
<pdfrwt beam="2">  1       -2 0.29363893E-01 0.11806240E+04</pdfrwt>
<totfact> 0.36368322E+01</totfact>
</mgrwt>
</event>
<event>
12    4  0.4280696E-008  0.2451022E+04  0.7818608E-02  0.8420645E-01
          1   -1    0    0  501    0  0.00000000000E+00  0.00000000000E+00  0.92114838915E+03  0.92114838915E+03  0.00000000000E+00 0. -1.
         -2   -1    0    0    0  501 -0.00000000000E+00 -0.00000000000E+00 -0.16304394870E+04  0.16304394870E+04  0.00000000000E+00 0.  1.
        -24    2    1    2    0    0  0.78024521887E+03 -0.51011259250E+02  0.43679741698E+03  0.89946069866E+03  0.82781730044E+02 0.  0.
        254    2    1    2    0    0 -0.78024521887E+03  0.51011259250E+02 -0.11460885148E+04  0.16521271775E+04  0.89700645294E+03 0.  0.
         23    2    4    4    0    0 -0.54713087701E+03  0.20128546737E+03 -0.14246693702E+03  0.60697465351E+03  0.90848037451E+02 0.  0.
         23    2    4    4    0    0 -0.23311434186E+03 -0.15027420812E+03 -0.10036215778E+04  0.10451525240E+04  0.90348729544E+02 0.  0.
          1    1    3    3  502    0  0.67293115628E+03 -0.26112987863E+02  0.40020018004E+03  0.78337629102E+03  0.00000000000E+00 0. -1.
         -2    1    3    3    0  502  0.10731406259E+03 -0.24898271387E+02  0.36597236939E+02  0.11608440765E+03  0.00000000000E+00 0.  1.
         11    1    5    5    0    0  0.47389888272E+00 -0.48236392022E+01 -0.38362039243E+00  0.48620201470E+01  0.00000000000E+00 0.  1.
        -11    1    5    5    0    0 -0.54760477589E+03  0.20610910657E+03 -0.14208331663E+03  0.60211263336E+03  0.00000000000E+00 0. -1.
          3    1    6    6  503    0 -0.23071817416E+03 -0.15429507268E+03 -0.90936903178E+03  0.95078382469E+03  0.00000000000E+00 0. -1.
         -3    1    6    6    0  503 -0.23961676935E+01  0.40208645640E+01 -0.94252546011E+02  0.94368699265E+02  0.00000000000E+00 0.  1.
<mgrwt>
<rscale>  0 0.24510216E+04</rscale>
<asrwt>0</asrwt>
<pdfrwt beam="1">  1        1 0.14171514E+00 0.24510216E+04</pdfrwt>
<pdfrwt beam="2">  1       -2 0.25083684E+00 0.24510216E+04</pdfrwt>
<totfact> 0.86870903E-01</totfact>
</mgrwt>
</event>
<event>
12    4  0.4280696E-008  0.1562410E+04  0.7818608E-02  0.8843979E-01
         -2   -1    0    0    0  501 -0.00000000000E+00  0.00000000000E+00  0.11331254856E+04  0.11331254856E+04  0.00000000000E+00 0.  1.
          1   -1    0    0  501    0  0.00000000000E+00 -0.00000000000E+00 -0.53858243077E+03  0.53858243077E+03  0.00000000000E+00 0. -1.
        -24    2    1    2    0    0 -0.51200791239E+03  0.74462601282E+02  0.15169684160E+03  0.54501594426E+03  0.79584335199E+02 0.  0.
        254    2    1    2    0    0  0.51200791239E+03 -0.74462601282E+02  0.44284621323E+03  0.11266919721E+04  0.89756629286E+03 0.  0.
         23    2    4    4    0    0  0.25862187801E+03 -0.41812531599E+03 -0.63490950197E+01  0.50013125453E+03  0.91525434158E+02 0.  0.
         23    2    4    4    0    0  0.25338603438E+03  0.34366271471E+03  0.44919530825E+03  0.62656071757E+03  0.92159448488E+02 0.  0.
          3    1    3    3  502    0 -0.21603751659E+03  0.31795311637E+02  0.23363818682E+02  0.21961106175E+03  0.00000000000E+00 0. -1.
         -4    1    3    3    0  502 -0.29597039580E+03  0.42667289646E+02  0.12833302292E+03  0.32540488252E+03  0.00000000000E+00 0.  1.
         11    1    5    5    0    0  0.24895702392E+03 -0.42056729477E+03 -0.11594311529E+02  0.48886693204E+03  0.00000000000E+00 0. -1.
        -11    1    5    5    0    0  0.96648540944E+01  0.24419787757E+01  0.52452165096E+01  0.11264322494E+02  0.00000000000E+00 0.  1.
          4    1    6    6  503    0  0.24252046441E+03  0.30759735269E+03  0.36981845790E+03  0.53870028666E+03  0.00000000000E+00 0. -1.
         -4    1    6    6    0  503  0.10865569966E+02  0.36065362017E+02  0.79376850348E+02  0.87860430908E+02  0.00000000000E+00 0.  1.
<mgrwt>
<rscale>  0 0.15624103E+04</rscale>
<asrwt>0</asrwt>
<pdfrwt beam="1">  1        1 0.82858836E-01 0.15624103E+04</pdfrwt>
<pdfrwt beam="2">  1       -2 0.17432700E+00 0.15624103E+04</pdfrwt>
<totfact> 0.66766682E+00</totfact>
</mgrwt>
</event>
<event>
12    4  0.4280696E-008  0.1926043E+04  0.7818608E-02  0.8642001E-01
          1   -1    0    0  501    0  0.00000000000E+00  0.00000000000E+00  0.72829434408E+03  0.72829434408E+03  0.00000000000E+00 0. -1.
         -2   -1    0    0    0  501 -0.00000000000E+00 -0.00000000000E+00 -0.12734002230E+04  0.12734002230E+04  0.00000000000E+00 0.  1.
        -24    2    1    2    0    0  0.35352714943E+03  0.21084530269E+03  0.41616125368E+03  0.59052411083E+03  0.78047096963E+02 0.  0.
        254    2    1    2    0    0 -0.35352714943E+03 -0.21084530269E+03 -0.96126713257E+03  0.14111704562E+04  0.94759187909E+03 0.  0.
         23    2    4    4    0    0  0.15764699128E+03 -0.15025038281E+02 -0.81819970546E+03  0.83846182940E+03  0.92136614437E+02 0.  0.
         23    2    4    4    0    0 -0.51117414072E+03 -0.19582026441E+03 -0.14306742712E+03  0.57270862683E+03  0.88782343142E+02 0.  0.
          1    1    3    3  502    0  0.24694087107E+03  0.13403411914E+03  0.33000346411E+03  0.43341345759E+03  0.00000000000E+00 0. -1.
         -2    1    3    3    0  502  0.10658627837E+03  0.76811183555E+02  0.86157789569E+02  0.15711065323E+03  0.00000000000E+00 0.  1.
         11    1    5    5    0    0  0.17057880107E+02 -0.19456744950E+02 -0.39912602991E+02  0.47566291376E+02  0.00000000000E+00 0. -1.
        -11    1    5    5    0    0  0.14058911118E+03  0.44317066684E+01 -0.77828710247E+03  0.79089553803E+03  0.00000000000E+00 0.  1.
          4    1    6    6  503    0 -0.70833906611E+02 -0.47938253511E+02 -0.49656625606E+02  0.98900449655E+02  0.00000000000E+00 0. -1.
         -4    1    6    6    0  503 -0.44034023411E+03 -0.14788201090E+03 -0.93410801512E+02  0.47380817718E+03  0.00000000000E+00 0.  1.
<mgrwt>
<rscale>  0 0.19260428E+04</rscale>
<asrwt>0</asrwt>
<pdfrwt beam="1">  1        1 0.11204529E+00 0.19260428E+04</pdfrwt>
<pdfrwt beam="2">  1       -2 0.19590772E+00 0.19260428E+04</pdfrwt>
<totfact> 0.29654084E+00</totfact>
</mgrwt>
</event>
<event>
12    4  0.4280696E-008  0.2160509E+04  0.7818608E-02  0.8535047E-01
          1   -1    0    0  501    0  0.00000000000E+00  0.00000000000E+00  0.23402229903E+04  0.23402229903E+04  0.00000000000E+00 0. -1.
         -2   -1    0    0    0  501 -0.00000000000E+00 -0.00000000000E+00 -0.49864897763E+03  0.49864897763E+03  0.00000000000E+00 0.  1.
        -24    2    1    2    0    0  0.12315896326E+03  0.63959795403E+02  0.19012561935E+04  0.19079668067E+04  0.79392923288E+02 0.  0.
        254    2    1    2    0    0 -0.12315896326E+03 -0.63959795403E+02 -0.59682180882E+02  0.93090516123E+03  0.91856598611E+03 0.  0.
         23    2    4    4    0    0  0.36833269268E+03 -0.54514522924E+02 -0.16906513142E+03  0.41917164931E+03  0.92092601348E+02 0.  0.
         23    2    4    4    0    0 -0.49149165593E+03 -0.94452724791E+01  0.10938295054E+03  0.51173351192E+03  0.90847654483E+02 0.  0.
          1    1    3    3  502    0  0.76414882576E+02  0.66332620870E+02  0.15894071254E+04  0.15926249593E+04  0.00000000000E+00 0. -1.
         -2    1    3    3    0  502  0.46744080682E+02 -0.23728254673E+01  0.31184906815E+03  0.31534184734E+03  0.00000000000E+00 0.  1.
         11    1    5    5    0    0  0.28835118319E+03 -0.42402066374E+02 -0.87519795309E+02  0.30430914323E+03  0.00000000000E+00 0. -1.
        -11    1    5    5    0    0  0.79981509483E+02 -0.12112456549E+02 -0.81545336110E+02  0.11486250608E+03  0.00000000000E+00 0.  1.
          3    1    6    6  503    0 -0.17813661733E+03 -0.13773480120E+02 -0.33192375972E+01  0.17869913410E+03  0.00000000000E+00 0. -1.
         -3    1    6    6    0  503 -0.31335503860E+03  0.43282076409E+01  0.11270218813E+03  0.33303437782E+03  0.00000000000E+00 0.  1.
<mgrwt>
<rscale>  0 0.21605090E+04</rscale>
<asrwt>0</asrwt>
<pdfrwt beam="1">  1        1 0.36003430E+00 0.21605090E+04</pdfrwt>
<pdfrwt beam="2">  1       -2 0.76715228E-01 0.21605090E+04</pdfrwt>
<totfact> 0.21317571E+00</totfact>
</mgrwt>
</event>
<event>
12    4  0.4280696E-008  0.1857310E+04  0.7818608E-02  0.8676403E-01
          1   -1    0    0  501    0  0.00000000000E+00  0.00000000000E+00  0.55105596388E+03  0.55105596388E+03  0.00000000000E+00 0. -1.
         -2   -1    0    0    0  501 -0.00000000000E+00 -0.00000000000E+00 -0.15649949790E+04  0.15649949790E+04  0.00000000000E+00 0.  1.
        -24    2    1    2    0    0  0.62773120154E+03  0.34917452912E+02 -0.20008518127E+02  0.63421253269E+03  0.80990776810E+02 0.  0.
        254    2    1    2    0    0 -0.62773120154E+03 -0.34917452912E+02 -0.99393049703E+03  0.14818384102E+04  0.90148851972E+03 0.  0.
         23    2    4    4    0    0 -0.70081723634E+01  0.31609476446E+03 -0.53729624287E+03  0.63007904598E+03  0.91363761827E+02 0.  0.
         23    2    4    4    0    0 -0.62072302917E+03 -0.35101221738E+03 -0.45663425416E+03  0.85175936424E+03  0.92046275391E+02 0.  0.
          3    1    3    3  502    0  0.16990457678E+03 -0.12472128392E+02  0.23120889892E+02  0.17192351424E+03  0.00000000000E+00 0. -1.
         -4    1    3    3    0  502  0.45782662475E+03  0.47389581303E+02 -0.43129408019E+02  0.46228901845E+03  0.00000000000E+00 0.  1.
         11    1    5    5    0    0 -0.44318037318E+02  0.12595343471E+03 -0.25225465130E+03  0.28541332353E+03  0.00000000000E+00 0. -1.
        -11    1    5    5    0    0  0.37309864954E+02  0.19014132976E+03 -0.28504159157E+03  0.34466572245E+03  0.00000000000E+00 0.  1.
          3    1    6    6  503    0 -0.38179907309E+03 -0.26208857789E+03 -0.27307470813E+03  0.53761580250E+03  0.00000000000E+00 0. -1.
         -3    1    6    6    0  503 -0.23892395608E+03 -0.88923639486E+02 -0.18355954602E+03  0.31414356175E+03  0.00000000000E+00 0.  1.
<mgrwt>
<rscale>  0 0.18573097E+04</rscale>
<asrwt>0</asrwt>
<pdfrwt beam="1">  1        1 0.84777842E-01 0.18573097E+04</pdfrwt>
<pdfrwt beam="2">  1       -2 0.24076845E+00 0.18573097E+04</pdfrwt>
<totfact> 0.23290329E+00</totfact>
</mgrwt>
</event>
<event>
12    4  0.4280696E-008  0.1849114E+04  0.7818608E-02  0.8680609E-01
          1   -1    0    0  501    0  0.00000000000E+00  0.00000000000E+00  0.74910430665E+03  0.74910430665E+03  0.00000000000E+00 0. -1.
         -2   -1    0    0    0  501 -0.00000000000E+00 -0.00000000000E+00 -0.11411032682E+04  0.11411032682E+04  0.00000000000E+00 0.  1.
        -24    2    1    2    0    0 -0.13745847919E+03 -0.11447512275E+03  0.54331003741E+03  0.57757473825E+03  0.80046200994E+02 0.  0.
        254    2    1    2    0    0  0.13745847919E+03  0.11447512275E+03 -0.93530899898E+03  0.13126328366E+04  0.90343934660E+03 0.  0.
         23    2    4    4    0    0 -0.36374840358E+03  0.16058393721E+03 -0.37556277763E+03  0.55441442148E+03  0.90707490342E+02 0.  0.
         23    2    4    4    0    0  0.50120688277E+03 -0.46108814464E+02 -0.55974622135E+03  0.75821841515E+03  0.90801820690E+02 0.  0.
          3    1    3    3  502    0 -0.12231587069E+03 -0.12344162209E+03  0.52063805636E+03  0.54887429528E+03  0.00000000000E+00 0. -1.
         -4    1    3    3    0  502 -0.15142608496E+02  0.89664993391E+01  0.22671981049E+02  0.28700442978E+02  0.00000000000E+00 0.  1.
         11    1    5    5    0    0 -0.31864184503E+03  0.16686728828E+03 -0.31157335387E+03  0.47587316813E+03  0.00000000000E+00 0. -1.
        -11    1    5    5    0    0 -0.45106558553E+02 -0.62833510656E+01 -0.63989423761E+02  0.78541253354E+02  0.00000000000E+00 0.  1.
          2    1    6    6  503    0  0.62387365263E+02 -0.29191987938E+02 -0.48404322138E+02  0.84186304740E+02  0.00000000000E+00 0.  1.
         -2    1    6    6    0  503  0.43881951751E+03 -0.16916826525E+02 -0.51134189922E+03  0.67403211041E+03  0.00000000000E+00 0. -1.
<mgrwt>
<rscale>  0 0.18491137E+04</rscale>
<asrwt>0</asrwt>
<pdfrwt beam="1">  1        1 0.11524682E+00 0.18491137E+04</pdfrwt>
<pdfrwt beam="2">  1       -2 0.17555435E+00 0.18491137E+04</pdfrwt>
<totfact> 0.39306209E+00</totfact>
</mgrwt>
</event>
<event>
12    4  0.4280696E-008  0.1433630E+04  0.7818608E-02  0.8929829E-01
          1   -1    0    0  501    0  0.00000000000E+00  0.00000000000E+00  0.63059755295E+03  0.63059755295E+03  0.00000000000E+00 0. -1.
         -2   -1    0    0    0  501 -0.00000000000E+00 -0.00000000000E+00 -0.81482030761E+03  0.81482030761E+03  0.00000000000E+00 0.  1.
        -24    2    1    2    0    0  0.37192242172E+03 -0.20494567829E+03 -0.91664740181E+02  0.44182811332E+03  0.80502411780E+02 0.  0.
        254    2    1    2    0    0 -0.37192242172E+03  0.20494567829E+03 -0.92558014481E+02  0.10035897472E+04  0.90459735567E+03 0.  0.
         23    2    4    4    0    0 -0.72214739919E+01 -0.32827126401E+03 -0.79558450251E+02  0.35106531164E+03  0.95410343127E+02 0.  0.
         23    2    4    4    0    0 -0.36470094772E+03  0.53321694230E+03 -0.12999564229E+02  0.65252443559E+03  0.91060757489E+02 0.  0.
          3    1    3    3  502    0  0.26274017071E+03 -0.10911116407E+03 -0.38303549343E+02  0.28706237183E+03  0.00000000000E+00 0. -1.
         -4    1    3    3    0  502  0.10918225101E+03 -0.95834514225E+02 -0.53361190837E+02  0.15476574149E+03  0.00000000000E+00 0.  1.
         11    1    5    5    0    0 -0.28425856167E+02 -0.10347852730E+03  0.10824904632E+02  0.10785644844E+03  0.00000000000E+00 0. -1.
        -11    1    5    5    0    0  0.21204382175E+02 -0.22479273671E+03 -0.90383354883E+02  0.24320886320E+03  0.00000000000E+00 0.  1.
          3    1    6    6  503    0 -0.34381794631E+03  0.44854820148E+03 -0.91860680192E+01  0.56523504235E+03  0.00000000000E+00 0. -1.
         -3    1    6    6    0  503 -0.20883001413E+02  0.84668740813E+02 -0.38134962101E+01  0.87289393240E+02  0.00000000000E+00 0.  1.
<mgrwt>
<rscale>  0 0.14336299E+04</rscale>
<asrwt>0</asrwt>
<pdfrwt beam="1">  1        1 0.97015008E-01 0.14336299E+04</pdfrwt>
<pdfrwt beam="2">  1       -2 0.12535697E+00 0.14336299E+04</pdfrwt>
<totfact> 0.12902160E+01</totfact>
</mgrwt>
</event>
<event>
12    4  0.4280696E-008  0.1207445E+04  0.7818608E-02  0.9106365E-01
          1   -1    0    0  501    0  0.00000000000E+00  0.00000000000E+00  0.72347598515E+03  0.72347598515E+03  0.00000000000E+00 0. -1.
         -2   -1    0    0    0  501 -0.00000000000E+00 -0.00000000000E+00 -0.50379091551E+03  0.50379091551E+03  0.00000000000E+00 0.  1.
        -24    2    1    2    0    0 -0.24149864098E+03 -0.50319102434E+02  0.13736037711E+03  0.29273857473E+03  0.77294205919E+02 0.  0.
        254    2    1    2    0    0  0.24149864098E+03  0.50319102434E+02  0.82324692536E+02  0.93452832592E+03  0.89761474547E+03 0.  0.
         23    2    4    4    0    0  0.31425049764E+03  0.25010120943E+03 -0.28447269152E+03  0.50081021030E+03  0.92639971393E+02 0.  0.
         23    2    4    4    0    0 -0.72751856651E+02 -0.19978210699E+03  0.36679738406E+03  0.43371811562E+03  0.91462341684E+02 0.  0.
          3    1    3    3  502    0 -0.10658991554E+03  0.48792513829E+01  0.89652363954E+02  0.13936557520E+03  0.00000000000E+00 0. -1.
         -4    1    3    3    0  502 -0.13490872544E+03 -0.55198353817E+02  0.47708013153E+02  0.15337299953E+03  0.00000000000E+00 0.  1.
         11    1    5    5    0    0  0.16064334428E+03  0.85219170773E+02 -0.16598908362E+03  0.24621325515E+03  0.00000000000E+00 0.  1.
        -11    1    5    5    0    0  0.15360715335E+03  0.16488203866E+03 -0.11848360790E+03  0.25459695515E+03  0.00000000000E+00 0. -1.
          1    1    6    6  503    0 -0.59085586692E+02 -0.16394260972E+03  0.21297063854E+03  0.27518135605E+03  0.00000000000E+00 0. -1.
         -1    1    6    6    0  503 -0.13666269959E+02 -0.35839497272E+02  0.15382674552E+03  0.15853675957E+03  0.00000000000E+00 0.  1.
<mgrwt>
<rscale>  0 0.12074446E+04</rscale>
<asrwt>0</asrwt>
<pdfrwt beam="1">  1        1 0.11130400E+00 0.12074446E+04</pdfrwt>
<pdfrwt beam="2">  1       -2 0.77506295E-01 0.12074446E+04</pdfrwt>
<totfact> 0.33310825E+01</totfact>
</mgrwt>
</event>
<event>
12    4  0.4280696E-008  0.1902273E+04  0.7818608E-02  0.8653726E-01
         -2   -1    0    0    0  501 -0.00000000000E+00  0.00000000000E+00  0.39254237717E+03  0.39254237717E+03  0.00000000000E+00 0.  1.
          1   -1    0    0  501    0  0.00000000000E+00 -0.00000000000E+00 -0.23046180140E+04  0.23046180140E+04  0.00000000000E+00 0. -1.
        -24    2    1    2    0    0 -0.18801140988E+03 -0.58162514733E+03 -0.19797875596E+03  0.64780541743E+03  0.82584313282E+02 0.  0.
        254    2    1    2    0    0  0.18801140988E+03  0.58162514733E+03 -0.17140968809E+04  0.20493549737E+04  0.94238611466E+03 0.  0.
         23    2    4    4    0    0 -0.18014674032E+03 -0.78583092809E+02 -0.93501498814E+03  0.96002995836E+03  0.93682134781E+02 0.  0.
         23    2    4    4    0    0  0.36815815019E+03  0.66020824013E+03 -0.77908189272E+03  0.10893250154E+04  0.90802255712E+02 0.  0.
          1    1    3    3  502    0 -0.71678524927E+02 -0.11411917831E+03 -0.51481369696E+02  0.14426132268E+03  0.00000000000E+00 0. -1.
         -2    1    3    3    0  502 -0.11633288495E+03 -0.46750596901E+03 -0.14649738626E+03  0.50354409476E+03  0.00000000000E+00 0.  1.
         11    1    5    5    0    0 -0.15634374579E+03 -0.89723018590E+02 -0.67377560530E+03  0.69747197307E+03  0.00000000000E+00 0.  1.
        -11    1    5    5    0    0 -0.23802994521E+02  0.11139925782E+02 -0.26123938283E+03  0.26255798529E+03  0.00000000000E+00 0. -1.
          1    1    6    6  503    0  0.92597218201E+02  0.11466297797E+03 -0.18998739195E+03  0.24045176738E+03  0.00000000000E+00 0. -1.
         -1    1    6    6    0  503  0.27556093199E+03  0.54554526216E+03 -0.58909450077E+03  0.84887324798E+03  0.00000000000E+00 0.  1.
<mgrwt>
<rscale>  0 0.19022726E+04</rscale>
<asrwt>0</asrwt>
<pdfrwt beam="1">  1        1 0.35455662E+00 0.19022726E+04</pdfrwt>
<pdfrwt beam="2">  1       -2 0.60391134E-01 0.19022726E+04</pdfrwt>
<totfact> 0.38792454E+00</totfact>
</mgrwt>
</event>
<event>
12    4  0.4280696E-008  0.1608842E+04  0.7818608E-02  0.8815134E-01
          1   -1    0    0  501    0  0.00000000000E+00  0.00000000000E+00  0.23688711578E+04  0.23688711578E+04  0.00000000000E+00 0. -1.
         -2   -1    0    0    0  501 -0.00000000000E+00 -0.00000000000E+00 -0.27316522467E+03  0.27316522467E+03  0.00000000000E+00 0.  1.
        -24    2    1    2    0    0 -0.12402482614E+03  0.31946366491E+03  0.14501227075E+04  0.14923287159E+04  0.82158010886E+02 0.  0.
        254    2    1    2    0    0  0.12402482614E+03 -0.31946366491E+03  0.64558322565E+03  0.11497076666E+04  0.88747440905E+03 0.  0.
         23    2    4    4    0    0 -0.14123784376E+02 -0.58956858714E+03  0.56527246236E+03  0.82255977012E+03  0.96338042772E+02 0.  0.
         23    2    4    4    0    0  0.13814861052E+03  0.27010492223E+03  0.80310763291E+02  0.32714789649E+03  0.92380841479E+02 0.  0.
          1    1    3    3  502    0 -0.74953520635E+02  0.13511772909E+03  0.80047352164E+03  0.81525007808E+03  0.00000000000E+00 0. -1.
         -2    1    3    3    0  502 -0.49071305508E+02  0.18434593582E+03  0.64964918585E+03  0.67707863779E+03  0.00000000000E+00 0.  1.
         11    1    5    5    0    0 -0.17066447909E+02 -0.82014028491E+02  0.12600324615E+03  0.15130889780E+03  0.00000000000E+00 0. -1.
        -11    1    5    5    0    0  0.29426635331E+01 -0.50755455865E+03  0.43926921621E+03  0.67125087232E+03  0.00000000000E+00 0.  1.
          3    1    6    6  503    0  0.92130265008E+02  0.16241442275E+03  0.28684146915E+01  0.18674757897E+03  0.00000000000E+00 0. -1.
         -3    1    6    6    0  503  0.46018345510E+02  0.10769049948E+03  0.77442348599E+02  0.14040031751E+03  0.00000000000E+00 0.  1.
<mgrwt>
<rscale>  0 0.16088421E+04</rscale>
<asrwt>0</asrwt>
<pdfrwt beam="1">  1        1 0.36444170E+00 0.16088421E+04</pdfrwt>
<pdfrwt beam="2">  1       -2 0.42025421E-01 0.16088421E+04</pdfrwt>
<totfact> 0.75518407E+00</totfact>
</mgrwt>
</event>
<event>
12    4  0.4280696E-008  0.1850807E+04  0.7818608E-02  0.8679738E-01
          1   -1    0    0  501    0  0.00000000000E+00  0.00000000000E+00  0.21666243268E+04  0.21666243268E+04  0.00000000000E+00 0. -1.
         -2   -1    0    0    0  501 -0.00000000000E+00 -0.00000000000E+00 -0.39525618642E+03  0.39525618642E+03  0.00000000000E+00 0.  1.
        -24    2    1    2    0    0 -0.37895754166E+03 -0.56411401929E+03  0.97825536776E+03  0.11938329863E+04  0.80126084505E+02 0.  0.
        254    2    1    2    0    0  0.37895754166E+03  0.56411401929E+03  0.79311277258E+03  0.13680475269E+04  0.88356817548E+03 0.  0.
         23    2    4    4    0    0  0.56502125802E+03  0.66832928474E+02  0.43003333728E+03  0.71845041766E+03  0.86756377992E+02 0.  0.
         23    2    4    4    0    0 -0.18606371635E+03  0.49728109082E+03  0.36307943530E+03  0.64959710926E+03  0.90782917930E+02 0.  0.
          1    1    3    3  502    0 -0.35670126075E+03 -0.48610165473E+03  0.85196547811E+03  0.10437316629E+04  0.00000000000E+00 0. -1.
         -2    1    3    3    0  502 -0.22256280915E+02 -0.78012364567E+02  0.12628988964E+03  0.15010132342E+03  0.00000000000E+00 0.  1.
         11    1    5    5    0    0  0.17940385753E+02 -0.12063228904E+02  0.25844546287E+02  0.33694502598E+02  0.00000000000E+00 0. -1.
        -11    1    5    5    0    0  0.54708087226E+03  0.78896157378E+02  0.40418879099E+03  0.68475591506E+03  0.00000000000E+00 0.  1.
          4    1    6    6  503    0  0.83824751776E+01  0.44575025972E+02  0.39482382524E+02  0.60133662455E+02  0.00000000000E+00 0. -1.
         -4    1    6    6    0  503 -0.19444619153E+03  0.45270606485E+03  0.32359705278E+03  0.58946344680E+03  0.00000000000E+00 0.  1.
<mgrwt>
<rscale>  0 0.18508070E+04</rscale>
<asrwt>0</asrwt>
<pdfrwt beam="1">  1        1 0.33332681E+00 0.18508070E+04</pdfrwt>
<pdfrwt beam="2">  1       -2 0.60808646E-01 0.18508070E+04</pdfrwt>
<totfact> 0.47697616E+00</totfact>
</mgrwt>
</event>
<event>
12    4  0.4280696E-008  0.3283870E+04  0.7818608E-02  0.8167012E-01
          1   -1    0    0  501    0  0.00000000000E+00  0.00000000000E+00  0.15134170981E+04  0.15134170981E+04  0.00000000000E+00 0. -1.
         -2   -1    0    0    0  501 -0.00000000000E+00 -0.00000000000E+00 -0.17813662692E+04  0.17813662692E+04  0.00000000000E+00 0.  1.
        -24    2    1    2    0    0 -0.22186706825E+03  0.15842683286E+03  0.13722724161E+04  0.14019035141E+04  0.88757092692E+02 0.  0.
        254    2    1    2    0    0  0.22186706825E+03 -0.15842683286E+03 -0.16402215872E+04  0.18928798533E+04  0.90462325101E+03 0.  0.
         23    2    4    4    0    0 -0.28739207733E+03 -0.17301748213E+03 -0.10575502182E+04  0.11133936487E+04  0.93293609839E+02 0.  0.
         23    2    4    4    0    0  0.50925914558E+03  0.14590649266E+02 -0.58267136905E+03  0.77948620460E+03  0.92385358415E+02 0.  0.
          3    1    3    3  502    0 -0.95457580209E+02  0.75784586995E+02  0.83347502906E+03  0.84233964486E+03  0.00000000000E+00 0. -1.
         -4    1    3    3    0  502 -0.12640948804E+03  0.82642245868E+02  0.53879738708E+03  0.55956386927E+03  0.00000000000E+00 0.  1.
         11    1    5    5    0    0 -0.34454192029E+01  0.38175311604E+01 -0.80564371768E+02  0.80728324992E+02  0.00000000000E+00 0. -1.
        -11    1    5    5    0    0 -0.28394665813E+03 -0.17683501329E+03 -0.97698584643E+03  0.10326653237E+04  0.00000000000E+00 0.  1.
          3    1    6    6  503    0  0.15405080573E+03 -0.13955635488E+02 -0.12160153670E+03  0.19675706908E+03  0.00000000000E+00 0. -1.
         -3    1    6    6    0  503  0.35520833985E+03  0.28546284754E+02 -0.46106983235E+03  0.58272913551E+03  0.00000000000E+00 0.  1.
<mgrwt>
<rscale>  0 0.32838698E+04</rscale>
<asrwt>0</asrwt>
<pdfrwt beam="1">  1        1 0.23283340E+00 0.32838698E+04</pdfrwt>
<pdfrwt beam="2">  1       -2 0.27405635E+00 0.32838698E+04</pdfrwt>
<totfact> 0.21388727E-01</totfact>
</mgrwt>
</event>
<event>
12    4  0.4280696E-008  0.2417184E+04  0.7818608E-02  0.8433098E-01
         -2   -1    0    0    0  501 -0.00000000000E+00  0.00000000000E+00  0.55284570381E+03  0.55284570381E+03  0.00000000000E+00 0.  1.
          1   -1    0    0  501    0  0.00000000000E+00 -0.00000000000E+00 -0.26421372528E+04  0.26421372528E+04  0.00000000000E+00 0. -1.
        -24    2    1    2    0    0  0.50786072840E+03 -0.38761414529E+03  0.16346277642E+03  0.66439675474E+03  0.80843820697E+02 0.  0.
        254    2    1    2    0    0 -0.50786072840E+03  0.38761414529E+03 -0.22527543254E+04  0.25305862019E+04  0.95958179917E+03 0.  0.
         23    2    4    4    0    0 -0.60062724783E+03  0.22965357460E+03 -0.66660613591E+03  0.93121989220E+03  0.96503326575E+02 0.  0.
         23    2    4    4    0    0  0.92766519426E+02  0.15796057069E+03 -0.15861481895E+04  0.15993663097E+04  0.92462664886E+02 0.  0.
          1    1    3    3  502    0  0.38989881362E+03 -0.26057867801E+03  0.14031306672E+03  0.48949983553E+03  0.00000000000E+00 0. -1.
         -2    1    3    3    0  502  0.11796191478E+03 -0.12703546729E+03  0.23149709705E+02  0.17489691920E+03  0.00000000000E+00 0.  1.
         11    1    5    5    0    0 -0.58613105974E+03  0.20401130460E+03 -0.63196615922E+03  0.88574909427E+03  0.00000000000E+00 0.  1.
        -11    1    5    5    0    0 -0.14496188089E+02  0.25642269997E+02 -0.34639976691E+02  0.45470797935E+02  0.00000000000E+00 0. -1.
          2    1    6    6  503    0  0.10372895952E+03  0.15415469496E+03 -0.13254411459E+04  0.13384011350E+04  0.00000000000E+00 0.  1.
         -2    1    6    6    0  503 -0.10962440097E+02  0.38058757293E+01 -0.26070704358E+03  0.26096517461E+03  0.00000000000E+00 0. -1.
<mgrwt>
<rscale>  0 0.24171837E+04</rscale>
<asrwt>0</asrwt>
<pdfrwt beam="1">  1        1 0.40648264E+00 0.24171837E+04</pdfrwt>
<pdfrwt beam="2">  1       -2 0.85053188E-01 0.24171837E+04</pdfrwt>
<totfact> 0.10200793E+00</totfact>
</mgrwt>
</event>
<event>
12    4  0.4280696E-008  0.1487866E+04  0.7818608E-02  0.8892562E-01
          1   -1    0    0  501    0  0.00000000000E+00  0.00000000000E+00  0.38456951609E+03  0.38456951609E+03  0.00000000000E+00 0. -1.
         -2   -1    0    0    0  501 -0.00000000000E+00 -0.00000000000E+00 -0.14391058875E+04  0.14391058875E+04  0.00000000000E+00 0.  1.
        -24    2    1    2    0    0  0.14585613926E+03  0.43273425733E+03 -0.27582014955E+03  0.53941634474E+03  0.79751409050E+02 0.  0.
        254    2    1    2    0    0 -0.14585613926E+03 -0.43273425733E+03 -0.77871622184E+03  0.12842590588E+04  0.91344919139E+03 0.  0.
         23    2    4    4    0    0 -0.39021465765E+03 -0.17156847954E+03 -0.80403821765E+03  0.91453850681E+03  0.90553866705E+02 0.  0.
         23    2    4    4    0    0  0.24435851840E+03 -0.26116577779E+03  0.25321995813E+02  0.36972055203E+03  0.90185553854E+02 0.  0.
          1    1    3    3  502    0  0.70684006728E+02  0.29374637269E+03 -0.14938488046E+03  0.33704451158E+03  0.00000000000E+00 0. -1.
         -2    1    3    3    0  502  0.75172132527E+02  0.13898788464E+03 -0.12643526909E+03  0.20237183316E+03  0.00000000000E+00 0.  1.
         11    1    5    5    0    0 -0.32784078515E+03 -0.10925805714E+03 -0.60265075479E+03  0.69469765777E+03  0.00000000000E+00 0. -1.
        -11    1    5    5    0    0 -0.62373872506E+02 -0.62310422398E+02 -0.20138746286E+03  0.21984084904E+03  0.00000000000E+00 0.  1.
          3    1    6    6  503    0  0.17091182553E+03 -0.19111040438E+03 -0.22786156360E+02  0.25739706232E+03  0.00000000000E+00 0. -1.
         -3    1    6    6    0  503  0.73446692864E+02 -0.70055373404E+02  0.48108152174E+02  0.11232348971E+03  0.00000000000E+00 0.  1.
<mgrwt>
<rscale>  0 0.14878659E+04</rscale>
<asrwt>0</asrwt>
<pdfrwt beam="1">  1        1 0.59164541E-01 0.14878659E+04</pdfrwt>
<pdfrwt beam="2">  1       -2 0.22140091E+00 0.14878659E+04</pdfrwt>
<totfact> 0.51784223E+00</totfact>
</mgrwt>
</event>
<event>
12    4  0.4796726E-008  0.2264918E+04  0.7818608E-02  0.8491883E-01
          1   -1    0    0  501    0  0.00000000000E+00  0.00000000000E+00  0.17050540066E+04  0.17050540066E+04  0.00000000000E+00 0. -1.
         -2   -1    0    0    0  501 -0.00000000000E+00 -0.00000000000E+00 -0.75215383123E+03  0.75215383123E+03  0.00000000000E+00 0.  1.
        -24    2    1    2    0    0  0.27563592317E+03  0.75707486223E+03 -0.14271124146E+03  0.82198836074E+03  0.78491130686E+02 0.  0.
        254    2    1    2    0    0 -0.27563592317E+03 -0.75707486223E+03  0.10956114168E+04  0.16352194771E+04  0.90798725341E+03 0.  0.
         23    2    4    4    0    0 -0.47452794438E+03 -0.18372440664E+03  0.80365311838E+03  0.95555005446E+03  0.91028261080E+02 0.  0.
         23    2    4    4    0    0  0.19889202121E+03 -0.57335045559E+03  0.29195829842E+03  0.67966942259E+03  0.91771972640E+02 0.  0.
          1    1    3    3  502    0  0.41680629834E+02  0.85458156151E+02 -0.41035443780E+02  0.10355809482E+03  0.00000000000E+00 0. -1.
         -2    1    3    3    0  502  0.23395529334E+03  0.67161670608E+03 -0.10167579768E+03  0.71843026593E+03  0.00000000000E+00 0.  1.
         11    1    5    5    0    0 -0.31615264385E+03 -0.11317610708E+03  0.44792248780E+03  0.55981772078E+03  0.00000000000E+00 0.  1.
        -11    1    5    5    0    0 -0.15837530053E+03 -0.70548299556E+02  0.35573063058E+03  0.39573233368E+03  0.00000000000E+00 0. -1.
          1    1    6    6  503    0  0.16988071510E+03 -0.50307696641E+03  0.21924570908E+03  0.57446894819E+03  0.00000000000E+00 0. -1.
         -1    1    6    6    0  503  0.29011306114E+02 -0.70273489186E+02  0.72712589343E+02  0.10520047440E+03  0.00000000000E+00 0.  1.
<mgrwt>
<rscale>  0 0.22649176E+04</rscale>
<asrwt>0</asrwt>
<pdfrwt beam="1">  1        1 0.26231600E+00 0.22649176E+04</pdfrwt>
<pdfrwt beam="2">  1       -2 0.11571597E+00 0.22649176E+04</pdfrwt>
<totfact> 0.21864331E+00</totfact>
</mgrwt>
</event>
<event>
12    4  0.4280696E-008  0.1990121E+04  0.7818608E-02  0.8611253E-01
          1   -1    0    0  501    0  0.00000000000E+00  0.00000000000E+00  0.71289666760E+03  0.71289666760E+03  0.00000000000E+00 0. -1.
         -2   -1    0    0    0  501 -0.00000000000E+00 -0.00000000000E+00 -0.13889044367E+04  0.13889044367E+04  0.00000000000E+00 0.  1.
        -24    2    1    2    0    0  0.43958889772E+03  0.39559438898E+03 -0.86639498891E+03  0.10519563862E+04  0.78985075487E+02 0.  0.
        254    2    1    2    0    0 -0.43958889772E+03 -0.39559438898E+03  0.19038721978E+03  0.10498447181E+04  0.84628205643E+03 0.  0.
         23    2    4    4    0    0  0.14616752621E+03 -0.36794600048E+03 -0.50269921637E+02  0.40936169073E+03  0.91108308234E+02 0.  0.
         23    2    4    4    0    0 -0.58575642393E+03 -0.27648388494E+02  0.24065714142E+03  0.64048302735E+03  0.91802108041E+02 0.  0.
          3    1    3    3  502    0  0.27934699910E+03  0.20446474124E+03 -0.47272291046E+03  0.58592450571E+03  0.00000000000E+00 0. -1.
         -4    1    3    3    0  502  0.16024189862E+03  0.19112964774E+03 -0.39367207846E+03  0.46603188053E+03  0.00000000000E+00 0.  1.
         11    1    5    5    0    0  0.63327178872E+02 -0.17489297255E+03 -0.69140589203E+02  0.19843967473E+03  0.00000000000E+00 0. -1.
        -11    1    5    5    0    0  0.82840347342E+02 -0.19305302793E+03  0.18870667565E+02  0.21092201600E+03  0.00000000000E+00 0.  1.
          4    1    6    6  503    0 -0.21992588395E+03 -0.48220963672E+02  0.11724961635E+03  0.25385060233E+03  0.00000000000E+00 0. -1.
         -4    1    6    6    0  503 -0.36583053998E+03  0.20572575178E+02  0.12340752507E+03  0.38663242502E+03  0.00000000000E+00 0.  1.
<mgrwt>
<rscale>  0 0.19901209E+04</rscale>
<asrwt>0</asrwt>
<pdfrwt beam="1">  1        1 0.10967641E+00 0.19901209E+04</pdfrwt>
<pdfrwt beam="2">  1       -2 0.21367760E+00 0.19901209E+04</pdfrwt>
<totfact> 0.23354080E+00</totfact>
</mgrwt>
</event>
<event>
12    4  0.4280696E-008  0.1970342E+04  0.7818608E-02  0.8620614E-01
         -2   -1    0    0    0  501 -0.00000000000E+00  0.00000000000E+00  0.14016870621E+04  0.14016870621E+04  0.00000000000E+00 0.  1.
          1   -1    0    0  501    0  0.00000000000E+00 -0.00000000000E+00 -0.69242421561E+03  0.69242421561E+03  0.00000000000E+00 0. -1.
        -24    2    1    2    0    0  0.67676687067E+02  0.46877130014E+03 -0.37108177967E+03  0.60685802241E+03  0.79046229230E+02 0.  0.
        254    2    1    2    0    0 -0.67676687067E+02 -0.46877130014E+03  0.10803446262E+04  0.14872532553E+04  0.90578754039E+03 0.  0.
         23    2    4    4    0    0  0.11857445605E+03 -0.28587897273E+03 -0.48262398340E+02  0.32542865104E+03  0.88248847866E+02 0.  0.
         23    2    4    4    0    0 -0.18625114312E+03 -0.18289232741E+03  0.11286070245E+04  0.11618246043E+04  0.89126334925E+02 0.  0.
          1    1    3    3  502    0  0.76154015454E+02  0.37737510985E+03 -0.32661810711E+03  0.50486710677E+03  0.00000000000E+00 0. -1.
         -2    1    3    3    0  502 -0.84773283871E+01  0.91396190292E+02 -0.44463672554E+02  0.10199091564E+03  0.00000000000E+00 0.  1.
         11    1    5    5    0    0  0.11315857521E+03 -0.18280894567E+03 -0.55240448024E+02  0.22198081191E+03  0.00000000000E+00 0. -1.
        -11    1    5    5    0    0  0.54158808459E+01 -0.10307002706E+03  0.69780496836E+01  0.10344783913E+03  0.00000000000E+00 0.  1.
          2    1    6    6  503    0 -0.30047853956E+02 -0.34644909799E+02  0.38314332290E+03  0.38587815329E+03  0.00000000000E+00 0.  1.
         -2    1    6    6    0  503 -0.15620328916E+03 -0.14824741761E+03  0.74546370159E+03  0.77594645096E+03  0.00000000000E+00 0. -1.
<mgrwt>
<rscale>  0 0.19703422E+04</rscale>
<asrwt>0</asrwt>
<pdfrwt beam="1">  1        1 0.10652680E+00 0.19703422E+04</pdfrwt>
<pdfrwt beam="2">  1       -2 0.21564416E+00 0.19703422E+04</pdfrwt>
<totfact> 0.23756500E+00</totfact>
</mgrwt>
</event>
<event>
12    4  0.4280696E-008  0.1521754E+04  0.7818608E-02  0.8870114E-01
         -2   -1    0    0    0  501 -0.00000000000E+00  0.00000000000E+00  0.38982475620E+03  0.38982475620E+03  0.00000000000E+00 0.  1.
          1   -1    0    0  501    0  0.00000000000E+00 -0.00000000000E+00 -0.14851130125E+04  0.14851130125E+04  0.00000000000E+00 0. -1.
        -24    2    1    2    0    0 -0.42782527372E+03  0.72632321360E+02 -0.10151082132E+03  0.45257321723E+03  0.78791821707E+02 0.  0.
        254    2    1    2    0    0  0.42782527372E+03 -0.72632321360E+02 -0.99377743496E+03  0.14223645515E+04  0.92044413630E+03 0.  0.
         23    2    4    4    0    0 -0.32305300855E+02 -0.24036208578E+03 -0.87199446986E+03  0.90954954725E+03  0.89935858776E+02 0.  0.
         23    2    4    4    0    0  0.46013057458E+03  0.16772976442E+03 -0.12178296511E+03  0.51281500420E+03  0.91075344700E+02 0.  0.
          3    1    3    3  502    0 -0.65507448513E+02  0.12183985041E+02 -0.46260817257E+02  0.81115587377E+02  0.00000000000E+00 0. -1.
         -4    1    3    3    0  502 -0.36231782521E+03  0.60448336319E+02 -0.55250004066E+02  0.37145762985E+03  0.00000000000E+00 0.  1.
         11    1    5    5    0    0 -0.85705860849E+01 -0.23387792913E+03 -0.79250634461E+03  0.82634051512E+03  0.00000000000E+00 0.  1.
        -11    1    5    5    0    0 -0.23734714771E+02 -0.64841566548E+01 -0.79488125246E+02  0.83209032129E+02  0.00000000000E+00 0. -1.
          4    1    6    6  503    0  0.32961101740E+03  0.14825383526E+03 -0.57275609203E+02  0.36592774952E+03  0.00000000000E+00 0.  1.
         -4    1    6    6    0  503  0.13051955718E+03  0.19475929165E+02 -0.64507355902E+02  0.14688725469E+03  0.00000000000E+00 0. -1.
<mgrwt>
<rscale>  0 0.15217540E+04</rscale>
<asrwt>0</asrwt>
<pdfrwt beam="1">  1        1 0.22847893E+00 0.15217540E+04</pdfrwt>
<pdfrwt beam="2">  1       -2 0.59973039E-01 0.15217540E+04</pdfrwt>
<totfact> 0.14715086E+01</totfact>
</mgrwt>
</event>
<event>
12    4  0.4280696E-008  0.2483329E+04  0.7818608E-02  0.8408949E-01
          1   -1    0    0  501    0  0.00000000000E+00  0.00000000000E+00  0.10724715546E+04  0.10724715546E+04  0.00000000000E+00 0. -1.
         -2   -1    0    0    0  501 -0.00000000000E+00 -0.00000000000E+00 -0.14375496115E+04  0.14375496115E+04  0.00000000000E+00 0.  1.
        -24    2    1    2    0    0 -0.70630150151E+03  0.74443708067E+03  0.16973497365E+03  0.10431690841E+04  0.79645456065E+02 0.  0.
        254    2    1    2    0    0  0.70630150151E+03 -0.74443708067E+03 -0.53481303063E+03  0.14668520820E+04  0.90143312261E+03 0.  0.
         23    2    4    4    0    0  0.52567060986E+03 -0.42234878841E+03  0.13805642135E+03  0.69425926268E+03  0.90709752551E+02 0.  0.
         23    2    4    4    0    0  0.18063089165E+03 -0.32208829226E+03 -0.67286945198E+03  0.77259281928E+03  0.88192845361E+02 0.  0.
          3    1    3    3  502    0 -0.49801194360E+03  0.52351875715E+03  0.82452928481E+02  0.72724567408E+03  0.00000000000E+00 0. -1.
         -4    1    3    3    0  502 -0.20828955791E+03  0.22091832352E+03  0.87282045166E+02  0.31592341004E+03  0.00000000000E+00 0.  1.
         11    1    5    5    0    0  0.45462630505E+03 -0.39289927538E+03  0.14135894735E+03  0.61728216388E+03  0.00000000000E+00 0.  1.
        -11    1    5    5    0    0  0.71044304809E+02 -0.29449513021E+02 -0.33025260019E+01  0.76977098809E+02  0.00000000000E+00 0. -1.
          3    1    6    6  503    0  0.10121105831E+03 -0.25033931211E+03 -0.43902865603E+03  0.51542177906E+03  0.00000000000E+00 0. -1.
         -3    1    6    6    0  503  0.79419833337E+02 -0.71748980148E+02 -0.23384079595E+03  0.25717104023E+03  0.00000000000E+00 0.  1.
<mgrwt>
<rscale>  0 0.24833293E+04</rscale>
<asrwt>0</asrwt>
<pdfrwt beam="1">  1        1 0.16499562E+00 0.24833293E+04</pdfrwt>
<pdfrwt beam="2">  1       -2 0.22116148E+00 0.24833293E+04</pdfrwt>
<totfact> 0.10087322E+00</totfact>
</mgrwt>
</event>
<event>
12    4  0.4280696E-008  0.1268174E+04  0.7818608E-02  0.9055191E-01
          1   -1    0    0  501    0  0.00000000000E+00  0.00000000000E+00  0.10816887641E+04  0.10816887641E+04  0.00000000000E+00 0. -1.
         -2   -1    0    0    0  501 -0.00000000000E+00 -0.00000000000E+00 -0.37170249992E+03  0.37170249992E+03  0.00000000000E+00 0.  1.
        -24    2    1    2    0    0  0.30162112912E+03  0.59906741077E+02  0.19718464540E+03  0.37457571333E+03  0.82831500502E+02 0.  0.
        254    2    1    2    0    0 -0.30162112912E+03 -0.59906741077E+02  0.51280161883E+03  0.10788155507E+04  0.89794953593E+03 0.  0.
         23    2    4    4    0    0  0.20367188560E+03 -0.38195852538E+02  0.51809740878E+03  0.56502640623E+03  0.88818661421E+02 0.  0.
         23    2    4    4    0    0 -0.50529301472E+03 -0.21710888538E+02 -0.52957899536E+01  0.51378914450E+03  0.90326331747E+02 0.  0.
          3    1    3    3  502    0  0.28541840784E+03  0.45237708812E+02  0.20150179432E+03  0.35229687899E+03  0.00000000000E+00 0. -1.
         -4    1    3    3    0  502  0.16202721283E+02  0.14669032265E+02 -0.43171489248E+01  0.22278834337E+02  0.00000000000E+00 0.  1.
         11    1    5    5    0    0  0.41336372506E+02  0.25651415362E+02  0.82151789323E+02  0.95475689529E+02  0.00000000000E+00 0. -1.
        -11    1    5    5    0    0  0.16233551310E+03 -0.63847267901E+02  0.43594561946E+03  0.46955071671E+03  0.00000000000E+00 0.  1.
          3    1    6    6  503    0 -0.22722996677E+03  0.13336595257E+01  0.41160861811E+02  0.23093170634E+03  0.00000000000E+00 0. -1.
         -3    1    6    6    0  503 -0.27806304795E+03 -0.23044548064E+02 -0.46456651764E+02  0.28285743817E+03  0.00000000000E+00 0.  1.
<mgrwt>
<rscale>  0 0.12681741E+04</rscale>
<asrwt>0</asrwt>
<pdfrwt beam="1">  1        1 0.16641365E+00 0.12681741E+04</pdfrwt>
<pdfrwt beam="2">  1       -2 0.57185000E-01 0.12681741E+04</pdfrwt>
<totfact> 0.32394205E+01</totfact>
</mgrwt>
</event>
<event>
12    4  0.4280696E-008  0.1636266E+04  0.7818608E-02  0.8798573E-01
          1   -1    0    0  501    0  0.00000000000E+00  0.00000000000E+00  0.12069359927E+04  0.12069359927E+04  0.00000000000E+00 0. -1.
         -2   -1    0    0    0  501 -0.00000000000E+00 -0.00000000000E+00 -0.55457954057E+03  0.55457954057E+03  0.00000000000E+00 0.  1.
        -24    2    1    2    0    0  0.58882787528E+02  0.48143795164E+03  0.53793743962E+03  0.72880275773E+03  0.80790387943E+02 0.  0.
        254    2    1    2    0    0 -0.58882787528E+02 -0.48143795164E+03  0.11441901254E+03  0.10327127756E+04  0.90451881266E+03 0.  0.
         23    2    4    4    0    0 -0.38566625472E+03 -0.35538756294E+03  0.31502746102E+03  0.61851151282E+03  0.90969282595E+02 0.  0.
         23    2    4    4    0    0  0.32678346719E+03 -0.12605038870E+03 -0.20060844848E+03  0.41420126275E+03  0.92966668997E+02 0.  0.
          3    1    3    3  502    0  0.76362679871E+02  0.38529401088E+03  0.45032907585E+03  0.59756088414E+03  0.00000000000E+00 0. -1.
         -4    1    3    3    0  502 -0.17479892343E+02  0.96143940760E+02  0.87608363764E+02  0.13124187359E+03  0.00000000000E+00 0.  1.
         11    1    5    5    0    0  0.39513614261E+01 -0.13608885104E+01 -0.12614761931E+01  0.43653862193E+01  0.00000000000E+00 0.  1.
        -11    1    5    5    0    0 -0.38961761615E+03 -0.35402667443E+03  0.31628893721E+03  0.61414612660E+03  0.00000000000E+00 0. -1.
          2    1    6    6  503    0  0.29223371673E+03 -0.11714496409E+03 -0.20855388438E+03  0.37764826293E+03  0.00000000000E+00 0. -1.
         -2    1    6    6    0  503  0.34549750463E+02 -0.89054246128E+01  0.79454358988E+01  0.36552999825E+02  0.00000000000E+00 0.  1.
<mgrwt>
<rscale>  0 0.16362665E+04</rscale>
<asrwt>0</asrwt>
<pdfrwt beam="1">  1        1 0.18568246E+00 0.16362665E+04</pdfrwt>
<pdfrwt beam="2">  1       -2 0.85319929E-01 0.16362665E+04</pdfrwt>
<totfact> 0.10587051E+01</totfact>
</mgrwt>
</event>
<event>
12    4  0.5386828E-008  0.1975113E+04  0.7818608E-02  0.8618345E-01
         -2   -1    0    0    0  501 -0.00000000000E+00  0.00000000000E+00  0.46616442412E+03  0.46616442412E+03  0.00000000000E+00 0.  1.
          1   -1    0    0  501    0  0.00000000000E+00 -0.00000000000E+00 -0.20921112277E+04  0.20921112277E+04  0.00000000000E+00 0. -1.
        -24    2    1    2    0    0 -0.58261574615E+03  0.42242982946E+03 -0.10107163052E+04  0.12432493129E+04  0.78951479375E+02 0.  0.
        254    2    1    2    0    0  0.58261574615E+03 -0.42242982946E+03 -0.61523049842E+03  0.13150263389E+04  0.91263225744E+03 0.  0.
         23    2    4    4    0    0 -0.76435293086E+02 -0.41739015363E+03 -0.45981410387E+03  0.63224168591E+03  0.90794520234E+02 0.  0.
         23    2    4    4    0    0  0.65905103924E+03 -0.50396758335E+01 -0.15541639454E+03  0.68278465299E+03  0.87561155816E+02 0.  0.
          3    1    3    3  502    0 -0.53820520136E+03  0.36774659928E+03 -0.88510827946E+03  0.10992356737E+04  0.00000000000E+00 0. -1.
         -4    1    3    3    0  502 -0.44410544794E+02  0.54683230181E+02 -0.12560802571E+03  0.14401363920E+03  0.00000000000E+00 0.  1.
         11    1    5    5    0    0  0.14025876298E+02 -0.30526643289E+02 -0.18179337862E+02  0.38198029812E+02  0.00000000000E+00 0.  1.
        -11    1    5    5    0    0 -0.90461169383E+02 -0.38686351034E+03 -0.44163476601E+03  0.59404365610E+03  0.00000000000E+00 0. -1.
          2    1    6    6  503    0  0.64659917724E+03  0.71590647553E+01 -0.15654031322E+03  0.66531693040E+03  0.00000000000E+00 0. -1.
         -2    1    6    6    0  503  0.12451861998E+02 -0.12198740589E+02  0.11239186716E+01  0.17467722586E+02  0.00000000000E+00 0.  1.
<mgrwt>
<rscale>  0 0.19751130E+04</rscale>
<asrwt>0</asrwt>
<pdfrwt beam="1">  1        1 0.32186326E+00 0.19751130E+04</pdfrwt>
<pdfrwt beam="2">  1       -2 0.71717605E-01 0.19751130E+04</pdfrwt>
<totfact> 0.37134367E+00</totfact>
</mgrwt>
</event>
<event>
12    4  0.4280696E-008  0.1483724E+04  0.7818608E-02  0.8895349E-01
         -2   -1    0    0    0  501 -0.00000000000E+00  0.00000000000E+00  0.18133690983E+04  0.18133690983E+04  0.00000000000E+00 0.  1.
          1   -1    0    0  501    0  0.00000000000E+00 -0.00000000000E+00 -0.30350095551E+03  0.30350095551E+03  0.00000000000E+00 0. -1.
        -24    2    1    2    0    0  0.89388785981E+02  0.37615755949E+03  0.11653010335E+03  0.41305206443E+03  0.86878526242E+02 0.  0.
        254    2    1    2    0    0 -0.89388785981E+02 -0.37615755949E+03  0.13933380394E+04  0.17038179894E+04  0.90117699936E+03 0.  0.
         23    2    4    4    0    0 -0.31360899052E+03 -0.57529650347E+03  0.10275524573E+04  0.12221008907E+04  0.91377616100E+02 0.  0.
         23    2    4    4    0    0  0.22422020453E+03  0.19913894398E+03  0.36578558213E+03  0.48171709867E+03  0.91220896319E+02 0.  0.
          1    1    3    3  502    0  0.90252625500E+02  0.32398141556E+03  0.70849421356E+02  0.34369919195E+03  0.00000000000E+00 0. -1.
         -2    1    3    3    0  502 -0.86383951942E+00  0.52176143924E+02  0.45680681994E+02  0.69352872478E+02  0.00000000000E+00 0.  1.
         11    1    5    5    0    0 -0.10429559414E+03 -0.27448111862E+03  0.49770148384E+03  0.57786176760E+03  0.00000000000E+00 0.  1.
        -11    1    5    5    0    0 -0.20931339638E+03 -0.30081538484E+03  0.52985097347E+03  0.64423912311E+03  0.00000000000E+00 0. -1.
          4    1    6    6  503    0  0.19241203907E+03  0.12261718142E+03  0.29349168454E+03  0.37174552432E+03  0.00000000000E+00 0. -1.
         -4    1    6    6    0  503  0.31808165459E+02  0.76521762563E+02  0.72293897594E+02  0.10997157435E+03  0.00000000000E+00 0.  1.
<mgrwt>
<rscale>  0 0.14837240E+04</rscale>
<asrwt>0</asrwt>
<pdfrwt beam="1">  1        1 0.46692456E-01 0.14837240E+04</pdfrwt>
<pdfrwt beam="2">  1       -2 0.27897985E+00 0.14837240E+04</pdfrwt>
<totfact> 0.31282166E+00</totfact>
</mgrwt>
</event>
<event>
12    4  0.4280696E-008  0.1476732E+04  0.7818608E-02  0.8900075E-01
         -2   -1    0    0    0  501 -0.00000000000E+00  0.00000000000E+00  0.41227820649E+03  0.41227820649E+03  0.00000000000E+00 0.  1.
          1   -1    0    0  501    0  0.00000000000E+00 -0.00000000000E+00 -0.13223701245E+04  0.13223701245E+04  0.00000000000E+00 0. -1.
        -24    2    1    2    0    0 -0.30528447130E+03  0.12219600409E+03  0.96152334342E+02  0.35134844604E+03  0.77910123242E+02 0.  0.
        254    2    1    2    0    0  0.30528447130E+03 -0.12219600409E+03 -0.10062442523E+04  0.13832998849E+04  0.89042720336E+03 0.  0.
         23    2    4    4    0    0 -0.19372417655E+03 -0.31475897185E+03 -0.26556139048E+03  0.46395017974E+03  0.90136841699E+02 0.  0.
         23    2    4    4    0    0  0.49900864785E+03  0.19256296776E+03 -0.74068286187E+03  0.91934970521E+03  0.10248244443E+03 0.  0.
          1    1    3    3  502    0 -0.20550124494E+03  0.83353823407E+02  0.10203539683E+03  0.24411031062E+03  0.00000000000E+00 0. -1.
         -2    1    3    3    0  502 -0.99783226363E+02  0.38842180680E+02 -0.58830624846E+01  0.10723813542E+03  0.00000000000E+00 0.  1.
         11    1    5    5    0    0 -0.63046532880E+02 -0.58929767429E+02 -0.10113175573E+03  0.13294816589E+03  0.00000000000E+00 0. -1.
        -11    1    5    5    0    0 -0.13067764367E+03 -0.25582920442E+03 -0.16442963475E+03  0.33100201385E+03  0.00000000000E+00 0.  1.
          1    1    6    6  503    0  0.22526249501E+03  0.11810209171E+03 -0.42168659852E+03  0.49245394008E+03  0.00000000000E+00 0. -1.
         -1    1    6    6    0  503  0.27374615284E+03  0.74460876053E+02 -0.31899626334E+03  0.42689576513E+03  0.00000000000E+00 0.  1.
<mgrwt>
<rscale>  0 0.14767320E+04</rscale>
<asrwt>0</asrwt>
<pdfrwt beam="1">  1        1 0.20344156E+00 0.14767320E+04</pdfrwt>
<pdfrwt beam="2">  1       -2 0.63427416E-01 0.14767320E+04</pdfrwt>
<totfact> 0.17056405E+01</totfact>
</mgrwt>
</event>
<event>
12    4  0.4280696E-008  0.3173566E+04  0.7818608E-02  0.8195833E-01
          1   -1    0    0  501    0  0.00000000000E+00  0.00000000000E+00  0.42129494678E+04  0.42129494678E+04  0.00000000000E+00 0. -1.
         -2   -1    0    0    0  501 -0.00000000000E+00 -0.00000000000E+00 -0.59765263454E+03  0.59765263454E+03  0.00000000000E+00 0.  1.
        -24    2    1    2    0    0  0.46731491734E+03  0.12694940141E+04  0.24797600136E+04  0.28259902886E+04  0.83744267518E+02 0.  0.
        254    2    1    2    0    0 -0.46731491734E+03 -0.12694940141E+04  0.11355368197E+04  0.19846118138E+04  0.90511982565E+03 0.  0.
         23    2    4    4    0    0 -0.26523993566E+03 -0.13511912874E+04  0.10491801091E+04  0.17333346390E+04  0.87177695314E+02 0.  0.
         23    2    4    4    0    0 -0.20207498168E+03  0.81697273363E+02  0.86356710571E+02  0.25127717481E+03  0.90410145585E+02 0.  0.
          3    1    3    3  502    0  0.21842191992E+03  0.66462441749E+03  0.13520291539E+04  0.15223063372E+04  0.00000000000E+00 0. -1.
         -4    1    3    3    0  502  0.24889299742E+03  0.60486959659E+03  0.11277308597E+04  0.13036839513E+04  0.00000000000E+00 0.  1.
         11    1    5    5    0    0 -0.15513696511E+03 -0.97211977061E+03  0.77135692196E+03  0.12506301721E+04  0.00000000000E+00 0. -1.
        -11    1    5    5    0    0 -0.11010297055E+03 -0.37907151683E+03  0.27782318714E+03  0.48270446684E+03  0.00000000000E+00 0.  1.
          1    1    6    6  503    0 -0.10878531097E+03  0.90614105395E+02  0.42605371142E+02  0.14785255368E+03  0.00000000000E+00 0. -1.
         -1    1    6    6    0  503 -0.93289670706E+02 -0.89168320316E+01  0.43751339428E+02  0.10342462113E+03  0.00000000000E+00 0.  1.
<mgrwt>
<rscale>  0 0.31735660E+04</rscale>
<asrwt>0</asrwt>
<pdfrwt beam="1">  1        1 0.64814605E+00 0.31735660E+04</pdfrwt>
<pdfrwt beam="2">  1       -2 0.91946562E-01 0.31735660E+04</pdfrwt>
<totfact> 0.45604604E-02</totfact>
</mgrwt>
</event>
<event>
12    4  0.4280696E-008  0.1124360E+04  0.7818608E-02  0.9181769E-01
         -2   -1    0    0    0  501 -0.00000000000E+00  0.00000000000E+00  0.39700085127E+03  0.39700085127E+03  0.00000000000E+00 0.  1.
          1   -1    0    0  501    0  0.00000000000E+00 -0.00000000000E+00 -0.79608539946E+03  0.79608539946E+03  0.00000000000E+00 0. -1.
        -24    2    1    2    0    0  0.10496880827E+03  0.26327223763E+02  0.84047835206E+02  0.15809434500E+03  0.78855626934E+02 0.  0.
        254    2    1    2    0    0 -0.10496880827E+03 -0.26327223763E+02 -0.48313238339E+03  0.10349919057E+04  0.90888930658E+03 0.  0.
         23    2    4    4    0    0 -0.43454557287E+03  0.10008819622E+03 -0.49174930923E+03  0.67012609983E+03  0.91673903704E+02 0.  0.
         23    2    4    4    0    0  0.32957676460E+03 -0.12641541998E+03  0.86169258345E+01  0.36486580590E+03  0.91929879428E+02 0.  0.
          3    1    3    3  502    0  0.40772910157E+02  0.42180062591E+02  0.68460278009E+02  0.90157626122E+02  0.00000000000E+00 0. -1.
         -4    1    3    3    0  502  0.64195898110E+02 -0.15852838827E+02  0.15587557197E+02  0.67936718882E+02  0.00000000000E+00 0.  1.
         11    1    5    5    0    0 -0.14638700754E+03  0.78285080487E+02 -0.19042853866E+03  0.25262766701E+03  0.00000000000E+00 0. -1.
        -11    1    5    5    0    0 -0.28815856532E+03  0.21803115734E+02 -0.30132077057E+03  0.41749843281E+03  0.00000000000E+00 0.  1.
          3    1    6    6  503    0  0.27253941463E+03 -0.10736479992E+03  0.42263600075E+02  0.29595801169E+03  0.00000000000E+00 0. -1.
         -3    1    6    6    0  503  0.57037349969E+02 -0.19050620059E+02 -0.33646674240E+02  0.68907794215E+02  0.00000000000E+00 0.  1.
<mgrwt>
<rscale>  0 0.11243604E+04</rscale>
<asrwt>0</asrwt>
<pdfrwt beam="1">  1        1 0.12247468E+00 0.11243604E+04</pdfrwt>
<pdfrwt beam="2">  1       -2 0.61077054E-01 0.11243604E+04</pdfrwt>
<totfact> 0.48454884E+01</totfact>
</mgrwt>
</event>
<event>
12    4  0.4280696E-008  0.1350371E+04  0.7818608E-02  0.8990547E-01
         -2   -1    0    0    0  501 -0.00000000000E+00  0.00000000000E+00  0.28023066286E+03  0.28023066286E+03  0.00000000000E+00 0.  1.
          1   -1    0    0  501    0  0.00000000000E+00 -0.00000000000E+00 -0.16267863938E+04  0.16267863938E+04  0.00000000000E+00 0. -1.
        -24    2    1    2    0    0  0.35449805420E+03  0.11949130861E+02 -0.32247811160E+03  0.48580613805E+03  0.78764326620E+02 0.  0.
        254    2    1    2    0    0 -0.35449805420E+03 -0.11949130861E+02 -0.10240776193E+04  0.14212109186E+04  0.91939863638E+03 0.  0.
         23    2    4    4    0    0 -0.65979026751E+03 -0.36897459348E+02 -0.71098576376E+03  0.97476893444E+03  0.89381763621E+02 0.  0.
         23    2    4    4    0    0  0.30529221332E+03  0.24948328486E+02 -0.31309185553E+03  0.44644198413E+03  0.86360758375E+02 0.  0.
          1    1    3    3  502    0  0.67878975729E+02 -0.28542846870E+02 -0.72598038358E+02  0.10340563150E+03  0.00000000000E+00 0. -1.
         -2    1    3    3    0  502  0.28661907847E+03  0.40491977731E+02 -0.24988007324E+03  0.38240050654E+03  0.00000000000E+00 0.  1.
         11    1    5    5    0    0 -0.64297314777E+03 -0.42213157690E+02 -0.70720392833E+03  0.95673079583E+03  0.00000000000E+00 0.  1.
        -11    1    5    5    0    0 -0.16817119747E+02  0.53156983425E+01 -0.37818354254E+01  0.18038138614E+02  0.00000000000E+00 0. -1.
          4    1    6    6  503    0  0.30524081683E+03  0.12200472404E+02 -0.30148628119E+03  0.42920249945E+03  0.00000000000E+00 0.  1.
         -4    1    6    6    0  503  0.51396486199E-01  0.12747856082E+02 -0.11605574340E+02  0.17239484681E+02  0.00000000000E+00 0. -1.
<mgrwt>
<rscale>  0 0.13503710E+04</rscale>
<asrwt>0</asrwt>
<pdfrwt beam="1">  1        1 0.25027483E+00 0.13503710E+04</pdfrwt>
<pdfrwt beam="2">  1       -2 0.43112409E-01 0.13503710E+04</pdfrwt>
<totfact> 0.23439208E+01</totfact>
</mgrwt>
</event>
<event>
12    4  0.4280696E-008  0.1781678E+04  0.7818608E-02  0.8716104E-01
         -2   -1    0    0    0  501 -0.00000000000E+00  0.00000000000E+00  0.98269357339E+03  0.98269357339E+03  0.00000000000E+00 0.  1.
          1   -1    0    0  501    0  0.00000000000E+00 -0.00000000000E+00 -0.80757012435E+03  0.80757012435E+03  0.00000000000E+00 0. -1.
        -24    2    1    2    0    0  0.24031954407E+03 -0.55348694403E+03 -0.13709578108E+03  0.62358225080E+03  0.77189959522E+02 0.  0.
        254    2    1    2    0    0 -0.24031954407E+03  0.55348694403E+03  0.31221923012E+03  0.11666814469E+04  0.94845319890E+03 0.  0.
         23    2    4    4    0    0 -0.26936965481E+03 -0.74803922146E+02  0.43080574543E+03  0.52109073412E+03  0.88240156333E+02 0.  0.
         23    2    4    4    0    0  0.29050110738E+02  0.62829086618E+03 -0.11858651531E+03  0.64559071282E+03  0.84446938456E+02 0.  0.
          3    1    3    3  502    0  0.13993875105E+03 -0.30990805484E+03 -0.11603004550E+03  0.35928933738E+03  0.00000000000E+00 0. -1.
         -4    1    3    3    0  502  0.10038079302E+03 -0.24357888919E+03 -0.21065735582E+02  0.26429291342E+03  0.00000000000E+00 0.  1.
         11    1    5    5    0    0 -0.51479471350E+02 -0.44696698108E+02  0.14687130512E+03  0.16192316406E+03  0.00000000000E+00 0.  1.
        -11    1    5    5    0    0 -0.21789018345E+03 -0.30107224039E+02  0.28393444030E+03  0.35916757005E+03  0.00000000000E+00 0. -1.
          3    1    6    6  503    0  0.54271203485E+02  0.38082009046E+03 -0.52705394977E+02  0.38826172034E+03  0.00000000000E+00 0. -1.
         -3    1    6    6    0  503 -0.25221092747E+02  0.24747077572E+03 -0.65881120335E+02  0.25732899248E+03  0.00000000000E+00 0.  1.
<mgrwt>
<rscale>  0 0.17816778E+04</rscale>
<asrwt>0</asrwt>
<pdfrwt beam="1">  1        1 0.12424156E+00 0.17816778E+04</pdfrwt>
<pdfrwt beam="2">  1       -2 0.15118363E+00 0.17816778E+04</pdfrwt>
<totfact> 0.52883296E+00</totfact>
</mgrwt>
</event>
<event>
12    4  0.4280696E-008  0.1485413E+04  0.7818608E-02  0.8894211E-01
         -2   -1    0    0    0  501 -0.00000000000E+00  0.00000000000E+00  0.55198865139E+03  0.55198865139E+03  0.00000000000E+00 0.  1.
          1   -1    0    0  501    0  0.00000000000E+00 -0.00000000000E+00 -0.99931957724E+03  0.99931957724E+03  0.00000000000E+00 0. -1.
        -24    2    1    2    0    0 -0.28056768945E+03  0.39716610762E+02 -0.53310747763E+03  0.60865711290E+03  0.77228627122E+02 0.  0.
        254    2    1    2    0    0  0.28056768945E+03 -0.39716610762E+02  0.85776551783E+02  0.94265111573E+03  0.89495132361E+03 0.  0.
         23    2    4    4    0    0  0.41311266815E+03  0.23801783871E+03 -0.18849099575E+03  0.52077895214E+03  0.91472910621E+02 0.  0.
         23    2    4    4    0    0 -0.13254497871E+03 -0.27773444947E+03  0.27426754753E+03  0.42187216360E+03  0.89715321905E+02 0.  0.
          3    1    3    3  502    0 -0.61549016601E+02  0.11521307396E+02 -0.19514934831E+03  0.20494948186E+03  0.00000000000E+00 0. -1.
         -4    1    3    3    0  502 -0.21901867285E+03  0.28195303366E+02 -0.33795812932E+03  0.40370763104E+03  0.00000000000E+00 0.  1.
         11    1    5    5    0    0  0.74777714868E+02  0.60847412722E+02 -0.36271968886E+01  0.96474197758E+02  0.00000000000E+00 0. -1.
        -11    1    5    5    0    0  0.33833495329E+03  0.17717042599E+03 -0.18486379886E+03  0.42430475438E+03  0.00000000000E+00 0.  1.
          3    1    6    6  503    0  0.70982313874E+01 -0.13173233378E+02 -0.14567509160E+01  0.15034662939E+02  0.00000000000E+00 0. -1.
         -3    1    6    6    0  503 -0.13964321009E+03 -0.26456121610E+03  0.27572429845E+03  0.40683750066E+03  0.00000000000E+00 0.  1.
<mgrwt>
<rscale>  0 0.14854132E+04</rscale>
<asrwt>0</asrwt>
<pdfrwt beam="1">  1        1 0.15374147E+00 0.14854132E+04</pdfrwt>
<pdfrwt beam="2">  1       -2 0.84921331E-01 0.14854132E+04</pdfrwt>
<totfact> 0.15531678E+01</totfact>
</mgrwt>
</event>
<event>
12    4  0.4280696E-008  0.1953105E+04  0.7818608E-02  0.8628865E-01
          1   -1    0    0  501    0  0.00000000000E+00  0.00000000000E+00  0.21202189622E+04  0.21202189622E+04  0.00000000000E+00 0. -1.
         -2   -1    0    0    0  501 -0.00000000000E+00 -0.00000000000E+00 -0.44979080255E+03  0.44979080255E+03  0.00000000000E+00 0.  1.
        -24    2    1    2    0    0 -0.12106693325E+03  0.67377393958E+03  0.20857172643E+03  0.72034843409E+03  0.82287164590E+02 0.  0.
        254    2    1    2    0    0  0.12106693325E+03 -0.67377393958E+03  0.14618564332E+04  0.18496613306E+04  0.90310258707E+03 0.  0.
         23    2    4    4    0    0  0.36384054039E+03 -0.30535483438E+03  0.12669831743E+04  0.13569379136E+04  0.10204226478E+03 0.  0.
         23    2    4    4    0    0 -0.24277360715E+03 -0.36841910520E+03  0.19487325893E+03  0.49272341703E+03  0.10064351561E+03 0.  0.
          3    1    3    3  502    0 -0.71771106468E+01  0.47676376543E+02  0.38344616271E+02  0.61602413869E+02  0.00000000000E+00 0. -1.
         -4    1    3    3    0  502 -0.11388982260E+03  0.62609756303E+03  0.17022711016E+03  0.65874602022E+03  0.00000000000E+00 0.  1.
         11    1    5    5    0    0  0.20523184299E+03 -0.19756840915E+03  0.88151849986E+03  0.92640609414E+03  0.00000000000E+00 0. -1.
        -11    1    5    5    0    0  0.15860869741E+03 -0.10778642523E+03  0.38546467440E+03  0.43053181946E+03  0.00000000000E+00 0.  1.
          1    1    6    6  503    0 -0.51761949052E+02 -0.11032348473E+03  0.10139543206E+02  0.12228401771E+03  0.00000000000E+00 0. -1.
         -1    1    6    6    0  503 -0.19101165809E+03 -0.25809562047E+03  0.18473371573E+03  0.37043939931E+03  0.00000000000E+00 0.  1.
<mgrwt>
<rscale>  0 0.19531052E+04</rscale>
<asrwt>0</asrwt>
<pdfrwt beam="1">  1        1 0.32618753E+00 0.19531052E+04</pdfrwt>
<pdfrwt beam="2">  1       -2 0.69198586E-01 0.19531052E+04</pdfrwt>
<totfact> 0.38502810E+00</totfact>
</mgrwt>
</event>
<event>
12    4  0.4280696E-008  0.2591499E+04  0.7818608E-02  0.8371094E-01
         -4   -1    0    0    0  501 -0.00000000000E+00  0.00000000000E+00  0.18995859048E+04  0.18995859048E+04  0.00000000000E+00 0.  1.
          1   -1    0    0  501    0  0.00000000000E+00 -0.00000000000E+00 -0.88385941553E+03  0.88385941553E+03  0.00000000000E+00 0. -1.
        -24    2    1    2    0    0 -0.74974966643E+03  0.38641774913E+03 -0.37142088092E+03  0.92644308317E+03  0.94340216323E+02 0.  0.
        254    2    1    2    0    0  0.74974966643E+03 -0.38641774913E+03  0.13871473702E+04  0.18570022372E+04  0.90157431366E+03 0.  0.
         23    2    4    4    0    0  0.79340571915E+03 -0.58680818100E+03  0.99216701309E+03  0.14023352749E+04  0.91172171812E+02 0.  0.
         23    2    4    4    0    0 -0.43656052719E+02  0.20039043188E+03  0.39498035709E+03  0.45466696225E+03  0.93007461776E+02 0.  0.
          1    1    3    3  502    0 -0.60578282979E+03  0.35167416580E+03 -0.31354968719E+03  0.76743792068E+03  0.00000000000E+00 0. -1.
         -2    1    3    3    0  502 -0.14396683664E+03  0.34743583325E+02 -0.57871193732E+02  0.15900516249E+03  0.00000000000E+00 0.  1.
         11    1    5    5    0    0  0.78337299496E+03 -0.58965305022E+03  0.97943495448E+03  0.13858776277E+04  0.00000000000E+00 0. -1.
        -11    1    5    5    0    0  0.10032724191E+02  0.28448692192E+01  0.12732058606E+02  0.16457647217E+02  0.00000000000E+00 0.  1.
          1    1    6    6  503    0 -0.65206985888E+02  0.10084708265E+03  0.17488314917E+03  0.21214664963E+03  0.00000000000E+00 0. -1.
         -1    1    6    6    0  503  0.21550933169E+02  0.99543349231E+02  0.22009720792E+03  0.24252031262E+03  0.00000000000E+00 0.  1.
<mgrwt>
<rscale>  0 0.25914991E+04</rscale>
<asrwt>0</asrwt>
<pdfrwt beam="1">  1        1 0.13597837E+00 0.25914991E+04</pdfrwt>
<pdfrwt beam="2">  1       -4 0.29224398E+00 0.25914991E+04</pdfrwt>
<totfact> 0.27381057E-01</totfact>
</mgrwt>
</event>
<event>
12    4  0.4280696E-008  0.1923975E+04  0.7818608E-02  0.8643014E-01
         -2   -1    0    0    0  501 -0.00000000000E+00  0.00000000000E+00  0.12813786168E+04  0.12813786168E+04  0.00000000000E+00 0.  1.
          1   -1    0    0  501    0  0.00000000000E+00 -0.00000000000E+00 -0.72220614911E+03  0.72220614911E+03  0.00000000000E+00 0. -1.
        -24    2    1    2    0    0  0.38236167185E+03 -0.60965283048E+03  0.34902937036E+01  0.72389683597E+03  0.78341720501E+02 0.  0.
        254    2    1    2    0    0 -0.38236167185E+03  0.60965283048E+03  0.55568217394E+03  0.12796879299E+04  0.90052290237E+03 0.  0.
         23    2    4    4    0    0 -0.49713564815E+03  0.35447990836E+03  0.71610757357E+03  0.94542053061E+03  0.90609407190E+02 0.  0.
         23    2    4    4    0    0  0.11477397630E+03  0.25517292211E+03 -0.16042539963E+03  0.33426739930E+03  0.87818560526E+02 0.  0.
          1    1    3    3  502    0  0.37956091335E+03 -0.58851243943E+03 -0.65511702966E+01  0.70032584997E+03  0.00000000000E+00 0. -1.
         -2    1    3    3    0  502  0.28007585031E+01 -0.21140391043E+02  0.10041464000E+02  0.23570985998E+02  0.00000000000E+00 0.  1.
         11    1    5    5    0    0 -0.47546946410E+03  0.31778058196E+03  0.68665109498E+03  0.89361369495E+03  0.00000000000E+00 0.  1.
        -11    1    5    5    0    0 -0.21666184053E+02  0.36699326405E+02  0.29456478586E+02  0.51806835656E+02  0.00000000000E+00 0. -1.
          2    1    6    6  503    0  0.83871829926E+02  0.94791354540E+02 -0.95277399742E+02  0.15842243418E+03  0.00000000000E+00 0. -1.
         -2    1    6    6    0  503  0.30902146375E+02  0.16038156757E+03 -0.65147999885E+02  0.17584496512E+03  0.00000000000E+00 0.  1.
<mgrwt>
<rscale>  0 0.19239745E+04</rscale>
<asrwt>0</asrwt>
<pdfrwt beam="1">  1        1 0.11110864E+00 0.19239745E+04</pdfrwt>
<pdfrwt beam="2">  1       -2 0.19713517E+00 0.19239745E+04</pdfrwt>
<totfact> 0.29487824E+00</totfact>
</mgrwt>
</event>
<event>
12    4  0.4280696E-008  0.1165763E+04  0.7818608E-02  0.9143363E-01
         -4   -1    0    0    0  501 -0.00000000000E+00  0.00000000000E+00  0.60790196210E+03  0.60790196210E+03  0.00000000000E+00 0.  1.
          3   -1    0    0  501    0  0.00000000000E+00 -0.00000000000E+00 -0.55889088935E+03  0.55889088935E+03  0.00000000000E+00 0. -1.
        -24    2    1    2    0    0 -0.49936916231E+02  0.19878316722E+03 -0.67687588667E+02  0.23552258136E+03  0.94238174312E+02 0.  0.
        254    2    1    2    0    0  0.49936916231E+02 -0.19878316722E+03  0.11669866142E+03  0.93127027008E+03  0.90090914924E+03 0.  0.
         23    2    4    4    0    0  0.45872061513E+03 -0.20978779459E+02  0.82725100757E+02  0.47525851281E+03  0.90346553734E+02 0.  0.
         23    2    4    4    0    0 -0.40878369890E+03 -0.17780438776E+03  0.33973560658E+02  0.45601175727E+03  0.89855479270E+02 0.  0.
          1    1    3    3  502    0  0.20451029180E+02  0.11191481476E+03 -0.35377690246E+02  0.11914172789E+03  0.00000000000E+00 0. -1.
         -2    1    3    3    0  502 -0.70387945411E+02  0.86868352460E+02 -0.32309898421E+02  0.11638085347E+03  0.00000000000E+00 0.  1.
         11    1    5    5    0    0  0.15242225007E+03 -0.42951121195E+02  0.47570074378E+01  0.15842970128E+03  0.00000000000E+00 0.  1.
        -11    1    5    5    0    0  0.30629836506E+03  0.21972341736E+02  0.77968093319E+02  0.31682881153E+03  0.00000000000E+00 0. -1.
          3    1    6    6  503    0 -0.48491165287E+02 -0.38950266746E+02 -0.21745066572E+02  0.65889030276E+02  0.00000000000E+00 0. -1.
         -3    1    6    6    0  503 -0.36029253361E+03 -0.13885412102E+03  0.55718627231E+02  0.39012272700E+03  0.00000000000E+00 0.  1.
<mgrwt>
<rscale>  0 0.11657630E+04</rscale>
<asrwt>0</asrwt>
<pdfrwt beam="1">  1        3 0.85983214E-01 0.11657630E+04</pdfrwt>
<pdfrwt beam="2">  1       -4 0.93523379E-01 0.11657630E+04</pdfrwt>
<totfact> 0.27072187E+00</totfact>
</mgrwt>
</event>
<event>
12    4  0.4280696E-008  0.1289516E+04  0.7818608E-02  0.9037921E-01
         -2   -1    0    0    0  501 -0.00000000000E+00  0.00000000000E+00  0.22573190331E+03  0.22573190331E+03  0.00000000000E+00 0.  1.
          1   -1    0    0  501    0  0.00000000000E+00 -0.00000000000E+00 -0.18416212056E+04  0.18416212056E+04  0.00000000000E+00 0. -1.
        -24    2    1    2    0    0  0.32278345841E+02 -0.20428573808E+03 -0.63941340825E+03  0.67661998027E+03  0.78679963450E+02 0.  0.
        254    2    1    2    0    0 -0.32278345841E+02  0.20428573808E+03 -0.97647589403E+03  0.13907331286E+04  0.96843115867E+03 0.  0.
         23    2    4    4    0    0 -0.18998624002E+03 -0.23684494535E+03 -0.83555787238E+03  0.89360478234E+03  0.90455786877E+02 0.  0.
         23    2    4    4    0    0  0.15770789417E+03  0.44113068343E+03 -0.14091802165E+03  0.49712834631E+03  0.88377848631E+02 0.  0.
          3    1    3    3  502    0  0.49531047245E+02 -0.19247950232E+03 -0.59911960236E+03  0.63122577687E+03  0.00000000000E+00 0. -1.
         -4    1    3    3    0  502 -0.17252701404E+02 -0.11806235767E+02 -0.40293805896E+02  0.45394203400E+02  0.00000000000E+00 0.  1.
         11    1    5    5    0    0 -0.12667650947E+03 -0.11434012984E+03 -0.56072710289E+03  0.58611900435E+03  0.00000000000E+00 0.  1.
        -11    1    5    5    0    0 -0.63309730543E+02 -0.12250481550E+03 -0.27483076949E+03  0.30748577798E+03  0.00000000000E+00 0. -1.
          3    1    6    6  503    0  0.13224133610E+03  0.41399986821E+03 -0.14826061283E+03  0.45920025171E+03  0.00000000000E+00 0. -1.
         -3    1    6    6    0  503  0.25466558073E+02  0.27130815222E+02  0.73425911849E+01  0.37928094600E+02  0.00000000000E+00 0.  1.
<mgrwt>
<rscale>  0 0.12895157E+04</rscale>
<asrwt>0</asrwt>
<pdfrwt beam="1">  1        1 0.28332633E+00 0.12895157E+04</pdfrwt>
<pdfrwt beam="2">  1       -2 0.34727987E-01 0.12895157E+04</pdfrwt>
<totfact> 0.25635918E+01</totfact>
</mgrwt>
</event>
<event>
12    4  0.4280696E-008  0.3737035E+04  0.7818608E-02  0.8059804E-01
          1   -1    0    0  501    0  0.00000000000E+00  0.00000000000E+00  0.14578691345E+04  0.14578691345E+04  0.00000000000E+00 0. -1.
         -2   -1    0    0    0  501 -0.00000000000E+00 -0.00000000000E+00 -0.23948362460E+04  0.23948362460E+04  0.00000000000E+00 0.  1.
        -24    2    1    2    0    0  0.12299550710E+04  0.94398358917E+03 -0.13079439707E+04  0.20299701575E+04  0.78529715138E+02 0.  0.
        254    2    1    2    0    0 -0.12299550710E+04 -0.94398358917E+03  0.37097685919E+03  0.18227352230E+04  0.88365455341E+03 0.  0.
         23    2    4    4    0    0 -0.48031471716E+03 -0.87213796482E+03  0.36336942848E+03  0.10637240436E+04  0.90247670897E+02 0.  0.
         23    2    4    4    0    0 -0.74964035388E+03 -0.71845624352E+02  0.76074307059E+01  0.75901117945E+03  0.94433276040E+02 0.  0.
          1    1    3    3  502    0  0.21113973994E+03  0.14040882306E+03 -0.24518279500E+03  0.35271692664E+03  0.00000000000E+00 0. -1.
         -2    1    3    3    0  502  0.10188153311E+04  0.80357476611E+03 -0.10627611757E+04  0.16772532308E+04  0.00000000000E+00 0.  1.
         11    1    5    5    0    0 -0.38062101753E+02 -0.99203277013E+02  0.64975824029E+02  0.12454666382E+03  0.00000000000E+00 0. -1.
        -11    1    5    5    0    0 -0.44225261541E+03 -0.77293468781E+03  0.29839360445E+03  0.93917737975E+03  0.00000000000E+00 0.  1.
          3    1    6    6  503    0 -0.77549574882E+02 -0.37046057042E+02  0.32717018181E+01  0.86006109897E+02  0.00000000000E+00 0. -1.
         -3    1    6    6    0  503 -0.67209077900E+03 -0.34799567310E+02  0.43357288878E+01  0.67300506956E+03  0.00000000000E+00 0.  1.
<mgrwt>
<rscale>  0 0.37370351E+04</rscale>
<asrwt>0</asrwt>
<pdfrwt beam="1">  1        1 0.22428756E+00 0.37370351E+04</pdfrwt>
<pdfrwt beam="2">  1       -2 0.36843634E+00 0.37370351E+04</pdfrwt>
<totfact> 0.58367817E-02</totfact>
</mgrwt>
</event>
<event>
12    4  0.4280696E-008  0.2258604E+04  0.7818608E-02  0.8494424E-01
         -2   -1    0    0    0  501 -0.00000000000E+00  0.00000000000E+00  0.15634622123E+04  0.15634622123E+04  0.00000000000E+00 0.  1.
          1   -1    0    0  501    0  0.00000000000E+00 -0.00000000000E+00 -0.81570413262E+03  0.81570413262E+03  0.00000000000E+00 0. -1.
        -24    2    1    2    0    0  0.61134244009E+03  0.40614175311E+03 -0.32655477768E+03  0.80737693323E+03  0.80800908543E+02 0.  0.
        254    2    1    2    0    0 -0.61134244009E+03 -0.40614175311E+03  0.10743128574E+04  0.15717894117E+04  0.88186344554E+03 0.  0.
         23    2    4    4    0    0 -0.36937130809E+03  0.21457262646E+03  0.62612336564E+03  0.76353368839E+03  0.92068719114E+02 0.  0.
         23    2    4    4    0    0 -0.24197113199E+03 -0.62071437957E+03  0.44818949177E+03  0.80825572335E+03  0.92558760097E+02 0.  0.
          1    1    3    3  502    0  0.46058306910E+03  0.27782126865E+03 -0.20855591583E+03  0.57690293021E+03  0.00000000000E+00 0. -1.
         -2    1    3    3    0  502  0.15075937099E+03  0.12832048446E+03 -0.11799886185E+03  0.23047400303E+03  0.00000000000E+00 0.  1.
         11    1    5    5    0    0 -0.36614773434E+03  0.21163246539E+03  0.58325310456E+03  0.72044198084E+03  0.00000000000E+00 0. -1.
        -11    1    5    5    0    0 -0.32235737495E+01  0.29401610639E+01  0.42870261080E+02  0.43091707553E+02  0.00000000000E+00 0.  1.
          3    1    6    6  503    0 -0.14130719153E+03 -0.38601612926E+03  0.32860891704E+03  0.52626988778E+03  0.00000000000E+00 0. -1.
         -3    1    6    6    0  503 -0.10066394046E+03 -0.23469825031E+03  0.11958057473E+03  0.28198583556E+03  0.00000000000E+00 0.  1.
<mgrwt>
<rscale>  0 0.22586036E+04</rscale>
<asrwt>0</asrwt>
<pdfrwt beam="1">  1        1 0.12549294E+00 0.22586036E+04</pdfrwt>
<pdfrwt beam="2">  1       -2 0.24053265E+00 0.22586036E+04</pdfrwt>
<totfact> 0.12520907E+00</totfact>
</mgrwt>
</event>
<event>
12    4  0.4280696E-008  0.2016384E+04  0.7818608E-02  0.8598999E-01
         -2   -1    0    0    0  501 -0.00000000000E+00  0.00000000000E+00  0.53306376367E+03  0.53306376367E+03  0.00000000000E+00 0.  1.
          1   -1    0    0  501    0  0.00000000000E+00 -0.00000000000E+00 -0.19068102434E+04  0.19068102434E+04  0.00000000000E+00 0. -1.
        -24    2    1    2    0    0 -0.33794637225E+03  0.26687859979E+03 -0.13778542607E+04  0.14457074215E+04  0.78457933976E+02 0.  0.
        254    2    1    2    0    0  0.33794637225E+03 -0.26687859979E+03  0.41077809780E+01  0.99416658553E+03  0.89605713456E+03 0.  0.
         23    2    4    4    0    0  0.51560293143E+03 -0.45214557732E+03 -0.10656938068E+03  0.70020287287E+03  0.92978622773E+02 0.  0.
         23    2    4    4    0    0 -0.17765655918E+03  0.18526697753E+03  0.11067716166E+03  0.29396371266E+03  0.90991891214E+02 0.  0.
          3    1    3    3  502    0 -0.17979364039E+03  0.15612617786E+03 -0.88232598488E+03  0.91389292597E+03  0.00000000000E+00 0. -1.
         -4    1    3    3    0  502 -0.15815273185E+03  0.11075242192E+03 -0.49552827583E+03  0.53181449557E+03  0.00000000000E+00 0.  1.
         11    1    5    5    0    0  0.42661299191E+03 -0.32677478255E+03 -0.67771159893E+02  0.54163948664E+03  0.00000000000E+00 0. -1.
        -11    1    5    5    0    0  0.88989939519E+02 -0.12537079477E+03 -0.38798220787E+02  0.15856338623E+03  0.00000000000E+00 0.  1.
          3    1    6    6  503    0 -0.14996959061E+03  0.14021807172E+03  0.12344986624E+03  0.23956597258E+03  0.00000000000E+00 0. -1.
         -3    1    6    6    0  503 -0.27686968575E+02  0.45048905808E+02 -0.12772704586E+02  0.54397740080E+02  0.00000000000E+00 0.  1.
<mgrwt>
<rscale>  0 0.20163843E+04</rscale>
<asrwt>0</asrwt>
<pdfrwt beam="1">  1        1 0.29335542E+00 0.20163843E+04</pdfrwt>
<pdfrwt beam="2">  1       -2 0.82009810E-01 0.20163843E+04</pdfrwt>
<totfact> 0.36650396E+00</totfact>
</mgrwt>
</event>
<event>
12    4  0.4280696E-008  0.2816942E+04  0.7818608E-02  0.8298028E-01
          1   -1    0    0  501    0  0.00000000000E+00  0.00000000000E+00  0.14763431559E+04  0.14763431559E+04  0.00000000000E+00 0. -1.
         -2   -1    0    0    0  501 -0.00000000000E+00 -0.00000000000E+00 -0.13437187635E+04  0.13437187635E+04  0.00000000000E+00 0.  1.
        -24    2    1    2    0    0  0.48053662758E+03 -0.21968595915E+02 -0.11004360637E+04  0.12036665363E+04  0.80346318036E+02 0.  0.
        254    2    1    2    0    0 -0.48053662758E+03  0.21968595915E+02  0.12330604561E+04  0.16163953830E+04  0.92784582567E+03 0.  0.
         23    2    4    4    0    0 -0.73722628897E+02  0.39040316617E+03  0.23020572564E+03  0.46902300244E+03  0.95594155336E+02 0.  0.
         23    2    4    4    0    0 -0.40681399868E+03 -0.36843457025E+03  0.10028547304E+04  0.11473723806E+04  0.97489010914E+02 0.  0.
          3    1    3    3  502    0  0.11525153428E+03 -0.11127347854E+02 -0.18836655995E+03  0.22110788076E+03  0.00000000000E+00 0. -1.
         -4    1    3    3    0  502  0.36528509330E+03 -0.10841248061E+02 -0.91206950372E+03  0.98255865559E+03  0.00000000000E+00 0.  1.
         11    1    5    5    0    0 -0.85058708097E+02  0.37918508048E+03  0.20545008724E+03  0.43957484849E+03  0.00000000000E+00 0. -1.
        -11    1    5    5    0    0  0.11336079200E+02  0.11218085685E+02  0.24755638399E+02  0.29448153942E+02  0.00000000000E+00 0.  1.
          2    1    6    6  503    0 -0.60961549916E+02 -0.39133006335E+02  0.20613814657E+03  0.21849631170E+03  0.00000000000E+00 0.  1.
         -2    1    6    6    0  503 -0.34585244877E+03 -0.32930156392E+03  0.79671658387E+03  0.92887606888E+03  0.00000000000E+00 0. -1.
<mgrwt>
<rscale>  0 0.28169416E+04</rscale>
<asrwt>0</asrwt>
<pdfrwt beam="1">  1        1 0.22712972E+00 0.28169416E+04</pdfrwt>
<pdfrwt beam="2">  1       -2 0.20672596E+00 0.28169416E+04</pdfrwt>
<totfact> 0.62008233E-01</totfact>
</mgrwt>
</event>
<event>
12    4  0.4280696E-008  0.1162372E+04  0.7818608E-02  0.9146445E-01
          1   -1    0    0  501    0  0.00000000000E+00  0.00000000000E+00  0.94859624274E+03  0.94859624274E+03  0.00000000000E+00 0. -1.
         -2   -1    0    0    0  501 -0.00000000000E+00 -0.00000000000E+00 -0.35608089941E+03  0.35608089941E+03  0.00000000000E+00 0.  1.
        -24    2    1    2    0    0  0.12240667065E+03 -0.12361938724E+03  0.34207529566E+03  0.39207077121E+03  0.80242356749E+02 0.  0.
        254    2    1    2    0    0 -0.12240667065E+03  0.12361938724E+03  0.25044004768E+03  0.91260637094E+03  0.86015407044E+03 0.  0.
         23    2    4    4    0    0  0.17281591797E+02  0.42988817167E+03  0.33548704773E+03  0.55315715022E+03  0.91262150350E+02 0.  0.
         23    2    4    4    0    0 -0.13968826245E+03 -0.30626878443E+03 -0.85047000057E+02  0.35944922072E+03  0.93044994904E+02 0.  0.
          3    1    3    3  502    0  0.53547017131E+02 -0.57921192033E+02  0.23944534384E+03  0.25210359025E+03  0.00000000000E+00 0. -1.
         -2    1    3    3    0  502  0.68859653518E+02 -0.65698195204E+02  0.10262995182E+03  0.13996718096E+03  0.00000000000E+00 0.  1.
         11    1    5    5    0    0  0.30556560164E+02  0.36134223975E+03  0.31514257061E+03  0.48043392616E+03  0.00000000000E+00 0. -1.
        -11    1    5    5    0    0 -0.13274968367E+02  0.68545931923E+02  0.20344477122E+02  0.72723224061E+02  0.00000000000E+00 0.  1.
          3    1    6    6  503    0 -0.15038231382E+03 -0.30261825610E+03 -0.81624932609E+02  0.34764245836E+03  0.00000000000E+00 0. -1.
         -3    1    6    6    0  503  0.10694051370E+02 -0.36505283333E+01 -0.34220674471E+01  0.11806762360E+02  0.00000000000E+00 0.  1.
<mgrwt>
<rscale>  0 0.11623717E+04</rscale>
<asrwt>0</asrwt>
<pdfrwt beam="1">  1        1 0.14593788E+00 0.11623717E+04</pdfrwt>
<pdfrwt beam="2">  1       -2 0.54781677E-01 0.11623717E+04</pdfrwt>
<totfact> 0.45312973E+01</totfact>
</mgrwt>
</event>
<event>
12    4  0.4280696E-008  0.2646798E+04  0.7818608E-02  0.8352476E-01
          1   -1    0    0  501    0  0.00000000000E+00  0.00000000000E+00  0.95264938193E+03  0.95264938193E+03  0.00000000000E+00 0. -1.
         -2   -1    0    0    0  501 -0.00000000000E+00 -0.00000000000E+00 -0.18384366144E+04  0.18384366144E+04  0.00000000000E+00 0.  1.
        -24    2    1    2    0    0 -0.57246538386E+03 -0.82333491637E+03 -0.10236632891E+04  0.14352208866E+04  0.79846500897E+02 0.  0.
        254    2    1    2    0    0  0.57246538386E+03  0.82333491637E+03  0.13787605658E+03  0.13558651097E+04  0.90208834857E+03 0.  0.
         23    2    4    4    0    0  0.77062175341E+03  0.79555850447E+03  0.19671832691E+03  0.11287176246E+04  0.92380491192E+02 0.  0.
         23    2    4    4    0    0 -0.19815636955E+03  0.27776411901E+02 -0.58842270332E+02  0.22714748512E+03  0.89978282746E+02 0.  0.
          3    1    3    3  502    0 -0.25013229394E+02 -0.72855220356E+02 -0.79163295980E+02  0.11045529507E+03  0.00000000000E+00 0. -1.
         -4    1    3    3    0  502 -0.54745215446E+03 -0.75047969602E+03 -0.94449999309E+03  0.13247655915E+04  0.00000000000E+00 0.  1.
         11    1    5    5    0    0  0.40398544849E+03  0.35107833702E+03  0.99631263539E+02  0.54441402443E+03  0.00000000000E+00 0. -1.
        -11    1    5    5    0    0  0.36663630491E+03  0.44448016745E+03  0.97087063372E+02  0.58430360021E+03  0.00000000000E+00 0.  1.
          3    1    6    6  503    0 -0.17892214064E+03  0.51858745734E+02 -0.61592789148E+02  0.19620431595E+03  0.00000000000E+00 0. -1.
         -3    1    6    6    0  503 -0.19234228905E+02 -0.24082333833E+02  0.27505188158E+01  0.30943169168E+02  0.00000000000E+00 0.  1.
<mgrwt>
<rscale>  0 0.26467984E+04</rscale>
<asrwt>0</asrwt>
<pdfrwt beam="1">  1        1 0.14656145E+00 0.26467984E+04</pdfrwt>
<pdfrwt beam="2">  1       -2 0.28283640E+00 0.26467984E+04</pdfrwt>
<totfact> 0.51356473E-01</totfact>
</mgrwt>
</event>
<event>
12    4  0.4280696E-008  0.2002859E+04  0.7818608E-02  0.8605285E-01
         -2   -1    0    0    0  501 -0.00000000000E+00  0.00000000000E+00  0.12413495176E+04  0.12413495176E+04  0.00000000000E+00 0.  1.
          1   -1    0    0  501    0  0.00000000000E+00 -0.00000000000E+00 -0.80788005770E+03  0.80788005770E+03  0.00000000000E+00 0. -1.
        -24    2    1    2    0    0  0.32797310247E+03  0.49652176891E+03  0.70966832759E+03  0.92952914677E+03  0.79341518491E+02 0.  0.
        254    2    1    2    0    0 -0.32797310247E+03 -0.49652176891E+03 -0.27619886769E+03  0.11197004285E+04  0.90738250600E+03 0.  0.
         23    2    4    4    0    0 -0.18779001488E+03 -0.42967666142E+03 -0.58935977261E+03  0.75845734585E+03  0.89585048147E+02 0.  0.
         23    2    4    4    0    0 -0.14018308759E+03 -0.66845107491E+02  0.31316090491E+03  0.36124308268E+03  0.91144094585E+02 0.  0.
          3    1    3    3  502    0  0.10944232244E+03  0.11029200670E+03  0.15910808751E+03  0.22239004518E+03  0.00000000000E+00 0. -1.
         -4    1    3    3    0  502  0.21853078003E+03  0.38622976220E+03  0.55056024008E+03  0.70713910159E+03  0.00000000000E+00 0.  1.
         11    1    5    5    0    0 -0.12152908241E+03 -0.35203839073E+03 -0.49498452017E+03  0.61944331591E+03  0.00000000000E+00 0. -1.
        -11    1    5    5    0    0 -0.66260932473E+02 -0.77638270684E+02 -0.94375252437E+02  0.13901402994E+03  0.00000000000E+00 0.  1.
          3    1    6    6  503    0 -0.11150534835E+03 -0.61894461730E+02  0.30564753379E+03  0.33118692911E+03  0.00000000000E+00 0. -1.
         -3    1    6    6    0  503 -0.28677739246E+02 -0.49506457606E+01  0.75133711203E+01  0.30056153568E+02  0.00000000000E+00 0.  1.
<mgrwt>
<rscale>  0 0.20028595E+04</rscale>
<asrwt>0</asrwt>
<pdfrwt beam="1">  1        1 0.12428924E+00 0.20028595E+04</pdfrwt>
<pdfrwt beam="2">  1       -2 0.19097685E+00 0.20028595E+04</pdfrwt>
<totfact> 0.26988322E+00</totfact>
</mgrwt>
</event>
<event>
12    4  0.4280696E-008  0.2206783E+04  0.7818608E-02  0.8515610E-01
         -2   -1    0    0    0  501 -0.00000000000E+00  0.00000000000E+00  0.80923336575E+03  0.80923336575E+03  0.00000000000E+00 0.  1.
          1   -1    0    0  501    0  0.00000000000E+00 -0.00000000000E+00 -0.15044763567E+04  0.15044763567E+04  0.00000000000E+00 0. -1.
        -24    2    1    2    0    0  0.21797857042E+03 -0.39713501444E+03 -0.11196800220E+04  0.12104964529E+04  0.79921423663E+02 0.  0.
        254    2    1    2    0    0 -0.21797857042E+03  0.39713501444E+03  0.42443703110E+03  0.11032132695E+04  0.91197688994E+03 0.  0.
         23    2    4    4    0    0  0.10566551997E+03 -0.52572482643E+02  0.51349807929E+03  0.53463206010E+03  0.90675764175E+02 0.  0.
         23    2    4    4    0    0 -0.32364409039E+03  0.44970749709E+03 -0.89061048189E+02  0.56858120941E+03  0.91489842119E+02 0.  0.
          1    1    3    3  502    0  0.21834668290E+03 -0.40000870414E+03 -0.11009289901E+04  0.11915229241E+04  0.00000000000E+00 0. -1.
         -2    1    3    3    0  502 -0.36811247821E+00  0.28736897005E+01 -0.18751031891E+02  0.18973528831E+02  0.00000000000E+00 0.  1.
         11    1    5    5    0    0  0.83826342476E+02 -0.28760724732E+02  0.47991742508E+03  0.48803152549E+03  0.00000000000E+00 0.  1.
        -11    1    5    5    0    0  0.21839177490E+02 -0.23811757911E+02  0.33580654211E+02  0.46600534605E+02  0.00000000000E+00 0. -1.
          2    1    6    6  503    0 -0.30264392523E+03  0.44642215965E+03 -0.91981759987E+02  0.54712588522E+03  0.00000000000E+00 0.  1.
         -2    1    6    6    0  503 -0.21000165155E+02  0.32853374329E+01  0.29207117978E+01  0.21455324188E+02  0.00000000000E+00 0. -1.
<mgrwt>
<rscale>  0 0.22067827E+04</rscale>
<asrwt>0</asrwt>
<pdfrwt beam="1">  1        1 0.23145790E+00 0.22067827E+04</pdfrwt>
<pdfrwt beam="2">  1       -2 0.12449744E+00 0.22067827E+04</pdfrwt>
<totfact> 0.25165870E+00</totfact>
</mgrwt>
</event>
<event>
12    4  0.4280696E-008  0.1615897E+04  0.7818608E-02  0.8810841E-01
         -2   -1    0    0    0  501 -0.00000000000E+00  0.00000000000E+00  0.65813658606E+03  0.65813658606E+03  0.00000000000E+00 0.  1.
          1   -1    0    0  501    0  0.00000000000E+00 -0.00000000000E+00 -0.99186206107E+03  0.99186206107E+03  0.00000000000E+00 0. -1.
        -24    2    1    2    0    0 -0.37312006445E+03  0.28414343387E+03 -0.43328800249E+03  0.64346392268E+03  0.79694750047E+02 0.  0.
        254    2    1    2    0    0  0.37312006445E+03 -0.28414343387E+03  0.99562527482E+02  0.10065347245E+04  0.88501038477E+03 0.  0.
         23    2    4    4    0    0  0.17777929482E+03 -0.57905605655E+03 -0.40437124535E+02  0.61264168081E+03  0.82360632207E+02 0.  0.
         23    2    4    4    0    0  0.19534076963E+03  0.29491262268E+03  0.13999965202E+03  0.39389304364E+03  0.10208014483E+03 0.  0.
          3    1    3    3  502    0 -0.31746342649E+03  0.25113993871E+03 -0.40576074723E+03  0.57314577549E+03  0.00000000000E+00 0. -1.
         -4    1    3    3    0  502 -0.55656637959E+02  0.33003495155E+02 -0.27527255257E+02  0.70318147183E+02  0.00000000000E+00 0.  1.
         11    1    5    5    0    0  0.11618720918E+02 -0.15984350643E+03 -0.57640472362E+01  0.16036884194E+03  0.00000000000E+00 0. -1.
        -11    1    5    5    0    0  0.16616057390E+03 -0.41921255012E+03 -0.34673077299E+02  0.45227283888E+03  0.00000000000E+00 0.  1.
          4    1    6    6  503    0  0.80141106423E+02  0.58410287304E+02  0.77947428852E+01  0.99474200767E+02  0.00000000000E+00 0. -1.
         -4    1    6    6    0  503  0.11519966320E+03  0.23650233538E+03  0.13220490913E+03  0.29441884287E+03  0.00000000000E+00 0.  1.
<mgrwt>
<rscale>  0 0.16158969E+04</rscale>
<asrwt>0</asrwt>
<pdfrwt beam="1">  1        1 0.15259416E+00 0.16158969E+04</pdfrwt>
<pdfrwt beam="2">  1       -2 0.10125178E+00 0.16158969E+04</pdfrwt>
<totfact> 0.10343943E+01</totfact>
</mgrwt>
</event>
<event>
12    4  0.4280696E-008  0.1364509E+04  0.7818608E-02  0.8979917E-01
         -2   -1    0    0    0  501 -0.00000000000E+00  0.00000000000E+00  0.15196794166E+04  0.15196794166E+04  0.00000000000E+00 0.  1.
          1   -1    0    0  501    0  0.00000000000E+00 -0.00000000000E+00 -0.30629562933E+03  0.30629562933E+03  0.00000000000E+00 0. -1.
        -24    2    1    2    0    0 -0.19835795703E+03 -0.12361808732E+03 -0.51173121091E+02  0.25292926496E+03  0.82019595955E+02 0.  0.
        254    2    1    2    0    0  0.19835795703E+03  0.12361808732E+03  0.12645569083E+04  0.15730457809E+04  0.90594787042E+03 0.  0.
         23    2    4    4    0    0  0.14709030297E+03 -0.58151830559E+02  0.13382619215E+04  0.13507187136E+04  0.92080834706E+02 0.  0.
         23    2    4    4    0    0  0.51267654054E+02  0.18176991788E+03 -0.73705013208E+02  0.22232706731E+03  0.91259084399E+02 0.  0.
          3    1    3    3  502    0 -0.16307120893E+03 -0.83418210803E+02 -0.70193777198E+02  0.19615805727E+03  0.00000000000E+00 0. -1.
         -2    1    3    3    0  502 -0.35286748102E+02 -0.40199876519E+02  0.19020656107E+02  0.56771207689E+02  0.00000000000E+00 0.  1.
         11    1    5    5    0    0  0.32636622836E+02  0.22521835519E+02  0.41620925771E+03  0.41809392297E+03  0.00000000000E+00 0. -1.
        -11    1    5    5    0    0  0.11445368014E+03 -0.80673666078E+02  0.92205266383E+03  0.93262479067E+03  0.00000000000E+00 0.  1.
          4    1    6    6  503    0  0.30975947753E+02  0.38046612212E+02 -0.58551746008E+02  0.76389534627E+02  0.00000000000E+00 0. -1.
         -4    1    6    6    0  503  0.20291706301E+02  0.14372330567E+03 -0.15153267201E+02  0.14593753268E+03  0.00000000000E+00 0.  1.
<mgrwt>
<rscale>  0 0.13645089E+04</rscale>
<asrwt>0</asrwt>
<pdfrwt beam="1">  1        1 0.47122405E-01 0.13645089E+04</pdfrwt>
<pdfrwt beam="2">  1       -2 0.23379683E+00 0.13645089E+04</pdfrwt>
<totfact> 0.58987021E+00</totfact>
</mgrwt>
</event>
<event>
12    4  0.4280696E-008  0.1358283E+04  0.7818608E-02  0.8984581E-01
         -2   -1    0    0    0  501 -0.00000000000E+00  0.00000000000E+00  0.14998662569E+03  0.14998662569E+03  0.00000000000E+00 0.  1.
          1   -1    0    0  501    0  0.00000000000E+00 -0.00000000000E+00 -0.30751629732E+04  0.30751629732E+04  0.00000000000E+00 0. -1.
        -24    2    1    2    0    0  0.74724958366E+02 -0.31376906121E+03 -0.39858188204E+03  0.51895401062E+03  0.80068128946E+02 0.  0.
        254    2    1    2    0    0 -0.74724958366E+02  0.31376906121E+03 -0.25265944654E+04  0.27061955882E+04  0.91421011035E+03 0.  0.
         23    2    4    4    0    0  0.22103102955E+03 -0.23696780517E+03 -0.82674890459E+03  0.89270929921E+03  0.91693429064E+02 0.  0.
         23    2    4    4    0    0 -0.29575598792E+03  0.55073686638E+03 -0.16998455608E+04  0.18134862890E+04  0.92059162553E+02 0.  0.
          1    1    3    3  502    0  0.45042222175E+01  0.45257033231E+01 -0.76837973589E+01  0.99905330291E+01  0.00000000000E+00 0. -1.
         -2    1    3    3    0  502  0.70220736148E+02 -0.31829476453E+03 -0.39089808469E+03  0.50896347759E+03  0.00000000000E+00 0.  1.
         11    1    5    5    0    0  0.19166113211E+03 -0.15534254164E+03 -0.55280225207E+03  0.60535578357E+03  0.00000000000E+00 0. -1.
        -11    1    5    5    0    0  0.29369897443E+02 -0.81625263534E+02 -0.27394665252E+03  0.28735351564E+03  0.00000000000E+00 0.  1.
          2    1    6    6  503    0 -0.28387532640E+03  0.46208187347E+03 -0.14705762823E+04  0.15673861875E+04  0.00000000000E+00 0. -1.
         -2    1    6    6    0  503 -0.11880661513E+02  0.88654992911E+02 -0.22926927851E+03  0.24610010150E+03  0.00000000000E+00 0.  1.
<mgrwt>
<rscale>  0 0.13582832E+04</rscale>
<asrwt>0</asrwt>
<pdfrwt beam="1">  1        1 0.47310195E+00 0.13582832E+04</pdfrwt>
<pdfrwt beam="2">  1       -2 0.23074868E-01 0.13582832E+04</pdfrwt>
<totfact> 0.75695394E+00</totfact>
</mgrwt>
</event>
<event>
12    4  0.4280696E-008  0.2413519E+04  0.7818608E-02  0.8434459E-01
         -2   -1    0    0    0  501 -0.00000000000E+00  0.00000000000E+00  0.10639839984E+04  0.10639839984E+04  0.00000000000E+00 0.  1.
          1   -1    0    0  501    0  0.00000000000E+00 -0.00000000000E+00 -0.13686942987E+04  0.13686942987E+04  0.00000000000E+00 0. -1.
        -24    2    1    2    0    0  0.10851971212E+03 -0.37554013407E+03  0.83661578342E+03  0.92677701033E+03  0.78630385998E+02 0.  0.
        254    2    1    2    0    0 -0.10851971212E+03  0.37554013407E+03 -0.11413260837E+04  0.15059012868E+04  0.90128049787E+03 0.  0.
         23    2    4    4    0    0  0.79476563920E+02  0.59864879780E+03 -0.47866257742E+03  0.77582005316E+03  0.89899858415E+02 0.  0.
         23    2    4    4    0    0 -0.18799627604E+03 -0.22310866373E+03 -0.66266350632E+03  0.73008123361E+03  0.93678222780E+02 0.  0.
          3    1    3    3  502    0 -0.42586037677E+01 -0.41305199935E+02  0.52246058607E+02  0.66737589765E+02  0.00000000000E+00 0. -1.
         -4    1    3    3    0  502  0.11277831588E+03 -0.33423493413E+03  0.78436972481E+03  0.86003942057E+03  0.00000000000E+00 0.  1.
         11    1    5    5    0    0  0.96025617791E+02  0.55990101590E+03 -0.45201536322E+03  0.72596691072E+03  0.00000000000E+00 0.  1.
        -11    1    5    5    0    0 -0.16549053871E+02  0.38747781899E+02 -0.26647214198E+02  0.49853142435E+02  0.00000000000E+00 0. -1.
          1    1    6    6  503    0 -0.13376120713E+02 -0.55010350880E+01 -0.11036984565E+03  0.11131345301E+03  0.00000000000E+00 0. -1.
         -1    1    6    6    0  503 -0.17462015532E+03 -0.21760762864E+03 -0.55229366066E+03  0.61876778059E+03  0.00000000000E+00 0.  1.
<mgrwt>
<rscale>  0 0.24135193E+04</rscale>
<asrwt>0</asrwt>
<pdfrwt beam="1">  1        1 0.21056835E+00 0.24135193E+04</pdfrwt>
<pdfrwt beam="2">  1       -2 0.16368985E+00 0.24135193E+04</pdfrwt>
<totfact> 0.15029939E+00</totfact>
</mgrwt>
</event>
<event>
12    4  0.4280696E-008  0.1648891E+04  0.7818608E-02  0.8791063E-01
          1   -1    0    0  501    0  0.00000000000E+00  0.00000000000E+00  0.16201382652E+04  0.16201382652E+04  0.00000000000E+00 0. -1.
         -2   -1    0    0    0  501 -0.00000000000E+00 -0.00000000000E+00 -0.41953855669E+03  0.41953855669E+03  0.00000000000E+00 0.  1.
        -24    2    1    2    0    0  0.15744151518E+03 -0.54062555427E+03  0.61938309353E+03  0.84062516212E+03  0.77145485914E+02 0.  0.
        254    2    1    2    0    0 -0.15744151518E+03  0.54062555427E+03  0.58121661498E+03  0.11990516598E+04  0.88478715443E+03 0.  0.
         23    2    4    4    0    0  0.12488527784E+03 -0.68549963128E+02  0.48691244419E+03  0.51535807972E+03  0.90635489525E+02 0.  0.
         23    2    4    4    0    0 -0.28232679302E+03  0.60917551740E+03  0.94304170796E+02  0.68369358006E+03  0.87979575598E+02 0.  0.
          3    1    3    3  502    0  0.75727003568E+02 -0.29542816184E+03  0.27987979855E+03  0.41393849725E+03  0.00000000000E+00 0. -1.
         -4    1    3    3    0  502  0.81714511611E+02 -0.24519739244E+03  0.33950329498E+03  0.42668666486E+03  0.00000000000E+00 0.  1.
         11    1    5    5    0    0  0.21478782264E+02 -0.51472061152E+02  0.25243590157E+03  0.25852387814E+03  0.00000000000E+00 0. -1.
        -11    1    5    5    0    0  0.10340649558E+03 -0.17077901976E+02  0.23447654261E+03  0.25683420157E+03  0.00000000000E+00 0.  1.
          1    1    6    6  503    0 -0.62597388379E+02  0.22231120533E+03  0.12254223058E+02  0.23128093529E+03  0.00000000000E+00 0. -1.
         -1    1    6    6    0  503 -0.21972940464E+03  0.38686431208E+03  0.82049947738E+02  0.45241264477E+03  0.00000000000E+00 0.  1.
<mgrwt>
<rscale>  0 0.16488911E+04</rscale>
<asrwt>0</asrwt>
<pdfrwt beam="1">  1        1 0.24925204E+00 0.16488911E+04</pdfrwt>
<pdfrwt beam="2">  1       -2 0.64544394E-01 0.16488911E+04</pdfrwt>
<totfact> 0.10048268E+01</totfact>
</mgrwt>
</event>
<event>
12    4  0.4280696E-008  0.1232091E+04  0.7818608E-02  0.9085222E-01
          1   -1    0    0  501    0  0.00000000000E+00  0.00000000000E+00  0.13557907496E+04  0.13557907496E+04  0.00000000000E+00 0. -1.
         -2   -1    0    0    0  501 -0.00000000000E+00 -0.00000000000E+00 -0.27991918547E+03  0.27991918547E+03  0.00000000000E+00 0.  1.
        -24    2    1    2    0    0 -0.26862111314E+03 -0.76311326107E+02  0.33332765648E+03  0.44005113007E+03  0.67505181924E+02 0.  0.
        254    2    1    2    0    0  0.26862111314E+03  0.76311326107E+02  0.74254390769E+03  0.11956588050E+04  0.89456570597E+03 0.  0.
         23    2    4    4    0    0  0.44202545733E+02  0.46351492156E+03  0.44227771141E+03  0.64869111444E+03  0.91600438787E+02 0.  0.
         23    2    4    4    0    0  0.22441856741E+03 -0.38720359546E+03  0.30026619628E+03  0.54696769060E+03  0.93399936807E+02 0.  0.
          1    1    3    3  502    0 -0.20497645370E+03 -0.61342794444E+02  0.20646444842E+03  0.29733121845E+03  0.00000000000E+00 0. -1.
         -2    1    3    3    0  502 -0.63644659441E+02 -0.14968531663E+02  0.12686320805E+03  0.14271991162E+03  0.00000000000E+00 0.  1.
         11    1    5    5    0    0  0.53249082846E+02  0.19336741303E+03  0.14902640947E+03  0.24987055042E+03  0.00000000000E+00 0. -1.
        -11    1    5    5    0    0 -0.90465371130E+01  0.27014750853E+03  0.29325130194E+03  0.39882056402E+03  0.00000000000E+00 0.  1.
          3    1    6    6  503    0  0.82995026302E+02 -0.21601358755E+03  0.11836906373E+03  0.25992552712E+03  0.00000000000E+00 0. -1.
         -3    1    6    6    0  503  0.14142354111E+03 -0.17119000790E+03  0.18189713255E+03  0.28704216348E+03  0.00000000000E+00 0.  1.
<mgrwt>
<rscale>  0 0.12320906E+04</rscale>
<asrwt>0</asrwt>
<pdfrwt beam="1">  1        1 0.20858319E+00 0.12320906E+04</pdfrwt>
<pdfrwt beam="2">  1       -2 0.43064491E-01 0.12320906E+04</pdfrwt>
<totfact> 0.36552220E+01</totfact>
</mgrwt>
</event>
<event>
12    4  0.4280696E-008  0.1804005E+04  0.7818608E-02  0.8704172E-01
         -2   -1    0    0    0  501 -0.00000000000E+00  0.00000000000E+00  0.33050337358E+03  0.33050337358E+03  0.00000000000E+00 0.  1.
          1   -1    0    0  501    0  0.00000000000E+00 -0.00000000000E+00 -0.24617258152E+04  0.24617258152E+04  0.00000000000E+00 0. -1.
        -24    2    1    2    0    0 -0.48942772686E+02  0.58216995833E+03 -0.13150940788E+04  0.14412136826E+04  0.79417802724E+02 0.  0.
        254    2    1    2    0    0  0.48942772686E+02 -0.58216995833E+03 -0.81612836276E+03  0.13510155061E+04  0.90435620081E+03 0.  0.
         23    2    4    4    0    0 -0.31968371116E+03 -0.18203254160E+03 -0.16876929815E+02  0.37989440601E+03  0.93281335607E+02 0.  0.
         23    2    4    4    0    0  0.36862648385E+03 -0.40013741673E+03 -0.79925143294E+03  0.97112110013E+03  0.90982972046E+02 0.  0.
          1    1    3    3  502    0  0.12997926112E+02  0.77440076014E+02 -0.13420846756E+03  0.15549219987E+03  0.00000000000E+00 0. -1.
         -2    1    3    3    0  502 -0.61940698798E+02  0.50472988232E+03 -0.11808856113E+04  0.12857214827E+04  0.00000000000E+00 0.  1.
         11    1    5    5    0    0 -0.26816279789E+03 -0.14844292674E+03 -0.49174107140E+02  0.31042661207E+03  0.00000000000E+00 0.  1.
        -11    1    5    5    0    0 -0.51520913275E+02 -0.33589614866E+02  0.32297177325E+02  0.69467793938E+02  0.00000000000E+00 0. -1.
          3    1    6    6  503    0  0.16431371674E+02 -0.22640157755E+02 -0.87337147471E+02  0.91707927938E+02  0.00000000000E+00 0. -1.
         -3    1    6    6    0  503  0.35219511217E+03 -0.37749725898E+03 -0.71191428547E+03  0.87941317220E+03  0.00000000000E+00 0.  1.
<mgrwt>
<rscale>  0 0.18040052E+04</rscale>
<asrwt>0</asrwt>
<pdfrwt beam="1">  1        1 0.37872706E+00 0.18040052E+04</pdfrwt>
<pdfrwt beam="2">  1       -2 0.50846671E-01 0.18040052E+04</pdfrwt>
<totfact> 0.43665792E+00</totfact>
</mgrwt>
</event>
<event>
12    4  0.4280696E-008  0.1941666E+04  0.7818608E-02  0.8634390E-01
         -2   -1    0    0    0  501 -0.00000000000E+00  0.00000000000E+00  0.90464865307E+03  0.90464865307E+03  0.00000000000E+00 0.  1.
          1   -1    0    0  501    0  0.00000000000E+00 -0.00000000000E+00 -0.10418598520E+04  0.10418598520E+04  0.00000000000E+00 0. -1.
        -24    2    1    2    0    0 -0.22550928810E+02  0.65358782625E+03  0.34212958465E+03  0.74261325144E+03  0.82074341310E+02 0.  0.
        254    2    1    2    0    0  0.22550928810E+02 -0.65358782625E+03 -0.47934078363E+03  0.12038952537E+04  0.88989359136E+03 0.  0.
         23    2    4    4    0    0  0.76201803562E+02  0.20538953301E+03 -0.13167188386E+03  0.27122935964E+03  0.90754093002E+02 0.  0.
         23    2    4    4    0    0 -0.53650874752E+02 -0.85897735926E+03 -0.34766889977E+03  0.93266589403E+03  0.90947709928E+02 0.  0.
          1    1    3    3  502    0  0.78108079900E+01  0.10401102862E+03  0.24564468804E+02  0.10715743522E+03  0.00000000000E+00 0. -1.
         -2    1    3    3    0  502 -0.30361736800E+02  0.54957679763E+03  0.31756511585E+03  0.63545581622E+03  0.00000000000E+00 0.  1.
         11    1    5    5    0    0  0.66380694776E+02  0.88733923454E+02 -0.26691683535E+02  0.11398487523E+03  0.00000000000E+00 0.  1.
        -11    1    5    5    0    0  0.98211087862E+01  0.11665560955E+03 -0.10498020033E+03  0.15724448441E+03  0.00000000000E+00 0. -1.
          2    1    6    6  503    0 -0.47483251580E+02 -0.85656056191E+03 -0.34855779675E+03  0.92598228551E+03  0.00000000000E+00 0.  1.
         -2    1    6    6    0  503 -0.61676231723E+01 -0.24167973438E+01  0.88889697840E+00  0.66836085190E+01  0.00000000000E+00 0. -1.
<mgrwt>
<rscale>  0 0.19416664E+04</rscale>
<asrwt>0</asrwt>
<pdfrwt beam="1">  1        1 0.16028613E+00 0.19416664E+04</pdfrwt>
<pdfrwt beam="2">  1       -2 0.13917672E+00 0.19416664E+04</pdfrwt>
<totfact> 0.41853268E+00</totfact>
</mgrwt>
</event>
<event>
12    4  0.4280696E-008  0.2077003E+04  0.7818608E-02  0.8571442E-01
          1   -1    0    0  501    0  0.00000000000E+00  0.00000000000E+00  0.23716133525E+04  0.23716133525E+04  0.00000000000E+00 0. -1.
         -2   -1    0    0    0  501 -0.00000000000E+00 -0.00000000000E+00 -0.45474737995E+03  0.45474737995E+03  0.00000000000E+00 0.  1.
        -24    2    1    2    0    0  0.17045552624E+03  0.38879726793E+03 -0.20724100298E+03  0.47922305765E+03  0.80545041342E+02 0.  0.
        254    2    1    2    0    0 -0.17045552624E+03 -0.38879726793E+03  0.21241069755E+04  0.23471376748E+04  0.90388407388E+03 0.  0.
         23    2    4    4    0    0  0.23202497326E+03  0.80657095612E+02  0.21852501277E+03  0.34158616060E+03  0.92664818648E+02 0.  0.
         23    2    4    4    0    0 -0.40248049950E+03 -0.46945436354E+03  0.19055819628E+04  0.20055515142E+04  0.92824067027E+02 0.  0.
          3    1    3    3  502    0  0.45822580350E+02  0.94713816628E+02 -0.91686963282E+02  0.13955971900E+03  0.00000000000E+00 0. -1.
         -4    1    3    3    0  502  0.12463294589E+03  0.29408345130E+03 -0.11555403970E+03  0.33966333865E+03  0.00000000000E+00 0.  1.
         11    1    5    5    0    0  0.16651052016E+03  0.14737237675E+02  0.16215425247E+03  0.23288825881E+03  0.00000000000E+00 0.  1.
        -11    1    5    5    0    0  0.65514453103E+02  0.65919857938E+02  0.56370760305E+02  0.10869790179E+03  0.00000000000E+00 0. -1.
          4    1    6    6  503    0 -0.13628576976E+03 -0.22841182247E+03  0.83619211501E+03  0.87747536996E+03  0.00000000000E+00 0. -1.
         -4    1    6    6    0  503 -0.26619472974E+03 -0.24104254107E+03  0.10693898477E+04  0.11280761442E+04  0.00000000000E+00 0.  1.
<mgrwt>
<rscale>  0 0.20770026E+04</rscale>
<asrwt>0</asrwt>
<pdfrwt beam="1">  1        1 0.36486359E+00 0.20770026E+04</pdfrwt>
<pdfrwt beam="2">  1       -2 0.69961137E-01 0.20770026E+04</pdfrwt>
<totfact> 0.25043857E+00</totfact>
</mgrwt>
</event>
<event>
12    4  0.4280696E-008  0.2262073E+04  0.7818608E-02  0.8493027E-01
         -2   -1    0    0    0  501 -0.00000000000E+00  0.00000000000E+00  0.14178481794E+04  0.14178481794E+04  0.00000000000E+00 0.  1.
          1   -1    0    0  501    0  0.00000000000E+00 -0.00000000000E+00 -0.90224332109E+03  0.90224332109E+03  0.00000000000E+00 0. -1.
        -24    2    1    2    0    0 -0.32988957762E+03 -0.67439474724E+03 -0.37933382500E+03  0.84495209046E+03  0.80090423072E+02 0.  0.
        254    2    1    2    0    0  0.32988957762E+03  0.67439474724E+03  0.89493868335E+03  0.14751394101E+04  0.90082496838E+03 0.  0.
         23    2    4    4    0    0  0.49706095727E+03  0.61347347850E+03  0.97745769506E+03  0.12590327118E+04  0.79501696024E+02 0.  0.
         23    2    4    4    0    0 -0.16717137965E+03  0.60921268736E+02 -0.82519011711E+02  0.21610669827E+03  0.90747157456E+02 0.  0.
          3    1    3    3  502    0 -0.33113340011E+03 -0.67613458902E+03 -0.37850367204E+03  0.84265790264E+03  0.00000000000E+00 0. -1.
         -4    1    3    3    0  502  0.12438224938E+01  0.17398417821E+01 -0.83015295986E+00  0.22941878213E+01  0.00000000000E+00 0.  1.
         11    1    5    5    0    0  0.13779245544E+03  0.13123622815E+03  0.27360446034E+03  0.33327032432E+03  0.00000000000E+00 0. -1.
        -11    1    5    5    0    0  0.35926850183E+03  0.48223725036E+03  0.70385323471E+03  0.92576238747E+03  0.00000000000E+00 0.  1.
          2    1    6    6  503    0 -0.65469532271E+02  0.71412740598E+02 -0.48580559989E+02  0.10837947215E+03  0.00000000000E+00 0. -1.
         -2    1    6    6    0  503 -0.10170184738E+03 -0.10491471862E+02 -0.33938451722E+02  0.10772722612E+03  0.00000000000E+00 0.  1.
<mgrwt>
<rscale>  0 0.22620734E+04</rscale>
<asrwt>0</asrwt>
<pdfrwt beam="1">  1        1 0.13880666E+00 0.22620734E+04</pdfrwt>
<pdfrwt beam="2">  1       -2 0.21813049E+00 0.22620734E+04</pdfrwt>
<totfact> 0.14628170E+00</totfact>
</mgrwt>
</event>
<event>
12    4  0.4280696E-008  0.1615838E+04  0.7818608E-02  0.8810877E-01
          1   -1    0    0  501    0  0.00000000000E+00  0.00000000000E+00  0.19882831451E+04  0.19882831451E+04  0.00000000000E+00 0. -1.
         -2   -1    0    0    0  501 -0.00000000000E+00 -0.00000000000E+00 -0.32828975394E+03  0.32828975394E+03  0.00000000000E+00 0.  1.
        -24    2    1    2    0    0  0.14053291523E+02 -0.40003218456E+03  0.11279235635E+04  0.11994489673E+04  0.79012761804E+02 0.  0.
        254    2    1    2    0    0 -0.14053291523E+02  0.40003218456E+03  0.53206982770E+03  0.11171239317E+04  0.89701969519E+03 0.  0.
         23    2    4    4    0    0 -0.21099138108E+03  0.50118457163E+03  0.64854187074E+03  0.85087022505E+03  0.87579929417E+02 0.  0.
         23    2    4    4    0    0  0.19693808956E+03 -0.10115238707E+03 -0.11647204304E+03  0.26625370666E+03  0.91153074388E+02 0.  0.
          1    1    3    3  502    0  0.20277945011E+02 -0.26038715976E+03  0.62292847617E+03  0.67546469518E+03  0.00000000000E+00 0. -1.
         -2    1    3    3    0  502 -0.62246534876E+01 -0.13964502480E+03  0.50499508729E+03  0.52398427214E+03  0.00000000000E+00 0.  1.
         11    1    5    5    0    0 -0.26597926770E+02  0.68053616601E+02  0.46399682928E+02  0.86554462720E+02  0.00000000000E+00 0.  1.
        -11    1    5    5    0    0 -0.18439345431E+03  0.43313095503E+03  0.60214218781E+03  0.76431576233E+03  0.00000000000E+00 0. -1.
          3    1    6    6  503    0  0.91513092019E+02 -0.55217594763E+02 -0.10640458261E+03  0.15081632532E+03  0.00000000000E+00 0. -1.
         -3    1    6    6    0  503  0.10542499754E+03 -0.45934792309E+02 -0.10067460429E+02  0.11543738134E+03  0.00000000000E+00 0.  1.
<mgrwt>
<rscale>  0 0.16158378E+04</rscale>
<asrwt>0</asrwt>
<pdfrwt beam="1">  1        1 0.30588971E+00 0.16158378E+04</pdfrwt>
<pdfrwt beam="2">  1       -2 0.50506117E-01 0.16158378E+04</pdfrwt>
<totfact> 0.94695160E+00</totfact>
</mgrwt>
</event>
<event>
12    4  0.4280696E-008  0.2044789E+04  0.7818608E-02  0.8585962E-01
         -2   -1    0    0    0  501 -0.00000000000E+00  0.00000000000E+00  0.82809218613E+03  0.82809218613E+03  0.00000000000E+00 0.  1.
          1   -1    0    0  501    0  0.00000000000E+00 -0.00000000000E+00 -0.12622878588E+04  0.12622878588E+04  0.00000000000E+00 0. -1.
        -24    2    1    2    0    0  0.29299028102E+03 -0.71871279446E+03 -0.48709855883E+03  0.91978324118E+03  0.79654372480E+02 0.  0.
        254    2    1    2    0    0 -0.29299028102E+03  0.71871279446E+03  0.52902886134E+02  0.11705968038E+04  0.87470382186E+03 0.  0.
         23    2    4    4    0    0 -0.89287748918E+02  0.52231987873E+03  0.43173794004E+03  0.68967295261E+03  0.91982470377E+02 0.  0.
         23    2    4    4    0    0 -0.20370253210E+03  0.19639291572E+03 -0.37883505391E+03  0.48092385117E+03  0.87788687348E+02 0.  0.
          1    1    3    3  502    0  0.28330827502E+03 -0.71617170942E+03 -0.48178436778E+03  0.90845014894E+03  0.00000000000E+00 0. -1.
         -2    1    3    3    0  502  0.96820059931E+01 -0.25410850363E+01 -0.53141910485E+01  0.11333092240E+02  0.00000000000E+00 0.  1.
         11    1    5    5    0    0 -0.17244921730E+02  0.12793313305E+02  0.74794231176E+01  0.22737589163E+02  0.00000000000E+00 0.  1.
        -11    1    5    5    0    0 -0.72042827188E+02  0.50952656543E+03  0.42425851693E+03  0.66693536344E+03  0.00000000000E+00 0. -1.
          3    1    6    6  503    0 -0.17372531758E+03  0.20029565411E+03 -0.35052628010E+03  0.43950825710E+03  0.00000000000E+00 0. -1.
         -3    1    6    6    0  503 -0.29977214518E+02 -0.39027383890E+01 -0.28308773812E+02  0.41415594068E+02  0.00000000000E+00 0.  1.
<mgrwt>
<rscale>  0 0.20447892E+04</rscale>
<asrwt>0</asrwt>
<pdfrwt beam="1">  1        1 0.19419813E+00 0.20447892E+04</pdfrwt>
<pdfrwt beam="2">  1       -2 0.12739880E+00 0.20447892E+04</pdfrwt>
<totfact> 0.35679299E+00</totfact>
</mgrwt>
</event>
<event>
12    4  0.4280696E-008  0.1174000E+04  0.7818608E-02  0.9135924E-01
         -2   -1    0    0    0  501 -0.00000000000E+00  0.00000000000E+00  0.35199773183E+03  0.35199773183E+03  0.00000000000E+00 0.  1.
          1   -1    0    0  501    0  0.00000000000E+00 -0.00000000000E+00 -0.97889555772E+03  0.97889555772E+03  0.00000000000E+00 0. -1.
        -24    2    1    2    0    0  0.12496540850E+02  0.15593559525E+03  0.67061433234E+02  0.18798410655E+03  0.79804229767E+02 0.  0.
        254    2    1    2    0    0 -0.12496540850E+02 -0.15593559525E+03 -0.69395925912E+03  0.11429091830E+04  0.89453332742E+03 0.  0.
         23    2    4    4    0    0 -0.36131964493E+03 -0.92449673635E+02 -0.67441415051E+03  0.77637465644E+03  0.93937919887E+02 0.  0.
         23    2    4    4    0    0  0.34882310408E+03 -0.63485921612E+02 -0.19545108611E+02  0.36653452656E+03  0.90870939833E+02 0.  0.
          1    1    3    3  502    0 -0.18826612925E+01  0.43419829826E+02  0.60329432941E+02  0.74353658381E+02  0.00000000000E+00 0. -1.
         -2    1    3    3    0  502  0.14379202142E+02  0.11251576542E+03  0.67320002926E+01  0.11363044817E+03  0.00000000000E+00 0.  1.
         11    1    5    5    0    0 -0.15502418526E+03 -0.87971368196E+02 -0.31634264519E+03  0.36310346845E+03  0.00000000000E+00 0.  1.
        -11    1    5    5    0    0 -0.20629545967E+03 -0.44783054393E+01 -0.35807150532E+03  0.41327118799E+03  0.00000000000E+00 0. -1.
          3    1    6    6  503    0  0.18658615068E+03 -0.79455801954E+02 -0.49256878133E+01  0.20285925783E+03  0.00000000000E+00 0. -1.
         -3    1    6    6    0  503  0.16223695340E+03  0.15969880342E+02 -0.14619420798E+02  0.16367526872E+03  0.00000000000E+00 0.  1.
<mgrwt>
<rscale>  0 0.11740000E+04</rscale>
<asrwt>0</asrwt>
<pdfrwt beam="1">  1        1 0.15059932E+00 0.11740000E+04</pdfrwt>
<pdfrwt beam="2">  1       -2 0.54153498E-01 0.11740000E+04</pdfrwt>
<totfact> 0.43872879E+01</totfact>
</mgrwt>
</event>
<event>
12    4  0.4280696E-008  0.2023699E+04  0.7818608E-02  0.8595620E-01
          1   -1    0    0  501    0  0.00000000000E+00  0.00000000000E+00  0.45914377831E+03  0.45914377831E+03  0.00000000000E+00 0. -1.
         -2   -1    0    0    0  501 -0.00000000000E+00 -0.00000000000E+00 -0.22298884643E+04  0.22298884643E+04  0.00000000000E+00 0.  1.
        -24    2    1    2    0    0  0.53987311514E+00  0.67787509087E+02 -0.18033138123E+04  0.18063192065E+04  0.79075483958E+02 0.  0.
        254    2    1    2    0    0 -0.53987311514E+00 -0.67787509087E+02  0.32569126309E+02  0.88271303615E+03  0.87950333618E+03 0.  0.
         23    2    4    4    0    0  0.68622683398E+02 -0.22776854155E+03 -0.36170201537E+03  0.44235266287E+03  0.90884262824E+02 0.  0.
         23    2    4    4    0    0 -0.69162556513E+02  0.15998103246E+03  0.39427114168E+03  0.44036037328E+03  0.89945179007E+02 0.  0.
          1    1    3    3  502    0  0.54465719788E+01 -0.17676213368E+02 -0.34340737360E+03  0.34390512923E+03  0.00000000000E+00 0. -1.
         -2    1    3    3    0  502 -0.49066988636E+01  0.85463722455E+02 -0.14599064387E+04  0.14624140772E+04  0.00000000000E+00 0.  1.
         11    1    5    5    0    0  0.41760103155E+02 -0.20463823543E+03 -0.34470136763E+03  0.40303814517E+03  0.00000000000E+00 0. -1.
        -11    1    5    5    0    0  0.26862580243E+02 -0.23130306120E+02 -0.17000647741E+02  0.39314517701E+02  0.00000000000E+00 0.  1.
          4    1    6    6  503    0 -0.36119296534E+02  0.60537420206E+02  0.26359127083E+03  0.27285479818E+03  0.00000000000E+00 0. -1.
         -4    1    6    6    0  503 -0.33043259979E+02  0.99443612252E+02  0.13067987084E+03  0.16750557511E+03  0.00000000000E+00 0.  1.
<mgrwt>
<rscale>  0 0.20236990E+04</rscale>
<asrwt>0</asrwt>
<pdfrwt beam="1">  1        1 0.70637505E-01 0.20236990E+04</pdfrwt>
<pdfrwt beam="2">  1       -2 0.34305976E+00 0.20236990E+04</pdfrwt>
<totfact> 0.69598038E-01</totfact>
</mgrwt>
</event>
<event>
12    4  0.4280696E-008  0.2494399E+04  0.7818608E-02  0.8404984E-01
         -2   -1    0    0    0  501 -0.00000000000E+00  0.00000000000E+00  0.20048197726E+04  0.20048197726E+04  0.00000000000E+00 0.  1.
          1   -1    0    0  501    0  0.00000000000E+00 -0.00000000000E+00 -0.77588363065E+03  0.77588363065E+03  0.00000000000E+00 0. -1.
        -24    2    1    2    0    0 -0.53294795867E+02 -0.54174339635E+02 -0.66779764824E+03  0.67694523348E+03  0.80783388120E+02 0.  0.
        254    2    1    2    0    0  0.53294795867E+02  0.54174339635E+02  0.18967337902E+04  0.21037581697E+04  0.90687605085E+03 0.  0.
         23    2    4    4    0    0  0.30688167241E+03 -0.27352359914E+03  0.13339595483E+04  0.13990124316E+04  0.93787989457E+02 0.  0.
         23    2    4    4    0    0 -0.25358687654E+03  0.32769793878E+03  0.56277424182E+03  0.70474573815E+03  0.90881599565E+02 0.  0.
          1    1    3    3  502    0 -0.29801339537E+02 -0.19561670530E+02 -0.56270015500E+03  0.56382820365E+03  0.00000000000E+00 0. -1.
         -2    1    3    3    0  502 -0.23493456329E+02 -0.34612669105E+02 -0.10509749325E+03  0.11311702984E+03  0.00000000000E+00 0.  1.
         11    1    5    5    0    0  0.28006319462E+03 -0.21718374345E+03  0.11998587686E+04  0.12511056054E+04  0.00000000000E+00 0. -1.
        -11    1    5    5    0    0  0.26818477782E+02 -0.56339855693E+02  0.13410077977E+03  0.14790682616E+03  0.00000000000E+00 0.  1.
          2    1    6    6  503    0 -0.23671338328E+03  0.24841237932E+03  0.45717502210E+03  0.57162132296E+03  0.00000000000E+00 0. -1.
         -2    1    6    6    0  503 -0.16873493258E+02  0.79285559458E+02  0.10559921972E+03  0.13312441519E+03  0.00000000000E+00 0.  1.
<mgrwt>
<rscale>  0 0.24943992E+04</rscale>
<asrwt>0</asrwt>
<pdfrwt beam="1">  1        1 0.11936671E+00 0.24943992E+04</pdfrwt>
<pdfrwt beam="2">  1       -2 0.30843381E+00 0.24943992E+04</pdfrwt>
<totfact> 0.51059383E-01</totfact>
</mgrwt>
</event>
<event>
12    4  0.4280696E-008  0.1690476E+04  0.7818608E-02  0.8766815E-01
          1   -1    0    0  501    0  0.00000000000E+00  0.00000000000E+00  0.14273675414E+04  0.14273675414E+04  0.00000000000E+00 0. -1.
         -2   -1    0    0    0  501 -0.00000000000E+00 -0.00000000000E+00 -0.50052069288E+03  0.50052069288E+03  0.00000000000E+00 0.  1.
        -24    2    1    2    0    0 -0.13795997628E+03 -0.28142981808E+03 -0.25449156629E+03  0.41141610499E+03  0.79129997938E+02 0.  0.
        254    2    1    2    0    0  0.13795997628E+03  0.28142981808E+03  0.11813384148E+04  0.15164721293E+04  0.89771463785E+03 0.  0.
         23    2    4    4    0    0 -0.30123624611E+03  0.32437224144E+03  0.35481335363E+03  0.57514566518E+03  0.94548364730E+02 0.  0.
         23    2    4    4    0    0  0.43919622239E+03 -0.42942423358E+02  0.82652506117E+03  0.94132646409E+03  0.90633667939E+02 0.  0.
          3    1    3    3  502    0 -0.83404886307E+02 -0.92570728602E+02 -0.76396068603E+02  0.14615770302E+03  0.00000000000E+00 0. -1.
         -4    1    3    3    0  502 -0.54555089973E+02 -0.18885908948E+03 -0.17809549769E+03  0.26525840198E+03  0.00000000000E+00 0.  1.
         11    1    5    5    0    0 -0.46872709732E+02  0.46140958087E+02  0.14656727185E+02  0.67385893054E+02  0.00000000000E+00 0.  1.
        -11    1    5    5    0    0 -0.25436353638E+03  0.27823128335E+03  0.34015662645E+03  0.50775977213E+03  0.00000000000E+00 0. -1.
          1    1    6    6  503    0  0.33391197121E+03 -0.35694788534E+01  0.67019822112E+03  0.74878274639E+03  0.00000000000E+00 0. -1.
         -1    1    6    6    0  503  0.10528425118E+03 -0.39372944505E+02  0.15632684005E+03  0.19254371770E+03  0.00000000000E+00 0.  1.
<mgrwt>
<rscale>  0 0.16904757E+04</rscale>
<asrwt>0</asrwt>
<pdfrwt beam="1">  1        1 0.21959500E+00 0.16904757E+04</pdfrwt>
<pdfrwt beam="2">  1       -2 0.77003184E-01 0.16904757E+04</pdfrwt>
<totfact> 0.92491921E+00</totfact>
</mgrwt>
</event>
<event>
12    4  0.4280696E-008  0.1291629E+04  0.7818608E-02  0.9036230E-01
         -2   -1    0    0    0  501 -0.00000000000E+00  0.00000000000E+00  0.98942607464E+03  0.98942607464E+03  0.00000000000E+00 0.  1.
          1   -1    0    0  501    0  0.00000000000E+00 -0.00000000000E+00 -0.42153393543E+03  0.42153393543E+03  0.00000000000E+00 0. -1.
        -24    2    1    2    0    0 -0.20701089749E+03 -0.21347653469E+03  0.69957629140E+02  0.31433341988E+03  0.74065419987E+02 0.  0.
        254    2    1    2    0    0  0.20701089749E+03  0.21347653469E+03  0.49793451007E+03  0.10966265902E+04  0.93071228607E+03 0.  0.
         23    2    4    4    0    0 -0.13442522583E+02  0.25075817782E+03  0.72104991053E+03  0.76903852164E+03  0.91907067985E+02 0.  0.
         23    2    4    4    0    0  0.22045342007E+03 -0.37281643126E+02 -0.22311540046E+03  0.32758806854E+03  0.86855220875E+02 0.  0.
          1    1    3    3  502    0 -0.15321170490E+03 -0.18365789023E+03  0.30151863220E+02  0.24106675842E+03  0.00000000000E+00 0. -1.
         -4    1    3    3    0  502 -0.53799192591E+02 -0.29818644461E+02  0.39805765920E+02  0.73266661460E+02  0.00000000000E+00 0.  1.
         11    1    5    5    0    0  0.23485889877E+02  0.14035938029E+02  0.61139119651E+02  0.66981986618E+02  0.00000000000E+00 0.  1.
        -11    1    5    5    0    0 -0.36928412460E+02  0.23672223979E+03  0.65991079088E+03  0.70205653503E+03  0.00000000000E+00 0. -1.
          2    1    6    6  503    0  0.18495389770E+03 -0.30711812726E+02 -0.22318765566E+03  0.29148565891E+03  0.00000000000E+00 0. -1.
         -2    1    6    6    0  503  0.35499522375E+02 -0.65698304001E+01  0.72255195027E-01  0.36102409631E+02  0.00000000000E+00 0.  1.
<mgrwt>
<rscale>  0 0.12916295E+04</rscale>
<asrwt>0</asrwt>
<pdfrwt beam="1">  1        1 0.64851375E-01 0.12916295E+04</pdfrwt>
<pdfrwt beam="2">  1       -2 0.15221940E+00 0.12916295E+04</pdfrwt>
<totfact> 0.13831898E+01</totfact>
</mgrwt>
</event>
<event>
12    4  0.4280696E-008  0.1762427E+04  0.7818608E-02  0.8726540E-01
          1   -1    0    0  501    0  0.00000000000E+00  0.00000000000E+00  0.12178019982E+04  0.12178019982E+04  0.00000000000E+00 0. -1.
         -2   -1    0    0    0  501 -0.00000000000E+00 -0.00000000000E+00 -0.63765451380E+03  0.63765451380E+03  0.00000000000E+00 0.  1.
        -24    2    1    2    0    0  0.30965671715E+03 -0.11597811558E+02  0.81504489463E+03  0.87541268782E+03  0.77636344802E+02 0.  0.
        254    2    1    2    0    0 -0.30965671715E+03  0.11597811558E+02 -0.23489741026E+03  0.98004382413E+03  0.89960397519E+03 0.  0.
         23    2    4    4    0    0 -0.16610116196E+02 -0.17309584171E+03 -0.49913234629E+03  0.53607429458E+03  0.89467780941E+02 0.  0.
         23    2    4    4    0    0 -0.29304660095E+03  0.18469365327E+03  0.26423493602E+03  0.44396952955E+03  0.85444636278E+02 0.  0.
          1    1    3    3  502    0  0.24923274117E+03 -0.34682085617E+02  0.69326705588E+03  0.73752221465E+03  0.00000000000E+00 0. -1.
         -2    1    3    3    0  502  0.60423975973E+02  0.23084274059E+02  0.12177783875E+03  0.13789047317E+03  0.00000000000E+00 0.  1.
         11    1    5    5    0    0 -0.38981667177E+02 -0.36768977037E+02 -0.19129228294E+03  0.19865614907E+03  0.00000000000E+00 0.  1.
        -11    1    5    5    0    0  0.22371550981E+02 -0.13632686468E+03 -0.30784006334E+03  0.33741814552E+03  0.00000000000E+00 0. -1.
          3    1    6    6  503    0 -0.22116188222E+03  0.13136069694E+03  0.14633835962E+03  0.29594446497E+03  0.00000000000E+00 0. -1.
         -3    1    6    6    0  503 -0.71884718726E+02  0.53332956329E+02  0.11789657640E+03  0.14802506458E+03  0.00000000000E+00 0.  1.
<mgrwt>
<rscale>  0 0.17624267E+04</rscale>
<asrwt>0</asrwt>
<pdfrwt beam="1">  1        1 0.18735415E+00 0.17624267E+04</pdfrwt>
<pdfrwt beam="2">  1       -2 0.98100695E-01 0.17624267E+04</pdfrwt>
<totfact> 0.74425524E+00</totfact>
</mgrwt>
</event>
<event>
12    4  0.4280696E-008  0.1829206E+04  0.7818608E-02  0.8690921E-01
         -2   -1    0    0    0  501 -0.00000000000E+00  0.00000000000E+00  0.32147866217E+03  0.32147866217E+03  0.00000000000E+00 0.  1.
          1   -1    0    0  501    0  0.00000000000E+00 -0.00000000000E+00 -0.26020340079E+04  0.26020340079E+04  0.00000000000E+00 0. -1.
        -24    2    1    2    0    0  0.37019727007E+03 -0.34741382712E+03 -0.86000922442E+02  0.52104819966E+03  0.79703711742E+02 0.  0.
        254    2    1    2    0    0 -0.37019727007E+03  0.34741382712E+03 -0.21945544233E+04  0.24024644704E+04  0.83547832334E+03 0.  0.
         23    2    4    4    0    0 -0.49133266015E+03  0.48107652138E+03 -0.20185219721E+04  0.21343935753E+04  0.91447143252E+02 0.  0.
         23    2    4    4    0    0  0.12113539008E+03 -0.13366269426E+03 -0.17603245123E+03  0.26807089517E+03  0.91296672352E+02 0.  0.
          3    1    3    3  502    0  0.69392332355E+02 -0.39465222260E+02 -0.36332683756E+02  0.87708970275E+02  0.00000000000E+00 0. -1.
         -4    1    3    3    0  502  0.30080493772E+03 -0.30794860487E+03 -0.49668238685E+02  0.43333922939E+03  0.00000000000E+00 0.  1.
         11    1    5    5    0    0 -0.29038699215E+02  0.56739515618E+02 -0.24392757239E+03  0.25211759013E+03  0.00000000000E+00 0. -1.
        -11    1    5    5    0    0 -0.46229396094E+03  0.42433700577E+03 -0.17745943997E+04  0.18822759851E+04  0.00000000000E+00 0.  1.
          3    1    6    6  503    0  0.42721068669E+02 -0.76127180691E+02 -0.29394594464E+02  0.92111234558E+02  0.00000000000E+00 0. -1.
         -3    1    6    6    0  503  0.78414321414E+02 -0.57535513569E+02 -0.14663785677E+03  0.17595966061E+03  0.00000000000E+00 0.  1.
<mgrwt>
<rscale>  0 0.18292057E+04</rscale>
<asrwt>0</asrwt>
<pdfrwt beam="1">  1        1 0.40031294E+00 0.18292057E+04</pdfrwt>
<pdfrwt beam="2">  1       -2 0.49458253E-01 0.18292057E+04</pdfrwt>
<totfact> 0.36836798E+00</totfact>
</mgrwt>
</event>
<event>
12    4  0.4280696E-008  0.1177873E+04  0.7818608E-02  0.9132448E-01
         -2   -1    0    0    0  501 -0.00000000000E+00  0.00000000000E+00  0.18448852139E+03  0.18448852139E+03  0.00000000000E+00 0.  1.
          1   -1    0    0  501    0  0.00000000000E+00 -0.00000000000E+00 -0.18800418426E+04  0.18800418426E+04  0.00000000000E+00 0. -1.
        -24    2    1    2    0    0  0.10780955368E+03 -0.19023447064E+03 -0.20227809452E+03  0.30867688425E+03  0.80950217210E+02 0.  0.
        254    2    1    2    0    0 -0.10780955368E+03  0.19023447064E+03 -0.14932752267E+04  0.17558534797E+04  0.89740653327E+03 0.  0.
         23    2    4    4    0    0 -0.13514088935E+03  0.35187901533E+03 -0.15190443139E+04  0.15676658632E+04  0.89435616461E+02 0.  0.
         23    2    4    4    0    0  0.27331335672E+02 -0.16164454469E+03  0.25769087259E+02  0.18818761653E+03  0.88738787573E+02 0.  0.
          1    1    3    3  502    0  0.78504127362E+02 -0.11387696618E+03 -0.74874388047E+02  0.15728011770E+03  0.00000000000E+00 0. -1.
         -2    1    3    3    0  502  0.29305426315E+02 -0.76357504459E+02 -0.12740370647E+03  0.15139676655E+03  0.00000000000E+00 0.  1.
         11    1    5    5    0    0 -0.55533903355E+02  0.57399623200E+02 -0.24873635947E+03  0.26124415340E+03  0.00000000000E+00 0.  1.
        -11    1    5    5    0    0 -0.79606985993E+02  0.29447939213E+03 -0.12703079545E+04  0.13064217098E+04  0.00000000000E+00 0. -1.
          4    1    6    6  503    0  0.34238254139E+01 -0.15080096559E+03  0.42923259228E+02  0.15682812243E+03  0.00000000000E+00 0. -1.
         -4    1    6    6    0  503  0.23907510258E+02 -0.10843579109E+02 -0.17154171969E+02  0.31359494106E+02  0.00000000000E+00 0.  1.
<mgrwt>
<rscale>  0 0.11778729E+04</rscale>
<asrwt>0</asrwt>
<pdfrwt beam="1">  1        1 0.28923722E+00 0.11778729E+04</pdfrwt>
<pdfrwt beam="2">  1       -2 0.28382848E-01 0.11778729E+04</pdfrwt>
<totfact> 0.35601620E+01</totfact>
</mgrwt>
</event>
<event>
12    4  0.4280696E-008  0.1303591E+04  0.7818608E-02  0.9026723E-01
          1   -1    0    0  501    0  0.00000000000E+00  0.00000000000E+00  0.11578914545E+04  0.11578914545E+04  0.00000000000E+00 0. -1.
         -2   -1    0    0    0  501 -0.00000000000E+00 -0.00000000000E+00 -0.36690577718E+03  0.36690577718E+03  0.00000000000E+00 0.  1.
        -24    2    1    2    0    0  0.45375495238E+02 -0.32177128490E+03  0.24115116596E+03  0.41287006992E+03  0.81927495030E+02 0.  0.
        254    2    1    2    0    0 -0.45375495238E+02  0.32177128490E+03  0.54983451132E+03  0.11119271617E+04  0.91020235541E+03 0.  0.
         23    2    4    4    0    0 -0.39412653628E+03 -0.27239682132E+02  0.43924550939E+03  0.59814757059E+03  0.93627836702E+02 0.  0.
         23    2    4    4    0    0  0.34875104104E+03  0.34901096703E+03  0.11058900194E+03  0.51377959114E+03  0.91124075766E+02 0.  0.
          1    1    3    3  502    0  0.28972957921E+02 -0.29552410041E+03  0.24015865082E+03  0.38190326495E+03  0.00000000000E+00 0. -1.
         -2    1    3    3    0  502  0.16402537317E+02 -0.26247184491E+02  0.99251513631E+00  0.30966804976E+02  0.00000000000E+00 0.  1.
         11    1    5    5    0    0 -0.17667229774E+03 -0.52333813409E+02  0.23627472576E+03  0.29962922896E+03  0.00000000000E+00 0. -1.
        -11    1    5    5    0    0 -0.21745423854E+03  0.25094131276E+02  0.20297078362E+03  0.29851834163E+03  0.00000000000E+00 0.  1.
          1    1    6    6  503    0  0.19199993348E+02  0.59823574327E+02  0.21254908094E+02  0.66326999841E+02  0.00000000000E+00 0. -1.
         -1    1    6    6    0  503  0.32955104769E+03  0.28918739270E+03  0.89334093841E+02  0.44745259129E+03  0.00000000000E+00 0.  1.
<mgrwt>
<rscale>  0 0.13035905E+04</rscale>
<asrwt>0</asrwt>
<pdfrwt beam="1">  1        1 0.17813715E+00 0.13035905E+04</pdfrwt>
<pdfrwt beam="2">  1       -2 0.56447043E-01 0.13035905E+04</pdfrwt>
<totfact> 0.29113239E+01</totfact>
</mgrwt>
</event>
<event>
12    4  0.4280696E-008  0.3672532E+04  0.7818608E-02  0.8074076E-01
          1   -1    0    0  501    0  0.00000000000E+00  0.00000000000E+00  0.37816097879E+04  0.37816097879E+04  0.00000000000E+00 0. -1.
         -2   -1    0    0    0  501 -0.00000000000E+00 -0.00000000000E+00 -0.89165011067E+03  0.89165011067E+03  0.00000000000E+00 0.  1.
        -24    2    1    2    0    0  0.62292314010E+03 -0.73560845324E+03 -0.46183427859E+03  0.10720756199E+04  0.83079474239E+02 0.  0.
        254    2    1    2    0    0 -0.62292314010E+03  0.73560845324E+03  0.33517939558E+04  0.36011842786E+04  0.89713569285E+03 0.  0.
         23    2    4    4    0    0 -0.36231116614E+03  0.62337912829E+03  0.31687915506E+04  0.32511249203E+04  0.93286855065E+02 0.  0.
         23    2    4    4    0    0 -0.26061197397E+03  0.11222932495E+03  0.18300240514E+03  0.35005935828E+03  0.92399413850E+02 0.  0.
          3    1    3    3  502    0  0.25661829348E+03 -0.28928678980E+03 -0.22960344552E+03  0.44973051653E+03  0.00000000000E+00 0. -1.
         -4    1    3    3    0  502  0.36630484663E+03 -0.44632166344E+03 -0.23223083306E+03  0.62234510341E+03  0.00000000000E+00 0.  1.
         11    1    5    5    0    0 -0.14222359074E+02  0.35661624395E+01  0.40242551446E+02  0.42830549367E+02  0.00000000000E+00 0.  1.
        -11    1    5    5    0    0 -0.34808880706E+03  0.61981296585E+03  0.31285489992E+04  0.32082943709E+04  0.00000000000E+00 0. -1.
          1    1    6    6  503    0 -0.20049850711E+02  0.57904965155E+01 -0.10630041029E+02  0.23420592130E+02  0.00000000000E+00 0.  1.
         -1    1    6    6    0  503 -0.24056212325E+03  0.10643882843E+03  0.19363244617E+03  0.32663876615E+03  0.00000000000E+00 0. -1.
<mgrwt>
<rscale>  0 0.36725320E+04</rscale>
<asrwt>0</asrwt>
<pdfrwt beam="1">  1        1 0.58178611E+00 0.36725320E+04</pdfrwt>
<pdfrwt beam="2">  1       -2 0.13717694E+00 0.36725320E+04</pdfrwt>
<totfact> 0.39534961E-02</totfact>
</mgrwt>
</event>
<event>
12    4  0.4280696E-008  0.1682463E+04  0.7818608E-02  0.8771430E-01
          1   -1    0    0  501    0  0.00000000000E+00  0.00000000000E+00  0.49343218197E+03  0.49343218197E+03  0.00000000000E+00 0. -1.
         -2   -1    0    0    0  501 -0.00000000000E+00 -0.00000000000E+00 -0.14341802425E+04  0.14341802425E+04  0.00000000000E+00 0.  1.
        -24    2    1    2    0    0 -0.91474089523E+02  0.50162743100E+03 -0.70386383405E+03  0.87272987281E+03  0.78965469748E+02 0.  0.
        254    2    1    2    0    0  0.91474089523E+02 -0.50162743100E+03 -0.23688422652E+03  0.10548825517E+04  0.89256118700E+03 0.  0.
         23    2    4    4    0    0 -0.20346147847E+03 -0.16591018889E+03 -0.46716911334E+03  0.54370632355E+03  0.91906592862E+02 0.  0.
         23    2    4    4    0    0  0.29493556799E+03 -0.33571724211E+03  0.23028488682E+03  0.51117622815E+03  0.92611830856E+02 0.  0.
          3    1    3    3  502    0 -0.48377782009E+02  0.10124557824E+03 -0.17746323864E+03  0.20996256327E+03  0.00000000000E+00 0. -1.
         -4    1    3    3    0  502 -0.43096307514E+02  0.40038185276E+03 -0.52640059541E+03  0.66276730954E+03  0.00000000000E+00 0.  1.
         11    1    5    5    0    0 -0.20251547919E+03 -0.13220976435E+03 -0.43129352927E+03  0.49447552972E+03  0.00000000000E+00 0. -1.
        -11    1    5    5    0    0 -0.94599928146E+00 -0.33700424544E+02 -0.35875584070E+02  0.49230793833E+02  0.00000000000E+00 0.  1.
          3    1    6    6  503    0  0.20392295634E+03 -0.28998800846E+03  0.17923697466E+03  0.39724489960E+03  0.00000000000E+00 0. -1.
         -3    1    6    6    0  503  0.91012611654E+02 -0.45729233650E+02  0.51047912159E+02  0.11393132855E+03  0.00000000000E+00 0.  1.
<mgrwt>
<rscale>  0 0.16824633E+04</rscale>
<asrwt>0</asrwt>
<pdfrwt beam="1">  1        1 0.75912643E-01 0.16824633E+04</pdfrwt>
<pdfrwt beam="2">  1       -2 0.22064312E+00 0.16824633E+04</pdfrwt>
<totfact> 0.36824313E+00</totfact>
</mgrwt>
</event>
<event>
12    4  0.4280696E-008  0.1077384E+04  0.7818608E-02  0.9227520E-01
          1   -1    0    0  501    0  0.00000000000E+00  0.00000000000E+00  0.66967930898E+03  0.66967930898E+03  0.00000000000E+00 0. -1.
         -2   -1    0    0    0  501 -0.00000000000E+00 -0.00000000000E+00 -0.43332523638E+03  0.43332523638E+03  0.00000000000E+00 0.  1.
        -24    2    1    2    0    0  0.97437447106E+01  0.11333217503E+03  0.12503686891E+03  0.18740115935E+03  0.80906448960E+02 0.  0.
        254    2    1    2    0    0 -0.97437447106E+01 -0.11333217503E+03  0.11131720370E+03  0.91560338601E+03  0.90166452640E+03 0.  0.
         23    2    4    4    0    0  0.53328307011E+02  0.37301083808E+03 -0.50821436959E+02  0.39137912680E+03  0.92810607074E+02 0.  0.
         23    2    4    4    0    0 -0.63072051721E+02 -0.48634301311E+03  0.16213864066E+03  0.52422425921E+03  0.89523879724E+02 0.  0.
          3    1    3    3  502    0  0.27453669697E+02  0.10360514409E+03  0.12803440174E+03  0.16697466242E+03  0.00000000000E+00 0. -1.
         -4    1    3    3    0  502 -0.17709924986E+02  0.97270309358E+01 -0.29975328311E+01  0.20426496932E+02  0.00000000000E+00 0.  1.
         11    1    5    5    0    0  0.49055458942E+01 -0.48705362067E+01  0.66435244078E+00  0.69446286889E+01  0.00000000000E+00 0.  1.
        -11    1    5    5    0    0  0.48422761117E+02  0.37788137429E+03 -0.51485789400E+02  0.38443449811E+03  0.00000000000E+00 0. -1.
          1    1    6    6  503    0 -0.38855703127E+02 -0.29414671462E+03  0.14359336095E+03  0.32962267625E+03  0.00000000000E+00 0. -1.
         -1    1    6    6    0  503 -0.24216348594E+02 -0.19219629849E+03  0.18545279709E+02  0.19460158296E+03  0.00000000000E+00 0.  1.
<mgrwt>
<rscale>  0 0.10773838E+04</rscale>
<asrwt>0</asrwt>
<pdfrwt beam="1">  1        1 0.10302759E+00 0.10773838E+04</pdfrwt>
<pdfrwt beam="2">  1       -2 0.66665421E-01 0.10773838E+04</pdfrwt>
<totfact> 0.52639657E+01</totfact>
</mgrwt>
</event>
<event>
12    4  0.4280696E-008  0.1824224E+04  0.7818608E-02  0.8693522E-01
          1   -1    0    0  501    0  0.00000000000E+00  0.00000000000E+00  0.23141569390E+04  0.23141569390E+04  0.00000000000E+00 0. -1.
         -2   -1    0    0    0  501 -0.00000000000E+00 -0.00000000000E+00 -0.35950395306E+03  0.35950395306E+03  0.00000000000E+00 0.  1.
        -24    2    1    2    0    0 -0.42480600273E+03 -0.23672381613E+03  0.14481009654E+04  0.15296184315E+04  0.78979965272E+02 0.  0.
        254    2    1    2    0    0  0.42480600273E+03  0.23672381613E+03  0.50655202062E+03  0.11440424606E+04  0.90318320239E+03 0.  0.
         23    2    4    4    0    0  0.39544808676E+03 -0.23587740261E+02  0.69739554836E+03  0.80691239460E+03  0.88382639066E+02 0.  0.
         23    2    4    4    0    0  0.29357915975E+02  0.26031155639E+03 -0.19084352773E+03  0.33713006604E+03  0.92797821789E+02 0.  0.
          1    1    3    3  502    0 -0.35600681569E+03 -0.16224182181E+03  0.11591794949E+04  0.12234215803E+04  0.00000000000E+00 0. -1.
         -2    1    3    3    0  502 -0.68799187039E+02 -0.74481994320E+02  0.28892147042E+03  0.30619685120E+03  0.00000000000E+00 0.  1.
         11    1    5    5    0    0  0.72899698547E+02  0.17781144636E+02  0.18968008016E+03  0.20398300901E+03  0.00000000000E+00 0.  1.
        -11    1    5    5    0    0  0.32254838821E+03 -0.41368884897E+02  0.50771546819E+03  0.60292938560E+03  0.00000000000E+00 0. -1.
          4    1    6    6  503    0 -0.19828148150E+02  0.16625657500E+03 -0.87201804857E+02  0.18878177603E+03  0.00000000000E+00 0. -1.
         -4    1    6    6    0  503  0.49186064126E+02  0.94054981391E+02 -0.10364172288E+03  0.14834829001E+03  0.00000000000E+00 0.  1.
<mgrwt>
<rscale>  0 0.18242243E+04</rscale>
<asrwt>0</asrwt>
<pdfrwt beam="1">  1        1 0.35602414E+00 0.18242243E+04</pdfrwt>
<pdfrwt beam="2">  1       -2 0.55308302E-01 0.18242243E+04</pdfrwt>
<totfact> 0.46278865E+00</totfact>
</mgrwt>
</event>
<event>
12    4  0.4280696E-008  0.1254316E+04  0.7818608E-02  0.9066599E-01
          1   -1    0    0  501    0  0.00000000000E+00  0.00000000000E+00  0.81646089982E+03  0.81646089982E+03  0.00000000000E+00 0. -1.
         -2   -1    0    0    0  501 -0.00000000000E+00 -0.00000000000E+00 -0.48174664185E+03  0.48174664185E+03  0.00000000000E+00 0.  1.
        -24    2    1    2    0    0 -0.13018855694E+03  0.13872710331E+03 -0.14353716312E+03  0.25156189024E+03  0.80536934824E+02 0.  0.
        254    2    1    2    0    0  0.13018855694E+03 -0.13872710331E+03  0.47825142110E+03  0.10466456514E+04  0.91134429736E+03 0.  0.
         23    2    4    4    0    0 -0.27270709331E+03 -0.64055310779E+02 -0.11650921946E+03  0.31884330849E+03  0.98053126263E+02 0.  0.
         23    2    4    4    0    0  0.40289565025E+03 -0.74671792528E+02  0.59476064056E+03  0.72780234294E+03  0.89751040348E+02 0.  0.
          3    1    3    3  502    0 -0.19068069653E+02  0.23931192253E+02  0.77132408028E+01  0.31556098089E+02  0.00000000000E+00 0. -1.
         -4    1    3    3    0  502 -0.11112048729E+03  0.11479591105E+03 -0.15125040393E+03  0.22000579215E+03  0.00000000000E+00 0.  1.
         11    1    5    5    0    0 -0.17919243387E+03 -0.12610616386E+02 -0.31458838788E+02  0.18236944519E+03  0.00000000000E+00 0. -1.
        -11    1    5    5    0    0 -0.93514659443E+02 -0.51444694392E+02 -0.85050380676E+02  0.13647386330E+03  0.00000000000E+00 0.  1.
          1    1    6    6  503    0  0.42324454979E+02 -0.38256377463E+02  0.82942489542E+02  0.10066959063E+03  0.00000000000E+00 0. -1.
         -1    1    6    6    0  503  0.36057119527E+03 -0.36415415065E+02  0.51181815102E+03  0.62713275232E+03  0.00000000000E+00 0.  1.
<mgrwt>
<rscale>  0 0.12543162E+04</rscale>
<asrwt>0</asrwt>
<pdfrwt beam="1">  1        1 0.12560937E+00 0.12543162E+04</pdfrwt>
<pdfrwt beam="2">  1       -2 0.74114868E-01 0.12543162E+04</pdfrwt>
<totfact> 0.30300463E+01</totfact>
</mgrwt>
</event>
<event>
12    4  0.4280696E-008  0.2445452E+04  0.7818608E-02  0.8422680E-01
         -2   -1    0    0    0  501 -0.00000000000E+00  0.00000000000E+00  0.88805406569E+03  0.88805406569E+03  0.00000000000E+00 0.  1.
          1   -1    0    0  501    0  0.00000000000E+00 -0.00000000000E+00 -0.16835227175E+04  0.16835227175E+04  0.00000000000E+00 0. -1.
        -24    2    1    2    0    0 -0.71205319146E+03  0.58050317158E+03 -0.87595693994E+03  0.12722128647E+04  0.84978425119E+02 0.  0.
        254    2    1    2    0    0  0.71205319146E+03 -0.58050317158E+03  0.80488288121E+02  0.12993639185E+04  0.91534941337E+03 0.  0.
         23    2    4    4    0    0  0.42551400732E+02 -0.59314202946E+03 -0.74007570095E+02  0.60605371382E+03  0.90531181310E+02 0.  0.
         23    2    4    4    0    0  0.66950179073E+03  0.12638857873E+02  0.15449585822E+03  0.69331020471E+03  0.91747922214E+02 0.  0.
          1    1    3    3  502    0 -0.59303867827E+03  0.49024081839E+03 -0.68834102647E+03  0.10323973570E+04  0.00000000000E+00 0. -1.
         -2    1    3    3    0  502 -0.11901451319E+03  0.90262353196E+02 -0.18761591347E+03  0.23981550772E+03  0.00000000000E+00 0.  1.
         11    1    5    5    0    0  0.68593510212E+02 -0.46129857575E+03 -0.44728957569E+02  0.46851053913E+03  0.00000000000E+00 0. -1.
        -11    1    5    5    0    0 -0.26042109480E+02 -0.13184345371E+03 -0.29278612525E+02  0.13754317469E+03  0.00000000000E+00 0.  1.
          1    1    6    6  503    0  0.48085447950E+03 -0.29722327074E+02  0.12504007243E+03  0.49773433365E+03  0.00000000000E+00 0. -1.
         -1    1    6    6    0  503  0.18864731123E+03  0.42361184947E+02  0.29455785790E+02  0.19557587106E+03  0.00000000000E+00 0.  1.
<mgrwt>
<rscale>  0 0.24454523E+04</rscale>
<asrwt>0</asrwt>
<pdfrwt beam="1">  1        1 0.25900349E+00 0.24454523E+04</pdfrwt>
<pdfrwt beam="2">  1       -2 0.13662370E+00 0.24454523E+04</pdfrwt>
<totfact> 0.14672585E+00</totfact>
</mgrwt>
</event>
<event>
12    4  0.4280696E-008  0.1816166E+04  0.7818608E-02  0.8697749E-01
         -2   -1    0    0    0  501 -0.00000000000E+00  0.00000000000E+00  0.22267130790E+03  0.22267130790E+03  0.00000000000E+00 0.  1.
          1   -1    0    0  501    0  0.00000000000E+00 -0.00000000000E+00 -0.37032840149E+04  0.37032840149E+04  0.00000000000E+00 0. -1.
        -24    2    1    2    0    0 -0.50193150485E+03  0.22452016283E+03 -0.44488271470E+03  0.71172550119E+03  0.79297037292E+02 0.  0.
        254    2    1    2    0    0  0.50193150485E+03 -0.22452016283E+03 -0.30357299923E+04  0.32142298216E+04  0.90181606822E+03 0.  0.
         23    2    4    4    0    0  0.75127374767E+03 -0.13298055414E+03 -0.20513547264E+04  0.21905452373E+04  0.91302525759E+02 0.  0.
         23    2    4    4    0    0 -0.24934224282E+03 -0.91539608693E+02 -0.98437526588E+03  0.10236845843E+04  0.91566424648E+02 0.  0.
          3    1    3    3  502    0 -0.19210813994E+03  0.44894356154E+02 -0.16555029657E+03  0.25754211566E+03  0.00000000000E+00 0. -1.
         -4    1    3    3    0  502 -0.30982336492E+03  0.17962580668E+03 -0.27933241813E+03  0.45418338553E+03  0.00000000000E+00 0.  1.
         11    1    5    5    0    0  0.72536820541E+03 -0.12911722856E+03 -0.20169527406E+04  0.21473073021E+04  0.00000000000E+00 0.  1.
        -11    1    5    5    0    0  0.25905542258E+02 -0.38633255766E+01 -0.34401985869E+02  0.43237935148E+02  0.00000000000E+00 0. -1.
          1    1    6    6  503    0 -0.12780475837E+03 -0.58756194803E+02 -0.67834496439E+03  0.69277574828E+03  0.00000000000E+00 0. -1.
         -1    1    6    6    0  503 -0.12153748445E+03 -0.32783413890E+02 -0.30603030148E+03  0.33090883605E+03  0.00000000000E+00 0.  1.
<mgrwt>
<rscale>  0 0.18161664E+04</rscale>
<asrwt>0</asrwt>
<pdfrwt beam="1">  1        1 0.56973598E+00 0.18161664E+04</pdfrwt>
<pdfrwt beam="2">  1       -2 0.34257126E-01 0.18161664E+04</pdfrwt>
<totfact> 0.11420791E+00</totfact>
</mgrwt>
</event>
<event>
12    4  0.4280696E-008  0.1701425E+04  0.7818608E-02  0.8760552E-01
         -2   -1    0    0    0  501 -0.00000000000E+00  0.00000000000E+00  0.35890524230E+03  0.35890524230E+03  0.00000000000E+00 0.  1.
          1   -1    0    0  501    0  0.00000000000E+00 -0.00000000000E+00 -0.20164424828E+04  0.20164424828E+04  0.00000000000E+00 0. -1.
        -24    2    1    2    0    0  0.72185926381E+02  0.10377924296E+03  0.23430842061E+03  0.27923494745E+03  0.84206773305E+02 0.  0.
        254    2    1    2    0    0 -0.72185926381E+02 -0.10377924296E+03 -0.18918456611E+04  0.20961127776E+04  0.89365979652E+03 0.  0.
         23    2    4    4    0    0 -0.13263532415E+03 -0.47921398298E+03 -0.11828082826E+04  0.12862734373E+04  0.90695927397E+02 0.  0.
         23    2    4    4    0    0  0.60449397772E+02  0.37543474002E+03 -0.70903737847E+03  0.80983934038E+03  0.92197502411E+02 0.  0.
          3    1    3    3  502    0 -0.11163627587E+02  0.19104054298E+01  0.10133153978E+01  0.11371149366E+02  0.00000000000E+00 0. -1.
         -4    1    3    3    0  502  0.83349553968E+02  0.10186883753E+03  0.23329510521E+03  0.26786379808E+03  0.00000000000E+00 0.  1.
         11    1    5    5    0    0 -0.10781015722E+03 -0.41805019108E+03 -0.93563511866E+03  0.10304378038E+04  0.00000000000E+00 0. -1.
        -11    1    5    5    0    0 -0.24825166933E+02 -0.61163791899E+02 -0.24717316398E+03  0.25583563346E+03  0.00000000000E+00 0.  1.
          4    1    6    6  503    0  0.64662850518E+01  0.29096479575E+03 -0.52573544401E+03  0.60091603598E+03  0.00000000000E+00 0. -1.
         -4    1    6    6    0  503  0.53983112720E+02  0.84469944265E+02 -0.18330193446E+03  0.20892330440E+03  0.00000000000E+00 0.  1.
<mgrwt>
<rscale>  0 0.17014250E+04</rscale>
<asrwt>0</asrwt>
<pdfrwt beam="1">  1        1 0.31022192E+00 0.17014250E+04</pdfrwt>
<pdfrwt beam="2">  1       -2 0.55216191E-01 0.17014250E+04</pdfrwt>
<totfact> 0.74843246E+00</totfact>
</mgrwt>
</event>
<event>
12    4  0.4280696E-008  0.1992229E+04  0.7818608E-02  0.8610262E-01
         -2   -1    0    0    0  501 -0.00000000000E+00  0.00000000000E+00  0.34473539683E+03  0.34473539683E+03  0.00000000000E+00 0.  1.
          1   -1    0    0  501    0  0.00000000000E+00 -0.00000000000E+00 -0.28782786769E+04  0.28782786769E+04  0.00000000000E+00 0. -1.
        -24    2    1    2    0    0  0.45861180430E+03  0.52477963555E+03 -0.16514020268E+04  0.17942303077E+04  0.80095506621E+02 0.  0.
        254    2    1    2    0    0 -0.45861180430E+03 -0.52477963555E+03 -0.88214125324E+03  0.14287837660E+04  0.88177741312E+03 0.  0.
         23    2    4    4    0    0 -0.48112166546E+03 -0.73950672569E+03 -0.74311930619E+03  0.11569809880E+04  0.89612772182E+02 0.  0.
         23    2    4    4    0    0  0.22509861157E+02  0.21472709014E+03 -0.13902194706E+03  0.27180277802E+03  0.89079915156E+02 0.  0.
          1    1    3    3  502    0  0.23084040187E+03  0.26975429428E+03 -0.94300417599E+03  0.10076266900E+04  0.00000000000E+00 0. -1.
         -2    1    3    3    0  502  0.22777140244E+03  0.25502534127E+03 -0.70839785082E+03  0.78660361778E+03  0.00000000000E+00 0.  1.
         11    1    5    5    0    0 -0.18847627064E+03 -0.29906288562E+03 -0.24156258183E+03  0.42815230361E+03  0.00000000000E+00 0.  1.
        -11    1    5    5    0    0 -0.29264539482E+03 -0.44044384007E+03 -0.50155672436E+03  0.72882868434E+03  0.00000000000E+00 0. -1.
          2    1    6    6  503    0  0.55128121761E+02  0.15454119126E+03 -0.86255340722E+02  0.18537009847E+03  0.00000000000E+00 0. -1.
         -2    1    6    6    0  503 -0.32618260604E+02  0.60185898886E+02 -0.52766606337E+02  0.86432679548E+02  0.00000000000E+00 0.  1.
<mgrwt>
<rscale>  0 0.19922294E+04</rscale>
<asrwt>0</asrwt>
<pdfrwt beam="1">  1        1 0.44281212E+00 0.19922294E+04</pdfrwt>
<pdfrwt beam="2">  1       -2 0.53036213E-01 0.19922294E+04</pdfrwt>
<totfact> 0.20054534E+00</totfact>
</mgrwt>
</event>
<event>
12    4  0.4280696E-008  0.1982756E+04  0.7818608E-02  0.8614725E-01
         -2   -1    0    0    0  501 -0.00000000000E+00  0.00000000000E+00  0.39076718035E+03  0.39076718035E+03  0.00000000000E+00 0.  1.
          1   -1    0    0  501    0  0.00000000000E+00 -0.00000000000E+00 -0.25151301145E+04  0.25151301145E+04  0.00000000000E+00 0. -1.
        -24    2    1    2    0    0 -0.59787594701E+03 -0.45270825962E+03 -0.48680299128E+03  0.89743114075E+03  0.77492475314E+02 0.  0.
        254    2    1    2    0    0  0.59787594701E+03  0.45270825962E+03 -0.16375599429E+04  0.20084661541E+04  0.88878192449E+03 0.  0.
         23    2    4    4    0    0  0.32694502511E+03 -0.47833891561E+02 -0.86468942513E+02  0.35368660881E+03  0.91848835623E+02 0.  0.
         23    2    4    4    0    0  0.27093092190E+03  0.50054215118E+03 -0.15510910004E+04  0.16547795453E+04  0.92011100059E+02 0.  0.
          3    1    3    3  502    0 -0.27379861233E+03 -0.16434055672E+03 -0.22683840800E+03  0.39170034726E+03  0.00000000000E+00 0. -1.
         -4    1    3    3    0  502 -0.32407733468E+03 -0.28836770290E+03 -0.25996458328E+03  0.50573079350E+03  0.00000000000E+00 0.  1.
         11    1    5    5    0    0  0.26948908032E+03 -0.73885925613E+02 -0.63579313219E+02  0.28657603439E+03  0.00000000000E+00 0.  1.
        -11    1    5    5    0    0  0.57455944786E+02  0.26052034052E+02 -0.22889629295E+02  0.67110574418E+02  0.00000000000E+00 0. -1.
          3    1    6    6  503    0  0.16862832947E+02  0.20034473792E+01 -0.48339921503E+02  0.51235895106E+02  0.00000000000E+00 0. -1.
         -3    1    6    6    0  503  0.25406808896E+03  0.49853870380E+03 -0.15027510789E+04  0.16035436502E+04  0.00000000000E+00 0.  1.
<mgrwt>
<rscale>  0 0.19827560E+04</rscale>
<asrwt>0</asrwt>
<pdfrwt beam="1">  1        1 0.38694310E+00 0.19827560E+04</pdfrwt>
<pdfrwt beam="2">  1       -2 0.60118027E-01 0.19827560E+04</pdfrwt>
<totfact> 0.27849777E+00</totfact>
</mgrwt>
</event>
<event>
12    4  0.4280696E-008  0.1119955E+04  0.7818608E-02  0.9185957E-01
          1   -1    0    0  501    0  0.00000000000E+00  0.00000000000E+00  0.76998342506E+03  0.76998342506E+03  0.00000000000E+00 0. -1.
         -2   -1    0    0    0  501 -0.00000000000E+00 -0.00000000000E+00 -0.40724894716E+03  0.40724894716E+03  0.00000000000E+00 0.  1.
        -24    2    1    2    0    0  0.71353234535E+01 -0.58295983642E+02  0.24940503196E+03  0.26880866478E+03  0.81276649441E+02 0.  0.
        254    2    1    2    0    0 -0.71353234535E+01  0.58295983642E+02  0.11332944595E+03  0.90842370744E+03  0.89941132658E+03 0.  0.
         23    2    4    4    0    0 -0.41608906736E+03  0.15871923181E+03 -0.25063295762E+02  0.45583962170E+03  0.94019601126E+02 0.  0.
         23    2    4    4    0    0  0.40895374391E+03 -0.10042324817E+03  0.13839274171E+03  0.45258408574E+03  0.91388239303E+02 0.  0.
          1    1    3    3  502    0  0.49439726157E+01 -0.18663439467E+02  0.21619374706E+03  0.21705414786E+03  0.00000000000E+00 0. -1.
         -2    1    3    3    0  502  0.21913508377E+01 -0.39632544175E+02  0.33211284899E+02  0.51754516913E+02  0.00000000000E+00 0.  1.
         11    1    5    5    0    0 -0.36219766643E+02  0.12493527820E+01 -0.26035695600E+02  0.44623870556E+02  0.00000000000E+00 0. -1.
        -11    1    5    5    0    0 -0.37986930072E+03  0.15746987903E+03  0.97239983890E+00  0.41121575114E+03  0.00000000000E+00 0.  1.
          1    1    6    6  503    0  0.22186668899E+02 -0.30741161746E+02  0.12347358437E+02  0.39871350149E+02  0.00000000000E+00 0. -1.
         -1    1    6    6    0  503  0.38676707501E+03 -0.69682086424E+02  0.12604538327E+03  0.41271273559E+03  0.00000000000E+00 0.  1.
<mgrwt>
<rscale>  0 0.11199552E+04</rscale>
<asrwt>0</asrwt>
<pdfrwt beam="1">  1        1 0.11845899E+00 0.11199552E+04</pdfrwt>
<pdfrwt beam="2">  1       -2 0.62653684E-01 0.11199552E+04</pdfrwt>
<totfact> 0.48409725E+01</totfact>
</mgrwt>
</event>
<event>
12    4  0.4280696E-008  0.1638135E+04  0.7818608E-02  0.8797456E-01
         -2   -1    0    0    0  501 -0.00000000000E+00  0.00000000000E+00  0.16939178222E+04  0.16939178222E+04  0.00000000000E+00 0.  1.
          1   -1    0    0  501    0  0.00000000000E+00 -0.00000000000E+00 -0.39604753079E+03  0.39604753079E+03  0.00000000000E+00 0. -1.
        -24    2    1    2    0    0 -0.24383303570E+03  0.35640192908E+03 -0.16795293314E+02  0.43937154294E+03  0.79299347519E+02 0.  0.
        254    2    1    2    0    0  0.24383303570E+03 -0.35640192908E+03  0.13146655847E+04  0.16505938100E+04  0.89979855621E+03 0.  0.
         23    2    4    4    0    0 -0.30513047723E+03  0.46786061434E+01  0.57082517503E+03  0.65382863692E+03  0.92325557205E+02 0.  0.
         23    2    4    4    0    0  0.54896351293E+03 -0.36108053523E+03  0.74384040968E+03  0.99676517311E+03  0.92207178771E+02 0.  0.
          3    1    3    3  502    0 -0.14813080457E+03  0.27908598232E+03 -0.88894038185E+01  0.31608660569E+03  0.00000000000E+00 0. -1.
         -4    1    3    3    0  502 -0.95702231124E+02  0.77315946759E+02 -0.79058894960E+01  0.12328493726E+03  0.00000000000E+00 0.  1.
         11    1    5    5    0    0 -0.10309299094E+03  0.41584727548E+02  0.16437367192E+03  0.19843426712E+03  0.00000000000E+00 0. -1.
        -11    1    5    5    0    0 -0.20203748630E+03 -0.36906121405E+02  0.40645150311E+03  0.45539436980E+03  0.00000000000E+00 0.  1.
          3    1    6    6  503    0  0.31249870098E+03 -0.25433344219E+03  0.48082934672E+03  0.62732591098E+03  0.00000000000E+00 0. -1.
         -3    1    6    6    0  503  0.23646481195E+03 -0.10674709304E+03  0.26301106296E+03  0.36943926213E+03  0.00000000000E+00 0.  1.
<mgrwt>
<rscale>  0 0.16381355E+04</rscale>
<asrwt>0</asrwt>
<pdfrwt beam="1">  1        1 0.60930390E-01 0.16381355E+04</pdfrwt>
<pdfrwt beam="2">  1       -2 0.26060274E+00 0.16381355E+04</pdfrwt>
<totfact> 0.28144644E+00</totfact>
</mgrwt>
</event>
<event>
12    4  0.4280696E-008  0.2880549E+04  0.7818608E-02  0.8278688E-01
         -2   -1    0    0    0  501 -0.00000000000E+00  0.00000000000E+00  0.12078663139E+04  0.12078663139E+04  0.00000000000E+00 0.  1.
          1   -1    0    0  501    0  0.00000000000E+00 -0.00000000000E+00 -0.17174003456E+04  0.17174003456E+04  0.00000000000E+00 0. -1.
        -24    2    1    2    0    0  0.11819116776E+04 -0.49172267711E+03 -0.44199324022E+03  0.13566217831E+04  0.79738530912E+02 0.  0.
        254    2    1    2    0    0 -0.11819116776E+04  0.49172267711E+03 -0.67540791546E+02  0.15686448763E+04  0.90408992075E+03 0.  0.
         23    2    4    4    0    0 -0.13804179353E+03  0.40013434054E+03 -0.24994252111E+03  0.50121484706E+03  0.97887853247E+02 0.  0.
         23    2    4    4    0    0 -0.10438698840E+04  0.91588336570E+02  0.18240172956E+03  0.10674300293E+04  0.89909500482E+02 0.  0.
          3    1    3    3  502    0  0.11071664018E+04 -0.47851284740E+03 -0.42504378064E+03  0.12788487799E+04  0.00000000000E+00 0. -1.
         -4    1    3    3    0  502  0.74745275799E+02 -0.13209829712E+02 -0.16949459579E+02  0.77773003255E+02  0.00000000000E+00 0.  1.
         11    1    5    5    0    0 -0.11162102506E+03  0.19420618389E+03 -0.15820767602E+03  0.27423523452E+03  0.00000000000E+00 0.  1.
        -11    1    5    5    0    0 -0.26420768470E+02  0.20592815665E+03 -0.91734845084E+02  0.22697961254E+03  0.00000000000E+00 0. -1.
          2    1    6    6  503    0 -0.98585664813E+03  0.67955912523E+02  0.16095409958E+03  0.10012180376E+04  0.00000000000E+00 0. -1.
         -2    1    6    6    0  503 -0.58013235910E+02  0.23632424047E+02  0.21447629985E+02  0.66211991656E+02  0.00000000000E+00 0.  1.
<mgrwt>
<rscale>  0 0.28805486E+04</rscale>
<asrwt>0</asrwt>
<pdfrwt beam="1">  1        1 0.26421544E+00 0.28805486E+04</pdfrwt>
<pdfrwt beam="2">  1       -2 0.18582559E+00 0.28805486E+04</pdfrwt>
<totfact> 0.57947474E-01</totfact>
</mgrwt>
</event>
<event>
12    4  0.4280696E-008  0.1539022E+04  0.7818608E-02  0.8858910E-01
         -2   -1    0    0    0  501 -0.00000000000E+00  0.00000000000E+00  0.35809212108E+03  0.35809212108E+03  0.00000000000E+00 0.  1.
          1   -1    0    0  501    0  0.00000000000E+00 -0.00000000000E+00 -0.16536169403E+04  0.16536169403E+04  0.00000000000E+00 0. -1.
        -24    2    1    2    0    0 -0.49278338417E+03  0.40219020984E+01 -0.31072130028E+03  0.58806075327E+03  0.80100459904E+02 0.  0.
        254    2    1    2    0    0  0.49278338417E+03 -0.40219020984E+01 -0.98480351899E+03  0.14236483082E+04  0.90226653208E+03 0.  0.
         23    2    4    4    0    0  0.34439177730E+03  0.42736771237E+02  0.59668654061E+02  0.36358591263E+03  0.90566217215E+02 0.  0.
         23    2    4    4    0    0  0.14839160688E+03 -0.46758673336E+02 -0.10444721730E+04  0.10600623955E+04  0.92756237656E+02 0.  0.
          3    1    3    3  502    0 -0.57885695425E+02 -0.23475661028E+02 -0.52011511798E+02  0.81283809920E+02  0.00000000000E+00 0. -1.
         -4    1    3    3    0  502 -0.43489768875E+03  0.27497563127E+02 -0.25870978848E+03  0.50677694335E+03  0.00000000000E+00 0.  1.
         11    1    5    5    0    0  0.92552336233E+02  0.51444718624E+02  0.28632382405E+02  0.10969187453E+03  0.00000000000E+00 0. -1.
        -11    1    5    5    0    0  0.25183944106E+03 -0.87079473869E+01  0.31036271655E+02  0.25389403810E+03  0.00000000000E+00 0.  1.
          3    1    6    6  503    0  0.13345631042E+03 -0.41872002733E+02 -0.63207523774E+03  0.64736616962E+03  0.00000000000E+00 0. -1.
         -3    1    6    6    0  503  0.14935296454E+02 -0.48866706025E+01 -0.41239693531E+03  0.41269622591E+03  0.00000000000E+00 0.  1.
<mgrwt>
<rscale>  0 0.15390220E+04</rscale>
<asrwt>0</asrwt>
<pdfrwt beam="1">  1        1 0.25440260E+00 0.15390220E+04</pdfrwt>
<pdfrwt beam="2">  1       -2 0.55091097E-01 0.15390220E+04</pdfrwt>
<totfact> 0.13444103E+01</totfact>
</mgrwt>
</event>
<event>
12    4  0.4280696E-008  0.2304809E+04  0.7818608E-02  0.8476027E-01
          1   -1    0    0  501    0  0.00000000000E+00  0.00000000000E+00  0.31995353631E+04  0.31995353631E+04  0.00000000000E+00 0. -1.
         -4   -1    0    0    0  501 -0.00000000000E+00 -0.00000000000E+00 -0.41507171161E+03  0.41507171161E+03  0.00000000000E+00 0.  1.
        -24    2    1    2    0    0 -0.11766416244E+03  0.96058417021E+03  0.10410009751E+04  0.14235891699E+04  0.79726352820E+02 0.  0.
        254    2    1    2    0    0  0.11766416244E+03 -0.96058417021E+03  0.17434626764E+04  0.21910179048E+04  0.90792651247E+03 0.  0.
         23    2    4    4    0    0 -0.36243436698E+03 -0.58869246950E+03  0.76083704598E+03  0.10320933614E+04  0.91794346936E+02 0.  0.
         23    2    4    4    0    0  0.48009852942E+03 -0.37189170072E+03  0.98262563042E+03  0.11589245434E+04  0.93567797500E+02 0.  0.
          3    1    3    3  502    0 -0.55739169068E+01  0.91269521794E+02  0.13442338545E+03  0.16257564613E+03  0.00000000000E+00 0. -1.
         -4    1    3    3    0  502 -0.11209024553E+03  0.86931464842E+03  0.90657758965E+03  0.12610135238E+04  0.00000000000E+00 0.  1.
         11    1    5    5    0    0 -0.23110674643E+03 -0.31903060139E+03  0.38027351098E+03  0.54753885344E+03  0.00000000000E+00 0. -1.
        -11    1    5    5    0    0 -0.13132762055E+03 -0.26966186811E+03  0.38056353500E+03  0.48455450798E+03  0.00000000000E+00 0.  1.
          2    1    6    6  503    0  0.45666822373E+03 -0.32267831661E+03  0.87766562849E+03  0.10406556193E+04  0.00000000000E+00 0.  1.
         -2    1    6    6    0  503  0.23430305688E+02 -0.49213384104E+02  0.10496000194E+03  0.11826892409E+03  0.00000000000E+00 0. -1.
<mgrwt>
<rscale>  0 0.23048094E+04</rscale>
<asrwt>0</asrwt>
<pdfrwt beam="1">  1        1 0.49223619E+00 0.23048094E+04</pdfrwt>
<pdfrwt beam="2">  1       -4 0.63857188E-01 0.23048094E+04</pdfrwt>
<totfact> 0.43827329E-01</totfact>
</mgrwt>
</event>
<event>
12    4  0.4280696E-008  0.1575523E+04  0.7818608E-02  0.8835728E-01
         -2   -1    0    0    0  501 -0.00000000000E+00  0.00000000000E+00  0.49739446756E+03  0.49739446756E+03  0.00000000000E+00 0.  1.
          1   -1    0    0  501    0  0.00000000000E+00 -0.00000000000E+00 -0.12476382610E+04  0.12476382610E+04  0.00000000000E+00 0. -1.
        -24    2    1    2    0    0 -0.45440659148E+03 -0.26852110299E+03 -0.29977136595E+03  0.61178258586E+03  0.76329073005E+02 0.  0.
        254    2    1    2    0    0  0.45440659148E+03  0.26852110299E+03 -0.45047242752E+03  0.11332501427E+04  0.89595845044E+03 0.  0.
         23    2    4    4    0    0  0.58447431704E+03 -0.12888862247E+03 -0.31502659947E+03  0.68250291204E+03  0.91356238349E+02 0.  0.
         23    2    4    4    0    0 -0.13006772555E+03  0.39740972546E+03 -0.13544582805E+03  0.45074723070E+03  0.99876876813E+02 0.  0.
          3    1    3    3  502    0 -0.24408964265E+03 -0.14393924360E+03 -0.20437524887E+03  0.34938159918E+03  0.00000000000E+00 0. -1.
         -4    1    3    3    0  502 -0.21031694884E+03 -0.12458185939E+03 -0.95396117078E+02  0.26240098668E+03  0.00000000000E+00 0.  1.
         11    1    5    5    0    0  0.61881562825E+02 -0.43910511138E+02 -0.35141073178E+02  0.83620307522E+02  0.00000000000E+00 0.  1.
        -11    1    5    5    0    0  0.52259275421E+03 -0.84978111335E+02 -0.27988552629E+03  0.59888260451E+03  0.00000000000E+00 0. -1.
          3    1    6    6  503    0 -0.14390086200E+03  0.32378123740E+03 -0.12129856165E+03  0.37450646034E+03  0.00000000000E+00 0. -1.
         -3    1    6    6    0  503  0.13833136447E+02  0.73628488064E+02 -0.14147266405E+02  0.76240770361E+02  0.00000000000E+00 0.  1.
<mgrwt>
<rscale>  0 0.15755232E+04</rscale>
<asrwt>0</asrwt>
<pdfrwt beam="1">  1        1 0.19194435E+00 0.15755232E+04</pdfrwt>
<pdfrwt beam="2">  1       -2 0.76522226E-01 0.15755232E+04</pdfrwt>
<totfact> 0.12704737E+01</totfact>
</mgrwt>
</event>
<event>
12    4  0.4280696E-008  0.1540396E+04  0.7818608E-02  0.8858025E-01
          1   -1    0    0  501    0  0.00000000000E+00  0.00000000000E+00  0.59711827497E+03  0.59711827497E+03  0.00000000000E+00 0. -1.
         -2   -1    0    0    0  501 -0.00000000000E+00 -0.00000000000E+00 -0.99344670424E+03  0.99344670424E+03  0.00000000000E+00 0.  1.
        -24    2    1    2    0    0  0.22138437151E+03 -0.31326247037E+03 -0.47210395168E+03  0.61359568531E+03  0.80455630918E+02 0.  0.
        254    2    1    2    0    0 -0.22138437151E+03  0.31326247037E+03  0.75775522413E+02  0.97696929390E+03  0.89531148554E+03 0.  0.
         23    2    4    4    0    0 -0.12596188353E+03  0.65361745428E+02  0.46524176747E+03  0.49599386402E+03  0.97064190527E+02 0.  0.
         23    2    4    4    0    0 -0.95422487986E+02  0.24790072494E+03 -0.38946624506E+03  0.48097542988E+03  0.95358206089E+02 0.  0.
          3    1    3    3  502    0  0.67441447117E+01 -0.56486835881E+02 -0.59357282253E+02  0.82216379586E+02  0.00000000000E+00 0. -1.
         -4    1    3    3    0  502  0.21464022680E+03 -0.25677563449E+03 -0.41274666943E+03  0.53137930573E+03  0.00000000000E+00 0.  1.
         11    1    5    5    0    0 -0.12889371843E+03  0.42854146948E+02  0.44603960658E+03  0.46626322952E+03  0.00000000000E+00 0.  1.
        -11    1    5    5    0    0  0.29318349020E+01  0.22507598480E+02  0.19202160886E+02  0.29730634503E+02  0.00000000000E+00 0. -1.
          1    1    6    6  503    0  0.75378588656E+01  0.91172475805E+02 -0.95144222134E+02  0.13199114617E+03  0.00000000000E+00 0. -1.
         -1    1    6    6    0  503 -0.10296034685E+03  0.15672824914E+03 -0.29432202292E+03  0.34898428371E+03  0.00000000000E+00 0.  1.
<mgrwt>
<rscale>  0 0.15403963E+04</rscale>
<asrwt>0</asrwt>
<pdfrwt beam="1">  1        1 0.91864349E-01 0.15403963E+04</pdfrwt>
<pdfrwt beam="2">  1       -2 0.15283796E+00 0.15403963E+04</pdfrwt>
<totfact> 0.82888295E+00</totfact>
</mgrwt>
</event>
<event>
12    4  0.4280696E-008  0.4578113E+04  0.7818608E-02  0.7897102E-01
          1   -1    0    0  501    0  0.00000000000E+00  0.00000000000E+00  0.23776743318E+04  0.23776743318E+04  0.00000000000E+00 0. -1.
         -2   -1    0    0    0  501 -0.00000000000E+00 -0.00000000000E+00 -0.22037417797E+04  0.22037417797E+04  0.00000000000E+00 0.  1.
        -24    2    1    2    0    0 -0.17724525588E+04  0.60388228708E+03  0.12370787712E+04  0.22457045813E+04  0.81014137711E+02 0.  0.
        254    2    1    2    0    0  0.17724525588E+04 -0.60388228708E+03 -0.10631462191E+04  0.23357115301E+04  0.90498982258E+03 0.  0.
         23    2    4    4    0    0  0.53525874500E+03 -0.58144167536E+03 -0.65176970423E+03  0.10284115794E+04  0.90831070466E+02 0.  0.
         23    2    4    4    0    0  0.12371938138E+04 -0.22440611726E+02 -0.41137651487E+03  0.13072999507E+04  0.93007581576E+02 0.  0.
          3    1    3    3  502    0 -0.13571976169E+04  0.45293219591E+03  0.90482048730E+03  0.16928771544E+04  0.00000000000E+00 0. -1.
         -4    1    3    3    0  502 -0.41525494187E+03  0.15095009118E+03  0.33225828393E+03  0.55282742697E+03  0.00000000000E+00 0.  1.
         11    1    5    5    0    0  0.45009824189E+03 -0.49302152816E+03 -0.59025354212E+03  0.89109926415E+03  0.00000000000E+00 0. -1.
        -11    1    5    5    0    0  0.85160503114E+02 -0.88420147199E+02 -0.61516162112E+02  0.13731231526E+03  0.00000000000E+00 0.  1.
          3    1    6    6  503    0  0.10715217418E+03 -0.20574376840E+02 -0.17055014764E+02  0.11043444636E+03  0.00000000000E+00 0.  1.
         -3    1    6    6    0  503  0.11300416396E+04 -0.18662348864E+01 -0.39432150011E+03  0.11968655044E+04  0.00000000000E+00 0. -1.
<mgrwt>
<rscale>  0 0.45781133E+04</rscale>
<asrwt>0</asrwt>
<pdfrwt beam="1">  1        1 0.36579605E+00 0.45781133E+04</pdfrwt>
<pdfrwt beam="2">  1       -2 0.33903720E+00 0.45781133E+04</pdfrwt>
<totfact> 0.19700661E-02</totfact>
</mgrwt>
</event>
<event>
12    4  0.4280696E-008  0.1196853E+04  0.7818608E-02  0.9115616E-01
         -2   -1    0    0    0  501 -0.00000000000E+00  0.00000000000E+00  0.47917003272E+03  0.47917003272E+03  0.00000000000E+00 0.  1.
          1   -1    0    0  501    0  0.00000000000E+00 -0.00000000000E+00 -0.74736362448E+03  0.74736362448E+03  0.00000000000E+00 0. -1.
        -24    2    1    2    0    0 -0.16300868481E+03  0.19570024078E+03 -0.87936975977E+02  0.28053083455E+03  0.78065497022E+02 0.  0.
        254    2    1    2    0    0  0.16300868481E+03 -0.19570024078E+03 -0.18025661578E+03  0.94600282266E+03  0.89306129542E+03 0.  0.
         23    2    4    4    0    0  0.12858384912E+03 -0.17144005024E+03 -0.53110635559E+03  0.58072756859E+03  0.96151187668E+02 0.  0.
         23    2    4    4    0    0  0.34424835686E+02 -0.24260190539E+02  0.35084973981E+03  0.36527525407E+03  0.92503216957E+02 0.  0.
          3    1    3    3  502    0 -0.11202997508E+03  0.13504682977E+03 -0.97481684547E+02  0.20072628221E+03  0.00000000000E+00 0. -1.
         -4    1    3    3    0  502 -0.50978709724E+02  0.60653411012E+02  0.95447085701E+01  0.79804552340E+02  0.00000000000E+00 0.  1.
         11    1    5    5    0    0 -0.10679820484E+01 -0.10333355564E+02  0.41265575915E+00  0.10396591155E+02  0.00000000000E+00 0. -1.
        -11    1    5    5    0    0  0.12965183117E+03 -0.16110669468E+03 -0.53151901135E+03  0.57033097744E+03  0.00000000000E+00 0.  1.
          2    1    6    6  503    0  0.26262693461E+02  0.24798000632E+02  0.58700661144E+02  0.68923417805E+02  0.00000000000E+00 0. -1.
         -2    1    6    6    0  503  0.81621422247E+01 -0.49058191171E+02  0.29214907867E+03  0.29635183626E+03  0.00000000000E+00 0.  1.
<mgrwt>
<rscale>  0 0.11968530E+04</rscale>
<asrwt>0</asrwt>
<pdfrwt beam="1">  1        1 0.11497902E+00 0.11968530E+04</pdfrwt>
<pdfrwt beam="2">  1       -2 0.73718467E-01 0.11968530E+04</pdfrwt>
<totfact> 0.35436637E+01</totfact>
</mgrwt>
</event>
<event>
12    4  0.4280696E-008  0.1483056E+04  0.7818608E-02  0.8895799E-01
          1   -1    0    0  501    0  0.00000000000E+00  0.00000000000E+00  0.18502099500E+04  0.18502099500E+04  0.00000000000E+00 0. -1.
         -2   -1    0    0    0  501 -0.00000000000E+00 -0.00000000000E+00 -0.29718981877E+03  0.29718981877E+03  0.00000000000E+00 0.  1.
        -24    2    1    2    0    0  0.42693310375E+03 -0.67870546247E+02  0.25558237298E+03  0.50861324189E+03  0.80540637688E+02 0.  0.
        254    2    1    2    0    0 -0.42693310375E+03  0.67870546247E+02  0.12974377583E+04  0.16387865269E+04  0.90299405207E+03 0.  0.
         23    2    4    4    0    0 -0.26778090754E+02 -0.37949801364E+03  0.57066005328E+03  0.69176882161E+03  0.90307240285E+02 0.  0.
         23    2    4    4    0    0 -0.40015501299E+03  0.44736855989E+03  0.72677770502E+03  0.94701770532E+03  0.91509774748E+02 0.  0.
          1    1    3    3  502    0  0.22578433324E+02 -0.23197355861E+02  0.25755819079E+02  0.41367441143E+02  0.00000000000E+00 0. -1.
         -2    1    3    3    0  502  0.40435467042E+03 -0.44673190385E+02  0.22982655390E+03  0.46724580074E+03  0.00000000000E+00 0.  1.
         11    1    5    5    0    0 -0.48615170964E+01 -0.35262546437E+03  0.54272693552E+03  0.64724097445E+03  0.00000000000E+00 0.  1.
        -11    1    5    5    0    0 -0.21916573658E+02 -0.26872549272E+02  0.27933117760E+02  0.44527847164E+02  0.00000000000E+00 0. -1.
          3    1    6    6  503    0 -0.99554138058E+02  0.13376174969E+03  0.26439422561E+03  0.31258205102E+03  0.00000000000E+00 0. -1.
         -3    1    6    6    0  503 -0.30060087494E+03  0.31360681019E+03  0.46238347941E+03  0.63443565430E+03  0.00000000000E+00 0.  1.
<mgrwt>
<rscale>  0 0.14830557E+04</rscale>
<asrwt>0</asrwt>
<pdfrwt beam="1">  1        1 0.28464768E+00 0.14830557E+04</pdfrwt>
<pdfrwt beam="2">  1       -2 0.45721511E-01 0.14830557E+04</pdfrwt>
<totfact> 0.14531019E+01</totfact>
</mgrwt>
</event>
<event>
12    4  0.4280696E-008  0.2081312E+04  0.7818608E-02  0.8569520E-01
          1   -1    0    0  501    0  0.00000000000E+00  0.00000000000E+00  0.66394476542E+03  0.66394476542E+03  0.00000000000E+00 0. -1.
         -4   -1    0    0    0  501 -0.00000000000E+00 -0.00000000000E+00 -0.16311074860E+04  0.16311074860E+04  0.00000000000E+00 0.  1.
        -24    2    1    2    0    0  0.76409407631E+03 -0.33895239583E+03 -0.50565914033E+03  0.98015905634E+03  0.79322918618E+02 0.  0.
        254    2    1    2    0    0 -0.76409407631E+03  0.33895239583E+03 -0.46150358028E+03  0.13148931951E+04  0.90400778529E+03 0.  0.
         23    2    4    4    0    0 -0.68930390718E+03 -0.16137520454E+03 -0.22842031315E+03  0.75054678975E+03  0.99813882036E+02 0.  0.
         23    2    4    4    0    0 -0.74790169133E+02  0.50032760037E+03 -0.23308326713E+03  0.56434640537E+03  0.90762209941E+02 0.  0.
          1    1    3    3  502    0  0.13169095296E+03 -0.86829463992E+02 -0.75855388304E+02  0.17503114821E+03  0.00000000000E+00 0. -1.
         -2    1    3    3    0  502  0.63240312335E+03 -0.25212293184E+03 -0.42980375203E+03  0.80512790813E+03  0.00000000000E+00 0.  1.
         11    1    5    5    0    0 -0.66164029187E+02  0.72276918910E+01 -0.24831975305E+01  0.66603938009E+02  0.00000000000E+00 0. -1.
        -11    1    5    5    0    0 -0.62313987799E+03 -0.16860289643E+03 -0.22593711562E+03  0.68394285174E+03  0.00000000000E+00 0.  1.
          3    1    6    6  503    0 -0.17120256481E+02  0.23392107458E+03 -0.15379012172E+03  0.28047027268E+03  0.00000000000E+00 0. -1.
         -3    1    6    6    0  503 -0.57669912652E+02  0.26640652578E+03 -0.79293145406E+02  0.28387613269E+03  0.00000000000E+00 0.  1.
<mgrwt>
<rscale>  0 0.20813124E+04</rscale>
<asrwt>0</asrwt>
<pdfrwt beam="1">  1        1 0.10214535E+00 0.20813124E+04</pdfrwt>
<pdfrwt beam="2">  1       -4 0.25093961E+00 0.20813124E+04</pdfrwt>
<totfact> 0.81144815E-01</totfact>
</mgrwt>
</event>
<event>
12    4  0.4439870E-008  0.2987930E+04  0.7818608E-02  0.8247186E-01
         -2   -1    0    0    0  501 -0.00000000000E+00  0.00000000000E+00  0.11154636397E+04  0.11154636397E+04  0.00000000000E+00 0.  1.
          1   -1    0    0  501    0  0.00000000000E+00 -0.00000000000E+00 -0.20009002951E+04  0.20009002951E+04  0.00000000000E+00 0. -1.
        -24    2    1    2    0    0  0.17324651388E+01 -0.89460009006E+03 -0.14824984995E+04  0.17333389774E+04  0.79686176942E+02 0.  0.
        254    2    1    2    0    0 -0.17324651388E+01  0.89460009006E+03  0.59706184413E+03  0.13830249575E+04  0.86946124969E+03 0.  0.
         23    2    4    4    0    0  0.20661422743E+03  0.23328341815E+03  0.60165937270E+03  0.68387990518E+03  0.92666778254E+02 0.  0.
         23    2    4    4    0    0 -0.20834669257E+03  0.66131667192E+03 -0.45975285704E+01  0.69914505230E+03  0.89635830030E+02 0.  0.
          1    1    3    3  502    0  0.96713447061E+00 -0.85675380840E+03 -0.13828865963E+04  0.16267769859E+04  0.00000000000E+00 0. -1.
         -2    1    3    3    0  502  0.76533066820E+00 -0.37846281665E+02 -0.99611903207E+02  0.10656199148E+03  0.00000000000E+00 0.  1.
         11    1    5    5    0    0  0.15877812857E+03  0.17143193918E+03  0.52370184934E+03  0.57346580620E+03  0.00000000000E+00 0.  1.
        -11    1    5    5    0    0  0.47836098854E+02  0.61851478968E+02  0.77957523367E+02  0.11041409898E+03  0.00000000000E+00 0. -1.
          2    1    6    6  503    0 -0.19439948234E+03  0.64817587972E+03 -0.15919951371E+02  0.67688741652E+03  0.00000000000E+00 0.  1.
         -2    1    6    6    0  503 -0.13947210221E+02  0.13140792197E+02  0.11322422800E+02  0.22257635781E+02  0.00000000000E+00 0. -1.
<mgrwt>
<rscale>  0 0.29879301E+04</rscale>
<asrwt>0</asrwt>
<pdfrwt beam="1">  1        1 0.30783081E+00 0.29879301E+04</pdfrwt>
<pdfrwt beam="2">  1       -2 0.17160979E+00 0.29879301E+04</pdfrwt>
<totfact> 0.46269272E-01</totfact>
</mgrwt>
</event>
<event>
12    4  0.4280696E-008  0.1573393E+04  0.7818608E-02  0.8837062E-01
         -2   -1    0    0    0  501 -0.00000000000E+00  0.00000000000E+00  0.88382184372E+03  0.88382184372E+03  0.00000000000E+00 0.  1.
          1   -1    0    0  501    0  0.00000000000E+00 -0.00000000000E+00 -0.70024466207E+03  0.70024466207E+03  0.00000000000E+00 0. -1.
        -24    2    1    2    0    0 -0.51108339493E+03 -0.78035272029E+02  0.16114936979E+03  0.54744309555E+03  0.80181564146E+02 0.  0.
        254    2    1    2    0    0  0.51108339493E+03  0.78035272029E+02  0.22427811856E+02  0.10366234102E+04  0.89821453321E+03 0.  0.
         23    2    4    4    0    0  0.38527415794E+03 -0.38239578131E+03  0.11433123159E+02  0.55069542508E+03  0.92043601417E+02 0.  0.
         23    2    4    4    0    0  0.12580923699E+03  0.46043105334E+03  0.10994688697E+02  0.48592798516E+03  0.90445589109E+02 0.  0.
          3    1    3    3  502    0 -0.17808523615E+03 -0.20558877870E+02  0.95800519630E+02  0.20326032165E+03  0.00000000000E+00 0. -1.
         -4    1    3    3    0  502 -0.33299815878E+03 -0.57476394158E+02  0.65348850160E+02  0.34418277391E+03  0.00000000000E+00 0.  1.
         11    1    5    5    0    0  0.12851668388E+03 -0.86035957847E+02 -0.25890347805E+02  0.15680890979E+03  0.00000000000E+00 0. -1.
        -11    1    5    5    0    0  0.25675747405E+03 -0.29635982347E+03  0.37323470964E+02  0.39388651530E+03  0.00000000000E+00 0.  1.
          3    1    6    6  503    0  0.41212904354E+02  0.93920381248E+02  0.36627015804E+02  0.10890858454E+03  0.00000000000E+00 0. -1.
         -3    1    6    6    0  503  0.84596332637E+02  0.36651067209E+03 -0.25632327107E+02  0.37701940062E+03  0.00000000000E+00 0.  1.
<mgrwt>
<rscale>  0 0.15733932E+04</rscale>
<asrwt>0</asrwt>
<pdfrwt beam="1">  1        1 0.10772995E+00 0.15733932E+04</pdfrwt>
<pdfrwt beam="2">  1       -2 0.13597259E+00 0.15733932E+04</pdfrwt>
<totfact> 0.88767703E+00</totfact>
</mgrwt>
</event>
<event>
12    4  0.4280696E-008  0.1664586E+04  0.7818608E-02  0.8781824E-01
          3   -1    0    0  501    0  0.00000000000E+00  0.00000000000E+00  0.40793066099E+03  0.40793066099E+03  0.00000000000E+00 0. -1.
         -4   -1    0    0    0  501 -0.00000000000E+00 -0.00000000000E+00 -0.16981113163E+04  0.16981113163E+04  0.00000000000E+00 0.  1.
        -24    2    1    2    0    0 -0.30267411138E+03  0.18797833081E+03 -0.10267018190E+04  0.10895942013E+04  0.78431039097E+02 0.  0.
        254    2    1    2    0    0  0.30267411138E+03 -0.18797833081E+03 -0.26347883637E+03  0.10164477760E+04  0.91476637104E+03 0.  0.
         23    2    4    4    0    0  0.56441194662E+03 -0.33940207551E+03 -0.18222861459E+03  0.68978518121E+03  0.94030388211E+02 0.  0.
         23    2    4    4    0    0 -0.26173783524E+03  0.15142374470E+03 -0.81250221783E+02  0.32666259479E+03  0.93118244427E+02 0.  0.
          3    1    3    3  502    0 -0.47591271611E+02  0.50566790571E+02 -0.28427543763E+03  0.29263365132E+03  0.00000000000E+00 0. -1.
         -4    1    3    3    0  502 -0.25508283977E+03  0.13741154024E+03 -0.74242638134E+03  0.79696055000E+03  0.00000000000E+00 0.  1.
         11    1    5    5    0    0  0.17287789569E+03 -0.71794663183E+02 -0.18660800906E+02  0.18812088127E+03  0.00000000000E+00 0.  1.
        -11    1    5    5    0    0  0.39153405093E+03 -0.26760741232E+03 -0.16356781368E+03  0.50166429995E+03  0.00000000000E+00 0. -1.
          1    1    6    6  503    0 -0.19996122697E+03  0.78516011611E+02 -0.84998660817E+02  0.23102819895E+03  0.00000000000E+00 0. -1.
         -1    1    6    6    0  503 -0.61776608266E+02  0.72907733085E+02  0.37484390346E+01  0.95634395840E+02  0.00000000000E+00 0.  1.
<mgrwt>
<rscale>  0 0.16645860E+04</rscale>
<asrwt>0</asrwt>
<pdfrwt beam="1">  1        3 0.62758564E-01 0.16645860E+04</pdfrwt>
<pdfrwt beam="2">  1       -4 0.26124789E+00 0.16645860E+04</pdfrwt>
<totfact> 0.29003375E-01</totfact>
</mgrwt>
</event>
<event>
12    4  0.4280696E-008  0.1551895E+04  0.7818608E-02  0.8850658E-01
          1   -1    0    0  501    0  0.00000000000E+00  0.00000000000E+00  0.55656244239E+03  0.55656244239E+03  0.00000000000E+00 0. -1.
         -4   -1    0    0    0  501 -0.00000000000E+00 -0.00000000000E+00 -0.10818094843E+04  0.10818094843E+04  0.00000000000E+00 0.  1.
        -24    2    1    2    0    0  0.47229438926E+03  0.95460314790E+02 -0.23077786037E-01  0.48879632790E+03  0.82141267362E+02 0.  0.
        254    2    1    2    0    0 -0.47229438926E+03 -0.95460314790E+02 -0.52522396414E+03  0.11495755988E+04  0.90193635199E+03 0.  0.
         23    2    4    4    0    0 -0.54245454719E+03 -0.16674420107E+03 -0.71496218808E+03  0.91723167772E+03  0.89902479706E+02 0.  0.
         23    2    4    4    0    0  0.70160157931E+02  0.71283886279E+02  0.18973822394E+03  0.23234392109E+03  0.89326725233E+02 0.  0.
          1    1    3    3  502    0  0.28596279230E+03  0.43672683221E+02  0.37800874854E+02  0.29173777263E+03  0.00000000000E+00 0. -1.
         -2    1    3    3    0  502  0.18633159696E+03  0.51787631569E+02 -0.37823952640E+02  0.19705855526E+03  0.00000000000E+00 0.  1.
         11    1    5    5    0    0 -0.20355054096E+03 -0.21915628075E+02 -0.28534918244E+03  0.35119406800E+03  0.00000000000E+00 0. -1.
        -11    1    5    5    0    0 -0.33890400623E+03 -0.14482857299E+03 -0.42961300565E+03  0.56603760972E+03  0.00000000000E+00 0.  1.
          3    1    6    6  503    0  0.20461322487E+02  0.10596258327E+02  0.13436753848E+03  0.13632894706E+03  0.00000000000E+00 0. -1.
         -3    1    6    6    0  503  0.49698835444E+02  0.60687627952E+02  0.55370685462E+02  0.96014974038E+02  0.00000000000E+00 0.  1.
<mgrwt>
<rscale>  0 0.15518950E+04</rscale>
<asrwt>0</asrwt>
<pdfrwt beam="1">  1        1 0.85624992E-01 0.15518950E+04</pdfrwt>
<pdfrwt beam="2">  1       -4 0.16643223E+00 0.15518950E+04</pdfrwt>
<totfact> 0.39545591E+00</totfact>
</mgrwt>
</event>
<event>
12    4  0.4280696E-008  0.1593000E+04  0.7818608E-02  0.8824860E-01
          1   -1    0    0  501    0  0.00000000000E+00  0.00000000000E+00  0.18176713260E+04  0.18176713260E+04  0.00000000000E+00 0. -1.
         -2   -1    0    0    0  501 -0.00000000000E+00 -0.00000000000E+00 -0.34902467280E+03  0.34902467280E+03  0.00000000000E+00 0.  1.
        -24    2    1    2    0    0  0.24675463785E+03  0.13995668772E+03 -0.11323700938E+03  0.31593551526E+03  0.80727342149E+02 0.  0.
        254    2    1    2    0    0 -0.24675463785E+03 -0.13995668772E+03  0.15818836626E+04  0.18507604835E+04  0.91786857431E+03 0.  0.
         23    2    4    4    0    0  0.25701681513E+03 -0.31722023737E+03  0.65317180157E+03  0.77557436242E+03  0.90531027961E+02 0.  0.
         23    2    4    4    0    0 -0.50377145299E+03  0.17726354965E+03  0.92871186101E+03  0.10751861211E+04  0.91167051945E+02 0.  0.
          1    1    3    3  502    0  0.34946860938E+02  0.50901774309E+02 -0.44491927258E+02  0.76103911255E+02  0.00000000000E+00 0. -1.
         -2    1    3    3    0  502  0.21180777691E+03  0.89054913411E+02 -0.68745082125E+02  0.23983160401E+03  0.00000000000E+00 0.  1.
         11    1    5    5    0    0  0.23624986684E+02 -0.25498028789E+02  0.19196978083E+02  0.39709110232E+02  0.00000000000E+00 0. -1.
        -11    1    5    5    0    0  0.23339182845E+03 -0.29172220858E+03  0.63397482349E+03  0.73586525219E+03  0.00000000000E+00 0.  1.
          4    1    6    6  503    0 -0.45943516691E+03  0.14879208838E+03  0.87803369888E+03  0.10020793055E+04  0.00000000000E+00 0. -1.
         -4    1    6    6    0  503 -0.44336286078E+02  0.28471461272E+02  0.50678162128E+02  0.73106815597E+02  0.00000000000E+00 0.  1.
<mgrwt>
<rscale>  0 0.15929999E+04</rscale>
<asrwt>0</asrwt>
<pdfrwt beam="1">  1        1 0.27964174E+00 0.15929999E+04</pdfrwt>
<pdfrwt beam="2">  1       -2 0.53696105E-01 0.15929999E+04</pdfrwt>
<totfact> 0.10915402E+01</totfact>
</mgrwt>
</event>
<event>
12    4  0.4280696E-008  0.3098931E+04  0.7818608E-02  0.8216031E-01
         -2   -1    0    0    0  501 -0.00000000000E+00  0.00000000000E+00  0.15352210150E+04  0.15352210150E+04  0.00000000000E+00 0.  1.
          1   -1    0    0  501    0  0.00000000000E+00 -0.00000000000E+00 -0.15638420488E+04  0.15638420488E+04  0.00000000000E+00 0. -1.
        -24    2    1    2    0    0 -0.66118863392E+03 -0.11535705178E+04 -0.51223653769E+03  0.14270536175E+04  0.78742665450E+02 0.  0.
        254    2    1    2    0    0  0.66118863392E+03  0.11535705178E+04  0.48361550389E+03  0.16720094463E+04  0.89097490640E+03 0.  0.
         23    2    4    4    0    0 -0.12838808889E+03  0.11340028481E+03 -0.12276652271E+03  0.22931327974E+03  0.90387140710E+02 0.  0.
         23    2    4    4    0    0  0.78957672281E+03  0.10401702330E+04  0.60638202659E+03  0.14426961666E+04  0.91035993467E+02 0.  0.
          3    1    3    3  502    0 -0.57542468150E+03 -0.94784432162E+03 -0.41662613808E+03  0.11845251205E+04  0.00000000000E+00 0. -1.
         -2    1    3    3    0  502 -0.85763952424E+02 -0.20572619620E+03 -0.95610399616E+02  0.24252849699E+03  0.00000000000E+00 0.  1.
         11    1    5    5    0    0 -0.88909032810E+02  0.10525975258E+03 -0.50845333445E+02  0.14686619612E+03  0.00000000000E+00 0.  1.
        -11    1    5    5    0    0 -0.39479056077E+02  0.81405322306E+01 -0.71921189260E+02  0.82447083625E+02  0.00000000000E+00 0. -1.
          2    1    6    6  503    0  0.47604405401E+03  0.64441673526E+03  0.32417013689E+03  0.86427839710E+03  0.00000000000E+00 0. -1.
         -2    1    6    6    0  503  0.31353266880E+03  0.39575349775E+03  0.28221188970E+03  0.57841776950E+03  0.00000000000E+00 0.  1.
<mgrwt>
<rscale>  0 0.30989309E+04</rscale>
<asrwt>0</asrwt>
<pdfrwt beam="1">  1        1 0.24059108E+00 0.30989309E+04</pdfrwt>
<pdfrwt beam="2">  1       -2 0.23618785E+00 0.30989309E+04</pdfrwt>
<totfact> 0.34267240E-01</totfact>
</mgrwt>
</event>
<event>
12    4  0.4280696E-008  0.3502237E+04  0.7818608E-02  0.8113260E-01
         -2   -1    0    0    0  501 -0.00000000000E+00  0.00000000000E+00  0.15118865361E+04  0.15118865361E+04  0.00000000000E+00 0.  1.
          1   -1    0    0  501    0  0.00000000000E+00 -0.00000000000E+00 -0.20282054375E+04  0.20282054375E+04  0.00000000000E+00 0. -1.
        -24    2    1    2    0    0  0.11890515525E+04  0.25580142865E+03 -0.13491963641E+04  0.18182687205E+04  0.80575092946E+02 0.  0.
        254    2    1    2    0    0 -0.11890515525E+04 -0.25580142865E+03  0.83287746264E+03  0.17218232531E+04  0.88978226652E+03 0.  0.
         23    2    4    4    0    0 -0.12971815814E+03  0.26285190337E+03  0.73965230897E+02  0.31629144835E+03  0.93013446659E+02 0.  0.
         23    2    4    4    0    0 -0.10593333944E+04 -0.51865333202E+03  0.75891223175E+03  0.14055318048E+04  0.91560687543E+02 0.  0.
          3    1    3    3  502    0  0.11139270156E+04  0.25873120575E+03 -0.12729068555E+04  0.17111595763E+04  0.00000000000E+00 0. -1.
         -4    1    3    3    0  502  0.75124536898E+02 -0.29297771009E+01 -0.76289508598E+02  0.10710914415E+03  0.00000000000E+00 0.  1.
         11    1    5    5    0    0 -0.16973789142E+02  0.10594773692E+03 -0.53562053506E+01  0.10743240392E+03  0.00000000000E+00 0. -1.
        -11    1    5    5    0    0 -0.11274436900E+03  0.15690416645E+03  0.79321436247E+02  0.20885904442E+03  0.00000000000E+00 0.  1.
          1    1    6    6  503    0 -0.10481506863E+04 -0.50048346428E+03  0.74174178376E+03  0.13781452874E+04  0.00000000000E+00 0. -1.
         -1    1    6    6    0  503 -0.11182708050E+02 -0.18169867746E+02  0.17170447986E+02  0.27386517436E+02  0.00000000000E+00 0.  1.
<mgrwt>
<rscale>  0 0.35022373E+04</rscale>
<asrwt>0</asrwt>
<pdfrwt beam="1">  1        1 0.31203161E+00 0.35022373E+04</pdfrwt>
<pdfrwt beam="2">  1       -2 0.23259793E+00 0.35022373E+04</pdfrwt>
<totfact> 0.16843606E-01</totfact>
</mgrwt>
</event>
<event>
12    4  0.4280696E-008  0.2250261E+04  0.7818608E-02  0.8497795E-01
         -2   -1    0    0    0  501 -0.00000000000E+00  0.00000000000E+00  0.10331725810E+04  0.10331725810E+04  0.00000000000E+00 0.  1.
          1   -1    0    0  501    0  0.00000000000E+00 -0.00000000000E+00 -0.12252728197E+04  0.12252728197E+04  0.00000000000E+00 0. -1.
        -24    2    1    2    0    0  0.19286837012E+03  0.85641106593E+03  0.26098789292E+03  0.91922695199E+03  0.78901121522E+02 0.  0.
        254    2    1    2    0    0 -0.19286837012E+03 -0.85641106593E+03 -0.45308813160E+03  0.13392184488E+04  0.90420079433E+03 0.  0.
         23    2    4    4    0    0  0.31629049582E+03 -0.36218430577E+03  0.56791512362E+01  0.48922545677E+03  0.89956354420E+02 0.  0.
         23    2    4    4    0    0 -0.50915886595E+03 -0.49422676016E+03 -0.45876728284E+03  0.84999299199E+03  0.92292065773E+02 0.  0.
          1    1    3    3  502    0  0.11771965772E+03  0.45069434738E+03  0.10073679095E+03  0.47658285074E+03  0.00000000000E+00 0. -1.
         -2    1    3    3    0  502  0.75148712406E+02  0.40571671856E+03  0.16025110197E+03  0.44264410125E+03  0.00000000000E+00 0.  1.
         11    1    5    5    0    0  0.14085211289E+03 -0.19179208860E+03  0.43055126349E+02  0.24182073290E+03  0.00000000000E+00 0. -1.
        -11    1    5    5    0    0  0.17543838294E+03 -0.17039221717E+03 -0.37375975112E+02  0.24740472387E+03  0.00000000000E+00 0.  1.
          1    1    6    6  503    0 -0.47689162490E+03 -0.43807210263E+03 -0.39195375818E+03  0.75694156813E+03  0.00000000000E+00 0. -1.
         -1    1    6    6    0  503 -0.32267241048E+02 -0.56154657527E+02 -0.66813524656E+02  0.93051423868E+02  0.00000000000E+00 0.  1.
<mgrwt>
<rscale>  0 0.22502607E+04</rscale>
<asrwt>0</asrwt>
<pdfrwt beam="1">  1        1 0.18850351E+00 0.22502607E+04</pdfrwt>
<pdfrwt beam="2">  1       -2 0.15894963E+00 0.22502607E+04</pdfrwt>
<totfact> 0.20917729E+00</totfact>
</mgrwt>
</event>
<event>
12    4  0.4280696E-008  0.1740067E+04  0.7818608E-02  0.8738837E-01
         -2   -1    0    0    0  501 -0.00000000000E+00  0.00000000000E+00  0.47156619677E+03  0.47156619677E+03  0.00000000000E+00 0.  1.
          1   -1    0    0  501    0  0.00000000000E+00 -0.00000000000E+00 -0.16052009833E+04  0.16052009833E+04  0.00000000000E+00 0. -1.
        -24    2    1    2    0    0  0.19213653033E+02 -0.51380333821E+03 -0.84144417553E+03  0.98932089188E+03  0.79777764821E+02 0.  0.
        254    2    1    2    0    0 -0.19213653033E+02  0.51380333821E+03 -0.29219061104E+03  0.10874462882E+04  0.91257933450E+03 0.  0.
         23    2    4    4    0    0 -0.62495726608E+02 -0.14915830009E+03 -0.36837662594E+03  0.41259592524E+03  0.91543130016E+02 0.  0.
         23    2    4    4    0    0  0.43282073576E+02  0.66296163831E+03  0.76186014905E+02  0.67485036298E+03  0.90704089132E+02 0.  0.
          3    1    3    3  502    0 -0.17784556582E+02 -0.34115816845E+03 -0.51125195369E+03  0.61488514904E+03  0.00000000000E+00 0. -1.
         -4    1    3    3    0  502  0.36998209615E+02 -0.17264516976E+03 -0.33019222184E+03  0.37443574284E+03  0.00000000000E+00 0.  1.
         11    1    5    5    0    0 -0.11955244260E+02 -0.39622169165E+02 -0.20709653117E+03  0.21119142354E+03  0.00000000000E+00 0.  1.
        -11    1    5    5    0    0 -0.50540482348E+02 -0.10953613093E+03 -0.16128009477E+03  0.20140450169E+03  0.00000000000E+00 0. -1.
          3    1    6    6  503    0  0.32435910217E+01  0.50904558068E+03  0.33365892891E+02  0.51014822052E+03  0.00000000000E+00 0. -1.
         -3    1    6    6    0  503  0.40038482554E+02  0.15391605763E+03  0.42820122014E+02  0.16470214246E+03  0.00000000000E+00 0.  1.
<mgrwt>
<rscale>  0 0.17400673E+04</rscale>
<asrwt>0</asrwt>
<pdfrwt beam="1">  1        1 0.24695399E+00 0.17400673E+04</pdfrwt>
<pdfrwt beam="2">  1       -2 0.72548647E-01 0.17400673E+04</pdfrwt>
<totfact> 0.79169381E+00</totfact>
</mgrwt>
</event>
<event>
12    4  0.4280696E-008  0.2183830E+04  0.7818608E-02  0.8525189E-01
          1   -1    0    0  501    0  0.00000000000E+00  0.00000000000E+00  0.23295088647E+04  0.23295088647E+04  0.00000000000E+00 0. -1.
         -2   -1    0    0    0  501 -0.00000000000E+00 -0.00000000000E+00 -0.51181547529E+03  0.51181547529E+03  0.00000000000E+00 0.  1.
        -24    2    1    2    0    0  0.16360918973E+03 -0.32801394311E+03  0.18671291341E+04  0.19044211322E+04  0.79293956349E+02 0.  0.
        254    2    1    2    0    0 -0.16360918973E+03  0.32801394311E+03 -0.49435744675E+02  0.93690320780E+03  0.86080347007E+03 0.  0.
         23    2    4    4    0    0 -0.53283122741E+02 -0.96938765322E+02  0.32350125889E+03  0.35389408903E+03  0.91387889511E+02 0.  0.
         23    2    4    4    0    0 -0.11032606699E+03  0.42495270844E+03 -0.37293700357E+03  0.58300911877E+03  0.89782952037E+02 0.  0.
          3    1    3    3  502    0  0.15928520925E+03 -0.30444428792E+03  0.18123059352E+04  0.18445896305E+04  0.00000000000E+00 0. -1.
         -4    1    3    3    0  502  0.43239804765E+01 -0.23569655191E+02  0.54823198909E+02  0.59831501666E+02  0.00000000000E+00 0.  1.
         11    1    5    5    0    0 -0.14343337136E+02 -0.10255517813E+03  0.21951523216E+03  0.24271430331E+03  0.00000000000E+00 0. -1.
        -11    1    5    5    0    0 -0.38939785606E+02  0.56164128035E+01  0.10398602673E+03  0.11117978571E+03  0.00000000000E+00 0.  1.
          3    1    6    6  503    0 -0.41061027848E+02  0.73354272161E+02 -0.37117861938E+02  0.91894466248E+02  0.00000000000E+00 0. -1.
         -3    1    6    6    0  503 -0.69265039139E+02  0.35159843628E+03 -0.33581914163E+03  0.49111465252E+03  0.00000000000E+00 0.  1.
<mgrwt>
<rscale>  0 0.21838303E+04</rscale>
<asrwt>0</asrwt>
<pdfrwt beam="1">  1        1 0.35838597E+00 0.21838303E+04</pdfrwt>
<pdfrwt beam="2">  1       -2 0.78740844E-01 0.21838303E+04</pdfrwt>
<totfact> 0.20412433E+00</totfact>
</mgrwt>
</event>
<event>
12    4  0.4280696E-008  0.1300520E+04  0.7818608E-02  0.9029153E-01
         -2   -1    0    0    0  501 -0.00000000000E+00  0.00000000000E+00  0.91264168269E+03  0.91264168269E+03  0.00000000000E+00 0.  1.
          1   -1    0    0  501    0  0.00000000000E+00 -0.00000000000E+00 -0.46331253370E+03  0.46331253370E+03  0.00000000000E+00 0. -1.
        -24    2    1    2    0    0 -0.23541418635E+03 -0.14297452935E+03 -0.71499186002E+02  0.29547936598E+03  0.79588736306E+02 0.  0.
        254    2    1    2    0    0  0.23541418635E+03  0.14297452935E+03  0.52082833500E+03  0.10804748504E+04  0.90570535643E+03 0.  0.
         23    2    4    4    0    0 -0.22360026114E+03  0.28160372158E+03  0.45684094462E+03  0.58878102028E+03  0.93068299462E+02 0.  0.
         23    2    4    4    0    0  0.45901444749E+03 -0.13862919222E+03  0.63987390373E+02  0.49169383013E+03  0.88068839697E+02 0.  0.
          1    1    3    3  502    0 -0.22705452718E+03 -0.14768598552E+03 -0.80244541526E+02  0.28249618595E+03  0.00000000000E+00 0. -1.
         -2    1    3    3    0  502 -0.83596591699E+01  0.47114561661E+01  0.87453555236E+01  0.12983180037E+02  0.00000000000E+00 0.  1.
         11    1    5    5    0    0 -0.75939381135E+02  0.11859626079E+03  0.24957622333E+03  0.28656614233E+03  0.00000000000E+00 0.  1.
        -11    1    5    5    0    0 -0.14766088001E+03  0.16300746079E+03  0.20726472129E+03  0.30221487794E+03  0.00000000000E+00 0. -1.
          1    1    6    6  503    0  0.33999458108E+03 -0.11515008984E+03  0.84199982413E+02  0.36870787270E+03  0.00000000000E+00 0. -1.
         -1    1    6    6    0  503  0.11901986641E+03 -0.23479102384E+02 -0.20212592040E+02  0.12298595743E+03  0.00000000000E+00 0.  1.
<mgrwt>
<rscale>  0 0.13005204E+04</rscale>
<asrwt>0</asrwt>
<pdfrwt beam="1">  1        1 0.71278851E-01 0.13005204E+04</pdfrwt>
<pdfrwt beam="2">  1       -2 0.14040641E+00 0.13005204E+04</pdfrwt>
<totfact> 0.15056002E+01</totfact>
</mgrwt>
</event>
<event>
12    4  0.4280696E-008  0.3213921E+04  0.7818608E-02  0.8185150E-01
         -2   -1    0    0    0  501 -0.00000000000E+00  0.00000000000E+00  0.14562913947E+04  0.14562913947E+04  0.00000000000E+00 0.  1.
          1   -1    0    0  501    0  0.00000000000E+00 -0.00000000000E+00 -0.17732179015E+04  0.17732179015E+04  0.00000000000E+00 0. -1.
        -24    2    1    2    0    0 -0.56289708773E+03 -0.92716030326E+03  0.86677241294E+03  0.13907516580E+04  0.80102429325E+02 0.  0.
        254    2    1    2    0    0  0.56289708773E+03  0.92716030326E+03 -0.11836989198E+04  0.18387576382E+04  0.89632982764E+03 0.  0.
         23    2    4    4    0    0  0.60318122388E+03  0.80186481223E+03 -0.47968352884E+03  0.11158266270E+04  0.90321690740E+02 0.  0.
         23    2    4    4    0    0 -0.40284136144E+02  0.12529549103E+03 -0.70401539095E+03  0.72293101115E+03  0.98335163997E+02 0.  0.
          3    1    3    3  502    0 -0.35444644687E+02 -0.28761670942E+02  0.41506622723E+02  0.61695674745E+02  0.00000000000E+00 0. -1.
         -4    1    3    3    0  502 -0.52745244305E+03 -0.89839863232E+03  0.82526579022E+03  0.13290559833E+04  0.00000000000E+00 0.  1.
         11    1    5    5    0    0  0.73627217826E+02  0.15026748814E+03 -0.67090779897E+02  0.18028438076E+03  0.00000000000E+00 0. -1.
        -11    1    5    5    0    0  0.52955400605E+03  0.65159732409E+03 -0.41259274894E+03  0.93554224628E+03  0.00000000000E+00 0.  1.
          4    1    6    6  503    0 -0.43957251231E+02  0.13658558811E+03 -0.68903632346E+03  0.70381738958E+03  0.00000000000E+00 0.  1.
         -4    1    6    6    0  503  0.36731150862E+01 -0.11290097086E+02 -0.14979067490E+02  0.19113621570E+02  0.00000000000E+00 0. -1.
<mgrwt>
<rscale>  0 0.32139210E+04</rscale>
<asrwt>0</asrwt>
<pdfrwt beam="1">  1        1 0.27280275E+00 0.32139210E+04</pdfrwt>
<pdfrwt beam="2">  1       -2 0.22404483E+00 0.32139210E+04</pdfrwt>
<totfact> 0.29076736E-01</totfact>
</mgrwt>
</event>
<event>
12    4  0.4280696E-008  0.2335188E+04  0.7818608E-02  0.8464175E-01
          1   -1    0    0  501    0  0.00000000000E+00  0.00000000000E+00  0.21283167264E+04  0.21283167264E+04  0.00000000000E+00 0. -1.
         -2   -1    0    0    0  501 -0.00000000000E+00 -0.00000000000E+00 -0.64054187382E+03  0.64054187382E+03  0.00000000000E+00 0.  1.
        -24    2    1    2    0    0  0.69851080146E+03 -0.37658825991E+02  0.14568530671E+04  0.16186687373E+04  0.91280310530E+02 0.  0.
        254    2    1    2    0    0 -0.69851080146E+03  0.37658825991E+02  0.30921785419E+02  0.11501898629E+04  0.91249385581E+03 0.  0.
         23    2    4    4    0    0 -0.28057778531E+03  0.38686530333E+03 -0.23066399003E+03  0.53908837317E+03  0.94982847183E+02 0.  0.
         23    2    4    4    0    0 -0.41793301615E+03 -0.34920647734E+03  0.26158577545E+03  0.61110148969E+03  0.91677385301E+02 0.  0.
          1    1    3    3  502    0  0.55807842869E+03  0.47583119035E+01  0.11812235759E+04  0.13064315176E+04  0.00000000000E+00 0. -1.
         -2    1    3    3    0  502  0.14043237276E+03 -0.42417137894E+02  0.27562949127E+03  0.31223721969E+03  0.00000000000E+00 0.  1.
         11    1    5    5    0    0 -0.24061271285E+03  0.33792791154E+03 -0.23313181363E+03  0.47585732474E+03  0.00000000000E+00 0.  1.
        -11    1    5    5    0    0 -0.39965072460E+02  0.48937391799E+02  0.24678235996E+01  0.63231048435E+02  0.00000000000E+00 0. -1.
          1    1    6    6  503    0 -0.62996569117E+02 -0.15589148231E+02  0.24658046769E+02  0.69423400476E+02  0.00000000000E+00 0. -1.
         -1    1    6    6    0  503 -0.35493644703E+03 -0.33361732911E+03  0.23692772868E+03  0.54167808921E+03  0.00000000000E+00 0.  1.
<mgrwt>
<rscale>  0 0.23351882E+04</rscale>
<asrwt>0</asrwt>
<pdfrwt beam="1">  1        1 0.32743334E+00 0.23351882E+04</pdfrwt>
<pdfrwt beam="2">  1       -2 0.98544905E-01 0.23351882E+04</pdfrwt>
<totfact> 0.16505957E+00</totfact>
</mgrwt>
</event>
<event>
12    4  0.4280696E-008  0.1445419E+04  0.7818608E-02  0.8921583E-01
         -2   -1    0    0    0  501 -0.00000000000E+00  0.00000000000E+00  0.69397234206E+03  0.69397234206E+03  0.00000000000E+00 0.  1.
          1   -1    0    0  501    0  0.00000000000E+00 -0.00000000000E+00 -0.75263652072E+03  0.75263652072E+03  0.00000000000E+00 0. -1.
        -24    2    1    2    0    0  0.62952992947E+02  0.15989800786E+03 -0.42094269814E+03  0.46167328619E+03  0.80118760790E+02 0.  0.
        254    2    1    2    0    0 -0.62952992947E+02 -0.15989800786E+03  0.36227851948E+03  0.98493557659E+03  0.89962320563E+03 0.  0.
         23    2    4    4    0    0  0.37630475762E+03 -0.19843137105E+03  0.52171182349E+02  0.43816594651E+03  0.91034525253E+02 0.  0.
         23    2    4    4    0    0 -0.43925775057E+03  0.38533363191E+02  0.31010733713E+03  0.54676963008E+03  0.91423609181E+02 0.  0.
          3    1    3    3  502    0  0.67478918181E+02  0.10344831860E+03 -0.34838900482E+03  0.36963476257E+03  0.00000000000E+00 0. -1.
         -4    1    3    3    0  502 -0.45259252343E+01  0.56449689259E+02 -0.72553693312E+02  0.92038523618E+02  0.00000000000E+00 0.  1.
         11    1    5    5    0    0  0.29070580650E+03 -0.18664318412E+03  0.20270515147E+02  0.34605843133E+03  0.00000000000E+00 0. -1.
        -11    1    5    5    0    0  0.85598951122E+02 -0.11788186926E+02  0.31900667202E+02  0.92107515177E+02  0.00000000000E+00 0.  1.
          2    1    6    6  503    0 -0.29072791393E+03  0.67366900838E+02  0.19243451932E+03  0.35509444306E+03  0.00000000000E+00 0. -1.
         -2    1    6    6    0  503 -0.14852983664E+03 -0.28833537647E+02  0.11767281781E+03  0.19167518702E+03  0.00000000000E+00 0.  1.
<mgrwt>
<rscale>  0 0.14454189E+04</rscale>
<asrwt>0</asrwt>
<pdfrwt beam="1">  1        1 0.11579023E+00 0.14454189E+04</pdfrwt>
<pdfrwt beam="2">  1       -2 0.10676498E+00 0.14454189E+04</pdfrwt>
<totfact> 0.14637254E+01</totfact>
</mgrwt>
</event>
<event>
12    4  0.4280696E-008  0.2044387E+04  0.7818608E-02  0.8586145E-01
         -4   -1    0    0    0  501 -0.00000000000E+00  0.00000000000E+00  0.34875299955E+03  0.34875299955E+03  0.00000000000E+00 0.  1.
          3   -1    0    0  501    0  0.00000000000E+00 -0.00000000000E+00 -0.29960460734E+04  0.29960460734E+04  0.00000000000E+00 0. -1.
        -24    2    1    2    0    0  0.44655891871E+03  0.34974670730E+03 -0.95026565174E+02  0.58054976259E+03  0.79185551719E+02 0.  0.
        254    2    1    2    0    0 -0.44655891871E+03 -0.34974670730E+03 -0.25522665087E+04  0.27642493104E+04  0.89736965148E+03 0.  0.
         23    2    4    4    0    0 -0.24433513037E+03  0.20953383735E+03 -0.36078305616E+03  0.49161937579E+03  0.89000629822E+02 0.  0.
         23    2    4    4    0    0 -0.20222378834E+03 -0.55928054465E+03 -0.21914834525E+04  0.22726299346E+04  0.92508965503E+02 0.  0.
          3    1    3    3  502    0  0.17036261591E+03  0.92342807577E+02 -0.51473527449E+02  0.20049972329E+03  0.00000000000E+00 0. -1.
         -4    1    3    3    0  502  0.27619630280E+03  0.25740389972E+03 -0.43553037725E+02  0.38005003929E+03  0.00000000000E+00 0.  1.
         11    1    5    5    0    0 -0.21115044013E+03  0.13276863420E+03 -0.28535817010E+03  0.37900040084E+03  0.00000000000E+00 0. -1.
        -11    1    5    5    0    0 -0.33184690247E+02  0.76765203152E+02 -0.75424886064E+02  0.11261897495E+03  0.00000000000E+00 0.  1.
          4    1    6    6  503    0 -0.73017021401E+02 -0.15241180067E+03 -0.77524904372E+03  0.79345568382E+03  0.00000000000E+00 0. -1.
         -4    1    6    6    0  503 -0.12920676694E+03 -0.40686874398E+03 -0.14162344088E+04  0.14791742508E+04  0.00000000000E+00 0.  1.
<mgrwt>
<rscale>  0 0.20443875E+04</rscale>
<asrwt>0</asrwt>
<pdfrwt beam="1">  1        3 0.46093018E+00 0.20443875E+04</pdfrwt>
<pdfrwt beam="2">  1       -4 0.53654306E-01 0.20443875E+04</pdfrwt>
<totfact> 0.38055577E-02</totfact>
</mgrwt>
</event>
<event>
12    4  0.4280696E-008  0.2730188E+04  0.7818608E-02  0.8325276E-01
          3   -1    0    0  501    0  0.00000000000E+00  0.00000000000E+00  0.18030657181E+04  0.18030657181E+04  0.00000000000E+00 0. -1.
         -4   -1    0    0    0  501 -0.00000000000E+00 -0.00000000000E+00 -0.10335073265E+04  0.10335073265E+04  0.00000000000E+00 0.  1.
        -24    2    1    2    0    0 -0.42062995885E+03  0.11126121117E+04  0.62305994525E+03  0.13452076316E+04  0.80898723086E+02 0.  0.
        254    2    1    2    0    0  0.42062995885E+03 -0.11126121117E+04  0.14649844639E+03  0.14913654130E+04  0.88762251379E+03 0.  0.
         23    2    4    4    0    0 -0.17745865482E+03 -0.16826420983E+02  0.13115995921E+03  0.23967564930E+03  0.92015103942E+02 0.  0.
         23    2    4    4    0    0  0.59808861367E+03 -0.10957856907E+04  0.15338487179E+02  0.12516897637E+04  0.89642209091E+02 0.  0.
          1    1    3    3  502    0 -0.21474417315E+03  0.56570554613E+03  0.27130710463E+03  0.66313299560E+03  0.00000000000E+00 0. -1.
         -2    1    3    3    0  502 -0.20588578570E+03  0.54690656554E+03  0.35175284062E+03  0.68207463600E+03  0.00000000000E+00 0.  1.
         11    1    5    5    0    0 -0.12472347592E+03 -0.22552475461E+02  0.37738681316E+02  0.13224510450E+03  0.00000000000E+00 0.  1.
        -11    1    5    5    0    0 -0.52735178895E+02  0.57260544779E+01  0.93421277893E+02  0.10743054480E+03  0.00000000000E+00 0. -1.
          3    1    6    6  503    0  0.99849170161E+02 -0.22546383852E+03 -0.26270118525E+02  0.24797967334E+03  0.00000000000E+00 0. -1.
         -3    1    6    6    0  503  0.49823944351E+03 -0.87032185217E+03  0.41608605704E+02  0.10037100904E+04  0.00000000000E+00 0.  1.
<mgrwt>
<rscale>  0 0.27301880E+04</rscale>
<asrwt>0</asrwt>
<pdfrwt beam="1">  1        3 0.27739473E+00 0.27301880E+04</pdfrwt>
<pdfrwt beam="2">  1       -4 0.15900113E+00 0.27301880E+04</pdfrwt>
<totfact> 0.26236519E-02</totfact>
</mgrwt>
</event>
<event>
12    4  0.4280696E-008  0.2426077E+04  0.7818608E-02  0.8429805E-01
          1   -1    0    0  501    0  0.00000000000E+00  0.00000000000E+00  0.24212844440E+04  0.24212844440E+04  0.00000000000E+00 0. -1.
         -2   -1    0    0    0  501 -0.00000000000E+00 -0.00000000000E+00 -0.60771973886E+03  0.60771973886E+03  0.00000000000E+00 0.  1.
        -24    2    1    2    0    0  0.40562399490E+03  0.79939937745E+02  0.20123795955E+04  0.20559888986E+04  0.80607045244E+02 0.  0.
        254    2    1    2    0    0 -0.40562399490E+03 -0.79939937745E+02 -0.19881489034E+03  0.97301528431E+03  0.85808517293E+03 0.  0.
         23    2    4    4    0    0 -0.40128689524E+03 -0.16658635158E+03 -0.48677074451E+03  0.65869415022E+03  0.90277577540E+02 0.  0.
         23    2    4    4    0    0 -0.43370996610E+01  0.86646413838E+02  0.28795585417E+03  0.31432113409E+03  0.91393598912E+02 0.  0.
          3    1    3    3  502    0  0.32420608220E+03  0.86739387716E+02  0.14957375113E+04  0.15329266152E+04  0.00000000000E+00 0. -1.
         -4    1    3    3    0  502  0.81417912701E+02 -0.67994499711E+01  0.51664208424E+03  0.52306228332E+03  0.00000000000E+00 0.  1.
         11    1    5    5    0    0 -0.28276904804E+03 -0.73046320873E+02 -0.30266360147E+03  0.42059405033E+03  0.00000000000E+00 0. -1.
        -11    1    5    5    0    0 -0.11851784720E+03 -0.93540030710E+02 -0.18410714304E+03  0.23810009989E+03  0.00000000000E+00 0.  1.
          1    1    6    6  503    0 -0.31148394831E+02 -0.11433326191E+01  0.46255562801E+02  0.55777296457E+02  0.00000000000E+00 0. -1.
         -1    1    6    6    0  503  0.26811295170E+02  0.87789746457E+02  0.24170029137E+03  0.25854383763E+03  0.00000000000E+00 0.  1.
<mgrwt>
<rscale>  0 0.24260770E+04</rscale>
<asrwt>0</asrwt>
<pdfrwt beam="1">  1        1 0.37250529E+00 0.24260770E+04</pdfrwt>
<pdfrwt beam="2">  1       -2 0.93495346E-01 0.24260770E+04</pdfrwt>
<totfact> 0.11675173E+00</totfact>
</mgrwt>
</event>
<event>
12    4  0.4280696E-008  0.1789790E+04  0.7818608E-02  0.8711748E-01
         -2   -1    0    0    0  501 -0.00000000000E+00  0.00000000000E+00  0.55404585629E+03  0.55404585629E+03  0.00000000000E+00 0.  1.
          1   -1    0    0  501    0  0.00000000000E+00 -0.00000000000E+00 -0.14454344660E+04  0.14454344660E+04  0.00000000000E+00 0. -1.
        -24    2    1    2    0    0  0.25936114066E+03  0.56244301204E+03 -0.59595789148E+03  0.86357200723E+03  0.83549148280E+02 0.  0.
        254    2    1    2    0    0 -0.25936114066E+03 -0.56244301204E+03 -0.29543071819E+03  0.11359083150E+04  0.90520608030E+03 0.  0.
         23    2    4    4    0    0 -0.18262153014E+03 -0.55654716433E+03  0.20083077846E+03  0.62580189266E+03  0.90551851898E+02 0.  0.
         23    2    4    4    0    0 -0.76739610516E+02 -0.58958477102E+01 -0.49626149665E+03  0.51010642237E+03  0.89495029128E+02 0.  0.
          3    1    3    3  502    0  0.25319950080E+03  0.56421930563E+03 -0.58792167867E+03  0.85329087204E+03  0.00000000000E+00 0. -1.
         -2    1    3    3    0  502  0.61616398553E+01 -0.17762935843E+01 -0.80362128086E+01  0.10281135196E+02  0.00000000000E+00 0.  1.
         11    1    5    5    0    0  0.81694629592E+01 -0.34476399528E+02  0.20656910611E+01  0.35491257079E+02  0.00000000000E+00 0. -1.
        -11    1    5    5    0    0 -0.19079099310E+03 -0.52207076480E+03  0.19876508740E+03  0.59031063558E+03  0.00000000000E+00 0.  1.
          1    1    6    6  503    0  0.17777233295E+02 -0.84463144707E+01 -0.46155316924E+02  0.50176523715E+02  0.00000000000E+00 0. -1.
         -1    1    6    6    0  503 -0.94516843811E+02  0.25504667605E+01 -0.45010617973E+03  0.45992989865E+03  0.00000000000E+00 0.  1.
<mgrwt>
<rscale>  0 0.17897899E+04</rscale>
<asrwt>0</asrwt>
<pdfrwt beam="1">  1        1 0.22237453E+00 0.17897899E+04</pdfrwt>
<pdfrwt beam="2">  1       -2 0.85237825E-01 0.17897899E+04</pdfrwt>
<totfact> 0.70840994E+00</totfact>
</mgrwt>
</event>
<event>
12    4  0.4280696E-008  0.1284507E+04  0.7818608E-02  0.9041942E-01
         -2   -1    0    0    0  501 -0.00000000000E+00  0.00000000000E+00  0.62233239756E+03  0.62233239756E+03  0.00000000000E+00 0.  1.
          1   -1    0    0  501    0  0.00000000000E+00 -0.00000000000E+00 -0.66281268819E+03  0.66281268819E+03  0.00000000000E+00 0. -1.
        -24    2    1    2    0    0  0.10119702455E+03 -0.24808223154E+03 -0.18895787223E+03  0.33762523991E+03  0.80623158970E+02 0.  0.
        254    2    1    2    0    0 -0.10119702455E+03  0.24808223154E+03  0.14847758160E+03  0.94751984584E+03  0.89663963477E+03 0.  0.
         23    2    4    4    0    0 -0.44012425278E+03  0.28911826089E+03  0.23430603368E+03  0.58366797433E+03  0.92034016365E+02 0.  0.
         23    2    4    4    0    0  0.33892722824E+03 -0.41036029346E+02 -0.85828452086E+02  0.36385187151E+03  0.92011083398E+02 0.  0.
          1    1    3    3  502    0  0.37951455754E+01 -0.64898192725E+02 -0.80643428605E+02  0.10358349833E+03  0.00000000000E+00 0. -1.
         -2    1    3    3    0  502  0.97401878972E+02 -0.18318403882E+03 -0.10831444363E+03  0.23404174159E+03  0.00000000000E+00 0.  1.
         11    1    5    5    0    0 -0.44060919505E+03  0.29323011120E+03  0.22837190807E+03  0.57643220700E+03  0.00000000000E+00 0.  1.
        -11    1    5    5    0    0  0.48494226300E+00 -0.41118503127E+01  0.59341256126E+01  0.72357673248E+01  0.00000000000E+00 0. -1.
          1    1    6    6  503    0  0.21502010228E+03 -0.62735463676E+01 -0.94318958093E+02  0.23488096480E+03  0.00000000000E+00 0.  1.
         -1    1    6    6    0  503  0.12390712595E+03 -0.34762482978E+02  0.84905060067E+01  0.12897090671E+03  0.00000000000E+00 0. -1.
<mgrwt>
<rscale>  0 0.12845074E+04</rscale>
<asrwt>0</asrwt>
<pdfrwt beam="1">  1        1 0.10197118E+00 0.12845074E+04</pdfrwt>
<pdfrwt beam="2">  1       -2 0.95743446E-01 0.12845074E+04</pdfrwt>
<totfact> 0.23318051E+01</totfact>
</mgrwt>
</event>
<event>
12    4  0.4280696E-008  0.1418013E+04  0.7818608E-02  0.8940882E-01
         -2   -1    0    0    0  501 -0.00000000000E+00  0.00000000000E+00  0.50555651439E+03  0.50555651439E+03  0.00000000000E+00 0.  1.
          1   -1    0    0  501    0  0.00000000000E+00 -0.00000000000E+00 -0.99433034710E+03  0.99433034710E+03  0.00000000000E+00 0. -1.
        -24    2    1    2    0    0 -0.45022330784E+02  0.41635370210E+03  0.69403192753E+02  0.43206273513E+03  0.80523216548E+02 0.  0.
        254    2    1    2    0    0  0.45022330784E+02 -0.41635370210E+03 -0.55817702547E+03  0.10678241264E+04  0.80827554557E+03 0.  0.
         23    2    4    4    0    0  0.30636596928E+03 -0.15516718507E+03 -0.58687717202E+03  0.68594236225E+03  0.90305851606E+02 0.  0.
         23    2    4    4    0    0 -0.26134363850E+03 -0.26118651702E+03  0.28700146548E+02  0.38188176412E+03  0.92147106824E+02 0.  0.
          3    1    3    3  502    0 -0.54557624963E+01  0.12663914628E+03  0.58107507011E+02  0.13944074400E+03  0.00000000000E+00 0. -1.
         -4    1    3    3    0  502 -0.39566568287E+02  0.28971455582E+03  0.11295685742E+02  0.29262199113E+03  0.00000000000E+00 0.  1.
         11    1    5    5    0    0  0.13679407981E+03 -0.26640581410E+02 -0.19008290004E+03  0.23569864178E+03  0.00000000000E+00 0. -1.
        -11    1    5    5    0    0  0.16957188947E+03 -0.12852660366E+03 -0.39679427198E+03  0.45024372047E+03  0.00000000000E+00 0.  1.
          1    1    6    6  503    0 -0.23942926033E+03 -0.22311327601E+03 -0.37081414546E+01  0.32729139149E+03  0.00000000000E+00 0. -1.
         -1    1    6    6    0  503 -0.21914378166E+02 -0.38073241015E+02  0.32408288003E+02  0.54590372622E+02  0.00000000000E+00 0.  1.
<mgrwt>
<rscale>  0 0.14180130E+04</rscale>
<asrwt>0</asrwt>
<pdfrwt beam="1">  1        1 0.15297390E+00 0.14180130E+04</pdfrwt>
<pdfrwt beam="2">  1       -2 0.77777925E-01 0.14180130E+04</pdfrwt>
<totfact> 0.19215133E+01</totfact>
</mgrwt>
</event>
<event>
12    4  0.4280696E-008  0.1179455E+04  0.7818608E-02  0.9131032E-01
         -2   -1    0    0    0  501 -0.00000000000E+00  0.00000000000E+00  0.27232782470E+03  0.27232782470E+03  0.00000000000E+00 0.  1.
          1   -1    0    0  501    0  0.00000000000E+00 -0.00000000000E+00 -0.12770593652E+04  0.12770593652E+04  0.00000000000E+00 0. -1.
        -24    2    1    2    0    0 -0.12717655832E+03 -0.20293839173E+03 -0.23446179561E+03  0.34449571843E+03  0.79668680115E+02 0.  0.
        254    2    1    2    0    0  0.12717655832E+03  0.20293839173E+03 -0.77026974488E+03  0.12048914715E+04  0.89503637372E+03 0.  0.
         23    2    4    4    0    0  0.75494792725E+02  0.27917072632E+03 -0.94200270708E+03  0.98955313975E+03  0.90612129797E+02 0.  0.
         23    2    4    4    0    0  0.51681765597E+02 -0.76232334598E+02  0.17173296221E+03  0.21533833171E+03  0.91629760774E+02 0.  0.
          1    1    3    3  502    0 -0.13616582469E+03 -0.18980028199E+03 -0.23032688210E+03  0.32804839807E+03  0.00000000000E+00 0. -1.
         -2    1    3    3    0  502  0.89892663704E+01 -0.13138109731E+02 -0.41349135121E+01  0.16447320357E+02  0.00000000000E+00 0.  1.
         11    1    5    5    0    0 -0.60847946436E+01  0.46483846666E+02 -0.77518652956E+02  0.90592021078E+02  0.00000000000E+00 0.  1.
        -11    1    5    5    0    0  0.81579587368E+02  0.23268687966E+03 -0.86448405413E+03  0.89896111867E+03  0.00000000000E+00 0. -1.
          4    1    6    6  503    0  0.52613269836E+02 -0.77345839779E+02  0.18217899696E+03  0.20479189932E+03  0.00000000000E+00 0. -1.
         -4    1    6    6    0  503 -0.93150423881E+00  0.11135051808E+01 -0.10446034754E+02  0.10546432383E+02  0.00000000000E+00 0.  1.
<mgrwt>
<rscale>  0 0.11794555E+04</rscale>
<asrwt>0</asrwt>
<pdfrwt beam="1">  1        1 0.19647066E+00 0.11794555E+04</pdfrwt>
<pdfrwt beam="2">  1       -2 0.41896590E-01 0.11794555E+04</pdfrwt>
<totfact> 0.44084949E+01</totfact>
</mgrwt>
</event>
<event>
12    4  0.4280696E-008  0.1350940E+04  0.7818608E-02  0.8990117E-01
          1   -1    0    0  501    0  0.00000000000E+00  0.00000000000E+00  0.31913413685E+04  0.31913413685E+04  0.00000000000E+00 0. -1.
         -2   -1    0    0    0  501 -0.00000000000E+00 -0.00000000000E+00 -0.14296803270E+03  0.14296803270E+03  0.00000000000E+00 0.  1.
        -24    2    1    2    0    0 -0.10328143982E+03  0.86259764212E+02  0.12200619010E+01  0.15664896161E+03  0.80184823319E+02 0.  0.
        254    2    1    2    0    0  0.10328143982E+03 -0.86259764212E+02  0.30471532739E+04  0.31776604395E+04  0.89122106792E+03 0.  0.
         23    2    4    4    0    0  0.34494087515E+03  0.22126356911E+03  0.89814695601E+03  0.99132057710E+03  0.90037534474E+02 0.  0.
         23    2    4    4    0    0 -0.24165943534E+03 -0.30752333333E+03  0.21490063178E+04  0.21863398624E+04  0.94254743872E+02 0.  0.
          3    1    3    3  502    0 -0.13849458391E+02 -0.13378498624E+02 -0.11048596669E+02  0.22200522775E+02  0.00000000000E+00 0. -1.
         -4    1    3    3    0  502 -0.89431981427E+02  0.99638262836E+02  0.12268658570E+02  0.13444843884E+03  0.00000000000E+00 0.  1.
         11    1    5    5    0    0  0.13481861306E+03  0.12688091764E+03  0.46988001646E+03  0.50503668734E+03  0.00000000000E+00 0.  1.
        -11    1    5    5    0    0  0.21012226209E+03  0.94382651474E+02  0.42826693955E+03  0.48628388975E+03  0.00000000000E+00 0. -1.
          4    1    6    6  503    0 -0.19312586246E+03 -0.22059844438E+03  0.17870582346E+04  0.18109495868E+04  0.00000000000E+00 0. -1.
         -4    1    6    6    0  503 -0.48533572872E+02 -0.86924888942E+02  0.36194808329E+03  0.37539027560E+03  0.00000000000E+00 0.  1.
<mgrwt>
<rscale>  0 0.13509401E+04</rscale>
<asrwt>0</asrwt>
<pdfrwt beam="1">  1        1 0.49097554E+00 0.13509401E+04</pdfrwt>
<pdfrwt beam="2">  1       -2 0.21995084E-01 0.13509401E+04</pdfrwt>
<totfact> 0.67747163E+00</totfact>
</mgrwt>
</event>
<event>
12    4  0.4280696E-008  0.1008347E+04  0.7818608E-02  0.9299437E-01
         -2   -1    0    0    0  501 -0.00000000000E+00  0.00000000000E+00  0.56131358753E+03  0.56131358753E+03  0.00000000000E+00 0.  1.
          1   -1    0    0  501    0  0.00000000000E+00 -0.00000000000E+00 -0.45285029482E+03  0.45285029482E+03  0.00000000000E+00 0. -1.
        -24    2    1    2    0    0 -0.18535570104E+02  0.45066716770E+02  0.60915267198E+02  0.10858816525E+03  0.75539019956E+02 0.  0.
        254    2    1    2    0    0  0.18535570104E+02 -0.45066716770E+02  0.47548025516E+02  0.90557571709E+03  0.90301272878E+03 0.  0.
         23    2    4    4    0    0  0.32543442893E+02 -0.94726442475E+02  0.46031906419E+03  0.47960153834E+03  0.89954544873E+02 0.  0.
         23    2    4    4    0    0 -0.14007872789E+02  0.49659725705E+02 -0.41277103867E+03  0.42597417875E+03  0.91715657014E+02 0.  0.
          1    1    3    3  502    0  0.25993002500E+02  0.47785526603E+00  0.24943393780E+02  0.36028286358E+02  0.00000000000E+00 0. -1.
         -2    1    3    3    0  502 -0.44528572603E+02  0.44588861504E+02  0.35971873418E+02  0.72559878897E+02  0.00000000000E+00 0.  1.
         11    1    5    5    0    0  0.33048908266E+02 -0.10271613651E+03  0.45896989813E+03  0.47148298212E+03  0.00000000000E+00 0. -1.
        -11    1    5    5    0    0 -0.50546537322E+00  0.79896940344E+01  0.13491660528E+01  0.81185562167E+01  0.00000000000E+00 0.  1.
          1    1    6    6  503    0 -0.37393661864E+02  0.52294063331E+02 -0.38127574389E+03  0.38665766240E+03  0.00000000000E+00 0. -1.
         -1    1    6    6    0  503  0.23385789075E+02 -0.26343376263E+01 -0.31495294777E+02  0.39316516358E+02  0.00000000000E+00 0.  1.
<mgrwt>
<rscale>  0 0.10083472E+04</rscale>
<asrwt>0</asrwt>
<pdfrwt beam="1">  1        1 0.69669276E-01 0.10083472E+04</pdfrwt>
<pdfrwt beam="2">  1       -2 0.86355937E-01 0.10083472E+04</pdfrwt>
<totfact> 0.51712969E+01</totfact>
</mgrwt>
</event>
<event>
12    4  0.4280696E-008  0.1828605E+04  0.7818608E-02  0.8691234E-01
         -2   -1    0    0    0  501 -0.00000000000E+00  0.00000000000E+00  0.79107985841E+03  0.79107985841E+03  0.00000000000E+00 0.  1.
          1   -1    0    0  501    0  0.00000000000E+00 -0.00000000000E+00 -0.10567193877E+04  0.10567193877E+04  0.00000000000E+00 0. -1.
        -24    2    1    2    0    0  0.52939596197E+03 -0.11055474037E+03 -0.54321801393E+03  0.77072748333E+03  0.80328125429E+02 0.  0.
        254    2    1    2    0    0 -0.52939596197E+03  0.11055474037E+03  0.27757848463E+03  0.10770717628E+04  0.88912953607E+03 0.  0.
         23    2    4    4    0    0  0.14277596191E+03  0.48902011403E+02 -0.18345326484E+03  0.25448393452E+03  0.91272068724E+02 0.  0.
         23    2    4    4    0    0 -0.67217192388E+03  0.61652728969E+02  0.46103174947E+03  0.82258782827E+03  0.92110297828E+02 0.  0.
          1    1    3    3  502    0  0.37033162938E+03 -0.44871866939E+02 -0.34359414539E+03  0.50716460534E+03  0.00000000000E+00 0. -1.
         -2    1    3    3    0  502  0.15906433258E+03 -0.65682873433E+02 -0.19962386854E+03  0.26356287799E+03  0.00000000000E+00 0.  1.
         11    1    5    5    0    0  0.12869017914E+03  0.74461559668E+01 -0.15772661704E+03  0.20370148053E+03  0.00000000000E+00 0.  1.
        -11    1    5    5    0    0  0.14085782765E+02  0.41455855436E+02 -0.25726647795E+02  0.50782453986E+02  0.00000000000E+00 0. -1.
          2    1    6    6  503    0 -0.60576271404E+03  0.41735572780E+02  0.38159664520E+03  0.71715153446E+03  0.00000000000E+00 0.  1.
         -2    1    6    6    0  503 -0.66409209838E+02  0.19917156189E+02  0.79435104271E+02  0.10543629381E+03  0.00000000000E+00 0. -1.
<mgrwt>
<rscale>  0 0.18286054E+04</rscale>
<asrwt>0</asrwt>
<pdfrwt beam="1">  1        1 0.16257221E+00 0.18286054E+04</pdfrwt>
<pdfrwt beam="2">  1       -2 0.12170459E+00 0.18286054E+04</pdfrwt>
<totfact> 0.57864750E+00</totfact>
</mgrwt>
</event>
<event>
12    4  0.4280696E-008  0.2433086E+04  0.7818608E-02  0.8427220E-01
         -2   -1    0    0    0  501 -0.00000000000E+00  0.00000000000E+00  0.16216392882E+04  0.16216392882E+04  0.00000000000E+00 0.  1.
          1   -1    0    0  501    0  0.00000000000E+00 -0.00000000000E+00 -0.91264213490E+03  0.91264213490E+03  0.00000000000E+00 0. -1.
        -24    2    1    2    0    0 -0.17566498706E+03  0.10257411669E+04  0.24293209345E+03  0.10716430247E+04  0.79997758439E+02 0.  0.
        254    2    1    2    0    0  0.17566498706E+03 -0.10257411669E+04  0.46606505985E+03  0.14626383984E+04  0.91601927672E+03 0.  0.
         23    2    4    4    0    0  0.42545692131E+03 -0.80260821114E+03  0.59852997468E+03  0.10917095326E+04  0.91640823350E+02 0.  0.
         23    2    4    4    0    0 -0.24979193426E+03 -0.22313295572E+03 -0.13246491483E+03  0.37092886578E+03  0.88639401262E+02 0.  0.
          3    1    3    3  502    0 -0.46954971536E+01  0.65995062878E+02 -0.30511523286E+01  0.66232209297E+02  0.00000000000E+00 0. -1.
         -4    1    3    3    0  502 -0.17096948990E+03  0.95974610398E+03  0.24598324578E+03  0.10054108154E+04  0.00000000000E+00 0.  1.
         11    1    5    5    0    0  0.35651778347E+03 -0.72985642111E+03  0.52113817791E+03  0.96508047636E+03  0.00000000000E+00 0.  1.
        -11    1    5    5    0    0  0.68939137843E+02 -0.72751790028E+02  0.77391796766E+02  0.12662905624E+03  0.00000000000E+00 0. -1.
          4    1    6    6  503    0 -0.20766600991E+03 -0.17568223431E+03 -0.67799971479E+02  0.28033240137E+03  0.00000000000E+00 0. -1.
         -4    1    6    6    0  503 -0.42125924344E+02 -0.47450721414E+02 -0.64664943351E+02  0.90596464407E+02  0.00000000000E+00 0.  1.
<mgrwt>
<rscale>  0 0.24330856E+04</rscale>
<asrwt>0</asrwt>
<pdfrwt beam="1">  1        1 0.14040648E+00 0.24330856E+04</pdfrwt>
<pdfrwt beam="2">  1       -2 0.24948297E+00 0.24330856E+04</pdfrwt>
<totfact> 0.90112737E-01</totfact>
</mgrwt>
</event>
<event>
12    4  0.4280696E-008  0.2352844E+04  0.7818608E-02  0.8457372E-01
         -2   -1    0    0    0  501 -0.00000000000E+00  0.00000000000E+00  0.75313479066E+03  0.75313479066E+03  0.00000000000E+00 0.  1.
          1   -1    0    0  501    0  0.00000000000E+00 -0.00000000000E+00 -0.18376116408E+04  0.18376116408E+04  0.00000000000E+00 0. -1.
        -24    2    1    2    0    0 -0.13833109718E+03 -0.67443344378E+03 -0.12526428752E+04  0.14315214467E+04  0.78380590391E+02 0.  0.
        254    2    1    2    0    0  0.13833109718E+03  0.67443344378E+03  0.16816602512E+03  0.11592249847E+04  0.91734769346E+03 0.  0.
         23    2    4    4    0    0  0.49956196769E+03  0.35665974689E+03 -0.51397038103E+02  0.62255676281E+03  0.90371083788E+02 0.  0.
         23    2    4    4    0    0 -0.36123087050E+03  0.31777369689E+03  0.21956306322E+03  0.53666822192E+03  0.91307050402E+02 0.  0.
          1    1    3    3  502    0 -0.11597042197E+03 -0.62451090877E+03 -0.11852429081E+04  0.13447169833E+04  0.00000000000E+00 0. -1.
         -2    1    3    3    0  502 -0.22360675214E+02 -0.49922535008E+02 -0.67399967106E+02  0.86804463385E+02  0.00000000000E+00 0.  1.
         11    1    5    5    0    0  0.18209381854E+03  0.15142871572E+03  0.20628998250E+02  0.23772751263E+03  0.00000000000E+00 0. -1.
        -11    1    5    5    0    0  0.31746814915E+03  0.20523103117E+03 -0.72026036353E+02  0.38482925018E+03  0.00000000000E+00 0.  1.
          1    1    6    6  503    0 -0.16382699659E+03  0.18313720753E+03  0.72918936929E+02  0.25631171054E+03  0.00000000000E+00 0. -1.
         -1    1    6    6    0  503 -0.19740387391E+03  0.13463648935E+03  0.14664412629E+03  0.28035651138E+03  0.00000000000E+00 0.  1.
<mgrwt>
<rscale>  0 0.23528445E+04</rscale>
<asrwt>0</asrwt>
<pdfrwt beam="1">  1        1 0.28270948E+00 0.23528445E+04</pdfrwt>
<pdfrwt beam="2">  1       -2 0.11586689E+00 0.23528445E+04</pdfrwt>
<totfact> 0.17575982E+00</totfact>
</mgrwt>
</event>
<event>
12    4  0.4280696E-008  0.1409784E+04  0.7818608E-02  0.8946767E-01
         -2   -1    0    0    0  501 -0.00000000000E+00  0.00000000000E+00  0.38430216294E+03  0.38430216294E+03  0.00000000000E+00 0.  1.
          1   -1    0    0  501    0  0.00000000000E+00 -0.00000000000E+00 -0.12929217441E+04  0.12929217441E+04  0.00000000000E+00 0. -1.
        -24    2    1    2    0    0 -0.11243038903E+03 -0.37928867808E+02  0.19921689316E+03  0.24504525056E+03  0.79250318049E+02 0.  0.
        254    2    1    2    0    0  0.11243038903E+03  0.37928867808E+02 -0.11078364743E+04  0.14321786565E+04  0.89986380015E+03 0.  0.
         23    2    4    4    0    0  0.77090080960E+02  0.11527888404E+03 -0.12402446510E+04  0.12514484652E+04  0.93189940291E+02 0.  0.
         23    2    4    4    0    0  0.35340308068E+02 -0.77350016236E+02  0.13240817669E+03  0.18073019128E+03  0.88879212426E+02 0.  0.
          1    1    3    3  502    0  0.27942498524E-01 -0.57590072179E+01  0.71991241678E+02  0.72221228342E+02  0.00000000000E+00 0. -1.
         -2    1    3    3    0  502 -0.11245833153E+03 -0.32169860590E+02  0.12722565149E+03  0.17282402222E+03  0.00000000000E+00 0.  1.
         11    1    5    5    0    0  0.14759608936E+02  0.81186398401E+02 -0.41325925058E+03  0.42141699720E+03  0.00000000000E+00 0.  1.
        -11    1    5    5    0    0  0.62330472024E+02  0.34092485642E+02 -0.82698540044E+03  0.83003146800E+03  0.00000000000E+00 0. -1.
          1    1    6    6  503    0 -0.18573118557E+02 -0.69625366206E+00  0.89779276766E-01  0.18586381101E+02  0.00000000000E+00 0. -1.
         -1    1    6    6    0  503  0.53913426625E+02 -0.76653762574E+02  0.13231839741E+03  0.16214381018E+03  0.00000000000E+00 0.  1.
<mgrwt>
<rscale>  0 0.14097838E+04</rscale>
<asrwt>0</asrwt>
<pdfrwt beam="1">  1        1 0.19891104E+00 0.14097838E+04</pdfrwt>
<pdfrwt beam="2">  1       -2 0.59123409E-01 0.14097838E+04</pdfrwt>
<totfact> 0.20897261E+01</totfact>
</mgrwt>
</event>
<event>
12    4  0.4280696E-008  0.2043745E+04  0.7818608E-02  0.8586437E-01
         -2   -1    0    0    0  501 -0.00000000000E+00  0.00000000000E+00  0.59444530709E+03  0.59444530709E+03  0.00000000000E+00 0.  1.
          1   -1    0    0  501    0  0.00000000000E+00 -0.00000000000E+00 -0.17566351610E+04  0.17566351610E+04  0.00000000000E+00 0. -1.
        -24    2    1    2    0    0  0.41308427607E+03  0.61719179566E+03 -0.86553009611E+03  0.11431213532E+04  0.77587041596E+02 0.  0.
        254    2    1    2    0    0 -0.41308427607E+03 -0.61719179566E+03 -0.29665975782E+03  0.12079591149E+04  0.90531424361E+03 0.  0.
         23    2    4    4    0    0  0.44811346901E+02  0.20260491258E+03 -0.49262832616E+02  0.23246367194E+03  0.92497160397E+02 0.  0.
         23    2    4    4    0    0 -0.45789562297E+03 -0.81979670824E+03 -0.24739692520E+03  0.97549544300E+03  0.93011162469E+02 0.  0.
          1    1    3    3  502    0  0.27277086247E+03  0.43887552719E+03 -0.55227103174E+03  0.75631935337E+03  0.00000000000E+00 0. -1.
         -2    1    3    3    0  502  0.14031341360E+03  0.17831626847E+03 -0.31325906437E+03  0.38680199980E+03  0.00000000000E+00 0.  1.
         11    1    5    5    0    0  0.12405210669E+01  0.11135497224E+03  0.15423635915E+02  0.11242489618E+03  0.00000000000E+00 0. -1.
        -11    1    5    5    0    0  0.43570825834E+02  0.91249940338E+02 -0.64686468531E+02  0.12003877576E+03  0.00000000000E+00 0.  1.
          2    1    6    6  503    0 -0.37358287214E+03 -0.70242674559E+03 -0.17837134530E+03  0.81534276970E+03  0.00000000000E+00 0. -1.
         -2    1    6    6    0  503 -0.84312750831E+02 -0.11736996265E+03 -0.69025579909E+02  0.16015267330E+03  0.00000000000E+00 0.  1.
<mgrwt>
<rscale>  0 0.20437451E+04</rscale>
<asrwt>0</asrwt>
<pdfrwt beam="1">  1        1 0.27025156E+00 0.20437451E+04</pdfrwt>
<pdfrwt beam="2">  1       -2 0.91453125E-01 0.20437451E+04</pdfrwt>
<totfact> 0.36032455E+00</totfact>
</mgrwt>
</event>
<event>
12    4  0.4280696E-008  0.2055702E+04  0.7818608E-02  0.8581012E-01
          1   -1    0    0  501    0  0.00000000000E+00  0.00000000000E+00  0.18755624286E+04  0.18755624286E+04  0.00000000000E+00 0. -1.
         -2   -1    0    0    0  501 -0.00000000000E+00 -0.00000000000E+00 -0.56328585311E+03  0.56328585311E+03  0.00000000000E+00 0.  1.
        -24    2    1    2    0    0 -0.42647717623E+03  0.13030138156E+03  0.13366908839E+04  0.14114724989E+04  0.81552829975E+02 0.  0.
        254    2    1    2    0    0  0.42647717623E+03 -0.13030138156E+03 -0.24414308404E+02  0.10273757829E+04  0.92522630144E+03 0.  0.
         23    2    4    4    0    0  0.15990418466E+03 -0.31043584170E+03  0.36565067428E+03  0.51362435739E+03  0.90386972617E+02 0.  0.
         23    2    4    4    0    0  0.26657299156E+03  0.18013446014E+03 -0.39006498269E+03  0.51375142547E+03  0.90995894930E+02 0.  0.
          3    1    3    3  502    0 -0.28353579900E+03  0.49577053229E+02  0.90224012641E+03  0.94704154039E+03  0.00000000000E+00 0. -1.
         -4    1    3    3    0  502 -0.14294137723E+03  0.80724328327E+02  0.43445075753E+03  0.46443095851E+03  0.00000000000E+00 0.  1.
         11    1    5    5    0    0  0.63828761421E+01 -0.35801999083E+02  0.79232536261E+01  0.37219647959E+02  0.00000000000E+00 0. -1.
        -11    1    5    5    0    0  0.15352130852E+03 -0.27463384261E+03  0.35772742066E+03  0.47640470943E+03  0.00000000000E+00 0.  1.
          2    1    6    6  503    0  0.27023873901E+03  0.17895448353E+03 -0.39262678005E+03  0.50912618441E+03  0.00000000000E+00 0.  1.
         -2    1    6    6    0  503 -0.36657474463E+01  0.11799766100E+01  0.25617973651E+01  0.46252410619E+01  0.00000000000E+00 0. -1.
<mgrwt>
<rscale>  0 0.20557021E+04</rscale>
<asrwt>0</asrwt>
<pdfrwt beam="1">  1        1 0.28854806E+00 0.20557021E+04</pdfrwt>
<pdfrwt beam="2">  1       -2 0.86659363E-01 0.20557021E+04</pdfrwt>
<totfact> 0.33831282E+00</totfact>
</mgrwt>
</event>
<event>
12    4  0.4280696E-008  0.2075843E+04  0.7818608E-02  0.8571960E-01
         -2   -1    0    0    0  501 -0.00000000000E+00  0.00000000000E+00  0.15924301824E+04  0.15924301824E+04  0.00000000000E+00 0.  1.
          1   -1    0    0  501    0  0.00000000000E+00 -0.00000000000E+00 -0.67650103016E+03  0.67650103016E+03  0.00000000000E+00 0. -1.
        -24    2    1    2    0    0 -0.66805086639E+03 -0.34563171794E+02 -0.18579667609E+03  0.69876337851E+03  0.79140895734E+02 0.  0.
        254    2    1    2    0    0  0.66805086639E+03  0.34563171794E+02  0.11017258284E+04  0.15701678341E+04  0.89673889922E+03 0.  0.
         23    2    4    4    0    0  0.57924209154E+03  0.37111672945E+03  0.45451080168E+03  0.82954715830E+03  0.91210698445E+02 0.  0.
         23    2    4    4    0    0  0.88808774847E+02 -0.33655355766E+03  0.64721502667E+03  0.74062067577E+03  0.92067361072E+02 0.  0.
          1    1    3    3  502    0 -0.63261041398E+03 -0.23120187063E+02 -0.15845684927E+03  0.65256344673E+03  0.00000000000E+00 0. -1.
         -2    1    3    3    0  502 -0.35440452409E+02 -0.11442984731E+02 -0.27339826815E+02  0.46199931783E+02  0.00000000000E+00 0.  1.
         11    1    5    5    0    0  0.49443994719E+03  0.33426144027E+03  0.35835326942E+03  0.69614555772E+03  0.00000000000E+00 0. -1.
        -11    1    5    5    0    0  0.84802144344E+02  0.36855289181E+02  0.96157532264E+02  0.13340160058E+03  0.00000000000E+00 0.  1.
          1    1    6    6  503    0  0.69570875147E+02 -0.33293105237E+03  0.61882588526E+03  0.70613643764E+03  0.00000000000E+00 0. -1.
         -1    1    6    6    0  503  0.19237899700E+02 -0.36225052887E+01  0.28389141411E+02  0.34484238131E+02  0.00000000000E+00 0.  1.
<mgrwt>
<rscale>  0 0.20758426E+04</rscale>
<asrwt>0</asrwt>
<pdfrwt beam="1">  1        1 0.10407708E+00 0.20758426E+04</pdfrwt>
<pdfrwt beam="2">  1       -2 0.24498926E+00 0.20758426E+04</pdfrwt>
<totfact> 0.15977016E+00</totfact>
</mgrwt>
</event>
<event>
12    4  0.4280696E-008  0.2663271E+04  0.7818608E-02  0.8347022E-01
         -2   -1    0    0    0  501 -0.00000000000E+00  0.00000000000E+00  0.12680560709E+04  0.12680560709E+04  0.00000000000E+00 0.  1.
          1   -1    0    0  501    0  0.00000000000E+00 -0.00000000000E+00 -0.13984024233E+04  0.13984024233E+04  0.00000000000E+00 0. -1.
        -24    2    1    2    0    0 -0.15166924433E+02  0.11531159286E+04 -0.42174894679E+02  0.11567933500E+04  0.80534169496E+02 0.  0.
        254    2    1    2    0    0  0.15166924433E+02 -0.11531159286E+04 -0.88171457789E+02  0.15096651442E+04  0.97026195495E+03 0.  0.
         23    2    4    4    0    0 -0.29722903066E+03 -0.40880644816E+02 -0.15410441807E+03  0.34895132931E+03  0.89456887818E+02 0.  0.
         23    2    4    4    0    0  0.31239595509E+03 -0.11122352838E+04  0.65932960276E+02  0.11607138149E+04  0.90834165049E+02 0.  0.
          3    1    3    3  502    0 -0.43353545937E+02  0.91594420369E+03 -0.42465319444E+02  0.91795240485E+03  0.00000000000E+00 0. -1.
         -4    1    3    3    0  502  0.28186621504E+02  0.23717172491E+03  0.29042476496E+00  0.23884094514E+03  0.00000000000E+00 0.  1.
         11    1    5    5    0    0 -0.14124330292E+03 -0.59506675530E+02 -0.53175626950E+02  0.16222935109E+03  0.00000000000E+00 0. -1.
        -11    1    5    5    0    0 -0.15598572773E+03  0.18626030714E+02 -0.10092879112E+03  0.18672197823E+03  0.00000000000E+00 0.  1.
          3    1    6    6  503    0  0.13077276610E+03 -0.34323508666E+03 -0.54018704151E+01  0.36734319276E+03  0.00000000000E+00 0. -1.
         -3    1    6    6    0  503  0.18162318899E+03 -0.76900019713E+03  0.71334830691E+02  0.79337062211E+03  0.00000000000E+00 0.  1.
<mgrwt>
<rscale>  0 0.26632707E+04</rscale>
<asrwt>0</asrwt>
<pdfrwt beam="1">  1        1 0.21513883E+00 0.26632707E+04</pdfrwt>
<pdfrwt beam="2">  1       -2 0.19508555E+00 0.26632707E+04</pdfrwt>
<totfact> 0.84905527E-01</totfact>
</mgrwt>
</event>
<event>
12    4  0.4280696E-008  0.2954054E+04  0.7818608E-02  0.8256974E-01
          1   -1    0    0  501    0  0.00000000000E+00  0.00000000000E+00  0.93298387175E+03  0.93298387175E+03  0.00000000000E+00 0. -1.
         -2   -1    0    0    0  501 -0.00000000000E+00 -0.00000000000E+00 -0.23383128388E+04  0.23383128388E+04  0.00000000000E+00 0.  1.
        -24    2    1    2    0    0 -0.14168749051E+03 -0.57160148445E+03 -0.19761410929E+04  0.20636577880E+04  0.82135526105E+02 0.  0.
        254    2    1    2    0    0  0.14168749051E+03  0.57160148445E+03  0.57081212584E+03  0.12076389226E+04  0.88643199538E+03 0.  0.
         23    2    4    4    0    0  0.29205801560E+03  0.78964409086E+02  0.60589217012E+03  0.68339078159E+03  0.91566239240E+02 0.  0.
         23    2    4    4    0    0 -0.15037052509E+03  0.49263707536E+03 -0.35080044279E+02  0.52424814103E+03  0.91120365647E+02 0.  0.
          1    1    3    3  502    0 -0.68969277383E+01 -0.24656911465E+02 -0.16387236735E+03  0.16586043433E+03  0.00000000000E+00 0. -1.
         -2    1    3    3    0  502 -0.13479056278E+03 -0.54694457298E+03 -0.18122687256E+04  0.18977973536E+04  0.00000000000E+00 0.  1.
         11    1    5    5    0    0  0.23803255339E+03  0.70990144577E+02  0.40408049910E+03  0.47432072151E+03  0.00000000000E+00 0. -1.
        -11    1    5    5    0    0  0.54025462210E+02  0.79742645097E+01  0.20181167102E+03  0.20907006008E+03  0.00000000000E+00 0.  1.
          3    1    6    6  503    0 -0.15649934114E+03  0.39633844447E+03 -0.20030428002E+02  0.42658812030E+03  0.00000000000E+00 0. -1.
         -3    1    6    6    0  503  0.61288160568E+01  0.96298630895E+02 -0.15049616276E+02  0.97660020728E+02  0.00000000000E+00 0.  1.
<mgrwt>
<rscale>  0 0.29540536E+04</rscale>
<asrwt>0</asrwt>
<pdfrwt beam="1">  1        1 0.14353598E+00 0.29540536E+04</pdfrwt>
<pdfrwt beam="2">  1       -2 0.35974044E+00 0.29540536E+04</pdfrwt>
<totfact> 0.17303567E-01</totfact>
</mgrwt>
</event>
<event>
12    4  0.4280696E-008  0.1430451E+04  0.7818608E-02  0.8932067E-01
         -2   -1    0    0    0  501 -0.00000000000E+00  0.00000000000E+00  0.26387644814E+03  0.26387644814E+03  0.00000000000E+00 0.  1.
          1   -1    0    0  501    0  0.00000000000E+00 -0.00000000000E+00 -0.19385882773E+04  0.19385882773E+04  0.00000000000E+00 0. -1.
        -24    2    1    2    0    0  0.24713990396E+03 -0.27919353834E+03 -0.17970924334E+03  0.42152901884E+03  0.79775545175E+02 0.  0.
        254    2    1    2    0    0 -0.24713990396E+03  0.27919353834E+03 -0.14950025859E+04  0.17809357066E+04  0.89312490472E+03 0.  0.
         23    2    4    4    0    0 -0.20396243021E+03 -0.26688982400E+03 -0.91053558498E+03  0.97472042074E+03  0.90410154298E+02 0.  0.
         23    2    4    4    0    0 -0.43177473752E+02  0.54608336234E+03 -0.58446700087E+03  0.80621528588E+03  0.91159635884E+02 0.  0.
          3    1    3    3  502    0  0.63824508801E+02 -0.29689643575E+02 -0.47230918657E+02  0.84769113104E+02  0.00000000000E+00 0. -1.
         -4    1    3    3    0  502  0.18331539516E+03 -0.24950389476E+03 -0.13247832468E+03  0.33675990574E+03  0.00000000000E+00 0.  1.
         11    1    5    5    0    0 -0.20407104681E+03 -0.22520479791E+03 -0.83268339688E+03  0.88641064557E+03  0.00000000000E+00 0.  1.
        -11    1    5    5    0    0  0.10861660546E+00 -0.41685026088E+02 -0.77852188101E+02  0.88309775164E+02  0.00000000000E+00 0. -1.
          2    1    6    6  503    0 -0.17341232094E+01  0.28695701069E+02 -0.66556232224E+01  0.29508435466E+02  0.00000000000E+00 0. -1.
         -2    1    6    6    0  503 -0.41443350543E+02  0.51738766127E+03 -0.57781137765E+03  0.77670685041E+03  0.00000000000E+00 0.  1.
<mgrwt>
<rscale>  0 0.14304514E+04</rscale>
<asrwt>0</asrwt>
<pdfrwt beam="1">  1        1 0.29824435E+00 0.14304514E+04</pdfrwt>
<pdfrwt beam="2">  1       -2 0.40596376E-01 0.14304514E+04</pdfrwt>
<totfact> 0.16101699E+01</totfact>
</mgrwt>
</event>
<event>
12    4  0.4280696E-008  0.2501804E+04  0.7818608E-02  0.8402343E-01
          1   -1    0    0  501    0  0.00000000000E+00  0.00000000000E+00  0.14807361220E+04  0.14807361220E+04  0.00000000000E+00 0. -1.
         -2   -1    0    0    0  501 -0.00000000000E+00 -0.00000000000E+00 -0.10567420250E+04  0.10567420250E+04  0.00000000000E+00 0.  1.
        -24    2    1    2    0    0 -0.77485477817E+03  0.75270262660E+03  0.74147659903E+02  0.10856629368E+04  0.78771603527E+02 0.  0.
        254    2    1    2    0    0  0.77485477817E+03 -0.75270262660E+03  0.34984643710E+03  0.14518152102E+04  0.90466220416E+03 0.  0.
         23    2    4    4    0    0 -0.16853510258E+02 -0.58070152025E+03  0.20895924333E+03  0.62437592874E+03  0.93182823436E+02 0.  0.
         23    2    4    4    0    0  0.79170828843E+03 -0.17200110635E+03  0.14088719377E+03  0.82743928145E+03  0.91761476460E+02 0.  0.
          3    1    3    3  502    0 -0.97628718504E+02  0.86711532803E+02  0.34251888549E+02  0.13499425346E+03  0.00000000000E+00 0. -1.
         -4    1    3    3    0  502 -0.67722605967E+03  0.66599109380E+03  0.39895771354E+02  0.95066868334E+03  0.00000000000E+00 0.  1.
         11    1    5    5    0    0 -0.18964930880E+01 -0.47620207577E+03  0.20577553093E+03  0.51876351335E+03  0.00000000000E+00 0.  1.
        -11    1    5    5    0    0 -0.14957017170E+02 -0.10449944448E+03  0.31837124025E+01  0.10561241539E+03  0.00000000000E+00 0. -1.
          1    1    6    6  503    0  0.44009229989E+03 -0.13086621662E+03  0.10965545373E+03  0.47205033376E+03  0.00000000000E+00 0. -1.
         -1    1    6    6    0  503  0.35161598854E+03 -0.41134889733E+02  0.31231740035E+02  0.35538894768E+03  0.00000000000E+00 0.  1.
<mgrwt>
<rscale>  0 0.25018042E+04</rscale>
<asrwt>0</asrwt>
<pdfrwt beam="1">  1        1 0.22780556E+00 0.25018042E+04</pdfrwt>
<pdfrwt beam="2">  1       -2 0.16257570E+00 0.25018042E+04</pdfrwt>
<totfact> 0.12688231E+00</totfact>
</mgrwt>
</event>
<event>
12    4  0.4280696E-008  0.1959567E+04  0.7818608E-02  0.8625761E-01
         -4   -1    0    0    0  501 -0.00000000000E+00  0.00000000000E+00  0.30500113759E+04  0.30500113759E+04  0.00000000000E+00 0.  1.
          3   -1    0    0  501    0  0.00000000000E+00 -0.00000000000E+00 -0.31474498074E+03  0.31474498074E+03  0.00000000000E+00 0. -1.
        -24    2    1    2    0    0  0.53791511097E+03  0.86698193331E+02  0.14765168043E+03  0.57011108341E+03  0.79726942491E+02 0.  0.
        254    2    1    2    0    0 -0.53791511097E+03 -0.86698193331E+02  0.25876147147E+04  0.27946452732E+04  0.90411451045E+03 0.  0.
         23    2    4    4    0    0 -0.71732717011E+03 -0.23409051449E+03  0.15359995458E+04  0.17138735075E+04  0.93333579784E+02 0.  0.
         23    2    4    4    0    0  0.17941205914E+03  0.14739232116E+03  0.10516151689E+04  0.10807717657E+04  0.90884337259E+02 0.  0.
          3    1    3    3  502    0  0.43161550180E+03  0.98590474231E+02  0.10539986255E+03  0.45510565150E+03  0.00000000000E+00 0. -1.
         -4    1    3    3    0  502  0.10629960917E+03 -0.11892280899E+02  0.42251817883E+02  0.11500543191E+03  0.00000000000E+00 0.  1.
         11    1    5    5    0    0 -0.59652071905E+03 -0.17708002138E+03  0.11875783347E+04  0.13407224184E+04  0.00000000000E+00 0. -1.
        -11    1    5    5    0    0 -0.12080645106E+03 -0.57010493114E+02  0.34842121112E+03  0.37315108910E+03  0.00000000000E+00 0.  1.
          3    1    6    6  503    0  0.12163476421E+03  0.66003849744E+02  0.76135272551E+03  0.77382782109E+03  0.00000000000E+00 0. -1.
         -3    1    6    6    0  503  0.57777294934E+02  0.81388471416E+02  0.29026244340E+03  0.30694394462E+03  0.00000000000E+00 0.  1.
<mgrwt>
<rscale>  0 0.19595671E+04</rscale>
<asrwt>0</asrwt>
<pdfrwt beam="1">  1        3 0.48422307E-01 0.19595671E+04</pdfrwt>
<pdfrwt beam="2">  1       -4 0.46923250E+00 0.19595671E+04</pdfrwt>
<totfact> 0.19188662E-02</totfact>
</mgrwt>
</event>
<event>
12    4  0.4280696E-008  0.2799221E+04  0.7818608E-02  0.8303510E-01
         -2   -1    0    0    0  501 -0.00000000000E+00  0.00000000000E+00  0.10116070934E+04  0.10116070934E+04  0.00000000000E+00 0.  1.
          1   -1    0    0  501    0  0.00000000000E+00 -0.00000000000E+00 -0.19364337965E+04  0.19364337965E+04  0.00000000000E+00 0. -1.
        -24    2    1    2    0    0 -0.31906071124E+03  0.84550470043E+03  0.50302993705E+03  0.10372993776E+04  0.79201927705E+02 0.  0.
        254    2    1    2    0    0  0.31906071124E+03 -0.84550470043E+03 -0.14278566401E+04  0.19107415122E+04  0.89189719469E+03 0.  0.
         23    2    4    4    0    0  0.63363614390E+02 -0.79759698086E+03 -0.14224568332E+04  0.16346342346E+04  0.92031228633E+02 0.  0.
         23    2    4    4    0    0  0.25569709685E+03 -0.47907719572E+02 -0.53998069387E+01  0.27610727766E+03  0.92357543979E+02 0.  0.
          1    1    3    3  502    0 -0.20072232323E+02  0.68375317642E+02  0.17342332763E+02  0.73340541850E+02  0.00000000000E+00 0. -1.
         -2    1    3    3    0  502 -0.29898847891E+03  0.77712938279E+03  0.48568760428E+03  0.96395883578E+03  0.00000000000E+00 0.  1.
         11    1    5    5    0    0  0.34280886381E+02 -0.37316690937E+03 -0.75949380221E+03  0.84691177641E+03  0.00000000000E+00 0.  1.
        -11    1    5    5    0    0  0.29082728008E+02 -0.42443007149E+03 -0.66296303096E+03  0.78772245815E+03  0.00000000000E+00 0. -1.
          4    1    6    6  503    0  0.26146318472E+02  0.67795071272E+01 -0.28180618377E+02  0.39035098804E+02  0.00000000000E+00 0. -1.
         -4    1    6    6    0  503  0.22955077838E+03 -0.54687226699E+02  0.22780811438E+02  0.23707217885E+03  0.00000000000E+00 0.  1.
<mgrwt>
<rscale>  0 0.27992214E+04</rscale>
<asrwt>0</asrwt>
<pdfrwt beam="1">  1        1 0.29791289E+00 0.27992214E+04</pdfrwt>
<pdfrwt beam="2">  1       -2 0.15563186E+00 0.27992214E+04</pdfrwt>
<totfact> 0.68006971E-01</totfact>
</mgrwt>
</event>
<event>
12    4  0.4280696E-008  0.1185489E+04  0.7818608E-02  0.9125654E-01
          1   -1    0    0  501    0  0.00000000000E+00  0.00000000000E+00  0.33335997319E+04  0.33335997319E+04  0.00000000000E+00 0. -1.
         -2   -1    0    0    0  501 -0.00000000000E+00 -0.00000000000E+00 -0.10539535445E+03  0.10539535445E+03  0.00000000000E+00 0.  1.
        -24    2    1    2    0    0 -0.20543878217E+03 -0.42905660121E+02  0.35432704539E+03  0.41942074986E+03  0.79499191348E+02 0.  0.
        254    2    1    2    0    0  0.20543878217E+03  0.42905660121E+02  0.28738773321E+04  0.30195743365E+04  0.90255873214E+03 0.  0.
         23    2    4    4    0    0  0.39003251738E+03  0.11149106335E+03  0.27246822386E+04  0.27562584882E+04  0.92260125149E+02 0.  0.
         23    2    4    4    0    0 -0.18459373521E+03 -0.68585403228E+02  0.14919509353E+03  0.26331584834E+03  0.91089271820E+02 0.  0.
          3    1    3    3  502    0 -0.92722217469E+01  0.16933413276E+02  0.32373302812E+02  0.37692775385E+02  0.00000000000E+00 0. -1.
         -4    1    3    3    0  502 -0.19616656042E+03 -0.59839073398E+02  0.32195374258E+03  0.38172797447E+03  0.00000000000E+00 0.  1.
         11    1    5    5    0    0  0.88183062393E+02  0.60023353893E+02  0.56565799237E+03  0.57562836955E+03  0.00000000000E+00 0. -1.
        -11    1    5    5    0    0  0.30184945498E+03  0.51467709456E+02  0.21590242462E+04  0.21806301186E+04  0.00000000000E+00 0.  1.
          1    1    6    6  503    0 -0.15293075726E+03 -0.14163704755E+02  0.11315621777E+03  0.19076885665E+03  0.00000000000E+00 0. -1.
         -1    1    6    6    0  503 -0.31662977951E+02 -0.54421698474E+02  0.36038875757E+02  0.72546991690E+02  0.00000000000E+00 0.  1.
<mgrwt>
<rscale>  0 0.11854888E+04</rscale>
<asrwt>0</asrwt>
<pdfrwt beam="1">  1        1 0.51286142E+00 0.11854888E+04</pdfrwt>
<pdfrwt beam="2">  1       -2 0.16214672E-01 0.11854888E+04</pdfrwt>
<totfact> 0.91853236E+00</totfact>
</mgrwt>
</event>
<event>
12    4  0.4280696E-008  0.1366750E+04  0.7818608E-02  0.8978244E-01
         -2   -1    0    0    0  501 -0.00000000000E+00  0.00000000000E+00  0.71053313503E+03  0.71053313503E+03  0.00000000000E+00 0.  1.
          1   -1    0    0  501    0  0.00000000000E+00 -0.00000000000E+00 -0.65725535079E+03  0.65725535079E+03  0.00000000000E+00 0. -1.
        -24    2    1    2    0    0  0.16793284816E+02 -0.30732018417E+03 -0.20259824482E+03  0.37729072402E+03  0.81083485471E+02 0.  0.
        254    2    1    2    0    0 -0.16793284816E+02  0.30732018417E+03  0.25587602906E+03  0.99049776180E+03  0.90602735272E+03 0.  0.
         23    2    4    4    0    0  0.27818111867E+03 -0.11442645223E+03  0.33765757191E+03  0.46135522248E+03  0.91421319629E+02 0.  0.
         23    2    4    4    0    0 -0.29497440349E+03  0.42174663640E+03 -0.81781542854E+02  0.52914253932E+03  0.91779530084E+02 0.  0.
          1    1    3    3  502    0 -0.78252137484E+01 -0.22426590236E+03 -0.18024367439E+03  0.28782670322E+03  0.00000000000E+00 0. -1.
         -2    1    3    3    0  502  0.24618498565E+02 -0.83054281813E+02 -0.22354570437E+02  0.89464020804E+02  0.00000000000E+00 0.  1.
         11    1    5    5    0    0  0.53615988714E+02  0.10466911735E+02  0.37649187415E+02  0.66345247004E+02  0.00000000000E+00 0. -1.
        -11    1    5    5    0    0  0.22456512996E+03 -0.12489336396E+03  0.30000838450E+03  0.39500997547E+03  0.00000000000E+00 0.  1.
          4    1    6    6  503    0 -0.82773436237E+02  0.56942675703E+02 -0.22625359612E+02  0.10298454719E+03  0.00000000000E+00 0. -1.
         -4    1    6    6    0  503 -0.21220096725E+03  0.36480396069E+03 -0.59156183242E+02  0.42615799213E+03  0.00000000000E+00 0.  1.
<mgrwt>
<rscale>  0 0.13667505E+04</rscale>
<asrwt>0</asrwt>
<pdfrwt beam="1">  1        1 0.10111621E+00 0.13667505E+04</pdfrwt>
<pdfrwt beam="2">  1       -2 0.10931279E+00 0.13667505E+04</pdfrwt>
<totfact> 0.17100767E+01</totfact>
</mgrwt>
</event>
<event>
12    4  0.4280696E-008  0.1712933E+04  0.7818608E-02  0.8754023E-01
         -2   -1    0    0    0  501 -0.00000000000E+00  0.00000000000E+00  0.14002160241E+04  0.14002160241E+04  0.00000000000E+00 0.  1.
          1   -1    0    0  501    0  0.00000000000E+00 -0.00000000000E+00 -0.52387250451E+03  0.52387250451E+03  0.00000000000E+00 0. -1.
        -24    2    1    2    0    0 -0.11728762647E+03 -0.11501070998E+03 -0.34914844197E+03  0.39391110147E+03  0.79230490357E+02 0.  0.
        254    2    1    2    0    0  0.11728762647E+03  0.11501070998E+03  0.12254919616E+04  0.15301774271E+04  0.90145912827E+03 0.  0.
         23    2    4    4    0    0  0.29237020766E+03 -0.28260559034E+03  0.86267127760E+03  0.95773607606E+03  0.87808884301E+02 0.  0.
         23    2    4    4    0    0 -0.17508258119E+03  0.39761630032E+03  0.36282068396E+03  0.57244135109E+03  0.85426103768E+02 0.  0.
          3    1    3    3  502    0 -0.93516736530E+02 -0.47755422565E+02 -0.15633546223E+03  0.18832614568E+03  0.00000000000E+00 0. -1.
         -4    1    3    3    0  502 -0.23770889942E+02 -0.67255287418E+02 -0.19281297973E+03  0.20558495579E+03  0.00000000000E+00 0.  1.
         11    1    5    5    0    0  0.36369965498E+02 -0.23564300689E+02  0.16660721461E+03  0.17215113888E+03  0.00000000000E+00 0.  1.
        -11    1    5    5    0    0  0.25600024216E+03 -0.25904128965E+03  0.69606406299E+03  0.78558493718E+03  0.00000000000E+00 0. -1.
          1    1    6    6  503    0 -0.92069953503E+02  0.25080661335E+03  0.27038664561E+03  0.38011810238E+03  0.00000000000E+00 0. -1.
         -1    1    6    6    0  503 -0.83012627683E+02  0.14680968698E+03  0.92434038354E+02  0.19232324870E+03  0.00000000000E+00 0.  1.
<mgrwt>
<rscale>  0 0.17129328E+04</rscale>
<asrwt>0</asrwt>
<pdfrwt beam="1">  1        1 0.80595771E-01 0.17129328E+04</pdfrwt>
<pdfrwt beam="2">  1       -2 0.21541785E+00 0.17129328E+04</pdfrwt>
<totfact> 0.36493138E+00</totfact>
</mgrwt>
</event>
<event>
12    4  0.4280696E-008  0.2635754E+04  0.7818608E-02  0.8356157E-01
          1   -1    0    0  501    0  0.00000000000E+00  0.00000000000E+00  0.28480941825E+04  0.28480941825E+04  0.00000000000E+00 0. -1.
         -2   -1    0    0    0  501 -0.00000000000E+00 -0.00000000000E+00 -0.60981140810E+03  0.60981140810E+03  0.00000000000E+00 0.  1.
        -24    2    1    2    0    0 -0.11499715076E+03 -0.11340566842E+04  0.70641028915E+03  0.13427622583E+04  0.68454934023E+02 0.  0.
        254    2    1    2    0    0  0.11499715076E+03  0.11340566842E+04  0.15318724852E+04  0.21151433323E+04  0.90988411220E+03 0.  0.
         23    2    4    4    0    0  0.28019874884E+03  0.97944685366E+03  0.15647191022E+04  0.18693954279E+04  0.92010429478E+02 0.  0.
         23    2    4    4    0    0 -0.16520159809E+03  0.15460983052E+03 -0.32846616953E+02  0.24574790441E+03  0.90096418217E+02 0.  0.
          3    1    3    3  502    0 -0.10483088852E+03 -0.10962113483E+04  0.69401038867E+03  0.13016601918E+04  0.00000000000E+00 0. -1.
         -4    1    3    3    0  502 -0.10166262232E+02 -0.37845335930E+02  0.12399900477E+02  0.41102066509E+02  0.00000000000E+00 0.  1.
         11    1    5    5    0    0  0.17518155039E+03  0.60689632333E+03  0.88709693441E+03  0.10890145517E+04  0.00000000000E+00 0.  1.
        -11    1    5    5    0    0  0.10501719845E+03  0.37255053034E+03  0.67762216778E+03  0.78038087617E+03  0.00000000000E+00 0. -1.
          3    1    6    6  503    0 -0.56398919057E+01  0.54189243573E+02 -0.14162098759E+02  0.56292517629E+02  0.00000000000E+00 0. -1.
         -3    1    6    6    0  503 -0.15956170618E+03  0.10042058694E+03 -0.18684518194E+02  0.18945538679E+03  0.00000000000E+00 0.  1.
<mgrwt>
<rscale>  0 0.26357544E+04</rscale>
<asrwt>0</asrwt>
<pdfrwt beam="1">  1        1 0.43816833E+00 0.26357544E+04</pdfrwt>
<pdfrwt beam="2">  1       -2 0.93817141E-01 0.26357544E+04</pdfrwt>
<totfact> 0.57036766E-01</totfact>
</mgrwt>
</event>
<event>
12    4  0.4280696E-008  0.1414728E+04  0.7818608E-02  0.8943226E-01
         -2   -1    0    0    0  501 -0.00000000000E+00  0.00000000000E+00  0.25676772283E+03  0.25676772283E+03  0.00000000000E+00 0.  1.
          1   -1    0    0  501    0  0.00000000000E+00 -0.00000000000E+00 -0.19487026913E+04  0.19487026913E+04  0.00000000000E+00 0. -1.
        -24    2    1    2    0    0  0.13690134792E+03 -0.38907252882E+03 -0.63348420010E+03  0.76045833109E+03  0.82917005499E+02 0.  0.
        254    2    1    2    0    0 -0.13690134792E+03  0.38907252882E+03 -0.10584507684E+04  0.14450120830E+04  0.89309712760E+03 0.  0.
         23    2    4    4    0    0  0.25501534320E+03 -0.10300204484E+03 -0.12596460572E+03  0.31633751227E+03  0.92520772109E+02 0.  0.
         23    2    4    4    0    0 -0.39191669111E+03  0.49207457366E+03 -0.93248616264E+03  0.11286745708E+04  0.92950332597E+02 0.  0.
          3    1    3    3  502    0  0.48464397574E+02 -0.12504801574E+03 -0.28016042024E+03  0.31060532053E+03  0.00000000000E+00 0. -1.
         -4    1    3    3    0  502  0.88436950345E+02 -0.26402451308E+03 -0.35332377986E+03  0.44985301056E+03  0.00000000000E+00 0.  1.
         11    1    5    5    0    0  0.19102483463E+03 -0.35693870259E+02 -0.63618330641E+02  0.20447941660E+03  0.00000000000E+00 0.  1.
        -11    1    5    5    0    0  0.63990508568E+02 -0.67308174585E+02 -0.62346275075E+02  0.11185809568E+03  0.00000000000E+00 0. -1.
          1    1    6    6  503    0 -0.10497581285E+03  0.15111682039E+03 -0.20423616210E+03  0.27489748016E+03  0.00000000000E+00 0. -1.
         -1    1    6    6    0  503 -0.28694087826E+03  0.34095775327E+03 -0.72825000054E+03  0.85377709059E+03  0.00000000000E+00 0.  1.
<mgrwt>
<rscale>  0 0.14147282E+04</rscale>
<asrwt>0</asrwt>
<pdfrwt beam="1">  1        1 0.29980041E+00 0.14147282E+04</pdfrwt>
<pdfrwt beam="2">  1       -2 0.39502727E-01 0.14147282E+04</pdfrwt>
<totfact> 0.16742996E+01</totfact>
</mgrwt>
</event>
<event>
12    4  0.4280696E-008  0.1464012E+04  0.7818608E-02  0.8908744E-01
          1   -1    0    0  501    0  0.00000000000E+00  0.00000000000E+00  0.50389786381E+03  0.50389786381E+03  0.00000000000E+00 0. -1.
         -2   -1    0    0    0  501 -0.00000000000E+00 -0.00000000000E+00 -0.10633759689E+04  0.10633759689E+04  0.00000000000E+00 0.  1.
        -24    2    1    2    0    0 -0.12554582320E+03  0.25042194885E+03 -0.62908192519E+03  0.69333924359E+03  0.80637038152E+02 0.  0.
        254    2    1    2    0    0  0.12554582320E+03 -0.25042194885E+03  0.69603820112E+02  0.87393458910E+03  0.82489033700E+03 0.  0.
         23    2    4    4    0    0  0.36227950243E+03 -0.22570560597E+03  0.30104556896E+03  0.53109826461E+03  0.96163785479E+02 0.  0.
         23    2    4    4    0    0 -0.23673367923E+03 -0.24716342882E+02 -0.23144174885E+03  0.34283632449E+03  0.85543730310E+02 0.  0.
          3    1    3    3  502    0 -0.39839869737E+02  0.46262937951E+02 -0.75355348677E+02  0.96984035916E+02  0.00000000000E+00 0. -1.
         -4    1    3    3    0  502 -0.85705953465E+02  0.20415901090E+03 -0.55372657651E+03  0.59635520768E+03  0.00000000000E+00 0.  1.
         11    1    5    5    0    0  0.61605130514E+02 -0.13189495896E+02  0.14779214050E+02  0.64711514243E+02  0.00000000000E+00 0. -1.
        -11    1    5    5    0    0  0.30067437192E+03 -0.21251611007E+03  0.28626635491E+03  0.46638675037E+03  0.00000000000E+00 0.  1.
          1    1    6    6  503    0 -0.44930309783E+02  0.19809986503E+02 -0.17635267814E+02  0.52174428347E+02  0.00000000000E+00 0. -1.
         -1    1    6    6    0  503 -0.19180336945E+03 -0.44526329385E+02 -0.21380648103E+03  0.29066189615E+03  0.00000000000E+00 0.  1.
<mgrwt>
<rscale>  0 0.14640121E+04</rscale>
<asrwt>0</asrwt>
<pdfrwt beam="1">  1        1 0.77522749E-01 0.14640121E+04</pdfrwt>
<pdfrwt beam="2">  1       -2 0.16359630E+00 0.14640121E+04</pdfrwt>
<totfact> 0.88099786E+00</totfact>
</mgrwt>
</event>
<event>
12    4  0.4280696E-008  0.1894868E+04  0.7818608E-02  0.8657415E-01
          1   -1    0    0  501    0  0.00000000000E+00  0.00000000000E+00  0.13999736064E+04  0.13999736064E+04  0.00000000000E+00 0. -1.
         -2   -1    0    0    0  501 -0.00000000000E+00 -0.00000000000E+00 -0.64117716973E+03  0.64117716973E+03  0.00000000000E+00 0.  1.
        -24    2    1    2    0    0 -0.41753287584E+03  0.37800168060E+03  0.81049689253E+03  0.99031035536E+03  0.81181365948E+02 0.  0.
        254    2    1    2    0    0  0.41753287584E+03 -0.37800168060E+03 -0.51700455882E+02  0.10508404208E+04  0.88564873387E+03 0.  0.
         23    2    4    4    0    0 -0.48193409380E+02 -0.53042475149E+03 -0.10292517788E+03  0.54977349643E+03  0.89354817609E+02 0.  0.
         23    2    4    4    0    0  0.46572628522E+03  0.15242307089E+03  0.51224721994E+02  0.50106692433E+03  0.91160985187E+02 0.  0.
          3    1    3    3  502    0 -0.16188544019E+03  0.12141260107E+03  0.23279147087E+03  0.30844737696E+03  0.00000000000E+00 0. -1.
         -4    1    3    3    0  502 -0.25564743565E+03  0.25658907953E+03  0.57770542166E+03  0.68186297839E+03  0.00000000000E+00 0.  1.
         11    1    5    5    0    0 -0.70734865595E+02 -0.28741571884E+03 -0.57980497671E+02  0.30161723220E+03  0.00000000000E+00 0. -1.
        -11    1    5    5    0    0  0.22541456215E+02 -0.24300903265E+03 -0.44944680205E+02  0.24815626423E+03  0.00000000000E+00 0.  1.
          2    1    6    6  503    0  0.32210458366E+03  0.64346184555E+02  0.52173086382E+02  0.33258656802E+03  0.00000000000E+00 0. -1.
         -2    1    6    6    0  503  0.14362170156E+03  0.88076886340E+02 -0.94836438832E+00  0.16848035631E+03  0.00000000000E+00 0.  1.
<mgrwt>
<rscale>  0 0.18948679E+04</rscale>
<asrwt>0</asrwt>
<pdfrwt beam="1">  1        1 0.21538055E+00 0.18948679E+04</pdfrwt>
<pdfrwt beam="2">  1       -2 0.98642642E-01 0.18948679E+04</pdfrwt>
<totfact> 0.53840841E+00</totfact>
</mgrwt>
</event>
<event>
12    4  0.4280696E-008  0.1401933E+04  0.7818608E-02  0.8952421E-01
         -2   -1    0    0    0  501 -0.00000000000E+00  0.00000000000E+00  0.37130707446E+03  0.37130707446E+03  0.00000000000E+00 0.  1.
          1   -1    0    0  501    0  0.00000000000E+00 -0.00000000000E+00 -0.13233090474E+04  0.13233090474E+04  0.00000000000E+00 0. -1.
        -24    2    1    2    0    0 -0.59335034473E+02 -0.14572213830E+03  0.18028158372E+03  0.25168688251E+03  0.78033643311E+02 0.  0.
        254    2    1    2    0    0  0.59335034473E+02  0.14572213830E+03 -0.11322835567E+04  0.14429292394E+04  0.88046757419E+03 0.  0.
         23    2    4    4    0    0  0.23186074475E+03 -0.12520270227E+03 -0.19313353342E+02  0.28119300838E+03  0.96236067731E+02 0.  0.
         23    2    4    4    0    0 -0.17252571028E+03  0.27092484057E+03 -0.11129702033E+04  0.11617362310E+04  0.88107927719E+02 0.  0.
          1    1    3    3  502    0 -0.33554625660E+02 -0.74576141012E+02  0.37229852098E+02  0.89853077848E+02  0.00000000000E+00 0. -1.
         -2    1    3    3    0  502 -0.25780408813E+02 -0.71145997287E+02  0.14305173163E+03  0.16183380466E+03  0.00000000000E+00 0.  1.
         11    1    5    5    0    0  0.85852204822E+02 -0.43701741857E+02  0.39243095717E+02  0.10402145873E+03  0.00000000000E+00 0.  1.
        -11    1    5    5    0    0  0.14600853993E+03 -0.81500960411E+02 -0.58556449058E+02  0.17717154965E+03  0.00000000000E+00 0. -1.
          3    1    6    6  503    0 -0.68379347416E+02  0.14535886003E+03 -0.41624003798E+03  0.44616219311E+03  0.00000000000E+00 0. -1.
         -3    1    6    6    0  503 -0.10414636286E+03  0.12556598054E+03 -0.69673016537E+03  0.71557403789E+03  0.00000000000E+00 0.  1.
<mgrwt>
<rscale>  0 0.14019330E+04</rscale>
<asrwt>0</asrwt>
<pdfrwt beam="1">  1        1 0.20358600E+00 0.14019330E+04</pdfrwt>
<pdfrwt beam="2">  1       -2 0.57124166E-01 0.14019330E+04</pdfrwt>
<totfact> 0.21383829E+01</totfact>
</mgrwt>
</event>
<event>
12    4  0.4280696E-008  0.1867002E+04  0.7818608E-02  0.8671458E-01
          1   -1    0    0  501    0  0.00000000000E+00  0.00000000000E+00  0.54631670562E+03  0.54631670562E+03  0.00000000000E+00 0. -1.
         -2   -1    0    0    0  501 -0.00000000000E+00 -0.00000000000E+00 -0.15950893374E+04  0.15950893374E+04  0.00000000000E+00 0.  1.
        -24    2    1    2    0    0  0.32473303999E+03 -0.37940232992E+03  0.17287498029E+03  0.53447600083E+03  0.79882172215E+02 0.  0.
        254    2    1    2    0    0 -0.32473303999E+03  0.37940232992E+03 -0.12216476121E+04  0.16069300422E+04  0.91673529289E+03 0.  0.
         23    2    4    4    0    0 -0.32491219487E+03  0.47676868832E+03 -0.26559716003E+03  0.64159838472E+03  0.90721107357E+02 0.  0.
         23    2    4    4    0    0  0.17915488307E+00 -0.97366358396E+02 -0.95605045208E+03  0.96533165751E+03  0.91392024914E+02 0.  0.
          3    1    3    3  502    0  0.12411750159E+03 -0.17666100281E+03  0.11040587922E+03  0.24249478815E+03  0.00000000000E+00 0. -1.
         -2    1    3    3    0  502  0.20061553840E+03 -0.20274132712E+03  0.62469101069E+02  0.29198121268E+03  0.00000000000E+00 0.  1.
         11    1    5    5    0    0 -0.11396974631E+02  0.66862181943E+02 -0.26102616982E+02  0.72675917732E+02  0.00000000000E+00 0. -1.
        -11    1    5    5    0    0 -0.31351522024E+03  0.40990650638E+03 -0.23949454305E+03  0.56892246699E+03  0.00000000000E+00 0.  1.
          1    1    6    6  503    0  0.11572692277E+02  0.15919788054E+02 -0.14101158067E+03  0.14237848413E+03  0.00000000000E+00 0. -1.
         -1    1    6    6    0  503 -0.11393537394E+02 -0.11328614645E+03 -0.81503887141E+03  0.82295317338E+03  0.00000000000E+00 0.  1.
<mgrwt>
<rscale>  0 0.18670018E+04</rscale>
<asrwt>0</asrwt>
<pdfrwt beam="1">  1        1 0.84048725E-01 0.18670018E+04</pdfrwt>
<pdfrwt beam="2">  1       -2 0.24539836E+00 0.18670018E+04</pdfrwt>
<totfact> 0.22057556E+00</totfact>
</mgrwt>
</event>
<event>
12    4  0.4280696E-008  0.1895125E+04  0.7818608E-02  0.8657287E-01
          1   -1    0    0  501    0  0.00000000000E+00  0.00000000000E+00  0.22757410715E+04  0.22757410715E+04  0.00000000000E+00 0. -1.
         -2   -1    0    0    0  501 -0.00000000000E+00 -0.00000000000E+00 -0.39454154111E+03  0.39454154111E+03  0.00000000000E+00 0.  1.
        -24    2    1    2    0    0  0.25900018668E+03 -0.69230861762E+02  0.16530084351E+04  0.16765792086E+04  0.81283130375E+02 0.  0.
        254    2    1    2    0    0 -0.25900018668E+03  0.69230861762E+02  0.22819109529E+03  0.99370340401E+03  0.92924769048E+03 0.  0.
         23    2    4    4    0    0  0.11969737916E+03 -0.35779644195E+03  0.12252504851E+03  0.40611206689E+03  0.86999235125E+02 0.  0.
         23    2    4    4    0    0 -0.37869756583E+03  0.42702730371E+03  0.10566604678E+03  0.58759133712E+03  0.91291300444E+02 0.  0.
          3    1    3    3  502    0  0.26248208221E+03 -0.74960430179E+02  0.15957908037E+04  0.16189701043E+04  0.00000000000E+00 0. -1.
         -4    1    3    3    0  502 -0.34818955316E+01  0.57295684167E+01  0.57217631443E+02  0.57609104304E+02  0.00000000000E+00 0.  1.
         11    1    5    5    0    0  0.11561250071E+03 -0.28695580709E+03  0.12830019128E+03  0.33491913148E+03  0.00000000000E+00 0. -1.
        -11    1    5    5    0    0  0.40848784435E+01 -0.70840634857E+02 -0.57751427723E+01  0.71192935414E+02  0.00000000000E+00 0.  1.
          3    1    6    6  503    0 -0.36781070122E+03  0.38854000647E+03  0.11326272384E+03  0.54687886517E+03  0.00000000000E+00 0. -1.
         -3    1    6    6    0  503 -0.10886864615E+02  0.38487297245E+02 -0.75966770591E+01  0.40712471955E+02  0.00000000000E+00 0.  1.
<mgrwt>
<rscale>  0 0.18951247E+04</rscale>
<asrwt>0</asrwt>
<pdfrwt beam="1">  1        1 0.35011400E+00 0.18951247E+04</pdfrwt>
<pdfrwt beam="2">  1       -2 0.60698700E-01 0.18951247E+04</pdfrwt>
<totfact> 0.40187686E+00</totfact>
</mgrwt>
</event>
<event>
12    4  0.4280696E-008  0.1700359E+04  0.7818608E-02  0.8761159E-01
          1   -1    0    0  501    0  0.00000000000E+00  0.00000000000E+00  0.18723723209E+04  0.18723723209E+04  0.00000000000E+00 0. -1.
         -2   -1    0    0    0  501 -0.00000000000E+00 -0.00000000000E+00 -0.38603732623E+03  0.38603732623E+03  0.00000000000E+00 0.  1.
        -24    2    1    2    0    0 -0.22710501092E+03  0.39711329262E+03 -0.25602141050E-01  0.46428611389E+03  0.79283931168E+02 0.  0.
        254    2    1    2    0    0  0.22710501092E+03 -0.39711329262E+03  0.14863605968E+04  0.17941235332E+04  0.89461487557E+03 0.  0.
         23    2    4    4    0    0  0.27048267758E+03 -0.20920257752E+03  0.15359822178E+04  0.15760208589E+04  0.87600095748E+02 0.  0.
         23    2    4    4    0    0 -0.43377666662E+02 -0.18791071510E+03 -0.49621621000E+02  0.21810267439E+03  0.88962983816E+02 0.  0.
          1    1    3    3  502    0 -0.64724493323E+01  0.24743576950E+02  0.17690640697E+02  0.31098166648E+02  0.00000000000E+00 0. -1.
         -2    1    3    3    0  502 -0.22063256158E+03  0.37236971567E+03 -0.17716242838E+02  0.43318794725E+03  0.00000000000E+00 0.  1.
         11    1    5    5    0    0  0.20011730949E+03 -0.16542726288E+03  0.13061155922E+04  0.13316722784E+04  0.00000000000E+00 0. -1.
        -11    1    5    5    0    0  0.70365368091E+02 -0.43775314639E+02  0.22986662563E+03  0.24434858046E+03  0.00000000000E+00 0.  1.
          4    1    6    6  503    0  0.15595203819E+02 -0.59038409916E+02  0.14165475501E+02  0.62684965692E+02  0.00000000000E+00 0. -1.
         -4    1    6    6    0  503 -0.58972870481E+02 -0.12887230519E+03 -0.63787096500E+02  0.15541770870E+03  0.00000000000E+00 0.  1.
<mgrwt>
<rscale>  0 0.17003595E+04</rscale>
<asrwt>0</asrwt>
<pdfrwt beam="1">  1        1 0.28805727E+00 0.17003595E+04</pdfrwt>
<pdfrwt beam="2">  1       -2 0.59390359E-01 0.17003595E+04</pdfrwt>
<totfact> 0.80438071E+00</totfact>
</mgrwt>
</event>
<event>
12    4  0.4280696E-008  0.1187832E+04  0.7818608E-02  0.9123574E-01
         -4   -1    0    0    0  501 -0.00000000000E+00  0.00000000000E+00  0.36342386588E+03  0.36342386588E+03  0.00000000000E+00 0.  1.
          3   -1    0    0  501    0  0.00000000000E+00 -0.00000000000E+00 -0.97059167911E+03  0.97059167911E+03  0.00000000000E+00 0. -1.
        -24    2    1    2    0    0  0.63793388201E+02 -0.65807485737E+02 -0.38765306157E+03  0.40628087007E+03  0.79931393622E+02 0.  0.
        254    2    1    2    0    0 -0.63793388201E+02  0.65807485737E+02 -0.21951475166E+03  0.92773467492E+03  0.89671884071E+03 0.  0.
         23    2    4    4    0    0 -0.33018028795E+03  0.57173179320E+02 -0.44576883869E+03  0.56610583466E+03  0.97355860131E+02 0.  0.
         23    2    4    4    0    0  0.26638689975E+03  0.86343064177E+01  0.22625408703E+03  0.36162884026E+03  0.92455257301E+02 0.  0.
          3    1    3    3  502    0  0.65115335254E+02 -0.46290467718E+02 -0.37396975194E+03  0.38240840689E+03  0.00000000000E+00 0. -1.
         -4    1    3    3    0  502 -0.13219470522E+01 -0.19517018019E+02 -0.13683309622E+02  0.23872463186E+02  0.00000000000E+00 0.  1.
         11    1    5    5    0    0 -0.22523941314E+03  0.77530795349E+02 -0.26702076721E+03  0.35783223385E+03  0.00000000000E+00 0.  1.
        -11    1    5    5    0    0 -0.10494087481E+03 -0.20357616030E+02 -0.17874807148E+03  0.20827360081E+03  0.00000000000E+00 0. -1.
          3    1    6    6  503    0  0.99606137899E+02 -0.36506018404E+02  0.60136084191E+02  0.12194433447E+03  0.00000000000E+00 0. -1.
         -3    1    6    6    0  503  0.16678076185E+03  0.45140324821E+02  0.16611800284E+03  0.23968450579E+03  0.00000000000E+00 0.  1.
<mgrwt>
<rscale>  0 0.11878319E+04</rscale>
<asrwt>0</asrwt>
<pdfrwt beam="1">  1        3 0.14932180E+00 0.11878319E+04</pdfrwt>
<pdfrwt beam="2">  1       -4 0.55911364E-01 0.11878319E+04</pdfrwt>
<totfact> 0.22562725E+00</totfact>
</mgrwt>
</event>
<event>
12    4  0.4280696E-008  0.1527487E+04  0.7818608E-02  0.8866377E-01
         -4   -1    0    0    0  501 -0.00000000000E+00  0.00000000000E+00  0.95978070543E+03  0.95978070543E+03  0.00000000000E+00 0.  1.
          3   -1    0    0  501    0  0.00000000000E+00 -0.00000000000E+00 -0.60774760844E+03  0.60774760844E+03  0.00000000000E+00 0. -1.
        -24    2    1    2    0    0  0.39712704791E+03 -0.23816488410E+03  0.18576719698E+03  0.50513459763E+03  0.78861308973E+02 0.  0.
        254    2    1    2    0    0 -0.39712704791E+03  0.23816488410E+03  0.16626590001E+03  0.10623937162E+04  0.94159633315E+03 0.  0.
         23    2    4    4    0    0 -0.50982269627E+03 -0.22324319205E+03  0.51473336323E+02  0.56602694424E+03  0.89332484691E+02 0.  0.
         23    2    4    4    0    0  0.11269564836E+03  0.46140807615E+03  0.11479256368E+03  0.49636677200E+03  0.87206179697E+02 0.  0.
          1    1    3    3  502    0  0.36892657725E+02 -0.76573104865E+00  0.44912880476E+01  0.37172923027E+02  0.00000000000E+00 0. -1.
         -2    1    3    3    0  502  0.36023439018E+03 -0.23739915305E+03  0.18127590893E+03  0.46796167461E+03  0.00000000000E+00 0.  1.
         11    1    5    5    0    0 -0.13890971237E+03 -0.84942243085E+02 -0.19060600563E+02  0.16393413111E+03  0.00000000000E+00 0.  1.
        -11    1    5    5    0    0 -0.37091298390E+03 -0.13830094896E+03  0.70533936885E+02  0.40209281312E+03  0.00000000000E+00 0. -1.
          3    1    6    6  503    0 -0.61837270648E+01  0.35460861166E+02 -0.90727888597E+01  0.37121781379E+02  0.00000000000E+00 0. -1.
         -3    1    6    6    0  503  0.11887937543E+03  0.42594721498E+03  0.12386535254E+03  0.45924499062E+03  0.00000000000E+00 0.  1.
<mgrwt>
<rscale>  0 0.15274874E+04</rscale>
<asrwt>0</asrwt>
<pdfrwt beam="1">  1        3 0.93499632E-01 0.15274874E+04</pdfrwt>
<pdfrwt beam="2">  1       -4 0.14765857E+00 0.15274874E+04</pdfrwt>
<totfact> 0.70064569E-01</totfact>
</mgrwt>
</event>
<event>
12    4  0.4280696E-008  0.1169706E+04  0.7818608E-02  0.9139794E-01
         -2   -1    0    0    0  501 -0.00000000000E+00  0.00000000000E+00  0.59228480473E+03  0.59228480473E+03  0.00000000000E+00 0.  1.
          1   -1    0    0  501    0  0.00000000000E+00 -0.00000000000E+00 -0.57751493877E+03  0.57751493877E+03  0.00000000000E+00 0. -1.
        -24    2    1    2    0    0 -0.31663922865E+01 -0.15536240707E+03 -0.16202210177E+03  0.23835032040E+03  0.80076277393E+02 0.  0.
        254    2    1    2    0    0  0.31663922865E+01  0.15536240707E+03  0.17679196773E+03  0.93144942309E+03  0.90121868842E+03 0.  0.
         23    2    4    4    0    0  0.20466499093E+03 -0.31483813643E+03  0.13706956780E+03  0.41010507786E+03  0.91582191543E+02 0.  0.
         23    2    4    4    0    0 -0.20149859865E+03  0.47020054350E+03  0.39722399936E+02  0.52134434523E+03  0.92367856364E+02 0.  0.
          1    1    3    3  502    0  0.37622143988E+02 -0.91499866385E+02 -0.95808859051E+02  0.13772069104E+03  0.00000000000E+00 0. -1.
         -2    1    3    3    0  502 -0.40788536275E+02 -0.63862540687E+02 -0.66213242723E+02  0.10062962937E+03  0.00000000000E+00 0.  1.
         11    1    5    5    0    0  0.16662328489E+03 -0.30371663855E+03  0.12898932448E+03  0.36965573366E+03  0.00000000000E+00 0.  1.
        -11    1    5    5    0    0  0.38041706047E+02 -0.11121497875E+02  0.80802433191E+01  0.40449344198E+02  0.00000000000E+00 0. -1.
          4    1    6    6  503    0 -0.56847387054E+02  0.10903863974E+03  0.48515836907E+02  0.13219242339E+03  0.00000000000E+00 0. -1.
         -4    1    6    6    0  503 -0.14465121159E+03  0.36116190375E+03 -0.87934369712E+01  0.38915192184E+03  0.00000000000E+00 0.  1.
<mgrwt>
<rscale>  0 0.11697065E+04</rscale>
<asrwt>0</asrwt>
<pdfrwt beam="1">  1        1 0.88848452E-01 0.11697065E+04</pdfrwt>
<pdfrwt beam="2">  1       -2 0.91120739E-01 0.11697065E+04</pdfrwt>
<totfact> 0.32261243E+01</totfact>
</mgrwt>
</event>
<event>
12    4  0.4280696E-008  0.1692697E+04  0.7818608E-02  0.8765540E-01
          1   -1    0    0  501    0  0.00000000000E+00  0.00000000000E+00  0.66510603209E+03  0.66510603209E+03  0.00000000000E+00 0. -1.
         -2   -1    0    0    0  501 -0.00000000000E+00 -0.00000000000E+00 -0.10769799004E+04  0.10769799004E+04  0.00000000000E+00 0.  1.
        -24    2    1    2    0    0 -0.87028109368E+01  0.36907731412E+03 -0.64275107909E+03  0.74545626482E+03  0.79260900652E+02 0.  0.
        254    2    1    2    0    0  0.87028109368E+01 -0.36907731412E+03  0.23087721078E+03  0.99662966766E+03  0.89647788890E+03 0.  0.
         23    2    4    4    0    0 -0.15192988280E+03 -0.15135791249E+03 -0.30851622040E+03  0.38634583273E+03  0.89938519308E+02 0.  0.
         23    2    4    4    0    0  0.16063269374E+03 -0.21771940163E+03  0.53939343118E+03  0.61028383494E+03  0.91085045098E+02 0.  0.
          3    1    3    3  502    0  0.34970250288E+02  0.18801986545E+03 -0.33411497059E+03  0.38497688474E+03  0.00000000000E+00 0. -1.
         -4    1    3    3    0  502 -0.43673061224E+02  0.18105744867E+03 -0.30863610850E+03  0.36047938008E+03  0.00000000000E+00 0.  1.
         11    1    5    5    0    0 -0.72469949333E+02 -0.14386515967E+02 -0.88900617054E+02  0.11559491819E+03  0.00000000000E+00 0.  1.
        -11    1    5    5    0    0 -0.79459933470E+02 -0.13697139652E+03 -0.21961560334E+03  0.27075091454E+03  0.00000000000E+00 0. -1.
          4    1    6    6  503    0  0.12316061969E+03 -0.20440766548E+03  0.40449159932E+03  0.46964293444E+03  0.00000000000E+00 0.  1.
         -4    1    6    6    0  503  0.37472074050E+02 -0.13311736146E+02  0.13490183186E+03  0.14064090049E+03  0.00000000000E+00 0. -1.
<mgrwt>
<rscale>  0 0.16926971E+04</rscale>
<asrwt>0</asrwt>
<pdfrwt beam="1">  1        1 0.10232401E+00 0.16926971E+04</pdfrwt>
<pdfrwt beam="2">  1       -2 0.16568922E+00 0.16926971E+04</pdfrwt>
<totfact> 0.56115263E+00</totfact>
</mgrwt>
</event>
<event>
12    4  0.4280696E-008  0.1073288E+04  0.7818608E-02  0.9231625E-01
         -2   -1    0    0    0  501 -0.00000000000E+00  0.00000000000E+00  0.63414799063E+03  0.63414799063E+03  0.00000000000E+00 0.  1.
          1   -1    0    0  501    0  0.00000000000E+00 -0.00000000000E+00 -0.45413216774E+03  0.45413216774E+03  0.00000000000E+00 0. -1.
        -24    2    1    2    0    0  0.11756917280E+03  0.46687699313E+02 -0.13039383853E+02  0.15257807956E+03  0.84307729000E+02 0.  0.
        254    2    1    2    0    0 -0.11756917280E+03 -0.46687699313E+02  0.19305520674E+03  0.93570207882E+03  0.90678873824E+03 0.  0.
         23    2    4    4    0    0  0.11372557194E+03 -0.41572815465E+03 -0.22751658322E+02  0.44106362665E+03  0.90862976588E+02 0.  0.
         23    2    4    4    0    0 -0.23129474474E+03  0.36904045534E+03  0.21580686506E+03  0.49463845217E+03  0.91686851481E+02 0.  0.
          3    1    3    3  502    0  0.38647208322E+02  0.19106065096E+02 -0.45696176256E+02  0.62823474585E+02  0.00000000000E+00 0. -1.
         -4    1    3    3    0  502  0.78921964479E+02  0.27581634217E+02  0.32656792403E+02  0.89754604970E+02  0.00000000000E+00 0.  1.
         11    1    5    5    0    0 -0.52095669294E+01 -0.39804642442E+02  0.19291966784E+02  0.44539074192E+02  0.00000000000E+00 0.  1.
        -11    1    5    5    0    0  0.11893513887E+03 -0.37592351221E+03 -0.42043625106E+02  0.39652455246E+03  0.00000000000E+00 0. -1.
          1    1    6    6  503    0 -0.17483966355E+03  0.29741430646E+03  0.20858569761E+03  0.40315278852E+03  0.00000000000E+00 0. -1.
         -1    1    6    6    0  503 -0.56455081184E+02  0.71626148876E+02  0.72211674508E+01  0.91485663651E+02  0.00000000000E+00 0.  1.
<mgrwt>
<rscale>  0 0.10732884E+04</rscale>
<asrwt>0</asrwt>
<pdfrwt beam="1">  1        1 0.69866487E-01 0.10732884E+04</pdfrwt>
<pdfrwt beam="2">  1       -2 0.97561230E-01 0.10732884E+04</pdfrwt>
<totfact> 0.38647664E+01</totfact>
</mgrwt>
</event>
<event>
12    4  0.4280696E-008  0.1473106E+04  0.7818608E-02  0.8902537E-01
         -2   -1    0    0    0  501 -0.00000000000E+00  0.00000000000E+00  0.55907715455E+03  0.55907715455E+03  0.00000000000E+00 0.  1.
          1   -1    0    0  501    0  0.00000000000E+00 -0.00000000000E+00 -0.97036785411E+03  0.97036785411E+03  0.00000000000E+00 0. -1.
        -24    2    1    2    0    0  0.20701865271E+03 -0.35558587841E+03 -0.93160446708E+02  0.43062305147E+03  0.86367263075E+02 0.  0.
        254    2    1    2    0    0 -0.20701865271E+03  0.35558587841E+03 -0.31813025285E+03  0.10988219572E+04  0.96793842590E+03 0.  0.
         23    2    4    4    0    0 -0.49554725483E+03  0.50623001691E+03 -0.20614722003E+03  0.74327694457E+03  0.90155577818E+02 0.  0.
         23    2    4    4    0    0  0.28852860212E+03 -0.15064413850E+03 -0.11198303282E+03  0.35554501262E+03  0.89048557829E+02 0.  0.
          1    1    3    3  502    0  0.15051847765E+03 -0.31219256034E+03 -0.94968983774E+02  0.35935931145E+03  0.00000000000E+00 0. -1.
         -2    1    3    3    0  502  0.56500175066E+02 -0.43393318067E+02  0.18085370655E+01  0.71263740020E+02  0.00000000000E+00 0.  1.
         11    1    5    5    0    0 -0.20128579775E+02  0.19996806032E+02 -0.28951381941E+02  0.40536582139E+02  0.00000000000E+00 0. -1.
        -11    1    5    5    0    0 -0.47541867506E+03  0.48623321088E+03 -0.17719583809E+03  0.70274036243E+03  0.00000000000E+00 0.  1.
          2    1    6    6  503    0  0.13575412520E+03 -0.78302835395E+02 -0.76534594671E+01  0.15690472262E+03  0.00000000000E+00 0. -1.
         -2    1    6    6    0  503  0.15277447692E+03 -0.72341303110E+02 -0.10432957335E+03  0.19864028999E+03  0.00000000000E+00 0.  1.
<mgrwt>
<rscale>  0 0.14731062E+04</rscale>
<asrwt>0</asrwt>
<pdfrwt beam="1">  1        1 0.14928736E+00 0.14731062E+04</pdfrwt>
<pdfrwt beam="2">  1       -2 0.86011871E-01 0.14731062E+04</pdfrwt>
<totfact> 0.15914064E+01</totfact>
</mgrwt>
</event>
<event>
12    4  0.4280696E-008  0.1260726E+04  0.7818608E-02  0.9061303E-01
         -2   -1    0    0    0  501 -0.00000000000E+00  0.00000000000E+00  0.81051750183E+03  0.81051750183E+03  0.00000000000E+00 0.  1.
          1   -1    0    0  501    0  0.00000000000E+00 -0.00000000000E+00 -0.49025136933E+03  0.49025136933E+03  0.00000000000E+00 0. -1.
        -24    2    1    2    0    0  0.12381332446E+03 -0.21177980885E+03 -0.10409317189E+03  0.27585368268E+03  0.71270183565E+02 0.  0.
        254    2    1    2    0    0 -0.12381332446E+03  0.21177980885E+03  0.42435930440E+03  0.10249151885E+04  0.90010549248E+03 0.  0.
         23    2    4    4    0    0 -0.12959362222E+02 -0.32150104532E+03  0.32174465763E+03  0.46342295495E+03  0.87808560205E+02 0.  0.
         23    2    4    4    0    0 -0.11085396224E+03  0.53328085417E+03  0.10261464677E+03  0.56149223353E+03  0.89814766121E+02 0.  0.
          1    1    3    3  502    0  0.91814576882E+02 -0.10813939328E+03 -0.85987490189E+02  0.16588518131E+03  0.00000000000E+00 0. -1.
         -2    1    3    3    0  502  0.31998747576E+02 -0.10364041557E+03 -0.18105681701E+02  0.10996850138E+03  0.00000000000E+00 0.  1.
         11    1    5    5    0    0  0.29860137747E+02 -0.96808244006E+02  0.13091783998E+03  0.16553834830E+03  0.00000000000E+00 0. -1.
        -11    1    5    5    0    0 -0.42819499968E+02 -0.22469280132E+03  0.19082681765E+03  0.29788460665E+03  0.00000000000E+00 0.  1.
          3    1    6    6  503    0 -0.10471104383E+03  0.29354347782E+03  0.45447556453E+02  0.31495659456E+03  0.00000000000E+00 0. -1.
         -3    1    6    6    0  503 -0.61429184092E+01  0.23973737635E+03  0.57167090313E+02  0.24653563897E+03  0.00000000000E+00 0.  1.
<mgrwt>
<rscale>  0 0.12607257E+04</rscale>
<asrwt>0</asrwt>
<pdfrwt beam="1">  1        1 0.75423288E-01 0.12607257E+04</pdfrwt>
<pdfrwt beam="2">  1       -2 0.12469500E+00 0.12607257E+04</pdfrwt>
<totfact> 0.18923458E+01</totfact>
</mgrwt>
</event>
<event>
12    4  0.4280696E-008  0.3892193E+04  0.7818608E-02  0.8026655E-01
          1   -1    0    0  501    0  0.00000000000E+00  0.00000000000E+00  0.25718298671E+04  0.25718298671E+04  0.00000000000E+00 0. -1.
         -2   -1    0    0    0  501 -0.00000000000E+00 -0.00000000000E+00 -0.14726061377E+04  0.14726061377E+04  0.00000000000E+00 0.  1.
        -24    2    1    2    0    0  0.97658362257E+01 -0.18382470340E+04  0.42932475879E+03  0.18895026414E+04  0.81565642106E+02 0.  0.
        254    2    1    2    0    0 -0.97658362257E+01  0.18382470340E+04  0.66989897055E+03  0.21549333634E+04  0.90317530988E+03 0.  0.
         23    2    4    4    0    0 -0.43099628205E+03  0.10504000173E+04  0.48546463337E+03  0.12382091345E+04  0.91585800521E+02 0.  0.
         23    2    4    4    0    0  0.42123044582E+03  0.78784701663E+03  0.18443433718E+03  0.91672422891E+03  0.90715362714E+02 0.  0.
          3    1    3    3  502    0 -0.60536971782E+01 -0.39834508899E+03  0.59775801050E+02  0.40285059708E+03  0.00000000000E+00 0. -1.
         -4    1    3    3    0  502  0.15819533404E+02 -0.14399019450E+04  0.36954895775E+03  0.14866520443E+04  0.00000000000E+00 0.  1.
         11    1    5    5    0    0 -0.43303997949E+03  0.10507821237E+04  0.48599183747E+03  0.12360642222E+04  0.00000000000E+00 0. -1.
        -11    1    5    5    0    0  0.20436974430E+01 -0.38210634537E+00 -0.52720410305E+00  0.21449122742E+01  0.00000000000E+00 0.  1.
          4    1    6    6  503    0  0.62301903680E+02  0.19573988640E+03  0.49525627000E+02  0.21130172281E+03  0.00000000000E+00 0.  1.
         -4    1    6    6    0  503  0.35892854214E+03  0.59210713023E+03  0.13490871018E+03  0.70542250610E+03  0.00000000000E+00 0. -1.
<mgrwt>
<rscale>  0 0.38921934E+04</rscale>
<asrwt>0</asrwt>
<pdfrwt beam="1">  1        1 0.39566613E+00 0.38921934E+04</pdfrwt>
<pdfrwt beam="2">  1       -2 0.22655479E+00 0.38921934E+04</pdfrwt>
<totfact> 0.75378965E-02</totfact>
</mgrwt>
</event>
<event>
12    4  0.4280696E-008  0.1692834E+04  0.7818608E-02  0.8765462E-01
         -4   -1    0    0    0  501 -0.00000000000E+00  0.00000000000E+00  0.57224814736E+03  0.57224814736E+03  0.00000000000E+00 0.  1.
          1   -1    0    0  501    0  0.00000000000E+00 -0.00000000000E+00 -0.12519425160E+04  0.12519425160E+04  0.00000000000E+00 0. -1.
        -24    2    1    2    0    0 -0.20414492636E+03  0.37703753722E+03  0.21485497509E+03  0.48622772548E+03  0.80139161913E+02 0.  0.
        254    2    1    2    0    0  0.20414492636E+03 -0.37703753722E+03 -0.89454934370E+03  0.13379629378E+04  0.89782728813E+03 0.  0.
         23    2    4    4    0    0  0.34351311115E+03 -0.11574422262E+03  0.18581499697E+02  0.37439131201E+03  0.91791065883E+02 0.  0.
         23    2    4    4    0    0 -0.13936818479E+03 -0.26129331460E+03 -0.91313084340E+03  0.96357162584E+03  0.83454501186E+02 0.  0.
          3    1    3    3  502    0 -0.14979888973E+02  0.78829297336E+02  0.62086535392E+02  0.10145537477E+03  0.00000000000E+00 0. -1.
         -4    1    3    3    0  502 -0.18916503739E+03  0.29820823988E+03  0.15276843970E+03  0.38477235071E+03  0.00000000000E+00 0.  1.
         11    1    5    5    0    0  0.29728312976E+03 -0.12174798618E+03  0.38791413660E+02  0.32358090974E+03  0.00000000000E+00 0.  1.
        -11    1    5    5    0    0  0.46229981394E+02  0.60037635511E+01 -0.20209913963E+02  0.50810402270E+02  0.00000000000E+00 0. -1.
          1    1    6    6  503    0 -0.88316786810E+02 -0.92476649046E+02 -0.31455085803E+03  0.33954974266E+03  0.00000000000E+00 0. -1.
         -1    1    6    6    0  503 -0.51051397976E+02 -0.16881666555E+03 -0.59857998537E+03  0.62402188318E+03  0.00000000000E+00 0.  1.
<mgrwt>
<rscale>  0 0.16928341E+04</rscale>
<asrwt>0</asrwt>
<pdfrwt beam="1">  1        1 0.19260654E+00 0.16928341E+04</pdfrwt>
<pdfrwt beam="2">  1       -4 0.88038177E-01 0.16928341E+04</pdfrwt>
<totfact> 0.50734926E+00</totfact>
</mgrwt>
</event>
<event>
12    4  0.4280696E-008  0.1794266E+04  0.7818608E-02  0.8709355E-01
         -2   -1    0    0    0  501 -0.00000000000E+00  0.00000000000E+00  0.71915642879E+03  0.71915642879E+03  0.00000000000E+00 0.  1.
          1   -1    0    0  501    0  0.00000000000E+00 -0.00000000000E+00 -0.11191554790E+04  0.11191554790E+04  0.00000000000E+00 0. -1.
        -24    2    1    2    0    0  0.58919435409E+03  0.30080891831E+03 -0.31778947773E+02  0.66713078098E+03  0.80109832027E+02 0.  0.
        254    2    1    2    0    0 -0.58919435409E+03 -0.30080891831E+03 -0.36822010241E+03  0.11711811268E+04  0.89355648712E+03 0.  0.
         23    2    4    4    0    0  0.20871098765E+03  0.48632009824E+02 -0.10700225587E+03  0.25713659706E+03  0.93511486143E+02 0.  0.
         23    2    4    4    0    0 -0.79790534174E+03 -0.34944092813E+03 -0.26121784654E+03  0.91404452972E+03  0.92090945969E+02 0.  0.
          1    1    3    3  502    0  0.41725559336E+03  0.20686842567E+03 -0.58529150335E+02  0.46938516931E+03  0.00000000000E+00 0. -1.
         -2    1    3    3    0  502  0.17193876073E+03  0.93940492636E+02  0.26750202563E+02  0.19774561167E+03  0.00000000000E+00 0.  1.
         11    1    5    5    0    0  0.16900789464E+03 -0.19473847415E+01 -0.69931349570E+02  0.18291488296E+03  0.00000000000E+00 0.  1.
        -11    1    5    5    0    0  0.39703093013E+02  0.50579394566E+02 -0.37070906297E+02  0.74221714094E+02  0.00000000000E+00 0. -1.
          1    1    6    6  503    0 -0.20475912037E+03 -0.55451316599E+02 -0.88671991446E+02  0.22992143866E+03  0.00000000000E+00 0. -1.
         -1    1    6    6    0  503 -0.59314622136E+03 -0.29398961154E+03 -0.17254585509E+03  0.68412309106E+03  0.00000000000E+00 0.  1.
<mgrwt>
<rscale>  0 0.17942663E+04</rscale>
<asrwt>0</asrwt>
<pdfrwt beam="1">  1        1 0.17217777E+00 0.17942663E+04</pdfrwt>
<pdfrwt beam="2">  1       -2 0.11063945E+00 0.17942663E+04</pdfrwt>
<totfact> 0.65786077E+00</totfact>
</mgrwt>
</event>
<event>
12    4  0.4280696E-008  0.1286257E+04  0.7818608E-02  0.9040535E-01
          1   -1    0    0  501    0  0.00000000000E+00  0.00000000000E+00  0.12763461490E+04  0.12763461490E+04  0.00000000000E+00 0. -1.
         -2   -1    0    0    0  501 -0.00000000000E+00 -0.00000000000E+00 -0.32406144081E+03  0.32406144081E+03  0.00000000000E+00 0.  1.
        -24    2    1    2    0    0 -0.22469513899E+03  0.15816143764E+03  0.45970006180E+03  0.54146728342E+03  0.79747892462E+02 0.  0.
        254    2    1    2    0    0  0.22469513899E+03 -0.15816143764E+03  0.49258464638E+03  0.10589403064E+04  0.89622095086E+03 0.  0.
         23    2    4    4    0    0  0.14456311357E+03  0.35995836361E+03  0.15550018936E+03  0.42716125602E+03  0.88418959580E+02 0.  0.
         23    2    4    4    0    0  0.80132025423E+02 -0.51811980125E+03  0.33708445702E+03  0.63177905035E+03  0.10319674099E+03 0.  0.
          3    1    3    3  502    0 -0.18245791070E+03  0.86056708259E+02  0.30588230354E+03  0.36641592465E+03  0.00000000000E+00 0. -1.
         -4    1    3    3    0  502 -0.42237228287E+02  0.72104729382E+02  0.15381775825E+03  0.17505135877E+03  0.00000000000E+00 0.  1.
         11    1    5    5    0    0  0.13979282499E+03  0.35143715928E+03  0.16580289706E+03  0.41296575101E+03  0.00000000000E+00 0. -1.
        -11    1    5    5    0    0  0.47702885804E+01  0.85212043370E+01 -0.10302707696E+02  0.14195505005E+02  0.00000000000E+00 0.  1.
          2    1    6    6  503    0  0.33442356746E+02 -0.41363308323E+03  0.22713005730E+03  0.47307375925E+03  0.00000000000E+00 0. -1.
         -2    1    6    6    0  503  0.46689668677E+02 -0.10448671803E+03  0.10995439972E+03  0.15870529110E+03  0.00000000000E+00 0.  1.
<mgrwt>
<rscale>  0 0.12862575E+04</rscale>
<asrwt>0</asrwt>
<pdfrwt beam="1">  1        1 0.19636094E+00 0.12862575E+04</pdfrwt>
<pdfrwt beam="2">  1       -2 0.49855607E-01 0.12862575E+04</pdfrwt>
<totfact> 0.30886619E+01</totfact>
</mgrwt>
</event>
<event>
12    4  0.4280696E-008  0.2151907E+04  0.7818608E-02  0.8538717E-01
          1   -1    0    0  501    0  0.00000000000E+00  0.00000000000E+00  0.10448899204E+04  0.10448899204E+04  0.00000000000E+00 0. -1.
         -2   -1    0    0    0  501 -0.00000000000E+00 -0.00000000000E+00 -0.11079401000E+04  0.11079401000E+04  0.00000000000E+00 0.  1.
        -24    2    1    2    0    0 -0.54336835045E+03 -0.79588779583E+02  0.66517369512E+03  0.86619206158E+03  0.79051279300E+02 0.  0.
        254    2    1    2    0    0  0.54336835045E+03  0.79588779583E+02 -0.72822387477E+03  0.12866379588E+04  0.90749307831E+03 0.  0.
         23    2    4    4    0    0 -0.10551403924E+03 -0.15681543298E+03  0.75444349212E+02  0.22329607405E+03  0.91896650429E+02 0.  0.
         23    2    4    4    0    0  0.64888238968E+03  0.23640421256E+03 -0.80366822398E+03  0.10633418848E+04  0.88758336568E+02 0.  0.
          1    1    3    3  502    0 -0.31173696151E+03 -0.84276434940E+02  0.39929091968E+03  0.51353255904E+03  0.00000000000E+00 0. -1.
         -2    1    3    3    0  502 -0.23163138893E+03  0.46876553562E+01  0.26588277544E+03  0.35265950253E+03  0.00000000000E+00 0.  1.
         11    1    5    5    0    0 -0.35713339922E+02 -0.73788398123E+02  0.80252879659E+02  0.11472007252E+03  0.00000000000E+00 0. -1.
        -11    1    5    5    0    0 -0.69800699317E+02 -0.83027034856E+02 -0.48085304473E+01  0.10857600153E+03  0.00000000000E+00 0.  1.
          1    1    6    6  503    0  0.13854566144E+03  0.53455444181E+02 -0.23224280768E+03  0.27566121696E+03  0.00000000000E+00 0. -1.
         -1    1    6    6    0  503  0.51033672825E+03  0.18294876838E+03 -0.57142541630E+03  0.78768066781E+03  0.00000000000E+00 0.  1.
<mgrwt>
<rscale>  0 0.21519065E+04</rscale>
<asrwt>0</asrwt>
<pdfrwt beam="1">  1        1 0.16075229E+00 0.21519065E+04</pdfrwt>
<pdfrwt beam="2">  1       -2 0.17045232E+00 0.21519065E+04</pdfrwt>
<totfact> 0.23715960E+00</totfact>
</mgrwt>
</event>
<event>
12    4  0.4280696E-008  0.2323006E+04  0.7818608E-02  0.8468905E-01
          1   -1    0    0  501    0  0.00000000000E+00  0.00000000000E+00  0.16538883283E+04  0.16538883283E+04  0.00000000000E+00 0. -1.
         -2   -1    0    0    0  501 -0.00000000000E+00 -0.00000000000E+00 -0.81570748295E+03  0.81570748295E+03  0.00000000000E+00 0.  1.
        -24    2    1    2    0    0  0.61460689945E+02 -0.66355149754E+03 -0.41078017735E+03  0.78719429354E+03  0.82803957478E+02 0.  0.
        254    2    1    2    0    0 -0.61460689945E+02  0.66355149754E+03  0.12489610227E+04  0.16824015177E+04  0.90911672751E+03 0.  0.
         23    2    4    4    0    0 -0.22013906536E+03  0.83779536356E+03  0.89966468112E+03  0.12520926800E+04  0.89315516877E+02 0.  0.
         23    2    4    4    0    0  0.15867837542E+03 -0.17424386602E+03  0.34929634155E+03  0.43030883768E+03  0.87281211555E+02 0.  0.
          1    1    3    3  502    0 -0.55605695822E+01 -0.28941777720E+03 -0.14800877903E+03  0.32511562307E+03  0.00000000000E+00 0. -1.
         -2    1    3    3    0  502  0.67021259527E+02 -0.37413372034E+03 -0.26277139833E+03  0.46207867047E+03  0.00000000000E+00 0.  1.
         11    1    5    5    0    0 -0.16462422618E+03  0.73086931375E+03  0.79658685813E+03  0.10935363333E+04  0.00000000000E+00 0.  1.
        -11    1    5    5    0    0 -0.55514839182E+02  0.10692604981E+03  0.10307782298E+03  0.15855634673E+03  0.00000000000E+00 0. -1.
          3    1    6    6  503    0  0.12871320183E+03 -0.77998576959E+02  0.21085945240E+03  0.25906094842E+03  0.00000000000E+00 0. -1.
         -3    1    6    6    0  503  0.29965173586E+02 -0.96245289062E+02  0.13843688916E+03  0.17124788925E+03  0.00000000000E+00 0.  1.
<mgrwt>
<rscale>  0 0.23230059E+04</rscale>
<asrwt>0</asrwt>
<pdfrwt beam="1">  1        1 0.25444436E+00 0.23230059E+04</pdfrwt>
<pdfrwt beam="2">  1       -2 0.12549346E+00 0.23230059E+04</pdfrwt>
<totfact> 0.19275633E+00</totfact>
</mgrwt>
</event>
<event>
12    4  0.4280696E-008  0.2043120E+04  0.7818608E-02  0.8586722E-01
         -2   -1    0    0    0  501 -0.00000000000E+00  0.00000000000E+00  0.14927281955E+04  0.14927281955E+04  0.00000000000E+00 0.  1.
          1   -1    0    0  501    0  0.00000000000E+00 -0.00000000000E+00 -0.69911236224E+03  0.69911236224E+03  0.00000000000E+00 0. -1.
        -24    2    1    2    0    0 -0.33338316665E+03  0.31554230478E+03 -0.40989294120E+03  0.62046253150E+03  0.79058508965E+02 0.  0.
        254    2    1    2    0    0  0.33338316665E+03 -0.31554230478E+03  0.12035087744E+04  0.15713780262E+04  0.90004680390E+03 0.  0.
         23    2    4    4    0    0  0.50329903559E+03 -0.45018692057E+03  0.11399570182E+04  0.13279714674E+04  0.89599286348E+02 0.  0.
         23    2    4    4    0    0 -0.16991586894E+03  0.13464461580E+03  0.63551756231E+02  0.24340655884E+03  0.90594437388E+02 0.  0.
          3    1    3    3  502    0 -0.28998305034E+03  0.26959770035E+03 -0.38579958844E+03  0.55282403345E+03  0.00000000000E+00 0. -1.
         -4    1    3    3    0  502 -0.43400116307E+02  0.45944604422E+02 -0.24093352764E+02  0.67638498049E+02  0.00000000000E+00 0.  1.
         11    1    5    5    0    0  0.48740096272E+03 -0.43670662143E+03  0.11275825969E+04  0.13037311396E+04  0.00000000000E+00 0.  1.
        -11    1    5    5    0    0  0.15898072874E+02 -0.13480299142E+02  0.12374421343E+02  0.24240327754E+02  0.00000000000E+00 0. -1.
          4    1    6    6  503    0  0.63519343702E+01 -0.26775053302E+01  0.12391009081E+02  0.14179323365E+02  0.00000000000E+00 0. -1.
         -4    1    6    6    0  503 -0.17626780331E+03  0.13732212113E+03  0.51160747150E+02  0.22922723548E+03  0.00000000000E+00 0.  1.
<mgrwt>
<rscale>  0 0.20431199E+04</rscale>
<asrwt>0</asrwt>
<pdfrwt beam="1">  1        1 0.10755575E+00 0.20431199E+04</pdfrwt>
<pdfrwt beam="2">  1       -2 0.22965049E+00 0.20431199E+04</pdfrwt>
<totfact> 0.18982619E+00</totfact>
</mgrwt>
</event>
<event>
12    4  0.4280696E-008  0.2587261E+04  0.7818608E-02  0.8372541E-01
         -2   -1    0    0    0  501 -0.00000000000E+00  0.00000000000E+00  0.11842473810E+04  0.11842473810E+04  0.00000000000E+00 0.  1.
          1   -1    0    0  501    0  0.00000000000E+00 -0.00000000000E+00 -0.14131171518E+04  0.14131171518E+04  0.00000000000E+00 0. -1.
        -24    2    1    2    0    0  0.37029995425E+03 -0.15724785988E+03  0.96612775212E+03  0.10495907247E+04  0.79930660066E+02 0.  0.
        254    2    1    2    0    0 -0.37029995425E+03  0.15724785988E+03 -0.11949975230E+04  0.15477738081E+04  0.89762783798E+03 0.  0.
         23    2    4    4    0    0 -0.53078525296E+03  0.38215702945E+03 -0.99940879865E+03  0.11979242291E+04  0.91801590424E+02 0.  0.
         23    2    4    4    0    0  0.16048529870E+03 -0.22490916957E+03 -0.19558872430E+03  0.34984957893E+03  0.88318249249E+02 0.  0.
          3    1    3    3  502    0  0.53071675845E+02 -0.36423501372E+02  0.95909638301E+02  0.11550728526E+03  0.00000000000E+00 0. -1.
         -4    1    3    3    0  502  0.31722827841E+03 -0.12082435851E+03  0.87021811382E+03  0.93408343945E+03  0.00000000000E+00 0.  1.
         11    1    5    5    0    0 -0.85110296464E+02  0.70229798948E+02 -0.23602444289E+03  0.26054466962E+03  0.00000000000E+00 0. -1.
        -11    1    5    5    0    0 -0.44567495649E+03  0.31192723050E+03 -0.76338435576E+03  0.93737955951E+03  0.00000000000E+00 0.  1.
          4    1    6    6  503    0  0.13515640622E+02 -0.94946777423E+01  0.86211924671E+01  0.18631865350E+02  0.00000000000E+00 0. -1.
         -4    1    6    6    0  503  0.14696965808E+03 -0.21541449183E+03 -0.20420991677E+03  0.33121771358E+03  0.00000000000E+00 0.  1.
<mgrwt>
<rscale>  0 0.25872613E+04</rscale>
<asrwt>0</asrwt>
<pdfrwt beam="1">  1        1 0.21740264E+00 0.25872613E+04</pdfrwt>
<pdfrwt beam="2">  1       -2 0.18219191E+00 0.25872613E+04</pdfrwt>
<totfact> 0.10197106E+00</totfact>
</mgrwt>
</event>
<event>
12    4  0.4280696E-008  0.1853888E+04  0.7818608E-02  0.8678156E-01
         -2   -1    0    0    0  501 -0.00000000000E+00  0.00000000000E+00  0.52230050189E+03  0.52230050189E+03  0.00000000000E+00 0.  1.
          1   -1    0    0  501    0  0.00000000000E+00 -0.00000000000E+00 -0.16450777979E+04  0.16450777979E+04  0.00000000000E+00 0. -1.
        -24    2    1    2    0    0 -0.79006265014E+02 -0.58755229625E+03  0.22837436542E+02  0.59868155999E+03  0.80239460517E+02 0.  0.
        254    2    1    2    0    0  0.79006265014E+02  0.58755229625E+03 -0.11456147325E+04  0.15686967398E+04  0.89270188485E+03 0.  0.
         23    2    4    4    0    0 -0.30325566003E+03  0.92651946146E+02 -0.75994777735E+03  0.82833169674E+03  0.89801988092E+02 0.  0.
         23    2    4    4    0    0  0.38226192504E+03  0.49490035011E+03 -0.38566695519E+03  0.74036504303E+03  0.91383044071E+02 0.  0.
          1    1    3    3  502    0 -0.83705250465E+01 -0.16611323932E+03 -0.26877845610E+02  0.16848172765E+03  0.00000000000E+00 0. -1.
         -2    1    3    3    0  502 -0.70635739967E+02 -0.42143905694E+03  0.49715282152E+02  0.43019983235E+03  0.00000000000E+00 0.  1.
         11    1    5    5    0    0 -0.23606661559E+02  0.17327845590E+02 -0.25449349738E+02  0.38796882669E+02  0.00000000000E+00 0. -1.
        -11    1    5    5    0    0 -0.27964899847E+03  0.75324100556E+02 -0.73449842761E+03  0.78953481407E+03  0.00000000000E+00 0.  1.
          2    1    6    6  503    0  0.94109938265E+02  0.11282042230E+03 -0.47582913178E+02  0.15443206207E+03  0.00000000000E+00 0. -1.
         -2    1    6    6    0  503  0.28815198677E+03  0.38207992781E+03 -0.33808404201E+03  0.58593298096E+03  0.00000000000E+00 0.  1.
<mgrwt>
<rscale>  0 0.18538878E+04</rscale>
<asrwt>0</asrwt>
<pdfrwt beam="1">  1        1 0.25308889E+00 0.18538878E+04</pdfrwt>
<pdfrwt beam="2">  1       -2 0.80353924E-01 0.18538878E+04</pdfrwt>
<totfact> 0.58636730E+00</totfact>
</mgrwt>
</event>
<event>
12    4  0.4280696E-008  0.1619365E+04  0.7818608E-02  0.8808739E-01
         -2   -1    0    0    0  501 -0.00000000000E+00  0.00000000000E+00  0.39388970958E+03  0.39388970958E+03  0.00000000000E+00 0.  1.
          1   -1    0    0  501    0  0.00000000000E+00 -0.00000000000E+00 -0.16643895080E+04  0.16643895080E+04  0.00000000000E+00 0. -1.
        -24    2    1    2    0    0 -0.35184543910E+03  0.28775507195E+03 -0.84081502192E+03  0.95910443406E+03  0.79455773267E+02 0.  0.
        254    2    1    2    0    0  0.35184543910E+03 -0.28775507195E+03 -0.42968477651E+03  0.10991747835E+04  0.90385729135E+03 0.  0.
         23    2    4    4    0    0  0.48958595493E+03 -0.33562925964E+03 -0.60472691680E+03  0.85217201416E+03  0.90338754796E+02 0.  0.
         23    2    4    4    0    0 -0.13774051583E+03  0.47874187693E+02  0.17504214029E+03  0.24700276937E+03  0.95426566790E+02 0.  0.
          1    1    3    3  502    0 -0.16235193054E+03  0.17266243173E+03 -0.38236497561E+03  0.44985935497E+03  0.00000000000E+00 0. -1.
         -2    1    3    3    0  502 -0.18949350856E+03  0.11509264022E+03 -0.45845004631E+03  0.50924507909E+03  0.00000000000E+00 0.  1.
         11    1    5    5    0    0  0.44841108362E+03 -0.31990050048E+03 -0.58611853226E+03  0.80432814447E+03  0.00000000000E+00 0. -1.
        -11    1    5    5    0    0  0.41174871304E+02 -0.15728759167E+02 -0.18608384541E+02  0.47843869691E+02  0.00000000000E+00 0.  1.
          4    1    6    6  503    0 -0.83928947088E+02 -0.21019526793E+02  0.94690070060E+02  0.12826573211E+03  0.00000000000E+00 0. -1.
         -4    1    6    6    0  503 -0.53811568741E+02  0.68893714486E+02  0.80352070232E+02  0.11873703726E+03  0.00000000000E+00 0.  1.
<mgrwt>
<rscale>  0 0.16193652E+04</rscale>
<asrwt>0</asrwt>
<pdfrwt beam="1">  1        1 0.25605993E+00 0.16193652E+04</pdfrwt>
<pdfrwt beam="2">  1       -2 0.60598416E-01 0.16193652E+04</pdfrwt>
<totfact> 0.10748782E+01</totfact>
</mgrwt>
</event>
<event>
12    4  0.4280696E-008  0.1933374E+04  0.7818608E-02  0.8638420E-01
         -2   -1    0    0    0  501 -0.00000000000E+00  0.00000000000E+00  0.12699464931E+04  0.12699464931E+04  0.00000000000E+00 0.  1.
          1   -1    0    0  501    0  0.00000000000E+00 -0.00000000000E+00 -0.73584529723E+03  0.73584529723E+03  0.00000000000E+00 0. -1.
        -24    2    1    2    0    0  0.62990709436E+02  0.22053870502E+03 -0.53285787542E+03  0.58755137763E+03  0.93134075781E+02 0.  0.
        254    2    1    2    0    0 -0.62990709436E+02 -0.22053870502E+03  0.10669590713E+04  0.14182404127E+04  0.90575883021E+03 0.  0.
         23    2    4    4    0    0 -0.44763370139E+03  0.42771693649E+02  0.54487662950E+03  0.71263978063E+03  0.93592559348E+02 0.  0.
         23    2    4    4    0    0  0.38464299196E+03 -0.26331039867E+03  0.52208244177E+03  0.70560063205E+03  0.89552100065E+02 0.  0.
          3    1    3    3  502    0  0.11879024494E+02  0.83244269381E+02 -0.30726999881E+03  0.31856800181E+03  0.00000000000E+00 0. -1.
         -4    1    3    3    0  502  0.51111684942E+02  0.13729443564E+03 -0.22558787661E+03  0.26898337582E+03  0.00000000000E+00 0.  1.
         11    1    5    5    0    0 -0.47291264223E+02  0.12045239002E+02  0.22387342966E+02  0.53691196480E+02  0.00000000000E+00 0.  1.
        -11    1    5    5    0    0 -0.40034243717E+03  0.30726454647E+02  0.52248928653E+03  0.65894858415E+03  0.00000000000E+00 0. -1.
          3    1    6    6  503    0  0.21702323017E+03 -0.12711273441E+03  0.21935232040E+03  0.33372469215E+03  0.00000000000E+00 0. -1.
         -3    1    6    6    0  503  0.16761976179E+03 -0.13619766426E+03  0.30273012137E+03  0.37187593990E+03  0.00000000000E+00 0.  1.
<mgrwt>
<rscale>  0 0.19333744E+04</rscale>
<asrwt>0</asrwt>
<pdfrwt beam="1">  1        1 0.11320697E+00 0.19333744E+04</pdfrwt>
<pdfrwt beam="2">  1       -2 0.19537638E+00 0.19333744E+04</pdfrwt>
<totfact> 0.29404979E+00</totfact>
</mgrwt>
</event>
<event>
12    4  0.4280696E-008  0.1941271E+04  0.7818608E-02  0.8634581E-01
          1   -1    0    0  501    0  0.00000000000E+00  0.00000000000E+00  0.13876988836E+04  0.13876988836E+04  0.00000000000E+00 0. -1.
         -2   -1    0    0    0  501 -0.00000000000E+00 -0.00000000000E+00 -0.67891795056E+03  0.67891795056E+03  0.00000000000E+00 0.  1.
        -24    2    1    2    0    0 -0.16147039629E+03 -0.56317512926E+03  0.80248114412E+03  0.99646376561E+03  0.75664618003E+02 0.  0.
        254    2    1    2    0    0  0.16147039629E+03  0.56317512926E+03 -0.93700211064E+02  0.10701530686E+04  0.89062278519E+03 0.  0.
         23    2    4    4    0    0  0.43849651342E+03  0.92948294239E+02  0.12600089802E+03  0.47481529613E+03  0.93030970423E+02 0.  0.
         23    2    4    4    0    0 -0.27702611713E+03  0.47022683502E+03 -0.21970110909E+03  0.59533777243E+03  0.91113884760E+02 0.  0.
          3    1    3    3  502    0 -0.15557163473E+03 -0.56270769106E+03  0.79910183190E+03  0.98964954244E+03  0.00000000000E+00 0. -1.
         -2    1    3    3    0  502 -0.58987615547E+01 -0.46743819930E+00  0.33793122249E+01  0.68142231738E+01  0.00000000000E+00 0.  1.
         11    1    5    5    0    0  0.25796753131E+03  0.98584212723E+02  0.60692913989E+02  0.28275382229E+03  0.00000000000E+00 0.  1.
        -11    1    5    5    0    0  0.18052898211E+03 -0.56359184836E+01  0.65307984035E+02  0.19206147385E+03  0.00000000000E+00 0. -1.
          3    1    6    6  503    0 -0.23541798504E+03  0.44811641461E+03 -0.20178128384E+03  0.54492718342E+03  0.00000000000E+00 0. -1.
         -3    1    6    6    0  503 -0.41608132098E+02  0.22110420417E+02 -0.17919825250E+02  0.50410589013E+02  0.00000000000E+00 0.  1.
<mgrwt>
<rscale>  0 0.19412714E+04</rscale>
<asrwt>0</asrwt>
<pdfrwt beam="1">  1        1 0.21349214E+00 0.19412714E+04</pdfrwt>
<pdfrwt beam="2">  1       -2 0.10444892E+00 0.19412714E+04</pdfrwt>
<totfact> 0.47735700E+00</totfact>
</mgrwt>
</event>
<event>
12    4  0.4280696E-008  0.3088465E+04  0.7818608E-02  0.8218911E-01
         -2   -1    0    0    0  501 -0.00000000000E+00  0.00000000000E+00  0.14467891536E+04  0.14467891536E+04  0.00000000000E+00 0.  1.
          1   -1    0    0  501    0  0.00000000000E+00 -0.00000000000E+00 -0.16482389629E+04  0.16482389629E+04  0.00000000000E+00 0. -1.
        -24    2    1    2    0    0 -0.10701495020E+04 -0.37837842575E+03  0.77456160974E+03  0.13767831371E+04  0.84828826264E+02 0.  0.
        254    2    1    2    0    0  0.10701495020E+04  0.37837842575E+03 -0.97601141907E+03  0.17182449794E+04  0.84343187592E+03 0.  0.
         23    2    4    4    0    0  0.46200749509E+03 -0.25883410045E+02  0.29482859961E+02  0.47234686672E+03  0.90119071406E+02 0.  0.
         23    2    4    4    0    0  0.60814200688E+03  0.40426183579E+03 -0.10054942790E+04  0.12458981126E+04  0.89325413622E+02 0.  0.
          3    1    3    3  502    0 -0.13500101188E+03 -0.78097264613E+02  0.99967622201E+02  0.18525113073E+03  0.00000000000E+00 0. -1.
         -4    1    3    3    0  502 -0.93514849009E+03 -0.30028116113E+03  0.67459398754E+03  0.11915320064E+04  0.00000000000E+00 0.  1.
         11    1    5    5    0    0  0.69997400883E+01  0.54969875947E+01 -0.11362152190E+02  0.14433008568E+02  0.00000000000E+00 0. -1.
        -11    1    5    5    0    0  0.45500775500E+03 -0.31380397640E+02  0.40845012151E+02  0.45791385815E+03  0.00000000000E+00 0.  1.
          2    1    6    6  503    0  0.31035373850E+02  0.16714526511E+02 -0.22081824999E+02  0.41595394238E+02  0.00000000000E+00 0. -1.
         -2    1    6    6    0  503  0.57710663303E+03  0.38754730928E+03 -0.98341245403E+03  0.12043027184E+04  0.00000000000E+00 0.  1.
<mgrwt>
<rscale>  0 0.30884652E+04</rscale>
<asrwt>0</asrwt>
<pdfrwt beam="1">  1        1 0.25357522E+00 0.30884652E+04</pdfrwt>
<pdfrwt beam="2">  1       -2 0.22258295E+00 0.30884652E+04</pdfrwt>
<totfact> 0.36525327E-01</totfact>
</mgrwt>
</event>
<event>
12    4  0.4280696E-008  0.1357965E+04  0.7818608E-02  0.8984820E-01
         -2   -1    0    0    0  501 -0.00000000000E+00  0.00000000000E+00  0.66266344541E+03  0.66266344541E+03  0.00000000000E+00 0.  1.
          1   -1    0    0  501    0  0.00000000000E+00 -0.00000000000E+00 -0.69570392001E+03  0.69570392001E+03  0.00000000000E+00 0. -1.
        -24    2    1    2    0    0 -0.42163226211E+02 -0.34193243218E+03 -0.13758111515E+03  0.37780292549E+03  0.71490988513E+02 0.  0.
        254    2    1    2    0    0  0.42163226211E+02  0.34193243218E+03  0.10454064055E+03  0.98056443993E+03  0.91207584636E+03 0.  0.
         23    2    4    4    0    0 -0.29288709782E+03  0.50308305094E+03  0.99236300641E+02  0.59755512216E+03  0.91372164460E+02 0.  0.
         23    2    4    4    0    0  0.33505032403E+03 -0.16115061876E+03  0.53043399071E+01  0.38300931778E+03  0.91868165980E+02 0.  0.
          3    1    3    3  502    0 -0.15466096977E+02 -0.25397586840E+03 -0.12956624704E+03  0.28553520669E+03  0.00000000000E+00 0. -1.
         -4    1    3    3    0  502 -0.26697129235E+02 -0.87956563783E+02 -0.80148681054E+01  0.92267718800E+02  0.00000000000E+00 0.  1.
         11    1    5    5    0    0 -0.38294946938E+02  0.86208141911E+02  0.49584882608E+02  0.10656926046E+03  0.00000000000E+00 0.  1.
        -11    1    5    5    0    0 -0.25459215088E+03  0.41687490903E+03  0.49651418033E+02  0.49098586169E+03  0.00000000000E+00 0. -1.
          1    1    6    6  503    0  0.22739416115E+03 -0.14993463932E+03  0.22953030974E+02  0.27334107307E+03  0.00000000000E+00 0. -1.
         -1    1    6    6    0  503  0.10765616288E+03 -0.11215979434E+02 -0.17648691067E+02  0.10966824471E+03  0.00000000000E+00 0.  1.
<mgrwt>
<rscale>  0 0.13579655E+04</rscale>
<asrwt>0</asrwt>
<pdfrwt beam="1">  1        1 0.10703137E+00 0.13579655E+04</pdfrwt>
<pdfrwt beam="2">  1       -2 0.10194822E+00 0.13579655E+04</pdfrwt>
<totfact> 0.18583789E+01</totfact>
</mgrwt>
</event>
<event>
12    4  0.4280696E-008  0.2306352E+04  0.7818608E-02  0.8475421E-01
          1   -1    0    0  501    0  0.00000000000E+00  0.00000000000E+00  0.16020435813E+04  0.16020435813E+04  0.00000000000E+00 0. -1.
         -2   -1    0    0    0  501 -0.00000000000E+00 -0.00000000000E+00 -0.83007385355E+03  0.83007385355E+03  0.00000000000E+00 0.  1.
        -24    2    1    2    0    0  0.10782477493E+02  0.16142293944E+03 -0.68717215311E+03  0.71152619576E+03  0.88827541037E+02 0.  0.
        254    2    1    2    0    0 -0.10782477493E+02 -0.16142293944E+03  0.14591418809E+04  0.17205912391E+04  0.89731017847E+03 0.  0.
         23    2    4    4    0    0 -0.65821834828E+02  0.31210839406E+03  0.24391171713E+03  0.41194677040E+03  0.91994849361E+02 0.  0.
         23    2    4    4    0    0  0.55039357335E+02 -0.47353133350E+03  0.12152301637E+04  0.13086444687E+04  0.92221146888E+02 0.  0.
          1    1    3    3  502    0 -0.73172740365E+01  0.54178456222E+02 -0.96376333295E+02  0.11080273118E+03  0.00000000000E+00 0. -1.
         -2    1    3    3    0  502  0.18099751529E+02  0.10724448322E+03 -0.59079581981E+03  0.60072346458E+03  0.00000000000E+00 0.  1.
         11    1    5    5    0    0 -0.42584928222E+02  0.28133628010E+03  0.17813793008E+03  0.33570329272E+03  0.00000000000E+00 0. -1.
        -11    1    5    5    0    0 -0.23236906607E+02  0.30772113965E+02  0.65773787047E+02  0.76243477682E+02  0.00000000000E+00 0.  1.
          1    1    6    6  503    0  0.68407835689E+02 -0.32447334403E+03  0.91379920836E+03  0.97210677200E+03  0.00000000000E+00 0. -1.
         -1    1    6    6    0  503 -0.13368478354E+02 -0.14905798947E+03  0.30143095536E+03  0.33653769668E+03  0.00000000000E+00 0.  1.
<mgrwt>
<rscale>  0 0.23063517E+04</rscale>
<asrwt>0</asrwt>
<pdfrwt beam="1">  1        1 0.24646824E+00 0.23063517E+04</pdfrwt>
<pdfrwt beam="2">  1       -2 0.12770367E+00 0.23063517E+04</pdfrwt>
<totfact> 0.20047012E+00</totfact>
</mgrwt>
</event>
<event>
12    4  0.4280696E-008  0.1596168E+04  0.7818608E-02  0.8822906E-01
          1   -1    0    0  501    0  0.00000000000E+00  0.00000000000E+00  0.78676510468E+03  0.78676510468E+03  0.00000000000E+00 0. -1.
         -2   -1    0    0    0  501 -0.00000000000E+00 -0.00000000000E+00 -0.80956568651E+03  0.80956568651E+03  0.00000000000E+00 0.  1.
        -24    2    1    2    0    0  0.26302224104E+03  0.33197977817E+03  0.32674521669E+03  0.54079996643E+03  0.79441139644E+02 0.  0.
        254    2    1    2    0    0 -0.26302224104E+03 -0.33197977817E+03 -0.34954579852E+03  0.10555308248E+04  0.90142763678E+03 0.  0.
         23    2    4    4    0    0 -0.41936777532E+03 -0.28487682859E+03 -0.56799867258E+03  0.76804023467E+03  0.10118879180E+03 0.  0.
         23    2    4    4    0    0  0.15634553427E+03 -0.47102949578E+02  0.21845287406E+03  0.28749059008E+03  0.90920664617E+02 0.  0.
          3    1    3    3  502    0  0.22077129636E+03  0.30911821772E+03  0.26785726499E+03  0.46480270248E+03  0.00000000000E+00 0. -1.
         -4    1    3    3    0  502  0.42250944686E+02  0.22861560443E+02  0.58887951706E+02  0.75997263957E+02  0.00000000000E+00 0.  1.
         11    1    5    5    0    0 -0.17162810401E+02 -0.35564098053E+02 -0.20877430525E+02  0.44668044915E+02  0.00000000000E+00 0.  1.
        -11    1    5    5    0    0 -0.40220496491E+03 -0.24931273053E+03 -0.54712124205E+03  0.72337218976E+03  0.00000000000E+00 0. -1.
          1    1    6    6  503    0  0.12174272012E+03 -0.57036520137E+02  0.11156571759E+03  0.17470364585E+03  0.00000000000E+00 0. -1.
         -1    1    6    6    0  503  0.34602814152E+02  0.99335705588E+01  0.10688715647E+03  0.11278694423E+03  0.00000000000E+00 0.  1.
<mgrwt>
<rscale>  0 0.15961680E+04</rscale>
<asrwt>0</asrwt>
<pdfrwt beam="1">  1        1 0.12104079E+00 0.15961680E+04</pdfrwt>
<pdfrwt beam="2">  1       -2 0.12454857E+00 0.15961680E+04</pdfrwt>
<totfact> 0.92362419E+00</totfact>
</mgrwt>
</event>
<event>
12    4  0.4280696E-008  0.2392180E+04  0.7818608E-02  0.8442437E-01
         -2   -1    0    0    0  501 -0.00000000000E+00  0.00000000000E+00  0.57502984492E+03  0.57502984492E+03  0.00000000000E+00 0.  1.
          1   -1    0    0  501    0  0.00000000000E+00 -0.00000000000E+00 -0.24879253263E+04  0.24879253263E+04  0.00000000000E+00 0. -1.
        -24    2    1    2    0    0  0.41844951550E+03  0.73505095198E+03 -0.81039227365E+02  0.85358252919E+03  0.81460903023E+02 0.  0.
        254    2    1    2    0    0 -0.41844951550E+03 -0.73505095198E+03 -0.18318562540E+04  0.22093726420E+04  0.90012790035E+03 0.  0.
         23    2    4    4    0    0 -0.34436480809E+03 -0.71217269145E+03 -0.66781878372E+03  0.10392516310E+04  0.91021761875E+02 0.  0.
         23    2    4    4    0    0 -0.74084707408E+02 -0.22878260539E+02 -0.11640374703E+04  0.11701210110E+04  0.90487510620E+02 0.  0.
          3    1    3    3  502    0  0.36808601732E+03  0.68237510342E+03 -0.88348488229E+02  0.78033874266E+03  0.00000000000E+00 0. -1.
         -4    1    3    3    0  502  0.50363498180E+02  0.52675848561E+02  0.73092608637E+01  0.73243786528E+02  0.00000000000E+00 0.  1.
         11    1    5    5    0    0 -0.13182789770E+02 -0.76501106933E+02 -0.87817060991E+02  0.11720939173E+03  0.00000000000E+00 0.  1.
        -11    1    5    5    0    0 -0.33118201832E+03 -0.63567158451E+03 -0.58000172273E+03  0.92204223926E+03  0.00000000000E+00 0. -1.
          4    1    6    6  503    0  0.20318901154E+02  0.11580735734E+01 -0.14192477280E+03  0.14337656717E+03  0.00000000000E+00 0.  1.
         -4    1    6    6    0  503 -0.94403608562E+02 -0.24036334112E+02 -0.10221126975E+04  0.10267444439E+04  0.00000000000E+00 0. -1.
<mgrwt>
<rscale>  0 0.23921800E+04</rscale>
<asrwt>0</asrwt>
<pdfrwt beam="1">  1        1 0.38275773E+00 0.23921800E+04</pdfrwt>
<pdfrwt beam="2">  1       -2 0.88466133E-01 0.23921800E+04</pdfrwt>
<totfact> 0.11967926E+00</totfact>
</mgrwt>
</event>
<event>
12    4  0.4280696E-008  0.3342906E+04  0.7818608E-02  0.8152063E-01
          1   -1    0    0  501    0  0.00000000000E+00  0.00000000000E+00  0.15658681093E+04  0.15658681093E+04  0.00000000000E+00 0. -1.
         -2   -1    0    0    0  501 -0.00000000000E+00 -0.00000000000E+00 -0.17841574625E+04  0.17841574625E+04  0.00000000000E+00 0.  1.
        -24    2    1    2    0    0  0.11563387338E+04  0.91786559688E+03  0.36929245639E+03  0.15240328350E+04  0.81869669187E+02 0.  0.
        254    2    1    2    0    0 -0.11563387338E+04 -0.91786559688E+03 -0.58758180962E+03  0.18259927368E+04  0.89966692212E+03 0.  0.
         23    2    4    4    0    0 -0.11714649086E+03 -0.28317217883E+03 -0.51070078699E+03  0.60256744131E+03  0.91446401269E+02 0.  0.
         23    2    4    4    0    0 -0.10391922429E+04 -0.63469341805E+03 -0.76881022632E+02  0.12234252955E+04  0.90013940146E+02 0.  0.
          3    1    3    3  502    0  0.69669109156E+03  0.56369237245E+03  0.18373170221E+03  0.91481413752E+03  0.00000000000E+00 0. -1.
         -4    1    3    3    0  502  0.45964764219E+03  0.35417322443E+03  0.18556075417E+03  0.60921869749E+03  0.00000000000E+00 0.  1.
         11    1    5    5    0    0 -0.82933564452E+02 -0.15977160752E+03 -0.21553621226E+03  0.28082165422E+03  0.00000000000E+00 0. -1.
        -11    1    5    5    0    0 -0.34212926408E+02 -0.12340057131E+03 -0.29516457473E+03  0.32174578709E+03  0.00000000000E+00 0.  1.
          1    1    6    6  503    0 -0.10838745973E+03 -0.78341686643E+02 -0.34889414102E+02  0.13821191161E+03  0.00000000000E+00 0. -1.
         -1    1    6    6    0  503 -0.93080478316E+03 -0.55635173141E+03 -0.41991608530E+02  0.10852133839E+04  0.00000000000E+00 0.  1.
<mgrwt>
<rscale>  0 0.33429061E+04</rscale>
<asrwt>0</asrwt>
<pdfrwt beam="1">  1        1 0.24090279E+00 0.33429061E+04</pdfrwt>
<pdfrwt beam="2">  1       -2 0.27448576E+00 0.33429061E+04</pdfrwt>
<totfact> 0.19463154E-01</totfact>
</mgrwt>
</event>
<event>
12    4  0.4280696E-008  0.2382872E+04  0.7818608E-02  0.8445944E-01
          1   -1    0    0  501    0  0.00000000000E+00  0.00000000000E+00  0.25613752505E+04  0.25613752505E+04  0.00000000000E+00 0. -1.
         -2   -1    0    0    0  501 -0.00000000000E+00 -0.00000000000E+00 -0.55420219581E+03  0.55420219581E+03  0.00000000000E+00 0.  1.
        -24    2    1    2    0    0  0.89787292052E+03  0.34822148765E+03  0.45028710453E+03  0.10665000543E+04  0.85028839459E+02 0.  0.
        254    2    1    2    0    0 -0.89787292052E+03 -0.34822148765E+03  0.15568859501E+04  0.20490773919E+04  0.92053805494E+03 0.  0.
         23    2    4    4    0    0 -0.89535189401E+01  0.22482539496E+03  0.47213362047E+03  0.53091208386E+03  0.91273553075E+02 0.  0.
         23    2    4    4    0    0 -0.88891940158E+03 -0.57304688261E+03  0.10847523297E+04  0.15181653081E+04  0.97866510025E+02 0.  0.
          3    1    3    3  502    0  0.64253806892E+03  0.22908034989E+03  0.28077892513E+03  0.73767864380E+03  0.00000000000E+00 0. -1.
         -4    1    3    3    0  502  0.25533485160E+03  0.11914113777E+03  0.16950817940E+03  0.32882141054E+03  0.00000000000E+00 0.  1.
         11    1    5    5    0    0  0.36966212801E+02  0.56710400578E+02  0.15267090637E+03  0.16700591628E+03  0.00000000000E+00 0. -1.
        -11    1    5    5    0    0 -0.45919731741E+02  0.16811499438E+03  0.31946271410E+03  0.36390616758E+03  0.00000000000E+00 0.  1.
          3    1    6    6  503    0 -0.11591870019E+03 -0.38453762676E+02  0.13320548869E+03  0.18071950402E+03  0.00000000000E+00 0. -1.
         -3    1    6    6    0  503 -0.77300070139E+03 -0.53459311994E+03  0.95154684098E+03  0.13374458041E+04  0.00000000000E+00 0.  1.
<mgrwt>
<rscale>  0 0.23828720E+04</rscale>
<asrwt>0</asrwt>
<pdfrwt beam="1">  1        1 0.39405772E+00 0.23828720E+04</pdfrwt>
<pdfrwt beam="2">  1       -2 0.85261878E-01 0.23828720E+04</pdfrwt>
<totfact> 0.11587692E+00</totfact>
</mgrwt>
</event>
<event>
12    4  0.4280696E-008  0.1822947E+04  0.7818608E-02  0.8694191E-01
          1   -1    0    0  501    0  0.00000000000E+00  0.00000000000E+00  0.22918466024E+04  0.22918466024E+04  0.00000000000E+00 0. -1.
         -2   -1    0    0    0  501 -0.00000000000E+00 -0.00000000000E+00 -0.36249540563E+03  0.36249540563E+03  0.00000000000E+00 0.  1.
        -24    2    1    2    0    0 -0.36261123097E+03 -0.55599635635E+03  0.96060553634E+03  0.11705314735E+04  0.82231872952E+02 0.  0.
        254    2    1    2    0    0  0.36261123097E+03  0.55599635635E+03  0.96874566042E+03  0.14838105345E+04  0.90697667812E+03 0.  0.
         23    2    4    4    0    0  0.31781996532E+03  0.79310322877E+03  0.67793432377E+03  0.10945889770E+04  0.92237841593E+02 0.  0.
         23    2    4    4    0    0  0.44791265655E+02 -0.23710687242E+03  0.29081133665E+03  0.38922155750E+03  0.93253744535E+02 0.  0.
          1    1    3    3  502    0 -0.55864888538E+02 -0.50859892615E+02  0.80315611992E+02  0.11026428242E+03  0.00000000000E+00 0. -1.
         -2    1    3    3    0  502 -0.30674634243E+03 -0.50513646373E+03  0.88028992435E+03  0.10602671911E+04  0.00000000000E+00 0.  1.
         11    1    5    5    0    0  0.15981845263E+03  0.51801730893E+03  0.43237631184E+03  0.69342133310E+03  0.00000000000E+00 0.  1.
        -11    1    5    5    0    0  0.15800151269E+03  0.27508591983E+03  0.24555801193E+03  0.40116764392E+03  0.00000000000E+00 0. -1.
          3    1    6    6  503    0  0.19533067097E+02 -0.20783359221E+03  0.27966574323E+03  0.34898319544E+03  0.00000000000E+00 0. -1.
         -3    1    6    6    0  503  0.25258198558E+02 -0.29273280210E+02  0.11145593419E+02  0.40238362060E+02  0.00000000000E+00 0.  1.
<mgrwt>
<rscale>  0 0.18229469E+04</rscale>
<asrwt>0</asrwt>
<pdfrwt beam="1">  1        1 0.35259177E+00 0.18229469E+04</pdfrwt>
<pdfrwt beam="2">  1       -2 0.55768526E-01 0.18229469E+04</pdfrwt>
<totfact> 0.47119134E+00</totfact>
</mgrwt>
</event>
<event>
12    4  0.4280696E-008  0.1198381E+04  0.7818608E-02  0.9114275E-01
         -2   -1    0    0    0  501 -0.00000000000E+00  0.00000000000E+00  0.15654768017E+04  0.15654768017E+04  0.00000000000E+00 0.  1.
          1   -1    0    0  501    0  0.00000000000E+00 -0.00000000000E+00 -0.22934163678E+03  0.22934163678E+03  0.00000000000E+00 0. -1.
        -24    2    1    2    0    0 -0.23174001189E+02 -0.95157238606E+02 -0.57345365957E+02  0.13850245959E+03  0.79388323611E+02 0.  0.
        254    2    1    2    0    0  0.23174001189E+02  0.95157238606E+02  0.13934805309E+04  0.16563159789E+04  0.88994533407E+03 0.  0.
         23    2    4    4    0    0 -0.11509895406E+03  0.46599522155E+03  0.73968057604E+03  0.88646299490E+03  0.91049277957E+02 0.  0.
         23    2    4    4    0    0  0.13827295525E+03 -0.37083798294E+03  0.65379995488E+03  0.76985298404E+03  0.92622979271E+02 0.  0.
          3    1    3    3  502    0  0.18834254610E+02 -0.17792090013E+02 -0.41692653801E+02  0.49087320101E+02  0.00000000000E+00 0. -1.
         -4    1    3    3    0  502 -0.42008255799E+02 -0.77365148593E+02 -0.15652712156E+02  0.89415139490E+02  0.00000000000E+00 0.  1.
         11    1    5    5    0    0 -0.75817666869E+00  0.17533652901E+03  0.24078958092E+03  0.29786422329E+03  0.00000000000E+00 0. -1.
        -11    1    5    5    0    0 -0.11434077740E+03  0.29065869254E+03  0.49889099512E+03  0.58859877161E+03  0.00000000000E+00 0.  1.
          2    1    6    6  503    0  0.69681032080E+01 -0.49462822454E+02  0.14938691406E+03  0.15751690500E+03  0.00000000000E+00 0. -1.
         -2    1    6    6    0  503  0.13130485205E+03 -0.32137516049E+03  0.50441304081E+03  0.61233607904E+03  0.00000000000E+00 0.  1.
<mgrwt>
<rscale>  0 0.11983806E+04</rscale>
<asrwt>0</asrwt>
<pdfrwt beam="1">  1        1 0.35283330E-01 0.11983806E+04</pdfrwt>
<pdfrwt beam="2">  1       -2 0.24084258E+00 0.11983806E+04</pdfrwt>
<totfact> 0.78766986E+00</totfact>
</mgrwt>
</event>
<event>
12    4  0.4280696E-008  0.1681028E+04  0.7818608E-02  0.8772259E-01
         -2   -1    0    0    0  501 -0.00000000000E+00  0.00000000000E+00  0.78613134601E+03  0.78613134601E+03  0.00000000000E+00 0.  1.
          1   -1    0    0  501    0  0.00000000000E+00 -0.00000000000E+00 -0.89865849189E+03  0.89865849189E+03  0.00000000000E+00 0. -1.
        -24    2    1    2    0    0 -0.16590028999E+03  0.19376403414E+03  0.49668713714E+03  0.56577907214E+03  0.91326004646E+02 0.  0.
        254    2    1    2    0    0  0.16590028999E+03 -0.19376403414E+03 -0.60921428302E+03  0.11190107658E+04  0.90331370193E+03 0.  0.
         23    2    4    4    0    0 -0.26411061762E+02 -0.41862690141E+03  0.69791449129E+01  0.42923774393E+03  0.90831192784E+02 0.  0.
         23    2    4    4    0    0  0.19231135175E+03  0.22486286727E+03 -0.61619342793E+03  0.68977302183E+03  0.92441959778E+02 0.  0.
          1    1    3    3  502    0 -0.11982921924E+03  0.15631045088E+03  0.28871349005E+03  0.34949603456E+03  0.00000000000E+00 0. -1.
         -2    1    3    3    0  502 -0.46071070749E+02  0.37453583263E+02  0.20797364710E+03  0.21628303758E+03  0.00000000000E+00 0.  1.
         11    1    5    5    0    0 -0.21937858862E+02 -0.16322886305E+03 -0.40076764532E+02  0.16950244375E+03  0.00000000000E+00 0.  1.
        -11    1    5    5    0    0 -0.44732028991E+01 -0.25539803836E+03  0.47055909445E+02  0.25973530018E+03  0.00000000000E+00 0. -1.
          2    1    6    6  503    0  0.71402543751E+02  0.74664619584E+02 -0.12548339009E+03  0.16253987160E+03  0.00000000000E+00 0.  1.
         -2    1    6    6    0  503  0.12090880800E+03  0.15019824768E+03 -0.49071003784E+03  0.52723315023E+03  0.00000000000E+00 0. -1.
<mgrwt>
<rscale>  0 0.16810278E+04</rscale>
<asrwt>0</asrwt>
<pdfrwt beam="1">  1        1 0.13825515E+00 0.16810278E+04</pdfrwt>
<pdfrwt beam="2">  1       -2 0.12094328E+00 0.16810278E+04</pdfrwt>
<totfact> 0.79340266E+00</totfact>
</mgrwt>
</event>
<event>
12    4  0.4280696E-008  0.2301992E+04  0.7818608E-02  0.8477136E-01
          1   -1    0    0  501    0  0.00000000000E+00  0.00000000000E+00  0.15331011255E+04  0.15331011255E+04  0.00000000000E+00 0. -1.
         -2   -1    0    0    0  501 -0.00000000000E+00 -0.00000000000E+00 -0.86412566327E+03  0.86412566327E+03  0.00000000000E+00 0.  1.
        -24    2    1    2    0    0  0.74222638461E+03  0.19015862415E+03 -0.34133902571E+03  0.84268059148E+03  0.80857531674E+02 0.  0.
        254    2    1    2    0    0 -0.74222638461E+03 -0.19015862415E+03  0.10103144879E+04  0.15545461973E+04  0.89934320850E+03 0.  0.
         23    2    4    4    0    0 -0.27023271214E+03 -0.40215027229E+03  0.88646682356E+03  0.10145616760E+04  0.93602377063E+02 0.  0.
         23    2    4    4    0    0 -0.47199367247E+03  0.21199164814E+03  0.12384766439E+03  0.53998452128E+03  0.92339338904E+02 0.  0.
          1    1    3    3  502    0  0.11465602423E+03  0.35222290545E+02 -0.86345892952E+02  0.14779115966E+03  0.00000000000E+00 0. -1.
         -2    1    3    3    0  502  0.62757036038E+03  0.15493633361E+03 -0.25499313276E+03  0.69488943182E+03  0.00000000000E+00 0.  1.
         11    1    5    5    0    0 -0.18557098590E+03 -0.33427764418E+03  0.64438057140E+03  0.74926928071E+03  0.00000000000E+00 0. -1.
        -11    1    5    5    0    0 -0.84661726239E+02 -0.67872628112E+02  0.24208625215E+03  0.26529239533E+03  0.00000000000E+00 0.  1.
          4    1    6    6  503    0 -0.36870220474E+03  0.19453113498E+03  0.12503439532E+03  0.43522095339E+03  0.00000000000E+00 0. -1.
         -4    1    6    6    0  503 -0.10329146774E+03  0.17460513161E+02 -0.11867309303E+01  0.10476356789E+03  0.00000000000E+00 0.  1.
<mgrwt>
<rscale>  0 0.23019922E+04</rscale>
<asrwt>0</asrwt>
<pdfrwt beam="1">  1        1 0.23586171E+00 0.23019922E+04</pdfrwt>
<pdfrwt beam="2">  1       -2 0.13294241E+00 0.23019922E+04</pdfrwt>
<totfact> 0.20202455E+00</totfact>
</mgrwt>
</event>
<event>
12    4  0.4280696E-008  0.2250165E+04  0.7818608E-02  0.8497834E-01
          1   -1    0    0  501    0  0.00000000000E+00  0.00000000000E+00  0.87202346071E+03  0.87202346071E+03  0.00000000000E+00 0. -1.
         -2   -1    0    0    0  501 -0.00000000000E+00 -0.00000000000E+00 -0.14515788799E+04  0.14515788799E+04  0.00000000000E+00 0.  1.
        -24    2    1    2    0    0 -0.61998496211E+03 -0.71576983354E+03 -0.21745531110E+03  0.97506867768E+03  0.82245401149E+02 0.  0.
        254    2    1    2    0    0  0.61998496211E+03  0.71576983354E+03 -0.36210010813E+03  0.13485336630E+04  0.88922367489E+03 0.  0.
         23    2    4    4    0    0  0.17988229095E+03  0.58690938790E+03  0.16677232684E+03  0.64262826579E+03  0.91311613658E+02 0.  0.
         23    2    4    4    0    0  0.44010267116E+03  0.12886044564E+03 -0.52887243498E+03  0.70590539717E+03  0.91109832971E+02 0.  0.
          3    1    3    3  502    0 -0.40384543203E+03 -0.51336060143E+03 -0.12659283109E+03  0.66532396992E+03  0.00000000000E+00 0. -1.
         -4    1    3    3    0  502 -0.21613953008E+03 -0.20240923211E+03 -0.90862480013E+02  0.30974470776E+03  0.00000000000E+00 0.  1.
         11    1    5    5    0    0  0.34243068242E+02  0.23438330344E+03  0.37077337704E+02  0.23975581249E+03  0.00000000000E+00 0. -1.
        -11    1    5    5    0    0  0.14563922271E+03  0.35252608446E+03  0.12969498914E+03  0.40287245330E+03  0.00000000000E+00 0.  1.
          2    1    6    6  503    0  0.15086954548E+01  0.11435205404E+02 -0.25655930499E+02  0.28129465946E+02  0.00000000000E+00 0. -1.
         -2    1    6    6    0  503  0.43859397571E+03  0.11742524023E+03 -0.50321650448E+03  0.67777593123E+03  0.00000000000E+00 0.  1.
<mgrwt>
<rscale>  0 0.22501652E+04</rscale>
<asrwt>0</asrwt>
<pdfrwt beam="1">  1        1 0.13415746E+00 0.22501652E+04</pdfrwt>
<pdfrwt beam="2">  1       -2 0.22331983E+00 0.22501652E+04</pdfrwt>
<totfact> 0.14378976E+00</totfact>
</mgrwt>
</event>
<event>
12    4  0.4280696E-008  0.1687994E+04  0.7818608E-02  0.8768241E-01
         -2   -1    0    0    0  501 -0.00000000000E+00  0.00000000000E+00  0.30072791841E+03  0.30072791841E+03  0.00000000000E+00 0.  1.
          1   -1    0    0  501    0  0.00000000000E+00 -0.00000000000E+00 -0.23686895009E+04  0.23686895009E+04  0.00000000000E+00 0. -1.
        -24    2    1    2    0    0 -0.36728539078E+03  0.73786773807E+02 -0.14934416123E+04  0.15417374191E+04  0.79015021925E+02 0.  0.
        254    2    1    2    0    0  0.36728539078E+03 -0.73786773807E+02 -0.57451997018E+03  0.11276800003E+04  0.89512342197E+03 0.  0.
         23    2    4    4    0    0  0.32110986768E+03 -0.31200904683E+03  0.39571835837E+02  0.46074521033E+03  0.10128685116E+03 0.  0.
         23    2    4    4    0    0  0.46175523098E+02  0.23822227302E+03 -0.61409180602E+03  0.66693478993E+03  0.93868192156E+02 0.  0.
          1    1    3    3  502    0 -0.10907439691E+03  0.11529245276E+02 -0.30928043526E+03  0.32815321908E+03  0.00000000000E+00 0. -1.
         -2    1    3    3    0  502 -0.25821099387E+03  0.62257528531E+02 -0.11841611771E+04  0.12135842000E+04  0.00000000000E+00 0.  1.
         11    1    5    5    0    0  0.18229350375E+03 -0.24196291287E+03  0.14910328314E+02  0.30331384836E+03  0.00000000000E+00 0.  1.
        -11    1    5    5    0    0  0.13881636393E+03 -0.70046133959E+02  0.24661507523E+02  0.15743136197E+03  0.00000000000E+00 0. -1.
          3    1    6    6  503    0  0.27019639275E+02  0.22006836748E+03 -0.59317717743E+03  0.63326085549E+03  0.00000000000E+00 0. -1.
         -3    1    6    6    0  503  0.19155883823E+02  0.18153905540E+02 -0.20914628586E+02  0.33673934435E+02  0.00000000000E+00 0.  1.
<mgrwt>
<rscale>  0 0.16879942E+04</rscale>
<asrwt>0</asrwt>
<pdfrwt beam="1">  1        1 0.36441378E+00 0.16879942E+04</pdfrwt>
<pdfrwt beam="2">  1       -2 0.46265832E-01 0.16879942E+04</pdfrwt>
<totfact> 0.61931520E+00</totfact>
</mgrwt>
</event>
<event>
12    4  0.4280696E-008  0.1267130E+04  0.7818608E-02  0.9056045E-01
          1   -1    0    0  501    0  0.00000000000E+00  0.00000000000E+00  0.11525004509E+04  0.11525004509E+04  0.00000000000E+00 0. -1.
         -2   -1    0    0    0  501 -0.00000000000E+00 -0.00000000000E+00 -0.34829023368E+03  0.34829023368E+03  0.00000000000E+00 0.  1.
        -24    2    1    2    0    0 -0.19740102825E+03  0.25368164333E+03  0.21322869421E+03  0.39396502804E+03  0.80127555637E+02 0.  0.
        254    2    1    2    0    0  0.19740102825E+03 -0.25368164333E+03  0.59098152306E+03  0.11068256566E+04  0.87890974016E+03 0.  0.
         23    2    4    4    0    0  0.12076049260E+03  0.31728886442E+03  0.24633748911E+03  0.42921136653E+03  0.91021527992E+02 0.  0.
         23    2    4    4    0    0  0.76640535653E+02 -0.57097050775E+03  0.34464403395E+03  0.67761429005E+03  0.92198283678E+02 0.  0.
          1    1    3    3  502    0 -0.71520075340E+02  0.88340928142E+02  0.31606276544E+02  0.11797541048E+03  0.00000000000E+00 0. -1.
         -2    1    3    3    0  502 -0.12588095291E+03  0.16534071519E+03  0.18162241766E+03  0.27598961756E+03  0.00000000000E+00 0.  1.
         11    1    5    5    0    0 -0.23426175211E+00  0.11795205952E+03  0.91826959572E+02  0.14948221877E+03  0.00000000000E+00 0.  1.
        -11    1    5    5    0    0  0.12099475435E+03  0.19933680490E+03  0.15451052954E+03  0.27972914776E+03  0.00000000000E+00 0. -1.
          4    1    6    6  503    0  0.42186281337E+02 -0.14519392211E+03  0.13072884446E+03  0.19987743275E+03  0.00000000000E+00 0. -1.
         -4    1    6    6    0  503  0.34454254316E+02 -0.42577658565E+03  0.21391518948E+03  0.47773685730E+03  0.00000000000E+00 0.  1.
<mgrwt>
<rscale>  0 0.12671301E+04</rscale>
<asrwt>0</asrwt>
<pdfrwt beam="1">  1        1 0.17730776E+00 0.12671301E+04</pdfrwt>
<pdfrwt beam="2">  1       -2 0.53583113E-01 0.12671301E+04</pdfrwt>
<totfact> 0.32833125E+01</totfact>
</mgrwt>
</event>
<event>
12    4  0.4543167E-008  0.1972412E+04  0.7818608E-02  0.8619629E-01
          1   -1    0    0  501    0  0.00000000000E+00  0.00000000000E+00  0.16119493266E+04  0.16119493266E+04  0.00000000000E+00 0. -1.
         -2   -1    0    0    0  501 -0.00000000000E+00 -0.00000000000E+00 -0.60337006901E+03  0.60337006901E+03  0.00000000000E+00 0.  1.
        -24    2    1    2    0    0  0.31728729367E+03 -0.46313014160E+03  0.10211823771E+04  0.11676358855E+04  0.73480331234E+02 0.  0.
        254    2    1    2    0    0 -0.31728729367E+03  0.46313014160E+03 -0.12603119507E+02  0.10476835101E+04  0.88448919942E+03 0.  0.
         23    2    4    4    0    0 -0.48300570664E+03  0.61073848878E+03  0.85780035231E+02  0.78864626078E+03  0.91152048170E+02 0.  0.
         23    2    4    4    0    0  0.16571841297E+03 -0.14760834717E+03 -0.98383154738E+02  0.25903724930E+03  0.90389351324E+02 0.  0.
          3    1    3    3  502    0  0.27290197153E+03 -0.43177828889E+03  0.94246416638E+03  0.10719825939E+04  0.00000000000E+00 0. -1.
         -4    1    3    3    0  502  0.44385322138E+02 -0.31351852712E+02  0.78718210720E+02  0.95653291573E+02  0.00000000000E+00 0.  1.
         11    1    5    5    0    0 -0.41455689327E+03  0.50789726059E+03  0.10390156449E+03  0.66378654715E+03  0.00000000000E+00 0.  1.
        -11    1    5    5    0    0 -0.68448813374E+02  0.10284122818E+03 -0.18121529258E+02  0.12485971364E+03  0.00000000000E+00 0. -1.
          3    1    6    6  503    0  0.13176829880E+03 -0.68406150179E+02 -0.87099737149E+02  0.17212974804E+03  0.00000000000E+00 0.  1.
         -3    1    6    6    0  503  0.33950114177E+02 -0.79202196995E+02 -0.11283417589E+02  0.86907501253E+02  0.00000000000E+00 0. -1.
<mgrwt>
<rscale>  0 0.19724117E+04</rscale>
<asrwt>0</asrwt>
<pdfrwt beam="1">  1        1 0.24799220E+00 0.19724117E+04</pdfrwt>
<pdfrwt beam="2">  1       -2 0.92826165E-01 0.19724117E+04</pdfrwt>
<totfact> 0.43967081E+00</totfact>
</mgrwt>
</event>
<event>
12    4  0.4280696E-008  0.1655771E+04  0.7818608E-02  0.8786999E-01
         -2   -1    0    0    0  501 -0.00000000000E+00  0.00000000000E+00  0.29696586170E+04  0.29696586170E+04  0.00000000000E+00 0.  1.
          1   -1    0    0  501    0  0.00000000000E+00 -0.00000000000E+00 -0.23079918132E+03  0.23079918132E+03  0.00000000000E+00 0. -1.
        -24    2    1    2    0    0 -0.39000051437E+03  0.14800190821E+03  0.18737494787E+03  0.46398192368E+03  0.78516803087E+02 0.  0.
        254    2    1    2    0    0  0.39000051437E+03 -0.14800190821E+03  0.25514844878E+04  0.27364758746E+04  0.89678434135E+03 0.  0.
         23    2    4    4    0    0 -0.27335054182E+03 -0.13207099057E+03  0.90958754005E+03  0.96315290750E+03  0.90281587017E+02 0.  0.
         23    2    4    4    0    0  0.66335105620E+03 -0.15930917643E+02  0.16418969477E+04  0.17733229671E+04  0.92522109807E+02 0.  0.
          3    1    3    3  502    0 -0.16752781161E+03  0.10497194273E+03  0.80763907693E+02  0.21355909067E+03  0.00000000000E+00 0. -1.
         -4    1    3    3    0  502 -0.22247270276E+03  0.43029965484E+02  0.10661104018E+03  0.25042283301E+03  0.00000000000E+00 0.  1.
         11    1    5    5    0    0 -0.16722028620E+03 -0.54815333033E+02  0.63282153337E+03  0.65683364556E+03  0.00000000000E+00 0. -1.
        -11    1    5    5    0    0 -0.10613025563E+03 -0.77255657534E+02  0.27676600668E+03  0.30631926194E+03  0.00000000000E+00 0.  1.
          1    1    6    6  503    0  0.62324165961E+03  0.44219832631E+01  0.15598486144E+04  0.16797551667E+04  0.00000000000E+00 0. -1.
         -1    1    6    6    0  503  0.40109396592E+02 -0.20352900906E+02  0.82048333272E+02  0.93567800353E+02  0.00000000000E+00 0.  1.
<mgrwt>
<rscale>  0 0.16557715E+04</rscale>
<asrwt>0</asrwt>
<pdfrwt beam="1">  1        1 0.35507568E-01 0.16557715E+04</pdfrwt>
<pdfrwt beam="2">  1       -2 0.45687053E+00 0.16557715E+04</pdfrwt>
<totfact> 0.32344291E-01</totfact>
</mgrwt>
</event>
<event>
12    4  0.4280696E-008  0.1213956E+04  0.7818608E-02  0.9100728E-01
         -2   -1    0    0    0  501 -0.00000000000E+00  0.00000000000E+00  0.12993572654E+03  0.12993572654E+03  0.00000000000E+00 0.  1.
          1   -1    0    0  501    0  0.00000000000E+00 -0.00000000000E+00 -0.28354172555E+04  0.28354172555E+04  0.00000000000E+00 0. -1.
        -24    2    1    2    0    0 -0.26454725456E+03  0.84397041104E+02 -0.42499735957E+03  0.51413109061E+03  0.81239843935E+02 0.  0.
        254    2    1    2    0    0  0.26454725456E+03 -0.84397041104E+02 -0.22804841694E+04  0.24512218914E+04  0.85485238713E+03 0.  0.
         23    2    4    4    0    0 -0.78663669096E+02  0.28629037097E+03 -0.42897188219E+03  0.52985427556E+03  0.92620344861E+02 0.  0.
         23    2    4    4    0    0  0.34321092366E+03 -0.37068741207E+03 -0.18515122872E+04  0.19213676159E+04  0.91394037412E+02 0.  0.
          3    1    3    3  502    0 -0.18638676896E+03  0.50791821252E+02 -0.22356052191E+03  0.29546428500E+03  0.00000000000E+00 0. -1.
         -4    1    3    3    0  502 -0.78160485601E+02  0.33605219852E+02 -0.20143683766E+03  0.21866680561E+03  0.00000000000E+00 0.  1.
         11    1    5    5    0    0 -0.99548007522E+01  0.14492169304E+03 -0.26820280050E+03  0.30501497892E+03  0.00000000000E+00 0.  1.
        -11    1    5    5    0    0 -0.68708868344E+02  0.14136867792E+03 -0.16076908169E+03  0.22483929664E+03  0.00000000000E+00 0. -1.
          4    1    6    6  503    0 -0.33601030576E+01 -0.16370268638E+02 -0.85799754968E+02  0.87412092644E+02  0.00000000000E+00 0.  1.
         -4    1    6    6    0  503  0.34657102671E+03 -0.35431714343E+03 -0.17657125322E+04  0.18339555232E+04  0.00000000000E+00 0. -1.
<mgrwt>
<rscale>  0 0.12139555E+04</rscale>
<asrwt>0</asrwt>
<pdfrwt beam="1">  1        1 0.43621804E+00 0.12139555E+04</pdfrwt>
<pdfrwt beam="2">  1       -2 0.19990112E-01 0.12139555E+04</pdfrwt>
<totfact> 0.14751149E+01</totfact>
</mgrwt>
</event>
<event>
12    4  0.4280696E-008  0.1383975E+04  0.7818608E-02  0.8965501E-01
         -2   -1    0    0    0  501 -0.00000000000E+00  0.00000000000E+00  0.12038523785E+04  0.12038523785E+04  0.00000000000E+00 0.  1.
          1   -1    0    0  501    0  0.00000000000E+00 -0.00000000000E+00 -0.39776180589E+03  0.39776180589E+03  0.00000000000E+00 0. -1.
        -24    2    1    2    0    0 -0.36268603634E+02  0.27542038913E+03 -0.20650468168E+02  0.28930373293E+03  0.78092289605E+02 0.  0.
        254    2    1    2    0    0  0.36268603634E+02 -0.27542038913E+03  0.82674104074E+03  0.13123104514E+04  0.98055401182E+03 0.  0.
         23    2    4    4    0    0 -0.86740659477E+02 -0.18867614606E+03  0.10237245371E+04  0.10485905921E+04  0.91693357004E+02 0.  0.
         23    2    4    4    0    0  0.12300926311E+03 -0.86744243073E+02 -0.19698349639E+03  0.26371985936E+03  0.89943448085E+02 0.  0.
          3    1    3    3  502    0 -0.10768307261E+02  0.24931801363E+03 -0.50064827156E+01  0.24960066752E+03  0.00000000000E+00 0. -1.
         -4    1    3    3    0  502 -0.25500296372E+02  0.26102375504E+02 -0.15643985452E+02  0.39703065409E+02  0.00000000000E+00 0.  1.
         11    1    5    5    0    0 -0.55175608165E+02 -0.28351098711E+02  0.33988589102E+03  0.34550043625E+03  0.00000000000E+00 0.  1.
        -11    1    5    5    0    0 -0.31565051312E+02 -0.16032504735E+03  0.68383864611E+03  0.70309015581E+03  0.00000000000E+00 0. -1.
          3    1    6    6  503    0  0.39622253933E+02  0.11551098791E+02 -0.78257544774E+02  0.88473692159E+02  0.00000000000E+00 0. -1.
         -3    1    6    6    0  503  0.83387009177E+02 -0.98295341865E+02 -0.11872595162E+03  0.17524616720E+03  0.00000000000E+00 0.  1.
<mgrwt>
<rscale>  0 0.13839747E+04</rscale>
<asrwt>0</asrwt>
<pdfrwt beam="1">  1        1 0.61194124E-01 0.13839747E+04</pdfrwt>
<pdfrwt beam="2">  1       -2 0.18520806E+00 0.13839747E+04</pdfrwt>
<totfact> 0.86028525E+00</totfact>
</mgrwt>
</event>
<event>
12    4  0.4280696E-008  0.3005972E+04  0.7818608E-02  0.8242028E-01
         -2   -1    0    0    0  501 -0.00000000000E+00  0.00000000000E+00  0.12505252318E+04  0.12505252318E+04  0.00000000000E+00 0.  1.
          1   -1    0    0  501    0  0.00000000000E+00 -0.00000000000E+00 -0.18064145438E+04  0.18064145438E+04  0.00000000000E+00 0. -1.
        -24    2    1    2    0    0  0.11918934106E+04 -0.20336174983E+03 -0.90787207613E+03  0.15141725870E+04  0.80752790116E+02 0.  0.
        254    2    1    2    0    0 -0.11918934106E+04  0.20336174983E+03  0.35198276411E+03  0.15427671886E+04  0.89121985413E+03 0.  0.
         23    2    4    4    0    0 -0.11994633753E+04  0.17996858740E+03  0.42260198746E+02  0.12171802861E+04  0.92956136420E+02 0.  0.
         23    2    4    4    0    0  0.75699647456E+01  0.23393162436E+02  0.30972256536E+03  0.32558690245E+03  0.97335600560E+02 0.  0.
          1    1    3    3  502    0  0.99662444788E+03 -0.19367583237E+03 -0.73772600116E+03  0.12549941318E+04  0.00000000000E+00 0. -1.
         -2    1    3    3    0  502  0.19526896271E+03 -0.96859174669E+01 -0.17014607498E+03  0.25917845517E+03  0.00000000000E+00 0.  1.
         11    1    5    5    0    0 -0.10473598264E+03 -0.84302850232E+01  0.13972521906E+02  0.10599965629E+03  0.00000000000E+00 0. -1.
        -11    1    5    5    0    0 -0.10947273927E+04  0.18839887242E+03  0.28287676840E+02  0.11111806298E+04  0.00000000000E+00 0.  1.
          1    1    6    6  503    0  0.33944897610E+02  0.46927203680E+02  0.12850054789E+03  0.14094966948E+03  0.00000000000E+00 0. -1.
         -1    1    6    6    0  503 -0.26374932864E+02 -0.23534041244E+02  0.18122201747E+03  0.18463723297E+03  0.00000000000E+00 0.  1.
<mgrwt>
<rscale>  0 0.30059720E+04</rscale>
<asrwt>0</asrwt>
<pdfrwt beam="1">  1        1 0.27790993E+00 0.30059720E+04</pdfrwt>
<pdfrwt beam="2">  1       -2 0.19238850E+00 0.30059720E+04</pdfrwt>
<totfact> 0.45046454E-01</totfact>
</mgrwt>
</event>
<event>
12    4  0.4280696E-008  0.1537852E+04  0.7818608E-02  0.8859665E-01
         -2   -1    0    0    0  501 -0.00000000000E+00  0.00000000000E+00  0.36806526671E+03  0.36806526671E+03  0.00000000000E+00 0.  1.
          1   -1    0    0  501    0  0.00000000000E+00 -0.00000000000E+00 -0.16063656392E+04  0.16063656392E+04  0.00000000000E+00 0. -1.
        -24    2    1    2    0    0 -0.30687548602E+02 -0.19778640134E+03 -0.10075739346E+04  0.10304417208E+04  0.80893264234E+02 0.  0.
        254    2    1    2    0    0  0.30687548602E+02  0.19778640134E+03 -0.23072643789E+03  0.94398918505E+03  0.89320753812E+03 0.  0.
         23    2    4    4    0    0 -0.38722465842E+03  0.18715305031E+03 -0.26603596068E+03  0.51407246208E+03  0.92337227379E+02 0.  0.
         23    2    4    4    0    0  0.41791220702E+03  0.10633351032E+02  0.35309522787E+02  0.42991672298E+03  0.93903915574E+02 0.  0.
          1    1    3    3  502    0 -0.86780135462E+01 -0.19237344197E+03 -0.87449534050E+03  0.89544678773E+03  0.00000000000E+00 0. -1.
         -2    1    3    3    0  502 -0.22009535056E+02 -0.54129593700E+01 -0.13307859409E+03  0.13499493312E+03  0.00000000000E+00 0.  1.
         11    1    5    5    0    0 -0.41539529876E+02  0.41037469946E+02 -0.68341110418E+02  0.89889453525E+02  0.00000000000E+00 0.  1.
        -11    1    5    5    0    0 -0.34568512855E+03  0.14611558037E+03 -0.19769485026E+03  0.42418300855E+03  0.00000000000E+00 0. -1.
          2    1    6    6  503    0  0.39486014492E+03  0.28880477590E+02  0.19171482376E+02  0.39637881095E+03  0.00000000000E+00 0. -1.
         -2    1    6    6    0  503  0.23052062107E+02 -0.18247126559E+02  0.16138040410E+02  0.33537912030E+02  0.00000000000E+00 0.  1.
<mgrwt>
<rscale>  0 0.15378523E+04</rscale>
<asrwt>0</asrwt>
<pdfrwt beam="1">  1        1 0.24713318E+00 0.15378523E+04</pdfrwt>
<pdfrwt beam="2">  1       -2 0.56625425E-01 0.15378523E+04</pdfrwt>
<totfact> 0.13678239E+01</totfact>
</mgrwt>
</event>
<event>
12    4  0.4280696E-008  0.1719337E+04  0.7818608E-02  0.8750412E-01
          1   -1    0    0  501    0  0.00000000000E+00  0.00000000000E+00  0.73123952908E+03  0.73123952908E+03  0.00000000000E+00 0. -1.
         -2   -1    0    0    0  501 -0.00000000000E+00 -0.00000000000E+00 -0.10106532354E+04  0.10106532354E+04  0.00000000000E+00 0.  1.
        -24    2    1    2    0    0 -0.13256135657E+03  0.32113529951E+03  0.41856724573E+03  0.54983500092E+03  0.80122376351E+02 0.  0.
        254    2    1    2    0    0  0.13256135657E+03 -0.32113529951E+03 -0.69798095207E+03  0.11920577636E+04  0.90173383458E+03 0.  0.
         23    2    4    4    0    0 -0.35326694136E+03 -0.33230214926E+02 -0.14461068790E+03  0.39618628600E+03  0.10074494091E+03 0.  0.
         23    2    4    4    0    0  0.48582829792E+03 -0.28790508458E+03 -0.55337026416E+03  0.79587147759E+03  0.90963106708E+02 0.  0.
          1    1    3    3  502    0 -0.94343829888E+02  0.27713668891E+03  0.30854069239E+03  0.42532677019E+03  0.00000000000E+00 0. -1.
         -2    1    3    3    0  502 -0.38217526679E+02  0.43998610600E+02  0.11002655334E+03  0.12450823073E+03  0.00000000000E+00 0.  1.
         11    1    5    5    0    0 -0.32790198277E+03 -0.14199786155E+02 -0.10324602532E+03  0.34406552570E+03  0.00000000000E+00 0.  1.
        -11    1    5    5    0    0 -0.25364958584E+02 -0.19030428770E+02 -0.41364662584E+02  0.52120760296E+02  0.00000000000E+00 0. -1.
          3    1    6    6  503    0  0.12612908008E+03 -0.56108810403E+02 -0.88213823550E+02  0.16382436361E+03  0.00000000000E+00 0. -1.
         -3    1    6    6    0  503  0.35969921784E+03 -0.23179627418E+03 -0.46515644061E+03  0.63204711397E+03  0.00000000000E+00 0.  1.
<mgrwt>
<rscale>  0 0.17193366E+04</rscale>
<asrwt>0</asrwt>
<pdfrwt beam="1">  1        1 0.11249839E+00 0.17193366E+04</pdfrwt>
<pdfrwt beam="2">  1       -2 0.15548511E+00 0.17193366E+04</pdfrwt>
<totfact> 0.57675850E+00</totfact>
</mgrwt>
</event>
<event>
12    4  0.4280696E-008  0.1593331E+04  0.7818608E-02  0.8824655E-01
         -2   -1    0    0    0  501 -0.00000000000E+00  0.00000000000E+00  0.79473890088E+03  0.79473890088E+03  0.00000000000E+00 0.  1.
          1   -1    0    0  501    0  0.00000000000E+00 -0.00000000000E+00 -0.79859714552E+03  0.79859714552E+03  0.00000000000E+00 0. -1.
        -24    2    1    2    0    0  0.69440895215E+01  0.50742275958E+02 -0.51452008397E+03  0.52259374215E+03  0.75830756110E+02 0.  0.
        254    2    1    2    0    0 -0.69440895215E+01 -0.50742275958E+02  0.51066183933E+03  0.10707423043E+04  0.93972898700E+03 0.  0.
         23    2    4    4    0    0  0.31383759076E+03  0.22874392163E+03  0.49401599941E+03  0.63504939296E+03  0.91750252084E+02 0.  0.
         23    2    4    4    0    0 -0.32078168029E+03 -0.27948619759E+03  0.16645839917E+02  0.43569291129E+03  0.92400259294E+02 0.  0.
          1    1    3    3  502    0  0.33587351225E+02  0.52971516759E+02 -0.40669970125E+03  0.41150788418E+03  0.00000000000E+00 0. -1.
         -2    1    3    3    0  502 -0.26643261704E+02 -0.22292408006E+01 -0.10782038273E+03  0.11108585797E+03  0.00000000000E+00 0.  1.
         11    1    5    5    0    0  0.17172401639E+03  0.11228468366E+03  0.18894702063E+03  0.27892286496E+03  0.00000000000E+00 0. -1.
        -11    1    5    5    0    0  0.14211357437E+03  0.11645923797E+03  0.30506897878E+03  0.35612652800E+03  0.00000000000E+00 0.  1.
          4    1    6    6  503    0 -0.76636932476E+02 -0.27221266785E+02  0.23192925338E+02  0.84570258191E+02  0.00000000000E+00 0. -1.
         -4    1    6    6    0  503 -0.24414474781E+03 -0.25226493080E+03 -0.65470854203E+01  0.35112265310E+03  0.00000000000E+00 0.  1.
<mgrwt>
<rscale>  0 0.15933314E+04</rscale>
<asrwt>0</asrwt>
<pdfrwt beam="1">  1        1 0.12286110E+00 0.15933314E+04</pdfrwt>
<pdfrwt beam="2">  1       -2 0.12226752E+00 0.15933314E+04</pdfrwt>
<totfact> 0.94481987E+00</totfact>
</mgrwt>
</event>
<event>
12    4  0.4280696E-008  0.1366566E+04  0.7818608E-02  0.8978382E-01
          1   -1    0    0  501    0  0.00000000000E+00  0.00000000000E+00  0.66442692636E+03  0.66442692636E+03  0.00000000000E+00 0. -1.
         -2   -1    0    0    0  501 -0.00000000000E+00 -0.00000000000E+00 -0.70267418430E+03  0.70267418430E+03  0.00000000000E+00 0.  1.
        -24    2    1    2    0    0 -0.23586578043E+03  0.27738208065E+03 -0.12042279104E+03  0.39415717192E+03  0.91020561036E+02 0.  0.
        254    2    1    2    0    0  0.23586578043E+03 -0.27738208065E+03  0.82175533097E+02  0.97294393874E+03  0.89849518899E+03 0.  0.
         23    2    4    4    0    0  0.22136340722E+03 -0.55886679017E+03 -0.11338482384E+03  0.61906202581E+03  0.95120062589E+02 0.  0.
         23    2    4    4    0    0  0.14502373208E+02  0.28148470952E+03  0.19556035694E+03  0.35388191293E+03  0.86859625639E+02 0.  0.
          3    1    3    3  502    0 -0.18930085746E+03  0.26029960964E+03 -0.12283682166E+03  0.34449903653E+03  0.00000000000E+00 0. -1.
         -4    1    3    3    0  502 -0.46564922968E+02  0.17082471009E+02  0.24140306152E+01  0.49658135392E+02  0.00000000000E+00 0.  1.
         11    1    5    5    0    0  0.19787355267E+03 -0.51913614035E+03 -0.78242413729E+02  0.56105093385E+03  0.00000000000E+00 0. -1.
        -11    1    5    5    0    0  0.23489854548E+02 -0.39730649823E+02 -0.35142410114E+02  0.58011091963E+02  0.00000000000E+00 0.  1.
          2    1    6    6  503    0  0.39258747022E+02  0.25159964366E+03  0.15688183347E+03  0.29909118940E+03  0.00000000000E+00 0. -1.
         -2    1    6    6    0  503 -0.24756373815E+02  0.29885065867E+02  0.38678523474E+02  0.54790723526E+02  0.00000000000E+00 0.  1.
<mgrwt>
<rscale>  0 0.13665660E+04</rscale>
<asrwt>0</asrwt>
<pdfrwt beam="1">  1        1 0.10221953E+00 0.13665660E+04</pdfrwt>
<pdfrwt beam="2">  1       -2 0.10810372E+00 0.13665660E+04</pdfrwt>
<totfact> 0.17285901E+01</totfact>
</mgrwt>
</event>
<event>
12    4  0.4280696E-008  0.2427594E+04  0.7818608E-02  0.8429245E-01
         -2   -1    0    0    0  501 -0.00000000000E+00  0.00000000000E+00  0.93358775271E+03  0.93358775271E+03  0.00000000000E+00 0.  1.
          1   -1    0    0  501    0  0.00000000000E+00 -0.00000000000E+00 -0.15781087424E+04  0.15781087424E+04  0.00000000000E+00 0. -1.
        -24    2    1    2    0    0 -0.49564565240E+03 -0.39289619881E+03  0.58184549189E+03  0.86296173963E+03  0.78273570540E+02 0.  0.
        254    2    1    2    0    0  0.49564565240E+03  0.39289619881E+03 -0.12263664816E+04  0.16487347555E+04  0.90239653756E+03 0.  0.
         23    2    4    4    0    0  0.70195664971E+03  0.14108532086E+03 -0.60582607431E+03  0.94238506317E+03  0.91739681389E+02 0.  0.
         23    2    4    4    0    0 -0.20631099731E+03  0.25181087794E+03 -0.62054040726E+03  0.70634969230E+03  0.88806221115E+02 0.  0.
          3    1    3    3  502    0 -0.17216431812E+03 -0.92358461743E+02  0.16475619148E+03  0.25556846542E+03  0.00000000000E+00 0. -1.
         -4    1    3    3    0  502 -0.32348133429E+03 -0.30053773706E+03  0.41708930042E+03  0.60739327421E+03  0.00000000000E+00 0.  1.
         11    1    5    5    0    0  0.43387383059E+02  0.23072497733E+02 -0.68325805102E+02  0.84161872622E+02  0.00000000000E+00 0. -1.
        -11    1    5    5    0    0  0.65856926665E+03  0.11801282313E+03 -0.53750026921E+03  0.85822319055E+03  0.00000000000E+00 0.  1.
          1    1    6    6  503    0 -0.81193147418E+02  0.16505063404E+03 -0.30924651098E+03  0.35981584670E+03  0.00000000000E+00 0. -1.
         -1    1    6    6    0  503 -0.12511784989E+03  0.86760243901E+02 -0.31129389628E+03  0.34653384560E+03  0.00000000000E+00 0.  1.
<mgrwt>
<rscale>  0 0.24275939E+04</rscale>
<asrwt>0</asrwt>
<pdfrwt beam="1">  1        1 0.24278596E+00 0.24275939E+04</pdfrwt>
<pdfrwt beam="2">  1       -2 0.14362889E+00 0.24275939E+04</pdfrwt>
<totfact> 0.15237090E+00</totfact>
</mgrwt>
</event>
<event>
12    4  0.4280696E-008  0.1398033E+04  0.7818608E-02  0.8955244E-01
         -2   -1    0    0    0  501 -0.00000000000E+00  0.00000000000E+00  0.68090988470E+03  0.68090988470E+03  0.00000000000E+00 0.  1.
          1   -1    0    0  501    0  0.00000000000E+00 -0.00000000000E+00 -0.71760441161E+03  0.71760441161E+03  0.00000000000E+00 0. -1.
        -24    2    1    2    0    0 -0.30756849950E+03  0.26697222180E+02  0.24995999715E+03  0.40517677881E+03  0.79856736444E+02 0.  0.
        254    2    1    2    0    0  0.30756849950E+03 -0.26697222180E+02 -0.28665452406E+03  0.99333751750E+03  0.89957628022E+03 0.  0.
         23    2    4    4    0    0 -0.10629793445E+03  0.29404546951E+03 -0.32323331116E+03  0.46062772423E+03  0.99680177945E+02 0.  0.
         23    2    4    4    0    0  0.41386643395E+03 -0.32074269169E+03  0.36578787101E+02  0.53270979327E+03  0.90996795302E+02 0.  0.
          3    1    3    3  502    0 -0.97100506563E+00 -0.73267806369E+01  0.17246694204E+02  0.18763609096E+02  0.00000000000E+00 0. -1.
         -4    1    3    3    0  502 -0.30659749444E+03  0.34024002817E+02  0.23271330294E+03  0.38641316971E+03  0.00000000000E+00 0.  1.
         11    1    5    5    0    0  0.18999467380E+02  0.41483436729E+02 -0.55215840480E+02  0.71628516133E+02  0.00000000000E+00 0. -1.
        -11    1    5    5    0    0 -0.12529740183E+03  0.25256203278E+03 -0.26801747068E+03  0.38899920809E+03  0.00000000000E+00 0.  1.
          4    1    6    6  503    0  0.65337396659E+02 -0.94060839401E+02 -0.65736742140E+01  0.11471543097E+03  0.00000000000E+00 0. -1.
         -4    1    6    6    0  503  0.34852903729E+03 -0.22668185229E+03  0.43152461315E+02  0.41799436229E+03  0.00000000000E+00 0.  1.
<mgrwt>
<rscale>  0 0.13980328E+04</rscale>
<asrwt>0</asrwt>
<pdfrwt beam="1">  1        1 0.11040068E+00 0.13980328E+04</pdfrwt>
<pdfrwt beam="2">  1       -2 0.10475537E+00 0.13980328E+04</pdfrwt>
<totfact> 0.16557283E+01</totfact>
</mgrwt>
</event>
<event>
12    4  0.4280696E-008  0.1806692E+04  0.7818608E-02  0.8702749E-01
          1   -1    0    0  501    0  0.00000000000E+00  0.00000000000E+00  0.15277383043E+04  0.15277383043E+04  0.00000000000E+00 0. -1.
         -2   -1    0    0    0  501 -0.00000000000E+00 -0.00000000000E+00 -0.53414505884E+03  0.53414505884E+03  0.00000000000E+00 0.  1.
        -24    2    1    2    0    0  0.31689579017E+03 -0.11025735857E+03  0.10373794877E+04  0.10933313668E+04  0.81471769661E+02 0.  0.
        254    2    1    2    0    0 -0.31689579017E+03  0.11025735857E+03 -0.43786242254E+02  0.96855199630E+03  0.90752195984E+03 0.  0.
         23    2    4    4    0    0 -0.23594631765E+02 -0.37652190221E+03 -0.68584673780E+02  0.39371778039E+03  0.89355378252E+02 0.  0.
         23    2    4    4    0    0 -0.29330115840E+03  0.48677926078E+03  0.24798431526E+02  0.57483421592E+03  0.82703055178E+02 0.  0.
          3    1    3    3  502    0  0.31294520056E+03 -0.10155987504E+03  0.94855872714E+03  0.10039983892E+04  0.00000000000E+00 0. -1.
         -4    1    3    3    0  502  0.39505896043E+01 -0.86974835313E+01  0.88820760552E+02  0.89332977579E+02  0.00000000000E+00 0.  1.
         11    1    5    5    0    0 -0.48173975862E+02 -0.33067034799E+03 -0.71066898381E+02  0.34163447577E+03  0.00000000000E+00 0. -1.
        -11    1    5    5    0    0  0.24579344097E+02 -0.45851554222E+02  0.24822246012E+01  0.52083304617E+02  0.00000000000E+00 0.  1.
          3    1    6    6  503    0 -0.26346836290E+03  0.47256882471E+03  0.26927546212E+02  0.54172129835E+03  0.00000000000E+00 0. -1.
         -3    1    6    6    0  503 -0.29832795500E+02  0.14210436074E+02 -0.21291146862E+01  0.33112917572E+02  0.00000000000E+00 0.  1.
<mgrwt>
<rscale>  0 0.18066919E+04</rscale>
<asrwt>0</asrwt>
<pdfrwt beam="1">  1        1 0.23503666E+00 0.18066919E+04</pdfrwt>
<pdfrwt beam="2">  1       -2 0.82176164E-01 0.18066919E+04</pdfrwt>
<totfact> 0.67390224E+00</totfact>
</mgrwt>
</event>
<event>
12    4  0.4280696E-008  0.1808627E+04  0.7818608E-02  0.8701725E-01
         -2   -1    0    0    0  501 -0.00000000000E+00  0.00000000000E+00  0.63362447330E+03  0.63362447330E+03  0.00000000000E+00 0.  1.
          1   -1    0    0  501    0  0.00000000000E+00 -0.00000000000E+00 -0.12906423883E+04  0.12906423883E+04  0.00000000000E+00 0. -1.
        -24    2    1    2    0    0  0.43036526320E+02 -0.52837074332E+03 -0.57792201193E+03  0.78827268961E+03  0.79700666926E+02 0.  0.
        254    2    1    2    0    0 -0.43036526320E+02  0.52837074332E+03 -0.79095903089E+02  0.11359941720E+04  0.10015981290E+04 0.  0.
         23    2    4    4    0    0 -0.68267969764E+02  0.41837217645E+03 -0.51705626005E+03  0.67462727755E+03  0.89883223243E+02 0.  0.
         23    2    4    4    0    0  0.25231443444E+02  0.10999856687E+03  0.43796035696E+03  0.46136689446E+03  0.91180187437E+02 0.  0.
          3    1    3    3  502    0  0.60257173404E+02 -0.41255563145E+03 -0.42137136895E+03  0.59277896940E+03  0.00000000000E+00 0. -1.
         -4    1    3    3    0  502 -0.17220647083E+02 -0.11581511187E+03 -0.15655064297E+03  0.19549372020E+03  0.00000000000E+00 0.  1.
         11    1    5    5    0    0 -0.46769864043E+02  0.32922436376E+03 -0.34203377961E+03  0.47703585638E+03  0.00000000000E+00 0.  1.
        -11    1    5    5    0    0 -0.21498105721E+02  0.89147812690E+02 -0.17502248045E+03  0.19759142117E+03  0.00000000000E+00 0. -1.
          4    1    6    6  503    0 -0.41454086496E+01  0.90049027218E+02  0.18355933050E+03  0.20449948540E+03  0.00000000000E+00 0. -1.
         -4    1    6    6    0  503  0.29376852093E+02  0.19949539653E+02  0.25440102647E+03  0.25686740906E+03  0.00000000000E+00 0.  1.
<mgrwt>
<rscale>  0 0.18086267E+04</rscale>
<asrwt>0</asrwt>
<pdfrwt beam="1">  1        1 0.19856037E+00 0.18086267E+04</pdfrwt>
<pdfrwt beam="2">  1       -2 0.97480689E-01 0.18086267E+04</pdfrwt>
<totfact> 0.66668888E+00</totfact>
</mgrwt>
</event>
<event>
12    4  0.4280696E-008  0.1219446E+04  0.7818608E-02  0.9096004E-01
         -2   -1    0    0    0  501 -0.00000000000E+00  0.00000000000E+00  0.13832834346E+03  0.13832834346E+03  0.00000000000E+00 0.  1.
          1   -1    0    0  501    0  0.00000000000E+00 -0.00000000000E+00 -0.26875334811E+04  0.26875334811E+04  0.00000000000E+00 0. -1.
        -24    2    1    2    0    0 -0.11526574805E+03  0.95654987202E+02 -0.59561842231E+02  0.17994794052E+03  0.79984867301E+02 0.  0.
        254    2    1    2    0    0  0.11526574805E+03 -0.95654987202E+02 -0.24896432954E+04  0.26459138840E+04  0.88323296705E+03 0.  0.
         23    2    4    4    0    0  0.16766491493E+03  0.13716005586E+03 -0.12296708678E+03  0.26541976566E+03  0.91664294867E+02 0.  0.
         23    2    4    4    0    0 -0.52399166880E+02 -0.23281504306E+03 -0.23666762086E+04  0.23804941184E+04  0.92991688450E+02 0.  0.
          1    1    3    3  502    0  0.78274295952E+01  0.26270402357E+02 -0.17489050849E+02  0.32515682273E+02  0.00000000000E+00 0. -1.
         -2    1    3    3    0  502 -0.12309317765E+03  0.69384584844E+02 -0.42072791382E+02  0.14743225825E+03  0.00000000000E+00 0.  1.
         11    1    5    5    0    0  0.12365613219E+03  0.97409348721E+02 -0.13199707465E+03  0.20543283078E+03  0.00000000000E+00 0. -1.
        -11    1    5    5    0    0  0.44008782741E+02  0.39750707134E+02  0.90299878690E+01  0.59986934885E+02  0.00000000000E+00 0.  1.
          2    1    6    6  503    0 -0.39620756998E+01 -0.14521112593E+03 -0.10473883031E+04  0.10574139334E+04  0.00000000000E+00 0. -1.
         -2    1    6    6    0  503 -0.48437091180E+02 -0.87603917123E+02 -0.13192879056E+04  0.13230801850E+04  0.00000000000E+00 0.  1.
<mgrwt>
<rscale>  0 0.12194459E+04</rscale>
<asrwt>0</asrwt>
<pdfrwt beam="1">  1        1 0.41346666E+00 0.12194459E+04</pdfrwt>
<pdfrwt beam="2">  1       -2 0.21281285E-01 0.12194459E+04</pdfrwt>
<totfact> 0.16781356E+01</totfact>
</mgrwt>
</event>
<event>
12    4  0.4280696E-008  0.1731538E+04  0.7818608E-02  0.8743579E-01
         -2   -1    0    0    0  501 -0.00000000000E+00  0.00000000000E+00  0.84081165142E+03  0.84081165142E+03  0.00000000000E+00 0.  1.
          1   -1    0    0  501    0  0.00000000000E+00 -0.00000000000E+00 -0.89146690426E+03  0.89146690426E+03  0.00000000000E+00 0. -1.
        -24    2    1    2    0    0 -0.12495016491E+03 -0.46033936693E+03 -0.42381028087E+03  0.64301539062E+03  0.79553516244E+02 0.  0.
        254    2    1    2    0    0  0.12495016491E+03  0.46033936693E+03  0.37315502804E+03  0.10892631651E+04  0.90538648729E+03 0.  0.
         23    2    4    4    0    0  0.22905150518E+03  0.41247939881E+03  0.63083181052E+03  0.79303366175E+03  0.91377070587E+02 0.  0.
         23    2    4    4    0    0 -0.10410134027E+03  0.47859968114E+02 -0.25767678248E+03  0.29622950332E+03  0.90702418997E+02 0.  0.
          1    1    3    3  502    0 -0.16816581768E-01 -0.74994521013E+02 -0.96514098746E+02  0.12222581446E+03  0.00000000000E+00 0. -1.
         -2    1    3    3    0  502 -0.12493334833E+03 -0.38534484591E+03 -0.32729618212E+03  0.52078957615E+03  0.00000000000E+00 0.  1.
         11    1    5    5    0    0  0.78261156019E+02  0.22231627725E+03  0.27299346115E+03  0.36065879374E+03  0.00000000000E+00 0.  1.
        -11    1    5    5    0    0  0.15079034916E+03  0.19016312156E+03  0.35783834937E+03  0.43237486800E+03  0.00000000000E+00 0. -1.
          2    1    6    6  503    0 -0.74588360520E+02  0.46021646349E+02 -0.88740731998E+02  0.12472502946E+03  0.00000000000E+00 0. -1.
         -2    1    6    6    0  503 -0.29512979746E+02  0.18383217650E+01 -0.16893605048E+03  0.17150447386E+03  0.00000000000E+00 0.  1.
<mgrwt>
<rscale>  0 0.17315378E+04</rscale>
<asrwt>0</asrwt>
<pdfrwt beam="1">  1        1 0.13714875E+00 0.17315378E+04</pdfrwt>
<pdfrwt beam="2">  1       -2 0.12935564E+00 0.17315378E+04</pdfrwt>
<totfact> 0.67635734E+00</totfact>
</mgrwt>
</event>
<event>
12    4  0.4280696E-008  0.1526273E+04  0.7818608E-02  0.8867167E-01
         -2   -1    0    0    0  501 -0.00000000000E+00  0.00000000000E+00  0.49058361574E+03  0.49058361574E+03  0.00000000000E+00 0.  1.
          1   -1    0    0  501    0  0.00000000000E+00 -0.00000000000E+00 -0.11871111832E+04  0.11871111832E+04  0.00000000000E+00 0. -1.
        -24    2    1    2    0    0  0.20008627749E+03  0.20755814328E+02  0.27032335008E+03  0.34604178013E+03  0.78771046233E+02 0.  0.
        254    2    1    2    0    0 -0.20008627749E+03 -0.20755814328E+02 -0.96685091750E+03  0.13316530188E+04  0.89332734397E+03 0.  0.
         23    2    4    4    0    0 -0.29814152369E+03 -0.12894910802E+03  0.11451354264E+02  0.33818767613E+03  0.93399840286E+02 0.  0.
         23    2    4    4    0    0  0.98055246206E+02  0.10819329369E+03 -0.97830227176E+03  0.99346534264E+03  0.92614426435E+02 0.  0.
          1    1    3    3  502    0  0.29743461170E+02  0.42020501753E+01  0.52127320802E+01  0.30487756293E+02  0.00000000000E+00 0. -1.
         -2    1    3    3    0  502  0.17034281632E+03  0.16553764152E+02  0.26511061800E+03  0.31555402383E+03  0.00000000000E+00 0.  1.
         11    1    5    5    0    0 -0.62690762856E+02  0.71129261067E+01  0.19785709221E+02  0.66122611523E+02  0.00000000000E+00 0.  1.
        -11    1    5    5    0    0 -0.23545076084E+03 -0.13606203412E+03 -0.83343549571E+01  0.27206506461E+03  0.00000000000E+00 0. -1.
          4    1    6    6  503    0  0.93251024103E+02  0.12371680653E+03 -0.91945258775E+03  0.93241335406E+03  0.00000000000E+00 0. -1.
         -4    1    6    6    0  503  0.48042221030E+01 -0.15523512841E+02 -0.58849684017E+02  0.61051988582E+02  0.00000000000E+00 0.  1.
<mgrwt>
<rscale>  0 0.15262730E+04</rscale>
<asrwt>0</asrwt>
<pdfrwt beam="1">  1        1 0.18263249E+00 0.15262730E+04</pdfrwt>
<pdfrwt beam="2">  1       -2 0.75474403E-01 0.15262730E+04</pdfrwt>
<totfact> 0.14558340E+01</totfact>
</mgrwt>
</event>
<event>
12    4  0.4280696E-008  0.1250857E+04  0.7818608E-02  0.9069470E-01
         -2   -1    0    0    0  501 -0.00000000000E+00  0.00000000000E+00  0.43456846837E+03  0.43456846837E+03  0.00000000000E+00 0.  1.
          1   -1    0    0  501    0  0.00000000000E+00 -0.00000000000E+00 -0.90011281258E+03  0.90011281258E+03  0.00000000000E+00 0. -1.
        -24    2    1    2    0    0 -0.11503124663E+02 -0.28889296472E+03 -0.60891928115E+02  0.30626890664E+03  0.80630945178E+02 0.  0.
        254    2    1    2    0    0  0.11503124663E+02  0.28889296472E+03 -0.40465241609E+03  0.10284123743E+04  0.90016496647E+03 0.  0.
         23    2    4    4    0    0 -0.27681031585E+03  0.48275151866E+03 -0.13591653531E+03  0.58027366786E+03  0.92581020264E+02 0.  0.
         23    2    4    4    0    0  0.28831344051E+03 -0.19385855394E+03 -0.26873588078E+03  0.44813870646E+03  0.88901899259E+02 0.  0.
          3    1    3    3  502    0  0.25853603013E+02 -0.11640488012E+03  0.99570490595E+00  0.11924552961E+03  0.00000000000E+00 0. -1.
         -4    1    3    3    0  502 -0.37356727676E+02 -0.17248808460E+03 -0.61887633021E+02  0.18702337702E+03  0.00000000000E+00 0.  1.
         11    1    5    5    0    0 -0.24410949999E+02  0.18393966005E+02  0.96879333652E+01  0.32063819456E+02  0.00000000000E+00 0.  1.
        -11    1    5    5    0    0 -0.25239936585E+03  0.46435755266E+03 -0.14560446868E+03  0.54820984841E+03  0.00000000000E+00 0. -1.
          1    1    6    6  503    0  0.17664009158E+03 -0.83845698927E+02 -0.10696420863E+03  0.22287477450E+03  0.00000000000E+00 0. -1.
         -1    1    6    6    0  503  0.11167334893E+03 -0.11001285502E+03 -0.16177167215E+03  0.22526393196E+03  0.00000000000E+00 0.  1.
<mgrwt>
<rscale>  0 0.12508567E+04</rscale>
<asrwt>0</asrwt>
<pdfrwt beam="1">  1        1 0.13847889E+00 0.12508567E+04</pdfrwt>
<pdfrwt beam="2">  1       -2 0.66856688E-01 0.12508567E+04</pdfrwt>
<totfact> 0.32305155E+01</totfact>
</mgrwt>
</event>
<event>
12    4  0.4280696E-008  0.2379708E+04  0.7818608E-02  0.8447140E-01
          1   -1    0    0  501    0  0.00000000000E+00  0.00000000000E+00  0.79401211860E+03  0.79401211860E+03  0.00000000000E+00 0. -1.
         -2   -1    0    0    0  501 -0.00000000000E+00 -0.00000000000E+00 -0.17830358504E+04  0.17830358504E+04  0.00000000000E+00 0.  1.
        -24    2    1    2    0    0 -0.64918368973E+03  0.69528680531E+03 -0.83466538377E+03  0.12678640659E+04  0.77134831143E+02 0.  0.
        254    2    1    2    0    0  0.64918368973E+03 -0.69528680531E+03 -0.15435834803E+03  0.13091839031E+04  0.88615618703E+03 0.  0.
         23    2    4    4    0    0  0.36750270655E+03  0.14722467134E+03 -0.70903648222E+02  0.41228998212E+03  0.90677223425E+02 0.  0.
         23    2    4    4    0    0  0.28168098318E+03 -0.84251147665E+03 -0.83454699810E+02  0.89689392095E+03  0.91017877157E+02 0.  0.
          1    1    3    3  502    0 -0.31618856971E+03  0.35806663883E+03 -0.46708940131E+03  0.66810136826E+03  0.00000000000E+00 0. -1.
         -2    1    3    3    0  502 -0.33299512003E+03  0.33722016647E+03 -0.36757598247E+03  0.59976269768E+03  0.00000000000E+00 0.  1.
         11    1    5    5    0    0  0.13058693639E+03  0.53619749813E+02 -0.69959634334E+02  0.15755118521E+03  0.00000000000E+00 0. -1.
        -11    1    5    5    0    0  0.23691577017E+03  0.93604921526E+02 -0.94401388807E+00  0.25473879691E+03  0.00000000000E+00 0.  1.
          3    1    6    6  503    0  0.27135888755E+03 -0.77249697447E+03 -0.55001580733E+02  0.82061708202E+03  0.00000000000E+00 0. -1.
         -3    1    6    6    0  503  0.10322095632E+02 -0.70014502176E+02 -0.28453119077E+02  0.76276838938E+02  0.00000000000E+00 0.  1.
<mgrwt>
<rscale>  0 0.23797076E+04</rscale>
<asrwt>0</asrwt>
<pdfrwt beam="1">  1        1 0.12215571E+00 0.23797076E+04</pdfrwt>
<pdfrwt beam="2">  1       -2 0.27431320E+00 0.23797076E+04</pdfrwt>
<totfact> 0.80330576E-01</totfact>
</mgrwt>
</event>
<event>
12    4  0.4280696E-008  0.1635020E+04  0.7818608E-02  0.8799318E-01
         -2   -1    0    0    0  501 -0.00000000000E+00  0.00000000000E+00  0.41487693645E+03  0.41487693645E+03  0.00000000000E+00 0.  1.
          1   -1    0    0  501    0  0.00000000000E+00 -0.00000000000E+00 -0.16108943716E+04  0.16108943716E+04  0.00000000000E+00 0. -1.
        -24    2    1    2    0    0  0.30166675184E+02 -0.55976944215E+03 -0.46764031464E+03  0.73452082883E+03  0.81126613761E+02 0.  0.
        254    2    1    2    0    0 -0.30166675184E+02  0.55976944215E+03 -0.72837712054E+03  0.12912504792E+04  0.90694140592E+03 0.  0.
         23    2    4    4    0    0 -0.39752535727E+03  0.41395458844E+03 -0.17950310744E+03  0.60884376562E+03  0.95312928757E+02 0.  0.
         23    2    4    4    0    0  0.36735868209E+03  0.14581485371E+03 -0.54887401310E+03  0.68240671363E+03  0.90564163320E+02 0.  0.
          3    1    3    3  502    0 -0.97812313741E+01 -0.16284212536E+02 -0.49251780332E+01  0.19624103642E+02  0.00000000000E+00 0. -1.
         -4    1    3    3    0  502  0.39947906558E+02 -0.54348522961E+03 -0.46271513661E+03  0.71489672519E+03  0.00000000000E+00 0.  1.
         11    1    5    5    0    0 -0.70443825286E+02  0.84823067153E+02  0.28152231947E+01  0.11029601409E+03  0.00000000000E+00 0. -1.
        -11    1    5    5    0    0 -0.32708153199E+03  0.32913152128E+03 -0.18231833064E+03  0.49854775153E+03  0.00000000000E+00 0.  1.
          4    1    6    6  503    0  0.17641571887E+03  0.10279503339E+03 -0.22371022080E+03  0.30287883327E+03  0.00000000000E+00 0. -1.
         -4    1    6    6    0  503  0.19094296322E+03  0.43019820321E+02 -0.32516379230E+03  0.37952788036E+03  0.00000000000E+00 0.  1.
<mgrwt>
<rscale>  0 0.16350204E+04</rscale>
<asrwt>0</asrwt>
<pdfrwt beam="1">  1        1 0.24782990E+00 0.16350204E+04</pdfrwt>
<pdfrwt beam="2">  1       -2 0.63827222E-01 0.16350204E+04</pdfrwt>
<totfact> 0.10455517E+01</totfact>
</mgrwt>
</event>
<event>
12    4  0.4280696E-008  0.2360440E+04  0.7818608E-02  0.8454465E-01
          1   -1    0    0  501    0  0.00000000000E+00  0.00000000000E+00  0.15928698850E+04  0.15928698850E+04  0.00000000000E+00 0. -1.
         -2   -1    0    0    0  501 -0.00000000000E+00 -0.00000000000E+00 -0.87447130586E+03  0.87447130586E+03  0.00000000000E+00 0.  1.
        -24    2    1    2    0    0  0.12689760052E+03 -0.43739033554E+03 -0.63251410561E+03  0.78350606369E+03  0.79964688448E+02 0.  0.
        254    2    1    2    0    0 -0.12689760052E+03  0.43739033554E+03  0.13509126847E+04  0.16838351271E+04  0.89605934345E+03 0.  0.
         23    2    4    4    0    0  0.13280116182E+03  0.53489519001E+03  0.39534236320E+03  0.68450846742E+03  0.92234727464E+02 0.  0.
         23    2    4    4    0    0 -0.25969876233E+03 -0.97504854471E+02  0.95557032151E+03  0.99932665971E+03  0.92674104506E+02 0.  0.
          3    1    3    3  502    0  0.10580702415E+03 -0.27568646114E+03 -0.35646882761E+03  0.46289110628E+03  0.00000000000E+00 0. -1.
         -4    1    3    3    0  502  0.21090576367E+02 -0.16170387440E+03 -0.27604527800E+03  0.32061495741E+03  0.00000000000E+00 0.  1.
         11    1    5    5    0    0  0.60653899159E+02  0.28831867042E+03  0.15599412270E+03  0.33337773998E+03  0.00000000000E+00 0.  1.
        -11    1    5    5    0    0  0.72147262658E+02  0.24657651959E+03  0.23934824050E+03  0.35113072744E+03  0.00000000000E+00 0. -1.
          1    1    6    6  503    0 -0.30621073534E+02  0.12176835010E+02  0.60180316983E+02  0.68611923216E+02  0.00000000000E+00 0. -1.
         -1    1    6    6    0  503 -0.22907768880E+03 -0.10968168948E+03  0.89539000453E+03  0.93071473649E+03  0.00000000000E+00 0.  1.
<mgrwt>
<rscale>  0 0.23604398E+04</rscale>
<asrwt>0</asrwt>
<pdfrwt beam="1">  1        1 0.24505690E+00 0.23604398E+04</pdfrwt>
<pdfrwt beam="2">  1       -2 0.13453405E+00 0.23604398E+04</pdfrwt>
<totfact> 0.17736917E+00</totfact>
</mgrwt>
</event>
<event>
12    4  0.4280696E-008  0.1453801E+04  0.7818608E-02  0.8915770E-01
          1   -1    0    0  501    0  0.00000000000E+00  0.00000000000E+00  0.22246813600E+03  0.22246813600E+03  0.00000000000E+00 0. -1.
         -2   -1    0    0    0  501 -0.00000000000E+00 -0.00000000000E+00 -0.23751011075E+04  0.23751011075E+04  0.00000000000E+00 0.  1.
        -24    2    1    2    0    0 -0.14714102219E+03  0.31809454146E+03 -0.18664589828E+03  0.40528328966E+03  0.81137142035E+02 0.  0.
        254    2    1    2    0    0  0.14714102219E+03 -0.31809454146E+03 -0.19659870733E+04  0.21922859539E+04  0.90453187543E+03 0.  0.
         23    2    4    4    0    0 -0.37776038546E+02  0.26975154473E+03 -0.10227692998E+04  0.10623048415E+04  0.90783317191E+02 0.  0.
         23    2    4    4    0    0  0.18491706073E+03 -0.58784608619E+03 -0.94321777348E+03  0.11299811124E+04  0.86256627576E+02 0.  0.
          3    1    3    3  502    0 -0.13080675373E+03  0.25765035616E+03 -0.11730401684E+03  0.31185628937E+03  0.00000000000E+00 0. -1.
         -4    1    3    3    0  502 -0.16334268453E+02  0.60444185300E+02 -0.69341881437E+02  0.93427000293E+02  0.00000000000E+00 0.  1.
         11    1    5    5    0    0 -0.20511210387E+02  0.26831267469E+03 -0.94099479508E+03  0.97871528317E+03  0.00000000000E+00 0. -1.
        -11    1    5    5    0    0 -0.17264828158E+02  0.14388700402E+01 -0.81774504702E+02  0.83589558305E+02  0.00000000000E+00 0.  1.
          1    1    6    6  503    0  0.16156017388E+03 -0.53344466407E+03 -0.80011170050E+03  0.97511211288E+03  0.00000000000E+00 0. -1.
         -1    1    6    6    0  503  0.23356886853E+02 -0.54401422117E+02 -0.14310607298E+03  0.15486899953E+03  0.00000000000E+00 0.  1.
<mgrwt>
<rscale>  0 0.14538010E+04</rscale>
<asrwt>0</asrwt>
<pdfrwt beam="1">  1        1 0.34225866E-01 0.14538010E+04</pdfrwt>
<pdfrwt beam="2">  1       -2 0.36540018E+00 0.14538010E+04</pdfrwt>
<totfact> 0.13748951E+00</totfact>
</mgrwt>
</event>
<event>
12    4  0.4280696E-008  0.2639895E+04  0.7818608E-02  0.8354775E-01
         -4   -1    0    0    0  501 -0.00000000000E+00  0.00000000000E+00  0.11033314266E+04  0.11033314266E+04  0.00000000000E+00 0.  1.
          3   -1    0    0  501    0  0.00000000000E+00 -0.00000000000E+00 -0.15790913264E+04  0.15790913264E+04  0.00000000000E+00 0. -1.
        -24    2    1    2    0    0 -0.14253234714E+03 -0.85222981352E+03 -0.10057258145E+04  0.13282045101E+04  0.77663902391E+02 0.  0.
        254    2    1    2    0    0  0.14253234714E+03  0.85222981352E+03  0.52996591474E+03  0.13542182429E+04  0.89801561984E+03 0.  0.
         23    2    4    4    0    0  0.49246115680E+03  0.68225363153E+03  0.35877424973E+03  0.91918263636E+03  0.90497226691E+02 0.  0.
         23    2    4    4    0    0 -0.34992880966E+03  0.16997618199E+03  0.17119166501E+03  0.43503560649E+03  0.92775635109E+02 0.  0.
          1    1    3    3  502    0 -0.12887841530E+03 -0.83420044386E+03 -0.98793889897E+03  0.12994319122E+04  0.00000000000E+00 0. -1.
         -2    1    3    3    0  502 -0.13653931834E+02 -0.18029369651E+02 -0.17786915558E+02  0.28772597895E+02  0.00000000000E+00 0.  1.
         11    1    5    5    0    0  0.31730493078E+03  0.44253583934E+03  0.18462256566E+03  0.57498337363E+03  0.00000000000E+00 0.  1.
        -11    1    5    5    0    0  0.17515622602E+03  0.23971779218E+03  0.17415168407E+03  0.34419926273E+03  0.00000000000E+00 0. -1.
          1    1    6    6  503    0 -0.35437570768E+02 -0.87913076226E+01  0.47034661080E+01  0.36813463639E+02  0.00000000000E+00 0. -1.
         -1    1    6    6    0  503 -0.31449123889E+03  0.17876748961E+03  0.16648819890E+03  0.39822214285E+03  0.00000000000E+00 0.  1.
<mgrwt>
<rscale>  0 0.26398948E+04</rscale>
<asrwt>0</asrwt>
<pdfrwt beam="1">  1        3 0.24293713E+00 0.26398948E+04</pdfrwt>
<pdfrwt beam="2">  1       -4 0.16974330E+00 0.26398948E+04</pdfrwt>
<totfact> 0.34655666E-02</totfact>
</mgrwt>
</event>
<event>
12    4  0.4280696E-008  0.2317415E+04  0.7818608E-02  0.8471086E-01
         -2   -1    0    0    0  501 -0.00000000000E+00  0.00000000000E+00  0.42585517645E+03  0.42585517645E+03  0.00000000000E+00 0.  1.
          1   -1    0    0  501    0  0.00000000000E+00 -0.00000000000E+00 -0.31527220673E+04  0.31527220673E+04  0.00000000000E+00 0. -1.
        -24    2    1    2    0    0  0.63969989771E+03  0.69343909151E+02 -0.22952317132E+04  0.23850376014E+04  0.79317124986E+02 0.  0.
        254    2    1    2    0    0 -0.63969989771E+03 -0.69343909151E+02 -0.43163517768E+03  0.11935396423E+04  0.90785649431E+03 0.  0.
         23    2    4    4    0    0  0.21515644128E+03  0.14590491262E+02 -0.17296847338E+03  0.29174970004E+03  0.93244935672E+02 0.  0.
         23    2    4    4    0    0 -0.85485633899E+03 -0.83934400413E+02 -0.25866670429E+03  0.90178994226E+03  0.92153633466E+02 0.  0.
          3    1    3    3  502    0  0.53860705997E+03  0.72267090207E+02 -0.18323914138E+04  0.19112766390E+04  0.00000000000E+00 0. -1.
         -4    1    3    3    0  502  0.10109283774E+03 -0.29231810563E+01 -0.46284029937E+03  0.47376096246E+03  0.00000000000E+00 0.  1.
         11    1    5    5    0    0  0.17594719756E+03 -0.11559689256E+02 -0.16935232534E+03  0.24448160022E+03  0.00000000000E+00 0. -1.
        -11    1    5    5    0    0  0.39209243721E+02  0.26150180518E+02 -0.36161480408E+01  0.47268099824E+02  0.00000000000E+00 0.  1.
          1    1    6    6  503    0 -0.81718445307E+03 -0.68670293274E+02 -0.22890665474E+03  0.85141311718E+03  0.00000000000E+00 0. -1.
         -1    1    6    6    0  503 -0.37671885917E+02 -0.15264107140E+02 -0.29760049554E+02  0.50376825077E+02  0.00000000000E+00 0.  1.
<mgrwt>
<rscale>  0 0.23174149E+04</rscale>
<asrwt>0</asrwt>
<pdfrwt beam="1">  1        1 0.48503416E+00 0.23174149E+04</pdfrwt>
<pdfrwt beam="2">  1       -2 0.65516182E-01 0.23174149E+04</pdfrwt>
<totfact> 0.78587457E-01</totfact>
</mgrwt>
</event>
<event>
12    4  0.5300307E-008  0.2016821E+04  0.7818608E-02  0.8598796E-01
         -2   -1    0    0    0  501 -0.00000000000E+00  0.00000000000E+00  0.57758195562E+03  0.57758195562E+03  0.00000000000E+00 0.  1.
          1   -1    0    0  501    0  0.00000000000E+00 -0.00000000000E+00 -0.17606024740E+04  0.17606024740E+04  0.00000000000E+00 0. -1.
        -24    2    1    2    0    0  0.29980211714E+03 -0.29069828720E+03 -0.12767967706E+04  0.13458250938E+04  0.81537635291E+02 0.  0.
        254    2    1    2    0    0 -0.29980211714E+03  0.29069828720E+03  0.93776252204E+02  0.99235933587E+03  0.89531908412E+03 0.  0.
         23    2    4    4    0    0 -0.57633426030E+03  0.32097431959E+03  0.17584915299E+03  0.68902908664E+03  0.93018622843E+02 0.  0.
         23    2    4    4    0    0  0.27653214316E+03 -0.30276032390E+02 -0.82072900781E+02  0.30333024923E+03  0.88806614155E+02 0.  0.
          1    1    3    3  502    0  0.27039059413E+03 -0.27876157544E+03 -0.11084710974E+04  0.11745327850E+04  0.00000000000E+00 0. -1.
         -4    1    3    3    0  502  0.29411523011E+02 -0.11936711760E+02 -0.16832567323E+03  0.17129230877E+03  0.00000000000E+00 0.  1.
         11    1    5    5    0    0 -0.53786668420E+03  0.30762009913E+03  0.18623839854E+03  0.64700497406E+03  0.00000000000E+00 0. -1.
        -11    1    5    5    0    0 -0.38467576101E+02  0.13354220463E+02 -0.10389245557E+02  0.42024112584E+02  0.00000000000E+00 0.  1.
          1    1    6    6  503    0  0.27070791746E+03 -0.40995523494E+02 -0.90657236093E+02  0.28841314806E+03  0.00000000000E+00 0. -1.
         -1    1    6    6    0  503  0.58242257089E+01  0.10719491104E+02  0.85843353112E+01  0.14917101172E+02  0.00000000000E+00 0.  1.
<mgrwt>
<rscale>  0 0.20168215E+04</rscale>
<asrwt>0</asrwt>
<pdfrwt beam="1">  1        1 0.27086192E+00 0.20168215E+04</pdfrwt>
<pdfrwt beam="2">  1       -2 0.88858762E-01 0.20168215E+04</pdfrwt>
<totfact> 0.38358824E+00</totfact>
</mgrwt>
</event>
<event>
12    4  0.4280696E-008  0.1164146E+04  0.7818608E-02  0.9144832E-01
         -2   -1    0    0    0  501 -0.00000000000E+00  0.00000000000E+00  0.42533995165E+03  0.42533995165E+03  0.00000000000E+00 0.  1.
          1   -1    0    0  501    0  0.00000000000E+00 -0.00000000000E+00 -0.79656013600E+03  0.79656013600E+03  0.00000000000E+00 0. -1.
        -24    2    1    2    0    0  0.63145192786E+02 -0.40012988433E+02  0.15361100777E+03  0.18982928636E+03  0.82767515584E+02 0.  0.
        254    2    1    2    0    0 -0.63145192786E+02  0.40012988433E+02 -0.52483119213E+03  0.10320708013E+04  0.88551341267E+03 0.  0.
         23    2    4    4    0    0 -0.56582007227E+02  0.33232188773E+03  0.76255055405E+02  0.35744558926E+03  0.91176505754E+02 0.  0.
         23    2    4    4    0    0 -0.65631855590E+01 -0.29230889930E+03 -0.60108624753E+03  0.67462521202E+03  0.91252023034E+02 0.  0.
          3    1    3    3  502    0  0.15274549351E+02 -0.31460131567E+00 -0.75819145537E+01  0.17055681170E+02  0.00000000000E+00 0. -1.
         -4    1    3    3    0  502  0.47870643435E+02 -0.39698387117E+02  0.16119292233E+03  0.17277360519E+03  0.00000000000E+00 0.  1.
         11    1    5    5    0    0 -0.68097317734E+02  0.15607393911E+03  0.16919578078E+02  0.17112156870E+03  0.00000000000E+00 0.  1.
        -11    1    5    5    0    0  0.11515310507E+02  0.17624794863E+03  0.59335477326E+02  0.18632402057E+03  0.00000000000E+00 0. -1.
          1    1    6    6  503    0 -0.36523049783E+02 -0.25826317135E+03 -0.51826385243E+03  0.58019929298E+03  0.00000000000E+00 0. -1.
         -1    1    6    6    0  503  0.29959864224E+02 -0.34045727950E+02 -0.82822395104E+02  0.94425919041E+02  0.00000000000E+00 0.  1.
<mgrwt>
<rscale>  0 0.11641458E+04</rscale>
<asrwt>0</asrwt>
<pdfrwt beam="1">  1        1 0.12254771E+00 0.11641458E+04</pdfrwt>
<pdfrwt beam="2">  1       -2 0.65436915E-01 0.11641458E+04</pdfrwt>
<totfact> 0.41655206E+01</totfact>
</mgrwt>
</event>
<event>
12    4  0.4280696E-008  0.1251409E+04  0.7818608E-02  0.9069011E-01
         -2   -1    0    0    0  501 -0.00000000000E+00  0.00000000000E+00  0.20290941120E+03  0.20290941120E+03  0.00000000000E+00 0.  1.
          1   -1    0    0  501    0  0.00000000000E+00 -0.00000000000E+00 -0.19294627667E+04  0.19294627667E+04  0.00000000000E+00 0. -1.
        -24    2    1    2    0    0 -0.21009995081E+03 -0.14049321855E+03 -0.57072765123E+03  0.63081962584E+03  0.91230557808E+02 0.  0.
        254    2    1    2    0    0  0.21009995081E+03  0.14049321855E+03 -0.11558257043E+04  0.15015525520E+04  0.92457918760E+03 0.  0.
         23    2    4    4    0    0  0.46571705391E+03  0.31749877492E+03 -0.98019766878E+03  0.11341759568E+04  0.88711807552E+02 0.  0.
         23    2    4    4    0    0 -0.25561710310E+03 -0.17700555637E+03 -0.17562803548E+03  0.36737659522E+03  0.86309243311E+02 0.  0.
          1    1    3    3  502    0 -0.17119921864E+03 -0.14391933981E+03 -0.52519593969E+03  0.57083511096E+03  0.00000000000E+00 0. -1.
         -2    1    3    3    0  502 -0.38900732166E+02  0.34261212581E+01 -0.45531711539E+02  0.59984514882E+02  0.00000000000E+00 0.  1.
         11    1    5    5    0    0  0.21040489508E+03  0.15010386910E+03 -0.36316465817E+03  0.44574652027E+03  0.00000000000E+00 0. -1.
        -11    1    5    5    0    0  0.25531215884E+03  0.16739490582E+03 -0.61703301060E+03  0.68842943656E+03  0.00000000000E+00 0.  1.
          3    1    6    6  503    0 -0.41085115120E+02 -0.17891213322E+01 -0.45531438584E+02  0.61353887726E+02  0.00000000000E+00 0. -1.
         -3    1    6    6    0  503 -0.21453198798E+03 -0.17521643504E+03 -0.13009659690E+03  0.30602270749E+03  0.00000000000E+00 0.  1.
<mgrwt>
<rscale>  0 0.12514091E+04</rscale>
<asrwt>0</asrwt>
<pdfrwt beam="1">  1        1 0.29684042E+00 0.12514091E+04</pdfrwt>
<pdfrwt beam="2">  1       -2 0.31216833E-01 0.12514091E+04</pdfrwt>
<totfact> 0.27444857E+01</totfact>
</mgrwt>
</event>
<event>
12    4  0.4280696E-008  0.1780000E+04  0.7818608E-02  0.8717008E-01
         -2   -1    0    0    0  501 -0.00000000000E+00  0.00000000000E+00  0.45457479323E+03  0.45457479323E+03  0.00000000000E+00 0.  1.
          1   -1    0    0  501    0  0.00000000000E+00 -0.00000000000E+00 -0.17425079905E+04  0.17425079905E+04  0.00000000000E+00 0. -1.
        -24    2    1    2    0    0  0.21300357346E+03 -0.39752624743E+03 -0.10656633445E+04  0.11602674293E+04  0.84761453489E+02 0.  0.
        254    2    1    2    0    0 -0.21300357346E+03  0.39752624743E+03 -0.22226985277E+03  0.10368153544E+04  0.90674392856E+03 0.  0.
         23    2    4    4    0    0  0.38784373320E+02 -0.99059091025E+02  0.25797880987E+03  0.29581527183E+03  0.98166580747E+02 0.  0.
         23    2    4    4    0    0 -0.25178794678E+03  0.49658533846E+03 -0.48024866264E+03  0.74100008258E+03  0.91913959226E+02 0.  0.
          1    1    3    3  502    0  0.15534222724E+03 -0.28463889721E+03 -0.85475021600E+03  0.91419278116E+03  0.00000000000E+00 0. -1.
         -2    1    3    3    0  502  0.57661346221E+02 -0.11288735022E+03 -0.21091312848E+03  0.24607464813E+03  0.00000000000E+00 0.  1.
         11    1    5    5    0    0  0.58814214483E+02 -0.40159841960E+02  0.79147711564E+02  0.10647199152E+03  0.00000000000E+00 0.  1.
        -11    1    5    5    0    0 -0.20029841164E+02 -0.58899249065E+02  0.17883109831E+03  0.18934328031E+03  0.00000000000E+00 0. -1.
          4    1    6    6  503    0 -0.22524028226E+03  0.43301419948E+03 -0.37636121819E+03  0.61634588362E+03  0.00000000000E+00 0. -1.
         -4    1    6    6    0  503 -0.26547664522E+02  0.63571138977E+02 -0.10388744446E+03  0.12465419896E+03  0.00000000000E+00 0.  1.
<mgrwt>
<rscale>  0 0.17800002E+04</rscale>
<asrwt>0</asrwt>
<pdfrwt beam="1">  1        1 0.26807815E+00 0.17800002E+04</pdfrwt>
<pdfrwt beam="2">  1       -2 0.69934583E-01 0.17800002E+04</pdfrwt>
<totfact> 0.68904086E+00</totfact>
</mgrwt>
</event>
<event>
12    4  0.4280696E-008  0.2075589E+04  0.7818608E-02  0.8572073E-01
         -2   -1    0    0    0  501 -0.00000000000E+00  0.00000000000E+00  0.55744951821E+03  0.55744951821E+03  0.00000000000E+00 0.  1.
          1   -1    0    0  501    0  0.00000000000E+00 -0.00000000000E+00 -0.19320449315E+04  0.19320449315E+04  0.00000000000E+00 0. -1.
        -24    2    1    2    0    0  0.60662603593E+03 -0.14321800320E+03  0.11607927445E+03  0.63938910815E+03  0.82689115033E+02 0.  0.
        254    2    1    2    0    0 -0.60662603593E+03  0.14321800320E+03 -0.14906746877E+04  0.18501053416E+04  0.90126145279E+03 0.  0.
         23    2    4    4    0    0 -0.60816086997E+03 -0.26402884701E+03 -0.80595166443E+03  0.10481576150E+04  0.97495767309E+02 0.  0.
         23    2    4    4    0    0  0.15348340394E+01  0.40724685022E+03 -0.68472302331E+03  0.80194772657E+03  0.91772461957E+02 0.  0.
          1    1    3    3  502    0  0.20864538318E+03 -0.85416314627E+02  0.23169466244E+02  0.22663994991E+03  0.00000000000E+00 0. -1.
         -4    1    3    3    0  502  0.39798065275E+03 -0.57801688578E+02  0.92909808202E+02  0.41274915824E+03  0.00000000000E+00 0.  1.
         11    1    5    5    0    0 -0.15512974705E+02  0.86506721530E+01 -0.21188442289E+02  0.27648446602E+02  0.00000000000E+00 0.  1.
        -11    1    5    5    0    0 -0.59264789527E+03 -0.27267951917E+03 -0.78476322214E+03  0.10205091684E+04  0.00000000000E+00 0. -1.
          1    1    6    6  503    0  0.20102137689E+02  0.29316119741E+03 -0.41499031831E+03  0.50849242659E+03  0.00000000000E+00 0. -1.
         -1    1    6    6    0  503 -0.18567303650E+02  0.11408565281E+03 -0.26973270500E+03  0.29345529998E+03  0.00000000000E+00 0.  1.
<mgrwt>
<rscale>  0 0.20755891E+04</rscale>
<asrwt>0</asrwt>
<pdfrwt beam="1">  1        1 0.29723768E+00 0.20755891E+04</pdfrwt>
<pdfrwt beam="2">  1       -2 0.85761465E-01 0.20755891E+04</pdfrwt>
<totfact> 0.31667022E+00</totfact>
</mgrwt>
</event>
<event>
12    4  0.4280696E-008  0.1249616E+04  0.7818608E-02  0.9070503E-01
         -2   -1    0    0    0  501 -0.00000000000E+00  0.00000000000E+00  0.35284112488E+03  0.35284112488E+03  0.00000000000E+00 0.  1.
          1   -1    0    0  501    0  0.00000000000E+00 -0.00000000000E+00 -0.11064052451E+04  0.11064052451E+04  0.00000000000E+00 0. -1.
        -24    2    1    2    0    0  0.50887427347E+02  0.29870100541E+03 -0.19957454334E+03  0.37165866943E+03  0.80550278215E+02 0.  0.
        254    2    1    2    0    0 -0.50887427347E+02 -0.29870100541E+03 -0.55398957691E+03  0.10875877006E+04  0.88551156640E+03 0.  0.
         23    2    4    4    0    0  0.27147020415E+03 -0.47620246244E+03 -0.33839232294E+03  0.65106141167E+03  0.94375529485E+02 0.  0.
         23    2    4    4    0    0 -0.32235763149E+03  0.17750145703E+03 -0.21559725397E+03  0.43652628891E+03  0.93015134025E+02 0.  0.
          1    1    3    3  502    0  0.25510795161E+02  0.15269968518E+03 -0.14955338401E+03  0.21525382504E+03  0.00000000000E+00 0. -1.
         -2    1    3    3    0  502  0.25376632187E+02  0.14600132023E+03 -0.50021159325E+02  0.15640484439E+03  0.00000000000E+00 0.  1.
         11    1    5    5    0    0  0.42913944644E+02 -0.10116492496E+03 -0.11217205660E+03  0.15703031226E+03  0.00000000000E+00 0. -1.
        -11    1    5    5    0    0  0.22855625950E+03 -0.37503753749E+03 -0.22622026633E+03  0.49403109941E+03  0.00000000000E+00 0.  1.
          4    1    6    6  503    0 -0.43130139268E+02 -0.77405169943E+01 -0.16946077274E+02  0.46981848107E+02  0.00000000000E+00 0. -1.
         -4    1    6    6    0  503 -0.27922749223E+03  0.18524197403E+03 -0.19865117670E+03  0.38954444080E+03  0.00000000000E+00 0.  1.
<mgrwt>
<rscale>  0 0.12496164E+04</rscale>
<asrwt>0</asrwt>
<pdfrwt beam="1">  1        1 0.17021619E+00 0.12496164E+04</pdfrwt>
<pdfrwt beam="2">  1       -2 0.54283252E-01 0.12496164E+04</pdfrwt>
<totfact> 0.34640812E+01</totfact>
</mgrwt>
</event>
<event>
12    4  0.4280696E-008  0.2217858E+04  0.7818608E-02  0.8511032E-01
         -2   -1    0    0    0  501 -0.00000000000E+00  0.00000000000E+00  0.52577265863E+03  0.52577265863E+03  0.00000000000E+00 0.  1.
          1   -1    0    0  501    0  0.00000000000E+00 -0.00000000000E+00 -0.23388876811E+04  0.23388876811E+04  0.00000000000E+00 0. -1.
        -24    2    1    2    0    0  0.70812741822E+02  0.84711076587E+03 -0.11990007501E+04  0.14718220956E+04  0.77758524084E+02 0.  0.
        254    2    1    2    0    0 -0.70812741822E+02 -0.84711076587E+03 -0.61411427229E+03  0.13928382441E+04  0.91665202821E+03 0.  0.
         23    2    4    4    0    0 -0.16693833085E+03  0.12814937671E+03 -0.26075193610E+03  0.34714823044E+03  0.90717433040E+02 0.  0.
         23    2    4    4    0    0  0.96125589029E+02 -0.97526014258E+03 -0.35336233619E+03  0.10456900137E+04  0.90720392070E+02 0.  0.
          1    1    3    3  502    0  0.63416843047E+02  0.60651316332E+03 -0.91414171737E+03  0.10988789709E+04  0.00000000000E+00 0. -1.
         -2    1    3    3    0  502  0.73958987754E+01  0.24059760255E+03 -0.28485903276E+03  0.37294312464E+03  0.00000000000E+00 0.  1.
         11    1    5    5    0    0 -0.92028856966E+02  0.11199672999E+03 -0.12568801608E+03  0.19185946792E+03  0.00000000000E+00 0. -1.
        -11    1    5    5    0    0 -0.74909473885E+02  0.16152646715E+02 -0.13506392002E+03  0.15528876252E+03  0.00000000000E+00 0.  1.
          3    1    6    6  503    0  0.65728849944E+02 -0.66097366970E+03 -0.28404355129E+03  0.72241761660E+03  0.00000000000E+00 0. -1.
         -3    1    6    6    0  503  0.30396739085E+02 -0.31428647288E+03 -0.69318784905E+02  0.32327239709E+03  0.00000000000E+00 0.  1.
<mgrwt>
<rscale>  0 0.22178577E+04</rscale>
<asrwt>0</asrwt>
<pdfrwt beam="1">  1        1 0.35982888E+00 0.22178577E+04</pdfrwt>
<pdfrwt beam="2">  1       -2 0.80888101E-01 0.22178577E+04</pdfrwt>
<totfact> 0.18874978E+00</totfact>
</mgrwt>
</event>
<event>
12    4  0.4280696E-008  0.1414611E+04  0.7818608E-02  0.8943310E-01
         -2   -1    0    0    0  501 -0.00000000000E+00  0.00000000000E+00  0.34391589710E+03  0.34391589710E+03  0.00000000000E+00 0.  1.
          1   -1    0    0  501    0  0.00000000000E+00 -0.00000000000E+00 -0.14546605234E+04  0.14546605234E+04  0.00000000000E+00 0. -1.
        -24    2    1    2    0    0  0.24476754966E+03  0.31276148858E+03 -0.25049531847E+03  0.47439249155E+03  0.67597554373E+02 0.  0.
        254    2    1    2    0    0 -0.24476754966E+03 -0.31276148858E+03 -0.86024930782E+03  0.13241839289E+04  0.92504232548E+03 0.  0.
         23    2    4    4    0    0 -0.89697063697E+01 -0.28579275573E+03  0.11008033385E+03  0.32053383726E+03  0.94161064502E+02 0.  0.
         23    2    4    4    0    0 -0.23579784329E+03 -0.26968732857E+02 -0.97032964167E+03  0.10036500917E+04  0.97190316231E+02 0.  0.
          3    1    3    3  502    0  0.17251794162E+03  0.24522408502E+03 -0.21645683105E+03  0.36979839340E+03  0.00000000000E+00 0. -1.
         -2    1    3    3    0  502  0.72249608039E+02  0.67537403566E+02 -0.34038487425E+02  0.10459409815E+03  0.00000000000E+00 0.  1.
         11    1    5    5    0    0  0.20248310989E+02 -0.15408017384E+02 -0.37400566638E+01  0.25717486687E+02  0.00000000000E+00 0. -1.
        -11    1    5    5    0    0 -0.29218017359E+02 -0.27038473834E+03  0.11382039051E+03  0.29481635057E+03  0.00000000000E+00 0.  1.
          1    1    6    6  503    0 -0.33412139207E+01 -0.15944605733E+02 -0.23196194509E+02  0.28345327695E+02  0.00000000000E+00 0. -1.
         -1    1    6    6    0  503 -0.23245662937E+03 -0.11024127125E+02 -0.94713344716E+03  0.97530476398E+03  0.00000000000E+00 0.  1.
<mgrwt>
<rscale>  0 0.14146107E+04</rscale>
<asrwt>0</asrwt>
<pdfrwt beam="1">  1        1 0.22379392E+00 0.14146107E+04</pdfrwt>
<pdfrwt beam="2">  1       -2 0.52910138E-01 0.14146107E+04</pdfrwt>
<totfact> 0.20251639E+01</totfact>
</mgrwt>
</event>
<event>
12    4  0.4280696E-008  0.9777603E+03  0.7818608E-02  0.9333279E-01
          1   -1    0    0  501    0  0.00000000000E+00  0.00000000000E+00  0.96248823968E+03  0.96248823968E+03  0.00000000000E+00 0. -1.
         -2   -1    0    0    0  501 -0.00000000000E+00 -0.00000000000E+00 -0.24831865436E+03  0.24831865436E+03  0.00000000000E+00 0.  1.
        -24    2    1    2    0    0 -0.15165470447E+02 -0.15992618800E+02  0.69868128549E+02  0.10632889562E+03  0.77061814837E+02 0.  0.
        254    2    1    2    0    0  0.15165470447E+02  0.15992618800E+02  0.64430145677E+03  0.11044779984E+04  0.89680629260E+03 0.  0.
         23    2    4    4    0    0 -0.16246236263E+03 -0.19047455736E+03 -0.11693109088E+03  0.29067380025E+03  0.90243015609E+02 0.  0.
         23    2    4    4    0    0  0.17762783308E+03  0.20646717616E+03  0.76123254765E+03  0.81380419817E+03  0.92854399159E+02 0.  0.
          3    1    3    3  502    0 -0.19374812800E+01 -0.11711021650E+02  0.84973634681E+02  0.85798720578E+02  0.00000000000E+00 0. -1.
         -4    1    3    3    0  502 -0.13227989167E+02 -0.42815971505E+01 -0.15105506133E+02  0.20530175038E+02  0.00000000000E+00 0.  1.
         11    1    5    5    0    0 -0.10491333271E+03 -0.17462499896E+03 -0.10717709673E+03  0.23019041619E+03  0.00000000000E+00 0.  1.
        -11    1    5    5    0    0 -0.57549029917E+02 -0.15849558404E+02 -0.97539941481E+01  0.60483384064E+02  0.00000000000E+00 0. -1.
          2    1    6    6  503    0  0.12475118983E+03  0.19483175713E+03  0.65329764974E+03  0.69305129110E+03  0.00000000000E+00 0.  1.
         -2    1    6    6    0  503  0.52876643250E+02  0.11635419030E+02  0.10793489791E+03  0.12075290707E+03  0.00000000000E+00 0. -1.
<mgrwt>
<rscale>  0 0.97776027E+03</rscale>
<asrwt>0</asrwt>
<pdfrwt beam="1">  1        1 0.14807511E+00 0.97776027E+03</pdfrwt>
<pdfrwt beam="2">  1       -2 0.38202871E-01 0.97776027E+03</pdfrwt>
<totfact> 0.92169755E+01</totfact>
</mgrwt>
</event>
<event>
12    4  0.4280696E-008  0.1818065E+04  0.7818608E-02  0.8696751E-01
         -2   -1    0    0    0  501 -0.00000000000E+00  0.00000000000E+00  0.24433807606E+03  0.24433807606E+03  0.00000000000E+00 0.  1.
          1   -1    0    0  501    0  0.00000000000E+00 -0.00000000000E+00 -0.33819538883E+04  0.33819538883E+04  0.00000000000E+00 0. -1.
        -24    2    1    2    0    0 -0.16809381989E+02 -0.65405216481E+03 -0.80606602467E+03  0.10411568730E+04  0.78729972089E+02 0.  0.
        254    2    1    2    0    0  0.16809381989E+02  0.65405216481E+03 -0.23315497876E+04  0.25851350914E+04  0.90483823911E+03 0.  0.
         23    2    4    4    0    0 -0.22356427822E+03  0.22048180665E+03 -0.17660264073E+03  0.37200919363E+03  0.92785418443E+02 0.  0.
         23    2    4    4    0    0  0.24037366021E+03  0.43357035816E+03 -0.21549471468E+04  0.22131258977E+04  0.91467379180E+02 0.  0.
          3    1    3    3  502    0  0.29035079300E+02 -0.22837268035E+03 -0.26028777116E+03  0.34748646129E+03  0.00000000000E+00 0. -1.
         -4    1    3    3    0  502 -0.45844461289E+02 -0.42567948445E+03 -0.54577825351E+03  0.69367041173E+03  0.00000000000E+00 0.  1.
         11    1    5    5    0    0 -0.89079825973E+02  0.32735473371E+02 -0.68338794346E+02  0.11694878120E+03  0.00000000000E+00 0.  1.
        -11    1    5    5    0    0 -0.13448445225E+03  0.18774633328E+03 -0.10826384639E+03  0.25506041243E+03  0.00000000000E+00 0. -1.
          1    1    6    6  503    0  0.21364641861E+03  0.32108504187E+03 -0.17502439434E+04  0.17922316417E+04  0.00000000000E+00 0. -1.
         -1    1    6    6    0  503  0.26727241595E+02  0.11248531629E+03 -0.40470320349E+03  0.42089425600E+03  0.00000000000E+00 0.  1.
<mgrwt>
<rscale>  0 0.18180650E+04</rscale>
<asrwt>0</asrwt>
<pdfrwt beam="1">  1        1 0.52030058E+00 0.18180650E+04</pdfrwt>
<pdfrwt beam="2">  1       -2 0.37590475E-01 0.18180650E+04</pdfrwt>
<totfact> 0.17163252E+00</totfact>
</mgrwt>
</event>
<event>
12    4  0.4280696E-008  0.1941828E+04  0.7818608E-02  0.8634312E-01
         -4   -1    0    0    0  501 -0.00000000000E+00  0.00000000000E+00  0.73192598911E+03  0.73192598911E+03  0.00000000000E+00 0.  1.
          1   -1    0    0  501    0  0.00000000000E+00 -0.00000000000E+00 -0.12879362292E+04  0.12879362292E+04  0.00000000000E+00 0. -1.
        -24    2    1    2    0    0  0.55645823689E+03 -0.27367649319E+03  0.24313499061E+03  0.67082824413E+03  0.79695151225E+02 0.  0.
        254    2    1    2    0    0 -0.55645823689E+03  0.27367649319E+03 -0.79914523070E+03  0.13490339742E+04  0.89258891515E+03 0.  0.
         23    2    4    4    0    0 -0.38875106695E+03  0.58613326327E+03 -0.62004962189E+03  0.94212286701E+03  0.91947640426E+02 0.  0.
         23    2    4    4    0    0 -0.16770716994E+03 -0.31245677008E+03 -0.17909560882E+03  0.40691110718E+03  0.88014112689E+02 0.  0.
          1    1    3    3  502    0  0.18644696114E+03 -0.51454495825E+02  0.67710379104E+02  0.20492615718E+03  0.00000000000E+00 0. -1.
         -2    1    3    3    0  502  0.37001127575E+03 -0.22222199737E+03  0.17542461151E+03  0.46590208694E+03  0.00000000000E+00 0.  1.
         11    1    5    5    0    0 -0.18467809456E+02  0.16923097806E+02 -0.41971601646E+01  0.25398176684E+02  0.00000000000E+00 0. -1.
        -11    1    5    5    0    0 -0.37028325749E+03  0.56921016547E+03 -0.61585246172E+03  0.91672469033E+03  0.00000000000E+00 0.  1.
          1    1    6    6  503    0  0.55461904396E+01 -0.37216876826E+02 -0.48301399931E+01  0.37936610305E+02  0.00000000000E+00 0. -1.
         -1    1    6    6    0  503 -0.17325336038E+03 -0.27523989325E+03 -0.17426546882E+03  0.36897449688E+03  0.00000000000E+00 0.  1.
<mgrwt>
<rscale>  0 0.19418280E+04</rscale>
<asrwt>0</asrwt>
<pdfrwt beam="1">  1        1 0.19814403E+00 0.19418280E+04</pdfrwt>
<pdfrwt beam="2">  1       -4 0.11260400E+00 0.19418280E+04</pdfrwt>
<totfact> 0.25990731E+00</totfact>
</mgrwt>
</event>
<event>
12    4  0.4280696E-008  0.1414854E+04  0.7818608E-02  0.8943136E-01
         -2   -1    0    0    0  501 -0.00000000000E+00  0.00000000000E+00  0.74748523245E+03  0.74748523245E+03  0.00000000000E+00 0.  1.
          1   -1    0    0  501    0  0.00000000000E+00 -0.00000000000E+00 -0.66951535110E+03  0.66951535110E+03  0.00000000000E+00 0. -1.
        -24    2    1    2    0    0 -0.16519471282E+03  0.17887916147E+03  0.37464410184E+03  0.45370909444E+03  0.78782560177E+02 0.  0.
        254    2    1    2    0    0  0.16519471282E+03 -0.17887916147E+03 -0.29667422049E+03  0.96329148911E+03  0.88353146652E+03 0.  0.
         23    2    4    4    0    0 -0.29019446373E+03  0.11870800392E+02  0.10355870919E+03  0.32127327856E+03  0.90212918059E+02 0.  0.
         23    2    4    4    0    0  0.45538917656E+03 -0.19074996186E+03 -0.40023292968E+03  0.64201821055E+03  0.90753151981E+02 0.  0.
          1    1    3    3  502    0 -0.32646012045E+02  0.86700604092E+02  0.11127301194E+03  0.14479102196E+03  0.00000000000E+00 0. -1.
         -2    1    3    3    0  502 -0.13254870078E+03  0.92178557379E+02  0.26337108989E+03  0.30891807249E+03  0.00000000000E+00 0.  1.
         11    1    5    5    0    0 -0.28244156116E+03 -0.81466537568E+01  0.98327112951E+02  0.29917858309E+03  0.00000000000E+00 0. -1.
        -11    1    5    5    0    0 -0.77529025771E+01  0.20017454148E+02  0.52315962434E+01  0.22094695477E+02  0.00000000000E+00 0.  1.
          3    1    6    6  503    0  0.19042486387E+03 -0.12552299807E+03 -0.16164098518E+03  0.27954509460E+03  0.00000000000E+00 0. -1.
         -3    1    6    6    0  503  0.26496431269E+03 -0.65226963795E+02 -0.23859194450E+03  0.36247311595E+03  0.00000000000E+00 0.  1.
<mgrwt>
<rscale>  0 0.14148538E+04</rscale>
<asrwt>0</asrwt>
<pdfrwt beam="1">  1        1 0.10300236E+00 0.14148538E+04</pdfrwt>
<pdfrwt beam="2">  1       -2 0.11499773E+00 0.14148538E+04</pdfrwt>
<totfact> 0.14649342E+01</totfact>
</mgrwt>
</event>
<event>
12    4  0.4280696E-008  0.1544134E+04  0.7818608E-02  0.8855624E-01
          1   -1    0    0  501    0  0.00000000000E+00  0.00000000000E+00  0.11313234525E+04  0.11313234525E+04  0.00000000000E+00 0. -1.
         -2   -1    0    0    0  501 -0.00000000000E+00 -0.00000000000E+00 -0.52689361974E+03  0.52689361974E+03  0.00000000000E+00 0.  1.
        -24    2    1    2    0    0  0.42106223643E+03 -0.21134132728E+03  0.32837917096E+03  0.57989182706E+03  0.80517622976E+02 0.  0.
        254    2    1    2    0    0 -0.42106223643E+03  0.21134132728E+03  0.27605066182E+03  0.10783252452E+04  0.92985095740E+03 0.  0.
         23    2    4    4    0    0 -0.27291006711E+03 -0.26107131675E+03 -0.15147500447E+03  0.41745357018E+03  0.93191572124E+02 0.  0.
         23    2    4    4    0    0 -0.14815216932E+03  0.47241264402E+03  0.42752566629E+03  0.66087167502E+03  0.94076585797E+02 0.  0.
          3    1    3    3  502    0  0.40768409319E+03 -0.20805814724E+03  0.33224975427E+03  0.56558324912E+03  0.00000000000E+00 0. -1.
         -4    1    3    3    0  502  0.13378143240E+02 -0.32831800400E+01 -0.38705833036E+01  0.14308577946E+02  0.00000000000E+00 0.  1.
         11    1    5    5    0    0 -0.16849278419E+02  0.32491190852E+01  0.45201393388E+01  0.17745044878E+02  0.00000000000E+00 0. -1.
        -11    1    5    5    0    0 -0.25606078869E+03 -0.26432043583E+03 -0.15599514381E+03  0.39970852530E+03  0.00000000000E+00 0.  1.
          1    1    6    6  503    0 -0.43510895613E+02  0.19272248781E+03  0.22815187996E+03  0.30180860769E+03  0.00000000000E+00 0. -1.
         -1    1    6    6    0  503 -0.10464127371E+03  0.27969015621E+03  0.19937378634E+03  0.35906306733E+03  0.00000000000E+00 0.  1.
<mgrwt>
<rscale>  0 0.15441336E+04</rscale>
<asrwt>0</asrwt>
<pdfrwt beam="1">  1        1 0.17404976E+00 0.15441336E+04</pdfrwt>
<pdfrwt beam="2">  1       -2 0.81060557E-01 0.15441336E+04</pdfrwt>
<totfact> 0.13623733E+01</totfact>
</mgrwt>
</event>
<event>
12    4  0.4447853E-008  0.2815031E+04  0.7818608E-02  0.8298617E-01
         -4   -1    0    0    0  501 -0.00000000000E+00  0.00000000000E+00  0.11191836255E+04  0.11191836255E+04  0.00000000000E+00 0.  1.
          3   -1    0    0  501    0  0.00000000000E+00 -0.00000000000E+00 -0.17701295006E+04  0.17701295006E+04  0.00000000000E+00 0. -1.
        -24    2    1    2    0    0  0.84617750592E+03 -0.26913615601E+02 -0.12562963176E+04  0.15171161581E+04  0.81365135335E+02 0.  0.
        254    2    1    2    0    0 -0.84617750592E+03  0.26913615601E+02  0.60535044251E+03  0.13721969680E+04  0.89427884152E+03 0.  0.
         23    2    4    4    0    0 -0.53610671819E+03 -0.38040348123E+03  0.52170192218E+03  0.84500693838E+03  0.98724913165E+02 0.  0.
         23    2    4    4    0    0 -0.31007078773E+03  0.40731709683E+03  0.83648520329E+02  0.52719002958E+03  0.94239808770E+02 0.  0.
          1    1    3    3  502    0  0.77188902181E+03 -0.17078684635E+02 -0.11015803091E+04  0.13452076125E+04  0.00000000000E+00 0. -1.
         -2    1    3    3    0  502  0.74288484110E+02 -0.98349309659E+01 -0.15471600853E+03  0.17190854555E+03  0.00000000000E+00 0.  1.
         11    1    5    5    0    0 -0.11334504805E+03 -0.73723401009E+02  0.60077144477E+02  0.14795777459E+03  0.00000000000E+00 0. -1.
        -11    1    5    5    0    0 -0.42276167013E+03 -0.30668008022E+03  0.46162477770E+03  0.69704916378E+03  0.00000000000E+00 0.  1.
          1    1    6    6  503    0 -0.10830966297E+03  0.98619522296E+02  0.57895714252E+02  0.15750779980E+03  0.00000000000E+00 0. -1.
         -1    1    6    6    0  503 -0.20176112476E+03  0.30869757454E+03  0.25752806077E+02  0.36968222977E+03  0.00000000000E+00 0.  1.
<mgrwt>
<rscale>  0 0.28150310E+04</rscale>
<asrwt>0</asrwt>
<pdfrwt beam="1">  1        3 0.27232761E+00 0.28150310E+04</pdfrwt>
<pdfrwt beam="2">  1       -4 0.17218210E+00 0.28150310E+04</pdfrwt>
<totfact> 0.22278575E-02</totfact>
</mgrwt>
</event>
<event>
12    4  0.4280696E-008  0.1904623E+04  0.7818608E-02  0.8652559E-01
          1   -1    0    0  501    0  0.00000000000E+00  0.00000000000E+00  0.21254092996E+04  0.21254092996E+04  0.00000000000E+00 0. -1.
         -2   -1    0    0    0  501 -0.00000000000E+00 -0.00000000000E+00 -0.42669305017E+03  0.42669305017E+03  0.00000000000E+00 0.  1.
        -24    2    1    2    0    0 -0.22026168655E+03 -0.15639762617E+03 -0.25863450851E+03  0.38199119527E+03  0.77781978880E+02 0.  0.
        254    2    1    2    0    0  0.22026168655E+03  0.15639762617E+03  0.19573507579E+04  0.21701111545E+04  0.89732101573E+03 0.  0.
         23    2    4    4    0    0  0.35858398770E+03 -0.27476327310E+03  0.11582267004E+04  0.12465382562E+04  0.91056037783E+02 0.  0.
         23    2    4    4    0    0 -0.13832230116E+03  0.43116089927E+03  0.79912405751E+03  0.92357289834E+03  0.96720521109E+02 0.  0.
          1    1    3    3  502    0 -0.29787187932E+02  0.54381193733E+01 -0.19099733891E+02  0.35800133267E+02  0.00000000000E+00 0. -1.
         -2    1    3    3    0  502 -0.19047449861E+03 -0.16183574554E+03 -0.23953477462E+03  0.34619106200E+03  0.00000000000E+00 0.  1.
         11    1    5    5    0    0 -0.56330117244E+01 -0.49074752986E+01  0.16218442111E+02  0.17856427397E+02  0.00000000000E+00 0. -1.
        -11    1    5    5    0    0  0.36421699943E+03 -0.26985579780E+03  0.11420082583E+04  0.12286818288E+04  0.00000000000E+00 0.  1.
          1    1    6    6  503    0 -0.14185713622E+02  0.19508316519E+03  0.31326166216E+03  0.36931225920E+03  0.00000000000E+00 0. -1.
         -1    1    6    6    0  503 -0.12413658753E+03  0.23607773407E+03  0.48586239535E+03  0.55426063915E+03  0.00000000000E+00 0.  1.
<mgrwt>
<rscale>  0 0.19046232E+04</rscale>
<asrwt>0</asrwt>
<pdfrwt beam="1">  1        1 0.32698604E+00 0.19046232E+04</pdfrwt>
<pdfrwt beam="2">  1       -2 0.65645086E-01 0.19046232E+04</pdfrwt>
<totfact> 0.42995261E+00</totfact>
</mgrwt>
</event>
<event>
12    4  0.4280696E-008  0.2417290E+04  0.7818608E-02  0.8433059E-01
          1   -1    0    0  501    0  0.00000000000E+00  0.00000000000E+00  0.86630346203E+03  0.86630346203E+03  0.00000000000E+00 0. -1.
         -2   -1    0    0    0  501 -0.00000000000E+00 -0.00000000000E+00 -0.16862720707E+04  0.16862720707E+04  0.00000000000E+00 0.  1.
        -24    2    1    2    0    0 -0.95059840294E+01 -0.30087363173E+03 -0.14139829637E+04  0.14477734887E+04  0.78006069499E+02 0.  0.
        254    2    1    2    0    0  0.95059840294E+01  0.30087363173E+03  0.59401435503E+03  0.11048020440E+04  0.88154364416E+03 0.  0.
         23    2    4    4    0    0  0.37822883591E+03  0.98672118542E+02  0.53778969040E+03  0.67092496437E+03  0.90162727514E+02 0.  0.
         23    2    4    4    0    0 -0.36872285188E+03  0.20220151319E+03  0.56224664627E+02  0.43387707967E+03  0.90808115946E+02 0.  0.
          3    1    3    3  502    0  0.16714101095E+02 -0.22644449310E+03 -0.92479984015E+03  0.95226635663E+03  0.00000000000E+00 0. -1.
         -4    1    3    3    0  502 -0.26220085124E+02 -0.74429138629E+02 -0.48918312359E+03  0.49550713208E+03  0.00000000000E+00 0.  1.
         11    1    5    5    0    0  0.26618479890E+03  0.88060584925E+02  0.44049598103E+03  0.52215488419E+03  0.00000000000E+00 0. -1.
        -11    1    5    5    0    0  0.11204403701E+03  0.10611533617E+02  0.97293709369E+02  0.14877008018E+03  0.00000000000E+00 0.  1.
          1    1    6    6  503    0 -0.14490920012E+03  0.92499311531E+02 -0.20377414984E+02  0.17311856618E+03  0.00000000000E+00 0. -1.
         -1    1    6    6    0  503 -0.22381365175E+03  0.10970220166E+03  0.76602079610E+02  0.26075851349E+03  0.00000000000E+00 0.  1.
<mgrwt>
<rscale>  0 0.24172905E+04</rscale>
<asrwt>0</asrwt>
<pdfrwt beam="1">  1        1 0.13327746E+00 0.24172905E+04</pdfrwt>
<pdfrwt beam="2">  1       -2 0.25942647E+00 0.24172905E+04</pdfrwt>
<totfact> 0.85622368E-01</totfact>
</mgrwt>
</event>
<event>
12    4  0.4280696E-008  0.2473686E+04  0.7818608E-02  0.8412420E-01
         -2   -1    0    0    0  501 -0.00000000000E+00  0.00000000000E+00  0.14288665280E+04  0.14288665280E+04  0.00000000000E+00 0.  1.
          1   -1    0    0  501    0  0.00000000000E+00 -0.00000000000E+00 -0.10706254450E+04  0.10706254450E+04  0.00000000000E+00 0. -1.
        -24    2    1    2    0    0 -0.14231437171E+03 -0.26630456728E+03  0.11964607941E+04  0.12368035551E+04  0.83624751563E+02 0.  0.
        254    2    1    2    0    0  0.14231437171E+03  0.26630456728E+03 -0.83821971115E+03  0.12626884178E+04  0.89476156233E+03 0.  0.
         23    2    4    4    0    0  0.38085275755E+03  0.34928296145E+03 -0.84318126509E+03  0.99390464349E+03  0.99218871443E+02 0.  0.
         23    2    4    4    0    0 -0.23853838585E+03 -0.82978394167E+02  0.49615539393E+01  0.26878377435E+03  0.91837491880E+02 0.  0.
          3    1    3    3  502    0 -0.30804582440E+01 -0.70338186775E+02  0.21059642899E+03  0.22205360985E+03  0.00000000000E+00 0. -1.
         -4    1    3    3    0  502 -0.13923391346E+03 -0.19596638051E+03  0.98586436515E+03  0.10147499453E+04  0.00000000000E+00 0.  1.
         11    1    5    5    0    0  0.12301847029E+03  0.16607266198E+03 -0.38810458434E+03  0.43970312880E+03  0.00000000000E+00 0. -1.
        -11    1    5    5    0    0  0.25783428726E+03  0.18321029947E+03 -0.45507668075E+03  0.55420151469E+03  0.00000000000E+00 0.  1.
          3    1    6    6  503    0 -0.11961501291E+02 -0.34937074897E+02  0.42221308116E+01  0.37168576837E+02  0.00000000000E+00 0. -1.
         -3    1    6    6    0  503 -0.22657688455E+03 -0.48041319271E+02  0.73942312765E+00  0.23161519751E+03  0.00000000000E+00 0.  1.
<mgrwt>
<rscale>  0 0.24736862E+04</rscale>
<asrwt>0</asrwt>
<pdfrwt beam="1">  1        1 0.16471161E+00 0.24736862E+04</pdfrwt>
<pdfrwt beam="2">  1       -2 0.21982562E+00 0.24736862E+04</pdfrwt>
<totfact> 0.10327607E+00</totfact>
</mgrwt>
</event>
<event>
12    4  0.4280696E-008  0.2096300E+04  0.7818608E-02  0.8562875E-01
          1   -1    0    0  501    0  0.00000000000E+00  0.00000000000E+00  0.12072465366E+04  0.12072465366E+04  0.00000000000E+00 0. -1.
         -2   -1    0    0    0  501 -0.00000000000E+00 -0.00000000000E+00 -0.91001999835E+03  0.91001999835E+03  0.00000000000E+00 0.  1.
        -24    2    1    2    0    0  0.55854212225E+03 -0.17278915284E+03  0.75311027385E+03  0.95674459185E+03  0.79747951651E+02 0.  0.
        254    2    1    2    0    0 -0.55854212225E+03  0.17278915284E+03 -0.45588373557E+03  0.11605219431E+04  0.89283582279E+03 0.  0.
         23    2    4    4    0    0 -0.17286858459E+03 -0.35056387138E+03 -0.10212604334E+03  0.41435772023E+03  0.92108719048E+02 0.  0.
         23    2    4    4    0    0 -0.38567353766E+03  0.52335302423E+03 -0.35375769223E+03  0.74616422290E+03  0.94731605628E+02 0.  0.
          1    1    3    3  502    0  0.20599374618E+03 -0.87260433697E+02  0.33951169925E+03  0.40659070413E+03  0.00000000000E+00 0. -1.
         -2    1    3    3    0  502  0.35254837607E+03 -0.85528719147E+02  0.41359857459E+03  0.55015388772E+03  0.00000000000E+00 0.  1.
         11    1    5    5    0    0 -0.17934747443E+02 -0.10401290929E+03 -0.56169220548E+02  0.11956304530E+03  0.00000000000E+00 0. -1.
        -11    1    5    5    0    0 -0.15493383715E+03 -0.24655096210E+03 -0.45956822793E+02  0.29479467493E+03  0.00000000000E+00 0.  1.
          2    1    6    6  503    0 -0.32147421692E+03  0.45683216823E+03 -0.26603687864E+03  0.61872200775E+03  0.00000000000E+00 0. -1.
         -2    1    6    6    0  503 -0.64199320742E+02  0.66520855994E+02 -0.87720813589E+02  0.12744221515E+03  0.00000000000E+00 0.  1.
<mgrwt>
<rscale>  0 0.20963001E+04</rscale>
<asrwt>0</asrwt>
<pdfrwt beam="1">  1        1 0.18573024E+00 0.20963001E+04</pdfrwt>
<pdfrwt beam="2">  1       -2 0.14000308E+00 0.20963001E+04</pdfrwt>
<totfact> 0.30596049E+00</totfact>
</mgrwt>
</event>
<event>
12    4  0.4280696E-008  0.1259622E+04  0.7818608E-02  0.9062213E-01
          1   -1    0    0  501    0  0.00000000000E+00  0.00000000000E+00  0.27809989240E+03  0.27809989240E+03  0.00000000000E+00 0. -1.
         -2   -1    0    0    0  501 -0.00000000000E+00 -0.00000000000E+00 -0.14263281757E+04  0.14263281757E+04  0.00000000000E+00 0.  1.
        -24    2    1    2    0    0  0.22303794595E+03 -0.17422335771E+03 -0.41888086113E+03  0.51188238849E+03  0.80390920651E+02 0.  0.
        254    2    1    2    0    0 -0.22303794595E+03  0.17422335771E+03 -0.72934742216E+03  0.11925456796E+04  0.90006545984E+03 0.  0.
         23    2    4    4    0    0  0.11780370296E+03 -0.48727907918E+02 -0.75802306199E+03  0.77432009823E+03  0.93383781152E+02 0.  0.
         23    2    4    4    0    0 -0.34084164891E+03  0.22295126563E+03  0.28675639826E+02  0.41822558136E+03  0.90609315798E+02 0.  0.
          3    1    3    3  502    0  0.12369592424E+02  0.11318311368E+01 -0.14527226331E+01  0.12505929054E+02  0.00000000000E+00 0. -1.
         -4    1    3    3    0  502  0.21066835352E+03 -0.17535518885E+03 -0.41742813850E+03  0.49937645944E+03  0.00000000000E+00 0.  1.
         11    1    5    5    0    0  0.12823773398E+03 -0.49712937643E+02 -0.74507079538E+03  0.75765875083E+03  0.00000000000E+00 0.  1.
        -11    1    5    5    0    0 -0.10434031022E+02  0.98502972460E+00 -0.12952266609E+02  0.16661347402E+02  0.00000000000E+00 0. -1.
          3    1    6    6  503    0 -0.74639147487E+02  0.73837386933E+02 -0.26198499783E+02  0.10820962729E+03  0.00000000000E+00 0. -1.
         -3    1    6    6    0  503 -0.26620250142E+03  0.14911387870E+03  0.54874139609E+02  0.31001595408E+03  0.00000000000E+00 0.  1.
<mgrwt>
<rscale>  0 0.12596217E+04</rscale>
<asrwt>0</asrwt>
<pdfrwt beam="1">  1        1 0.42784599E-01 0.12596217E+04</pdfrwt>
<pdfrwt beam="2">  1       -2 0.21943510E+00 0.12596217E+04</pdfrwt>
<totfact> 0.82955359E+00</totfact>
</mgrwt>
</event>
<event>
12    4  0.4280696E-008  0.1806501E+04  0.7818608E-02  0.8702850E-01
         -2   -1    0    0    0  501 -0.00000000000E+00  0.00000000000E+00  0.10691876204E+04  0.10691876204E+04  0.00000000000E+00 0.  1.
          1   -1    0    0  501    0  0.00000000000E+00 -0.00000000000E+00 -0.76306643721E+03  0.76306643721E+03  0.00000000000E+00 0. -1.
        -24    2    1    2    0    0 -0.49281928100E+03 -0.21965599237E+03  0.53065037337E+03  0.76118696344E+03  0.81830164679E+02 0.  0.
        254    2    1    2    0    0  0.49281928100E+03  0.21965599237E+03 -0.22452919021E+03  0.10710670941E+04  0.89758106274E+03 0.  0.
         23    2    4    4    0    0  0.31228284238E+03 -0.17647340221E+03  0.22931137595E+03  0.43545945304E+03  0.91530283355E+02 0.  0.
         23    2    4    4    0    0  0.18053643862E+03  0.39612939458E+03 -0.45384056616E+03  0.63560764110E+03  0.92270856774E+02 0.  0.
          1    1    3    3  502    0 -0.14402610984E+03 -0.10518756392E+03  0.16214928927E+03  0.24104011270E+03  0.00000000000E+00 0. -1.
         -2    1    3    3    0  502 -0.34879317115E+03 -0.11446842846E+03  0.36850108410E+03  0.52014685074E+03  0.00000000000E+00 0.  1.
         11    1    5    5    0    0  0.21076623618E+02 -0.41425894264E+02  0.47913412070E+02  0.66753455603E+02  0.00000000000E+00 0. -1.
        -11    1    5    5    0    0  0.29120621876E+03 -0.13504750795E+03  0.18139796388E+03  0.36870599744E+03  0.00000000000E+00 0.  1.
          3    1    6    6  503    0 -0.32341335852E+00  0.49430569147E+02 -0.25505900752E+02  0.55624066154E+02  0.00000000000E+00 0. -1.
         -3    1    6    6    0  503  0.18085985198E+03  0.34669882544E+03 -0.42833466541E+03  0.57998357494E+03  0.00000000000E+00 0.  1.
<mgrwt>
<rscale>  0 0.18065007E+04</rscale>
<asrwt>0</asrwt>
<pdfrwt beam="1">  1        1 0.11739484E+00 0.18065007E+04</pdfrwt>
<pdfrwt beam="2">  1       -2 0.16449040E+00 0.18065007E+04</pdfrwt>
<totfact> 0.45956567E+00</totfact>
</mgrwt>
</event>
<event>
12    4  0.4280696E-008  0.1550816E+04  0.7818608E-02  0.8851346E-01
          1   -1    0    0  501    0  0.00000000000E+00  0.00000000000E+00  0.14658368296E+04  0.14658368296E+04  0.00000000000E+00 0. -1.
         -2   -1    0    0    0  501 -0.00000000000E+00 -0.00000000000E+00 -0.41018065560E+03  0.41018065560E+03  0.00000000000E+00 0.  1.
        -24    2    1    2    0    0  0.33338808916E+03  0.36912882805E+03  0.20855504399E+03  0.54539658651E+03  0.80984693062E+02 0.  0.
        254    2    1    2    0    0 -0.33338808916E+03 -0.36912882805E+03  0.84710112997E+03  0.13306208987E+04  0.89753436806E+03 0.  0.
         23    2    4    4    0    0 -0.21985071620E+03  0.15493211650E+03  0.71831992200E+03  0.77179009401E+03  0.85662948413E+02 0.  0.
         23    2    4    4    0    0 -0.11353737296E+03 -0.52406094455E+03  0.12878120797E+03  0.55883080464E+03  0.90424886146E+02 0.  0.
          1    1    3    3  502    0  0.58132996680E+02  0.63828909581E+02  0.71466618648E+02  0.11207610174E+03  0.00000000000E+00 0. -1.
         -2    1    3    3    0  502  0.27525509248E+03  0.30529991847E+03  0.13708842534E+03  0.43332048477E+03  0.00000000000E+00 0.  1.
         11    1    5    5    0    0 -0.17225717372E+03  0.91588870034E+02  0.58534227645E+03  0.61699808396E+03  0.00000000000E+00 0.  1.
        -11    1    5    5    0    0 -0.47593542485E+02  0.63343246462E+02  0.13297764555E+03  0.15479201005E+03  0.00000000000E+00 0. -1.
          2    1    6    6  503    0 -0.96630524485E+02 -0.48148643038E+03  0.14190609596E+03  0.51117901069E+03  0.00000000000E+00 0. -1.
         -2    1    6    6    0  503 -0.16906848475E+02 -0.42574514166E+02 -0.13124887992E+02  0.47651793949E+02  0.00000000000E+00 0.  1.
<mgrwt>
<rscale>  0 0.15508164E+04</rscale>
<asrwt>0</asrwt>
<pdfrwt beam="1">  1        1 0.22551336E+00 0.15508164E+04</pdfrwt>
<pdfrwt beam="2">  1       -2 0.63104717E-01 0.15508164E+04</pdfrwt>
<totfact> 0.13586528E+01</totfact>
</mgrwt>
</event>
<event>
12    4  0.4280696E-008  0.1405658E+04  0.7818608E-02  0.8949733E-01
          1   -1    0    0  501    0  0.00000000000E+00  0.00000000000E+00  0.15575126129E+04  0.15575126129E+04  0.00000000000E+00 0. -1.
         -2   -1    0    0    0  501 -0.00000000000E+00 -0.00000000000E+00 -0.31715233343E+03  0.31715233343E+03  0.00000000000E+00 0.  1.
        -24    2    1    2    0    0 -0.68708333140E+01  0.15884024154E+03 -0.13505015580E+03  0.22349674074E+03  0.80217316447E+02 0.  0.
        254    2    1    2    0    0  0.68708333140E+01 -0.15884024154E+03  0.13754104353E+04  0.16511682056E+04  0.89962500354E+03 0.  0.
         23    2    4    4    0    0  0.23930241827E+03 -0.79889601979E+02  0.18685347361E+02  0.26923917095E+03  0.92155266132E+02 0.  0.
         23    2    4    4    0    0 -0.23243158496E+03 -0.78950639556E+02  0.13567250879E+04  0.13819290346E+04  0.93633580630E+02 0.  0.
          1    1    3    3  502    0  0.26740714993E+02  0.15830811832E+02 -0.26439453828E+02  0.40801043618E+02  0.00000000000E+00 0. -1.
         -2    1    3    3    0  502 -0.33611548307E+02  0.14300942970E+03 -0.10861070197E+03  0.18269569712E+03  0.00000000000E+00 0.  1.
         11    1    5    5    0    0  0.13873362377E+03 -0.55804039315E+02  0.55449353932E+02  0.15948586150E+03  0.00000000000E+00 0.  1.
        -11    1    5    5    0    0  0.10056879450E+03 -0.24085562664E+02 -0.36764006571E+02  0.10975330945E+03  0.00000000000E+00 0. -1.
          2    1    6    6  503    0 -0.20174307826E+03 -0.28706260870E+02  0.10385648261E+04  0.10583672411E+04  0.00000000000E+00 0. -1.
         -2    1    6    6    0  503 -0.30688506694E+02 -0.50244378686E+02  0.31816026179E+03  0.32356179351E+03  0.00000000000E+00 0.  1.
<mgrwt>
<rscale>  0 0.14056582E+04</rscale>
<asrwt>0</asrwt>
<pdfrwt beam="1">  1        1 0.23961732E+00 0.14056582E+04</pdfrwt>
<pdfrwt beam="2">  1       -2 0.48792667E-01 0.14056582E+04</pdfrwt>
<totfact> 0.20305690E+01</totfact>
</mgrwt>
</event>
<event>
12    4  0.4280696E-008  0.2292066E+04  0.7818608E-02  0.8481056E-01
          1   -1    0    0  501    0  0.00000000000E+00  0.00000000000E+00  0.15926773943E+04  0.15926773943E+04  0.00000000000E+00 0. -1.
         -2   -1    0    0    0  501 -0.00000000000E+00 -0.00000000000E+00 -0.82464413143E+03  0.82464413143E+03  0.00000000000E+00 0.  1.
        -24    2    1    2    0    0  0.18736840063E+02  0.96517034690E+03  0.29637620162E+03  0.10130269966E+04  0.80498293375E+02 0.  0.
        254    2    1    2    0    0 -0.18736840063E+02 -0.96517034690E+03  0.47165706122E+03  0.14042945291E+04  0.90425542485E+03 0.  0.
         23    2    4    4    0    0 -0.37742509676E+03 -0.36716939061E+03 -0.38074212828E+02  0.53588489363E+03  0.91977760743E+02 0.  0.
         23    2    4    4    0    0  0.35868825669E+03 -0.59800095629E+03  0.50973127404E+03  0.86840963548E+03  0.89704593242E+02 0.  0.
          1    1    3    3  502    0 -0.14541340032E+02  0.35040404822E+02  0.13399348652E+02  0.40234600586E+02  0.00000000000E+00 0. -1.
         -2    1    3    3    0  502  0.33278180095E+02  0.93012994208E+03  0.28297685297E+03  0.97279239601E+03  0.00000000000E+00 0.  1.
         11    1    5    5    0    0 -0.90831646443E+01 -0.23007099617E+02  0.15102538193E+02  0.28981324549E+02  0.00000000000E+00 0. -1.
        -11    1    5    5    0    0 -0.36834193211E+03 -0.34416229100E+03 -0.53176751021E+02  0.50690356908E+03  0.00000000000E+00 0.  1.
          3    1    6    6  503    0  0.13849318703E+02 -0.76878891992E+02  0.52846851606E+02  0.94313081739E+02  0.00000000000E+00 0. -1.
         -3    1    6    6    0  503  0.34483893799E+03 -0.52112206429E+03  0.45688442244E+03  0.77409655374E+03  0.00000000000E+00 0.  1.
<mgrwt>
<rscale>  0 0.22920664E+04</rscale>
<asrwt>0</asrwt>
<pdfrwt beam="1">  1        1 0.24502729E+00 0.22920664E+04</pdfrwt>
<pdfrwt beam="2">  1       -2 0.12686833E+00 0.22920664E+04</pdfrwt>
<totfact> 0.20710983E+00</totfact>
</mgrwt>
</event>
<event>
12    4  0.4280696E-008  0.2384448E+04  0.7818608E-02  0.8445349E-01
          1   -1    0    0  501    0  0.00000000000E+00  0.00000000000E+00  0.92666218552E+03  0.92666218552E+03  0.00000000000E+00 0. -1.
         -2   -1    0    0    0  501 -0.00000000000E+00 -0.00000000000E+00 -0.15338908495E+04  0.15338908495E+04  0.00000000000E+00 0.  1.
        -24    2    1    2    0    0 -0.90748298879E+02 -0.91492914149E+03  0.21136340075E+03  0.94629161418E+03  0.73910379448E+02 0.  0.
        254    2    1    2    0    0  0.90748298879E+02  0.91492914149E+03 -0.81859206473E+03  0.15142614209E+04  0.88179594836E+03 0.  0.
         23    2    4    4    0    0 -0.38012150089E+02  0.71934943991E+03 -0.97724226239E+03  0.12174508784E+04  0.90970664361E+02 0.  0.
         23    2    4    4    0    0  0.12876044897E+03  0.19557970158E+03  0.15865019765E+03  0.29681054241E+03  0.89977441520E+02 0.  0.
          3    1    3    3  502    0 -0.26752139518E+02 -0.24955867186E+03  0.24259373021E+02  0.25215813461E+03  0.00000000000E+00 0. -1.
         -4    1    3    3    0  502 -0.63996159361E+02 -0.66537046963E+03  0.18710402773E+03  0.69413347957E+03  0.00000000000E+00 0.  1.
         11    1    5    5    0    0 -0.82928962940E+01  0.58794638411E+03 -0.83786894522E+03  0.10236083685E+04  0.00000000000E+00 0. -1.
        -11    1    5    5    0    0 -0.29719253795E+02  0.13140305580E+03 -0.13937331717E+03  0.19384250994E+03  0.00000000000E+00 0.  1.
          1    1    6    6  503    0  0.73844504932E+02  0.16956198275E+03  0.91817665586E+02  0.20648186510E+03  0.00000000000E+00 0. -1.
         -1    1    6    6    0  503  0.54915944036E+02  0.26017718838E+02  0.66832532064E+02  0.90328677312E+02  0.00000000000E+00 0.  1.
<mgrwt>
<rscale>  0 0.23844485E+04</rscale>
<asrwt>0</asrwt>
<pdfrwt beam="1">  1        1 0.14256342E+00 0.23844485E+04</pdfrwt>
<pdfrwt beam="2">  1       -2 0.23598320E+00 0.23844485E+04</pdfrwt>
<totfact> 0.10682026E+00</totfact>
</mgrwt>
</event>
<event>
12    4  0.4280696E-008  0.1473560E+04  0.7818608E-02  0.8902228E-01
         -2   -1    0    0    0  501 -0.00000000000E+00  0.00000000000E+00  0.11476022850E+04  0.11476022850E+04  0.00000000000E+00 0.  1.
          1   -1    0    0  501    0  0.00000000000E+00 -0.00000000000E+00 -0.47302491674E+03  0.47302491674E+03  0.00000000000E+00 0. -1.
        -24    2    1    2    0    0  0.61272712495E+01 -0.25108221306E+03  0.60359106081E+03  0.65872538934E+03  0.80728859130E+02 0.  0.
        254    2    1    2    0    0 -0.61272712495E+01  0.25108221306E+03  0.70986307416E+02  0.96190181238E+03  0.92581651511E+03 0.  0.
         23    2    4    4    0    0  0.25894943558E+03  0.26765777378E+02  0.39275771941E+03  0.47972383598E+03  0.90028415681E+02 0.  0.
         23    2    4    4    0    0 -0.26507670683E+03  0.22431643568E+03 -0.32177141199E+03  0.48217797639E+03  0.91516312891E+02 0.  0.
          3    1    3    3  502    0 -0.24959440542E+02 -0.13332350824E+03  0.24535685734E+03  0.28035356064E+03  0.00000000000E+00 0. -1.
         -4    1    3    3    0  502  0.31086711792E+02 -0.11775870481E+03  0.35823420348E+03  0.37837182869E+03  0.00000000000E+00 0.  1.
         11    1    5    5    0    0  0.53742213060E+02  0.35413120547E+02  0.13964125620E+03  0.15375953630E+03  0.00000000000E+00 0. -1.
        -11    1    5    5    0    0  0.20520722252E+03 -0.86473431689E+01  0.25311646321E+03  0.32596429968E+03  0.00000000000E+00 0.  1.
          3    1    6    6  503    0 -0.34367846408E+01 -0.75004778781E+01 -0.14882343130E+02  0.17016250883E+02  0.00000000000E+00 0. -1.
         -3    1    6    6    0  503 -0.26163992219E+03  0.23181691356E+03 -0.30688906886E+03  0.46516172551E+03  0.00000000000E+00 0.  1.
<mgrwt>
<rscale>  0 0.14735596E+04</rscale>
<asrwt>0</asrwt>
<pdfrwt beam="1">  1        1 0.72773065E-01 0.14735596E+04</pdfrwt>
<pdfrwt beam="2">  1       -2 0.17655420E+00 0.14735596E+04</pdfrwt>
<totfact> 0.77618635E+00</totfact>
</mgrwt>
</event>
<event>
12    4  0.4280696E-008  0.3503800E+04  0.7818608E-02  0.8112890E-01
         -2   -1    0    0    0  501 -0.00000000000E+00  0.00000000000E+00  0.15546133831E+04  0.15546133831E+04  0.00000000000E+00 0.  1.
          1   -1    0    0  501    0  0.00000000000E+00 -0.00000000000E+00 -0.19742232444E+04  0.19742232444E+04  0.00000000000E+00 0. -1.
        -24    2    1    2    0    0  0.10357058866E+04 -0.89634456158E+03  0.65321514065E+03  0.15197449130E+04  0.82548919062E+02 0.  0.
        254    2    1    2    0    0 -0.10357058866E+04  0.89634456158E+03 -0.10728250020E+04  0.20090917145E+04  0.10046769510E+04 0.  0.
         23    2    4    4    0    0  0.10757910372E+02 -0.16654827426E+03 -0.44873335907E+02  0.19535833805E+03  0.91088987666E+02 0.  0.
         23    2    4    4    0    0 -0.10464637970E+04  0.10628928358E+04 -0.10279516660E+04  0.18137333765E+04  0.90091477511E+02 0.  0.
          3    1    3    3  502    0  0.30494245289E+03 -0.29909973003E+03  0.17334930388E+03  0.46097779690E+03  0.00000000000E+00 0. -1.
         -4    1    3    3    0  502  0.73076343373E+03 -0.59724483154E+03  0.47986583677E+03  0.10587671161E+04  0.00000000000E+00 0.  1.
         11    1    5    5    0    0  0.29678782588E+02 -0.16757604705E+03 -0.34118630785E+02  0.17357028158E+03  0.00000000000E+00 0. -1.
        -11    1    5    5    0    0 -0.18920872216E+02  0.10277727900E+01 -0.10754705122E+02  0.21788056466E+02  0.00000000000E+00 0.  1.
          1    1    6    6  503    0 -0.43141601454E+03  0.46569292564E+03 -0.48629884655E+03  0.79967258722E+03  0.00000000000E+00 0. -1.
         -1    1    6    6    0  503 -0.61504778245E+03  0.59719991020E+03 -0.54165281950E+03  0.10140607893E+04  0.00000000000E+00 0.  1.
<mgrwt>
<rscale>  0 0.35038002E+04</rscale>
<asrwt>0</asrwt>
<pdfrwt beam="1">  1        1 0.30372665E+00 0.35038002E+04</pdfrwt>
<pdfrwt beam="2">  1       -2 0.23917129E+00 0.35038002E+04</pdfrwt>
<totfact> 0.16675531E-01</totfact>
</mgrwt>
</event>
<event>
12    4  0.4280696E-008  0.1515048E+04  0.7818608E-02  0.8874507E-01
         -2   -1    0    0    0  501 -0.00000000000E+00  0.00000000000E+00  0.73687812441E+03  0.73687812441E+03  0.00000000000E+00 0.  1.
          1   -1    0    0  501    0  0.00000000000E+00 -0.00000000000E+00 -0.77874871228E+03  0.77874871228E+03  0.00000000000E+00 0. -1.
        -24    2    1    2    0    0  0.78899957694E+02  0.38999733067E+03 -0.25843138238E+03  0.48105712492E+03  0.79410684325E+02 0.  0.
        254    2    1    2    0    0 -0.78899957694E+02 -0.38999733067E+03  0.21656079451E+03  0.10345697118E+04  0.93011439595E+03 0.  0.
         23    2    4    4    0    0 -0.27917018755E+03 -0.14313885572E+03 -0.28585753087E+03  0.43314859329E+03  0.86478033538E+02 0.  0.
         23    2    4    4    0    0  0.20027022985E+03 -0.24685847495E+03  0.50241832538E+03  0.60142111848E+03  0.90751950166E+02 0.  0.
          3    1    3    3  502    0  0.93575161747E+02  0.31847974077E+03 -0.22310409394E+03  0.39995136318E+03  0.00000000000E+00 0. -1.
         -4    1    3    3    0  502 -0.14675204053E+02  0.71517589897E+02 -0.35327288437E+02  0.81105761737E+02  0.00000000000E+00 0.  1.
         11    1    5    5    0    0 -0.27968512915E+03 -0.13462899405E+03 -0.25677610649E+03  0.40284327768E+03  0.00000000000E+00 0. -1.
        -11    1    5    5    0    0  0.51494160355E+00 -0.85098616691E+01 -0.29081424379E+02  0.30305315613E+02  0.00000000000E+00 0.  1.
          3    1    6    6  503    0  0.19435778801E+03 -0.20260036031E+03  0.46491581410E+03  0.54311009009E+03  0.00000000000E+00 0. -1.
         -3    1    6    6    0  503  0.59124418452E+01 -0.44258114637E+02  0.37502511281E+02  0.58311028393E+02  0.00000000000E+00 0.  1.
<mgrwt>
<rscale>  0 0.15150484E+04</rscale>
<asrwt>0</asrwt>
<pdfrwt beam="1">  1        1 0.11980749E+00 0.15150484E+04</pdfrwt>
<pdfrwt beam="2">  1       -2 0.11336586E+00 0.15150484E+04</pdfrwt>
<totfact> 0.11926982E+01</totfact>
</mgrwt>
</event>
<event>
12    4  0.4280696E-008  0.1344810E+04  0.7818608E-02  0.8994766E-01
          1   -1    0    0  501    0  0.00000000000E+00  0.00000000000E+00  0.18244400549E+04  0.18244400549E+04  0.00000000000E+00 0. -1.
         -2   -1    0    0    0  501 -0.00000000000E+00 -0.00000000000E+00 -0.24781755859E+03  0.24781755859E+03  0.00000000000E+00 0.  1.
        -24    2    1    2    0    0 -0.31946422038E+03 -0.71255144755E+02  0.64227856373E+03  0.72620757094E+03  0.87869214782E+02 0.  0.
        254    2    1    2    0    0  0.31946422038E+03  0.71255144755E+02  0.93434393257E+03  0.13460500425E+04  0.91198544338E+03 0.  0.
         23    2    4    4    0    0  0.50151905407E+03  0.34797028837E+03  0.67300560337E+03  0.91383594992E+03  0.97749260928E+02 0.  0.
         23    2    4    4    0    0 -0.18205483370E+03 -0.27671514361E+03  0.26133832920E+03  0.43221409262E+03  0.93787346563E+02 0.  0.
          3    1    3    3  502    0 -0.10901507814E+03 -0.63598889584E+02  0.28081303463E+03  0.30787183443E+03  0.00000000000E+00 0. -1.
         -4    1    3    3    0  502 -0.21044914223E+03 -0.76562551713E+01  0.36146552910E+03  0.41833573651E+03  0.00000000000E+00 0.  1.
         11    1    5    5    0    0  0.38333916635E+03  0.30222503773E+03  0.49383005800E+03  0.69437527035E+03  0.00000000000E+00 0.  1.
        -11    1    5    5    0    0  0.11817988772E+03  0.45745250635E+02  0.17917554537E+03  0.21946067957E+03  0.00000000000E+00 0. -1.
          4    1    6    6  503    0 -0.60383378814E+02 -0.42079526797E+02  0.25222259980E+02  0.77801037338E+02  0.00000000000E+00 0. -1.
         -4    1    6    6    0  503 -0.12167145488E+03 -0.23463561682E+03  0.23611606922E+03  0.35441305528E+03  0.00000000000E+00 0.  1.
<mgrwt>
<rscale>  0 0.13448097E+04</rscale>
<asrwt>0</asrwt>
<pdfrwt beam="1">  1        1 0.28068308E+00 0.13448097E+04</pdfrwt>
<pdfrwt beam="2">  1       -2 0.38125779E-01 0.13448097E+04</pdfrwt>
<totfact> 0.21901029E+01</totfact>
</mgrwt>
</event>
<event>
12    4  0.4280696E-008  0.2088541E+04  0.7818608E-02  0.8566308E-01
          1   -1    0    0  501    0  0.00000000000E+00  0.00000000000E+00  0.94387190975E+03  0.94387190975E+03  0.00000000000E+00 0. -1.
         -2   -1    0    0    0  501 -0.00000000000E+00 -0.00000000000E+00 -0.11553480142E+04  0.11553480142E+04  0.00000000000E+00 0.  1.
        -24    2    1    2    0    0  0.24697315054E+03  0.16995065099E+03  0.71274398472E+03  0.77699861823E+03  0.76445432185E+02 0.  0.
        254    2    1    2    0    0 -0.24697315054E+03 -0.16995065099E+03 -0.92422008920E+03  0.13222213058E+04  0.89677614109E+03 0.  0.
         23    2    4    4    0    0  0.20302626240E+02  0.15476563328E+03  0.10245704657E+03  0.20924055229E+03  0.94443445794E+02 0.  0.
         23    2    4    4    0    0 -0.26727577678E+03 -0.32471628427E+03 -0.10266771358E+04  0.11129807535E+04  0.88222504770E+02 0.  0.
          1    1    3    3  502    0  0.19006940244E+03  0.15274208454E+03  0.50289972764E+03  0.55889592788E+03  0.00000000000E+00 0. -1.
         -2    1    3    3    0  502  0.56903748104E+02  0.17208566452E+02  0.20984425708E+03  0.21810269035E+03  0.00000000000E+00 0.  1.
         11    1    5    5    0    0 -0.27228059228E+02  0.10871140268E+03  0.85387380125E+02  0.14089194784E+03  0.00000000000E+00 0. -1.
        -11    1    5    5    0    0  0.47530685468E+02  0.46054230597E+02  0.17069666441E+02  0.68348604443E+02  0.00000000000E+00 0.  1.
          3    1    6    6  503    0 -0.56073322487E+02 -0.12683458806E+03 -0.28866852940E+03  0.32025107352E+03  0.00000000000E+00 0. -1.
         -3    1    6    6    0  503 -0.21120245429E+03 -0.19788169621E+03 -0.73800860637E+03  0.79272967995E+03  0.00000000000E+00 0.  1.
<mgrwt>
<rscale>  0 0.20885407E+04</rscale>
<asrwt>0</asrwt>
<pdfrwt beam="1">  1        1 0.14521106E+00 0.20885407E+04</pdfrwt>
<pdfrwt beam="2">  1       -2 0.17774585E+00 0.20885407E+04</pdfrwt>
<totfact> 0.25423141E+00</totfact>
</mgrwt>
</event>
<event>
12    4  0.4280696E-008  0.2010481E+04  0.7818608E-02  0.8601736E-01
         -2   -1    0    0    0  501 -0.00000000000E+00  0.00000000000E+00  0.80798557936E+03  0.80798557936E+03  0.00000000000E+00 0.  1.
          1   -1    0    0  501    0  0.00000000000E+00 -0.00000000000E+00 -0.12506515553E+04  0.12506515553E+04  0.00000000000E+00 0. -1.
        -24    2    1    2    0    0  0.21968454211E+03 -0.69410265152E+03  0.16085218825E+03  0.75052461866E+03  0.85871927118E+02 0.  0.
        254    2    1    2    0    0 -0.21968454211E+03  0.69410265152E+03 -0.60351816423E+03  0.13081125160E+04  0.90381656942E+03 0.  0.
         23    2    4    4    0    0  0.90520660924E+02 -0.17620922318E+03 -0.19874608810E+03  0.29540320784E+03  0.92300418601E+02 0.  0.
         23    2    4    4    0    0 -0.31020520304E+03  0.87031187470E+03 -0.40477207612E+03  0.10127093082E+04  0.89831409128E+02 0.  0.
          1    1    3    3  502    0  0.12367198603E+03 -0.25266053631E+03  0.59161234602E+02  0.28745809854E+03  0.00000000000E+00 0. -1.
         -2    1    3    3    0  502  0.96012556087E+02 -0.44144211521E+03  0.10169095364E+03  0.46306652012E+03  0.00000000000E+00 0.  1.
         11    1    5    5    0    0  0.69479034117E+02 -0.18233356537E+03 -0.18815620635E+03  0.27106387298E+03  0.00000000000E+00 0. -1.
        -11    1    5    5    0    0  0.21041626807E+02  0.61243421894E+01 -0.10589881751E+02  0.24339334860E+02  0.00000000000E+00 0.  1.
          3    1    6    6  503    0 -0.30307056334E+03  0.84871262810E+03 -0.40883636362E+03  0.98960197235E+03  0.00000000000E+00 0. -1.
         -3    1    6    6    0  503 -0.71346396991E+01  0.21599246596E+02  0.40642874920E+01  0.23107335847E+02  0.00000000000E+00 0.  1.
<mgrwt>
<rscale>  0 0.20104810E+04</rscale>
<asrwt>0</asrwt>
<pdfrwt beam="1">  1        1 0.19240793E+00 0.20104810E+04</pdfrwt>
<pdfrwt beam="2">  1       -2 0.12430547E+00 0.20104810E+04</pdfrwt>
<totfact> 0.38809910E+00</totfact>
</mgrwt>
</event>
<event>
12    4  0.4280696E-008  0.1068783E+04  0.7818608E-02  0.9236163E-01
          1   -1    0    0  501    0  0.00000000000E+00  0.00000000000E+00  0.20783029458E+04  0.20783029458E+04  0.00000000000E+00 0. -1.
         -2   -1    0    0    0  501 -0.00000000000E+00 -0.00000000000E+00 -0.13740750631E+03  0.13740750631E+03  0.00000000000E+00 0.  1.
        -24    2    1    2    0    0  0.80222649755E+02 -0.63322818369E+02  0.50302574803E+03  0.52202359085E+03  0.95017226643E+02 0.  0.
        254    2    1    2    0    0 -0.80222649755E+02  0.63322818369E+02  0.14378696915E+04  0.16936868613E+04  0.88919091400E+03 0.  0.
         23    2    4    4    0    0 -0.81675508756E+02 -0.97241573449E+02 -0.72583292560E+02  0.17201188649E+03  0.90514873907E+02 0.  0.
         23    2    4    4    0    0  0.14528590016E+01  0.16056439182E+03  0.15104529841E+04  0.15216749748E+04  0.90793596506E+02 0.  0.
          1    1    3    3  502    0  0.46843228231E+02 -0.69868517374E+02  0.45763589584E+03  0.46530260145E+03  0.00000000000E+00 0. -1.
         -2    1    3    3    0  502  0.33379421524E+02  0.65456990051E+01  0.45389852191E+02  0.56720989401E+02  0.00000000000E+00 0.  1.
         11    1    5    5    0    0 -0.99795424375E+02 -0.80192250211E+02 -0.72511095531E+02  0.14713185479E+03  0.00000000000E+00 0.  1.
        -11    1    5    5    0    0  0.18119915618E+02 -0.17049323239E+02 -0.72197028835E-01  0.24880031699E+02  0.00000000000E+00 0. -1.
          4    1    6    6  503    0  0.19819959385E+02  0.16680394938E+02  0.84971553332E+02  0.88832602354E+02  0.00000000000E+00 0. -1.
         -4    1    6    6    0  503 -0.18367100384E+02  0.14388399688E+03  0.14254814307E+04  0.14328423725E+04  0.00000000000E+00 0.  1.
<mgrwt>
<rscale>  0 0.10687833E+04</rscale>
<asrwt>0</asrwt>
<pdfrwt beam="1">  1        1 0.31973889E+00 0.10687833E+04</pdfrwt>
<pdfrwt beam="2">  1       -2 0.21139618E-01 0.10687833E+04</pdfrwt>
<totfact> 0.44980372E+01</totfact>
</mgrwt>
</event>
<event>
12    4  0.4280696E-008  0.1366169E+04  0.7818608E-02  0.8978678E-01
         -2   -1    0    0    0  501 -0.00000000000E+00  0.00000000000E+00  0.62781374266E+03  0.62781374266E+03  0.00000000000E+00 0.  1.
          1   -1    0    0  501    0  0.00000000000E+00 -0.00000000000E+00 -0.74322132752E+03  0.74322132752E+03  0.00000000000E+00 0. -1.
        -24    2    1    2    0    0  0.26044493291E+03 -0.25463115011E+03 -0.14287679665E+03  0.39964132034E+03  0.81429848466E+02 0.  0.
        254    2    1    2    0    0 -0.26044493291E+03  0.25463115011E+03  0.27469211789E+02  0.97139374984E+03  0.90010147981E+03 0.  0.
         23    2    4    4    0    0  0.66045296053E+02 -0.20917239088E+03  0.25956050885E+03  0.35181128765E+03  0.91018976747E+02 0.  0.
         23    2    4    4    0    0 -0.32649022896E+03  0.46380354098E+03 -0.23209129706E+03  0.61958246219E+03  0.91139799437E+02 0.  0.
          3    1    3    3  502    0  0.26410547765E+03 -0.25372684577E+03 -0.13397208272E+03  0.38997119706E+03  0.00000000000E+00 0. -1.
         -4    1    3    3    0  502 -0.36605447348E+01 -0.90430433509E+00 -0.89047139359E+01  0.96701232860E+01  0.00000000000E+00 0.  1.
         11    1    5    5    0    0  0.84512564320E+02 -0.19477901021E+03  0.21934264085E+03  0.30527435275E+03  0.00000000000E+00 0.  1.
        -11    1    5    5    0    0 -0.18467268267E+02 -0.14393380664E+02  0.40217867997E+02  0.46536934906E+02  0.00000000000E+00 0. -1.
          3    1    6    6  503    0 -0.80865312794E+01 -0.26290460385E+01  0.11205863931E+01  0.85766884676E+01  0.00000000000E+00 0. -1.
         -3    1    6    6    0  503 -0.31840369769E+03  0.46643258702E+03 -0.23321188346E+03  0.61100577372E+03  0.00000000000E+00 0.  1.
<mgrwt>
<rscale>  0 0.13661692E+04</rscale>
<asrwt>0</asrwt>
<pdfrwt beam="1">  1        1 0.11434174E+00 0.13661692E+04</pdfrwt>
<pdfrwt beam="2">  1       -2 0.96586730E-01 0.13661692E+04</pdfrwt>
<totfact> 0.19070980E+01</totfact>
</mgrwt>
</event>
<event>
12    4  0.4280696E-008  0.1563483E+04  0.7818608E-02  0.8843301E-01
         -2   -1    0    0    0  501 -0.00000000000E+00  0.00000000000E+00  0.39444696780E+03  0.39444696780E+03  0.00000000000E+00 0.  1.
          1   -1    0    0  501    0  0.00000000000E+00 -0.00000000000E+00 -0.15493075935E+04  0.15493075935E+04  0.00000000000E+00 0. -1.
        -24    2    1    2    0    0  0.15240545526E+03 -0.46877526219E+02  0.22801947819E+03  0.28746039236E+03  0.72219592069E+02 0.  0.
        254    2    1    2    0    0 -0.15240545526E+03  0.46877526219E+02 -0.13828801039E+04  0.16562941689E+04  0.89751215426E+03 0.  0.
         23    2    4    4    0    0  0.56961320974E+02 -0.12565630152E+03  0.67088995957E+02  0.17835264816E+03  0.90965023659E+02 0.  0.
         23    2    4    4    0    0 -0.20936677624E+03  0.17253382774E+03 -0.14499690998E+04  0.14779415207E+04  0.91095442306E+02 0.  0.
          3    1    3    3  502    0  0.10488970864E+02  0.34528818153E+00 -0.41495168578E+01  0.11285221481E+02  0.00000000000E+00 0. -1.
         -4    1    3    3    0  502  0.14191648440E+03 -0.47222814400E+02  0.23216899505E+03  0.27617517087E+03  0.00000000000E+00 0.  1.
         11    1    5    5    0    0  0.10132354801E+02 -0.13727777747E+02  0.53629780661E+02  0.56278502729E+02  0.00000000000E+00 0. -1.
        -11    1    5    5    0    0  0.46828966174E+02 -0.11192852377E+03  0.13459215295E+02  0.12207414543E+03  0.00000000000E+00 0.  1.
          1    1    6    6  503    0 -0.21045628484E+03  0.13809637612E+03 -0.12792545654E+04  0.13037847599E+04  0.00000000000E+00 0. -1.
         -1    1    6    6    0  503  0.10895086034E+01  0.34437451621E+02 -0.17071453440E+03  0.17415676088E+03  0.00000000000E+00 0.  1.
<mgrwt>
<rscale>  0 0.15634829E+04</rscale>
<asrwt>0</asrwt>
<pdfrwt beam="1">  1        1 0.23835502E+00 0.15634829E+04</pdfrwt>
<pdfrwt beam="2">  1       -2 0.60684149E-01 0.15634829E+04</pdfrwt>
<totfact> 0.12912991E+01</totfact>
</mgrwt>
</event>
<event>
12    4  0.4280696E-008  0.1524809E+04  0.7818608E-02  0.8868121E-01
         -2   -1    0    0    0  501 -0.00000000000E+00  0.00000000000E+00  0.49838351874E+03  0.49838351874E+03  0.00000000000E+00 0.  1.
          1   -1    0    0  501    0  0.00000000000E+00 -0.00000000000E+00 -0.11662912943E+04  0.11662912943E+04  0.00000000000E+00 0. -1.
        -24    2    1    2    0    0 -0.15708022355E+02  0.17443739957E+03  0.28292491174E+03  0.34194889152E+03  0.78786993808E+02 0.  0.
        254    2    1    2    0    0  0.15708022355E+02 -0.17443739957E+03 -0.95083268728E+03  0.13227259215E+04  0.90268816092E+03 0.  0.
         23    2    4    4    0    0 -0.12727706558E+03 -0.97490774501E+02 -0.10804722221E+04  0.10964361298E+04  0.95121298521E+02 0.  0.
         23    2    4    4    0    0  0.14298508793E+03 -0.76946625068E+02  0.12963953484E+03  0.22628979170E+03  0.89638955549E+02 0.  0.
          1    1    3    3  502    0  0.98735078790E+00  0.40855009161E+02  0.13897301133E+03  0.14485718661E+03  0.00000000000E+00 0. -1.
         -2    1    3    3    0  502 -0.16695373143E+02  0.13358239041E+03  0.14395190041E+03  0.19709170491E+03  0.00000000000E+00 0.  1.
         11    1    5    5    0    0 -0.84395705210E+02 -0.57738505438E+01 -0.44910353485E+03  0.45700104751E+03  0.00000000000E+00 0. -1.
        -11    1    5    5    0    0 -0.42881360369E+02 -0.91716923958E+02 -0.63136868726E+03  0.63943508229E+03  0.00000000000E+00 0.  1.
          4    1    6    6  503    0  0.10921087454E+03 -0.92635464999E+02  0.79377510227E+02  0.16373494930E+03  0.00000000000E+00 0. -1.
         -4    1    6    6    0  503  0.33774213391E+02  0.15688839931E+02  0.50262024612E+02  0.62554842392E+02  0.00000000000E+00 0.  1.
<mgrwt>
<rscale>  0 0.15248087E+04</rscale>
<asrwt>0</asrwt>
<pdfrwt beam="1">  1        1 0.17942943E+00 0.15248087E+04</pdfrwt>
<pdfrwt beam="2">  1       -2 0.76674388E-01 0.15248087E+04</pdfrwt>
<totfact> 0.14562567E+01</totfact>
</mgrwt>
</event>
<event>
12    4  0.4280696E-008  0.1122955E+04  0.7818608E-02  0.9183103E-01
         -2   -1    0    0    0  501 -0.00000000000E+00  0.00000000000E+00  0.91569746625E+02  0.91569746625E+02  0.00000000000E+00 0.  1.
          1   -1    0    0  501    0  0.00000000000E+00 -0.00000000000E+00 -0.34428057609E+04  0.34428057609E+04  0.00000000000E+00 0. -1.
        -24    2    1    2    0    0  0.11655988744E+03 -0.64736898045E+02 -0.19733535584E+03  0.25105644257E+03  0.79441937038E+02 0.  0.
        254    2    1    2    0    0 -0.11655988744E+03  0.64736898045E+02 -0.31539006584E+04  0.32833190650E+04  0.90294941483E+03 0.  0.
         23    2    4    4    0    0  0.54866254628E+02 -0.32846478957E+03 -0.60929618318E+03  0.70125866883E+03  0.98094127728E+02 0.  0.
         23    2    4    4    0    0 -0.17142614206E+03  0.39320168761E+03 -0.25446044753E+04  0.25820603961E+04  0.89607278956E+02 0.  0.
          3    1    3    3  502    0  0.11014207385E+03 -0.34346254531E+02 -0.18416355085E+03  0.21731809656E+03  0.00000000000E+00 0. -1.
         -4    1    3    3    0  502  0.64178135877E+01 -0.30390643514E+02 -0.13171805000E+02  0.33738346009E+02  0.00000000000E+00 0.  1.
         11    1    5    5    0    0 -0.47445139783E+01 -0.23128582150E+03 -0.37329527105E+03  0.43916397966E+03  0.00000000000E+00 0.  1.
        -11    1    5    5    0    0  0.59610768607E+02 -0.97178968065E+02 -0.23600091213E+03  0.26209468917E+03  0.00000000000E+00 0. -1.
          1    1    6    6  503    0 -0.11194408320E+03  0.27737558171E+03 -0.15140891639E+04  0.15433517705E+04  0.00000000000E+00 0. -1.
         -1    1    6    6    0  503 -0.59482058867E+02  0.11582610590E+03 -0.10305153113E+04  0.10387086257E+04  0.00000000000E+00 0.  1.
<mgrwt>
<rscale>  0 0.11229548E+04</rscale>
<asrwt>0</asrwt>
<pdfrwt beam="1">  1        1 0.52966248E+00 0.11229548E+04</pdfrwt>
<pdfrwt beam="2">  1       -2 0.14087652E-01 0.11229548E+04</pdfrwt>
<totfact> 0.96949279E+00</totfact>
</mgrwt>
</event>
<event>
12    4  0.4280696E-008  0.1259499E+04  0.7818608E-02  0.9062314E-01
         -2   -1    0    0    0  501 -0.00000000000E+00  0.00000000000E+00  0.33205841289E+03  0.33205841289E+03  0.00000000000E+00 0.  1.
          1   -1    0    0  501    0  0.00000000000E+00 -0.00000000000E+00 -0.11943204749E+04  0.11943204749E+04  0.00000000000E+00 0. -1.
        -24    2    1    2    0    0 -0.23713626099E+03  0.23489218932E+03 -0.67574720638E+02  0.34970533037E+03  0.79495461149E+02 0.  0.
        254    2    1    2    0    0  0.23713626099E+03 -0.23489218932E+03 -0.79468734134E+03  0.11766735574E+04  0.80101482090E+03 0.  0.
         23    2    4    4    0    0  0.77260481770E+01 -0.30959675088E+03  0.17572469162E+02  0.32458644206E+03  0.95591457353E+02 0.  0.
         23    2    4    4    0    0  0.22941021281E+03  0.74704561565E+02 -0.81225981050E+03  0.85208711533E+03  0.89870101252E+02 0.  0.
          1    1    3    3  502    0 -0.84820026737E+02  0.38217179585E+02 -0.32179018601E+02  0.98440230542E+02  0.00000000000E+00 0. -1.
         -2    1    3    3    0  502 -0.15231623425E+03  0.19667500973E+03 -0.35395702036E+02  0.25126509983E+03  0.00000000000E+00 0.  1.
         11    1    5    5    0    0 -0.91894490857E+01 -0.30642830623E+03  0.19944043000E+02  0.30721412351E+03  0.00000000000E+00 0. -1.
        -11    1    5    5    0    0  0.16915497263E+02 -0.31684446484E+01 -0.23715738377E+01  0.17372318544E+02  0.00000000000E+00 0.  1.
          1    1    6    6  503    0  0.13850623354E+03  0.21834322880E+02 -0.58662363888E+03  0.60314841298E+03  0.00000000000E+00 0. -1.
         -1    1    6    6    0  503  0.90903979273E+02  0.52870238685E+02 -0.22563617162E+03  0.24893870236E+03  0.00000000000E+00 0.  1.
<mgrwt>
<rscale>  0 0.12594986E+04</rscale>
<asrwt>0</asrwt>
<pdfrwt beam="1">  1        1 0.18374162E+00 0.12594986E+04</pdfrwt>
<pdfrwt beam="2">  1       -2 0.51085909E-01 0.12594986E+04</pdfrwt>
<totfact> 0.33763752E+01</totfact>
</mgrwt>
</event>
<event>
12    4  0.4280696E-008  0.2018050E+04  0.7818608E-02  0.8598228E-01
          1   -1    0    0  501    0  0.00000000000E+00  0.00000000000E+00  0.16445592006E+04  0.16445592006E+04  0.00000000000E+00 0. -1.
         -2   -1    0    0    0  501 -0.00000000000E+00 -0.00000000000E+00 -0.61909057564E+03  0.61909057564E+03  0.00000000000E+00 0.  1.
        -24    2    1    2    0    0 -0.20792710951E+03 -0.55076970658E+03 -0.20278887395E+03  0.62790406452E+03  0.80989099871E+02 0.  0.
        254    2    1    2    0    0  0.20792710951E+03  0.55076970658E+03  0.12282574989E+04  0.16357457117E+04  0.90579611240E+03 0.  0.
         23    2    4    4    0    0 -0.17199017863E+03  0.45817496432E+03  0.20791093170E+03  0.53921796413E+03  0.89577552133E+02 0.  0.
         23    2    4    4    0    0  0.37991728814E+03  0.92594742254E+02  0.10203465672E+04  0.10965277476E+04  0.91405972924E+02 0.  0.
          1    1    3    3  502    0 -0.77450976985E+02 -0.30242016735E+03 -0.12931801545E+03  0.33790495791E+03  0.00000000000E+00 0. -1.
         -2    1    3    3    0  502 -0.13047613252E+03 -0.24834953922E+03 -0.73470858497E+02  0.28999910662E+03  0.00000000000E+00 0.  1.
         11    1    5    5    0    0 -0.57478937577E+02  0.21290673660E+03  0.13619639200E+03  0.25919599524E+03  0.00000000000E+00 0. -1.
        -11    1    5    5    0    0 -0.11451124105E+03  0.24526822773E+03  0.71714539695E+02  0.28002196889E+03  0.00000000000E+00 0.  1.
          3    1    6    6  503    0  0.85649567300E+02 -0.14436887030E+02  0.18354637597E+03  0.20306044473E+03  0.00000000000E+00 0. -1.
         -3    1    6    6    0  503  0.29426772084E+03  0.10703162928E+03  0.83680019127E+03  0.89346730287E+03  0.00000000000E+00 0.  1.
<mgrwt>
<rscale>  0 0.20180497E+04</rscale>
<asrwt>0</asrwt>
<pdfrwt beam="1">  1        1 0.25300911E+00 0.20180497E+04</pdfrwt>
<pdfrwt beam="2">  1       -2 0.95244705E-01 0.20180497E+04</pdfrwt>
<totfact> 0.39177029E+00</totfact>
</mgrwt>
</event>
<event>
12    4  0.4280696E-008  0.1421712E+04  0.7818608E-02  0.8938250E-01
          1   -1    0    0  501    0  0.00000000000E+00  0.00000000000E+00  0.56243345503E+03  0.56243345503E+03  0.00000000000E+00 0. -1.
         -2   -1    0    0    0  501 -0.00000000000E+00 -0.00000000000E+00 -0.89844690848E+03  0.89844690848E+03  0.00000000000E+00 0.  1.
        -24    2    1    2    0    0  0.19148714175E+03 -0.34002405770E+03 -0.26278706037E+03  0.47689588880E+03  0.78031816497E+02 0.  0.
        254    2    1    2    0    0 -0.19148714175E+03  0.34002405770E+03 -0.73226393081E+02  0.98398447471E+03  0.90032197383E+03 0.  0.
         23    2    4    4    0    0  0.29847748639E+03  0.35939754145E+03  0.17777404779E+02  0.47720420033E+03  0.95668228813E+02 0.  0.
         23    2    4    4    0    0 -0.48996462814E+03 -0.19373483753E+02 -0.91003797860E+02  0.50678027439E+03  0.90021589553E+02 0.  0.
          1    1    3    3  502    0  0.10050379602E+02 -0.75562562667E+02 -0.37442526741E+02  0.84927344334E+02  0.00000000000E+00 0. -1.
         -2    1    3    3    0  502  0.18143676214E+03 -0.26446149503E+03 -0.22534453363E+03  0.39196854446E+03  0.00000000000E+00 0.  1.
         11    1    5    5    0    0  0.52672442052E+02  0.17013712202E+02  0.40247951210E+01  0.55498211957E+02  0.00000000000E+00 0. -1.
        -11    1    5    5    0    0  0.24580504434E+03  0.34238382925E+03  0.13752609658E+02  0.42170598837E+03  0.00000000000E+00 0.  1.
          3    1    6    6  503    0 -0.35468565438E+03 -0.31663824130E+02 -0.28444220067E+02  0.35723043660E+03  0.00000000000E+00 0. -1.
         -3    1    6    6    0  503 -0.13527897375E+03  0.12290340377E+02 -0.62559577793E+02  0.14954983778E+03  0.00000000000E+00 0.  1.
<mgrwt>
<rscale>  0 0.14217125E+04</rscale>
<asrwt>0</asrwt>
<pdfrwt beam="1">  1        1 0.86528226E-01 0.14217125E+04</pdfrwt>
<pdfrwt beam="2">  1       -2 0.13822260E+00 0.14217125E+04</pdfrwt>
<totfact> 0.11874972E+01</totfact>
</mgrwt>
</event>
<event>
12    4  0.4280696E-008  0.2374852E+04  0.7818608E-02  0.8448979E-01
          1   -1    0    0  501    0  0.00000000000E+00  0.00000000000E+00  0.22447810335E+04  0.22447810335E+04  0.00000000000E+00 0. -1.
         -2   -1    0    0    0  501 -0.00000000000E+00 -0.00000000000E+00 -0.62811481944E+03  0.62811481944E+03  0.00000000000E+00 0.  1.
        -24    2    1    2    0    0 -0.98585033322E+03  0.24258964309E+03  0.82423223904E+03  0.13104492980E+04  0.84663830772E+02 0.  0.
        254    2    1    2    0    0  0.98585033322E+03 -0.24258964309E+03  0.79243397505E+03  0.15624465550E+04  0.88461122420E+03 0.  0.
         23    2    4    4    0    0  0.87288571575E+03 -0.50899842871E+03  0.73730325525E+03  0.12542589688E+04  0.92415352110E+02 0.  0.
         23    2    4    4    0    0  0.11296461747E+03  0.26640878562E+03  0.55130719807E+02  0.30818758625E+03  0.90584469961E+02 0.  0.
          3    1    3    3  502    0 -0.11752665350E+03  0.14493468813E+02  0.12767928924E+03  0.17413952975E+03  0.00000000000E+00 0. -1.
         -4    1    3    3    0  502 -0.86832367973E+03  0.22809617427E+03  0.69655294981E+03  0.11363097682E+04  0.00000000000E+00 0.  1.
         11    1    5    5    0    0  0.60351838317E+03 -0.30173977967E+03  0.49600674447E+03  0.83743896734E+03  0.00000000000E+00 0. -1.
        -11    1    5    5    0    0  0.26936733258E+03 -0.20725864904E+03  0.24129651078E+03  0.41682000141E+03  0.00000000000E+00 0.  1.
          3    1    6    6  503    0  0.11556670200E+03  0.17604705066E+03  0.55526396031E+02  0.21778752791E+03  0.00000000000E+00 0. -1.
         -3    1    6    6    0  503 -0.26020845255E+01  0.90361734962E+02 -0.39567622431E+00  0.90400058346E+02  0.00000000000E+00 0.  1.
<mgrwt>
<rscale>  0 0.23748518E+04</rscale>
<asrwt>0</asrwt>
<pdfrwt beam="1">  1        1 0.34535092E+00 0.23748518E+04</pdfrwt>
<pdfrwt beam="2">  1       -2 0.96633051E-01 0.23748518E+04</pdfrwt>
<totfact> 0.14348481E+00</totfact>
</mgrwt>
</event>
<event>
12    4  0.4280696E-008  0.1103287E+04  0.7818608E-02  0.9201994E-01
         -2   -1    0    0    0  501 -0.00000000000E+00  0.00000000000E+00  0.21034511457E+03  0.21034511457E+03  0.00000000000E+00 0.  1.
          1   -1    0    0  501    0  0.00000000000E+00 -0.00000000000E+00 -0.14467213193E+04  0.14467213193E+04  0.00000000000E+00 0. -1.
        -24    2    1    2    0    0 -0.13972664436E+03  0.28395853540E+02 -0.34295061627E+03  0.38049347798E+03  0.82645640831E+02 0.  0.
        254    2    1    2    0    0  0.13972664436E+03 -0.28395853540E+02 -0.89342558847E+03  0.12765729559E+04  0.90061055399E+03 0.  0.
         23    2    4    4    0    0  0.23119319687E+03 -0.12605983743E+02  0.10469331156E+03  0.26975255609E+03  0.90534782965E+02 0.  0.
         23    2    4    4    0    0 -0.91466552508E+02 -0.15789869797E+02 -0.99811890002E+03  0.10068203998E+04  0.93970892658E+02 0.  0.
          1    1    3    3  502    0 -0.86448616207E+02  0.86526887182E+01 -0.29033255164E+03  0.30305316829E+03  0.00000000000E+00 0. -1.
         -2    1    3    3    0  502 -0.53278028153E+02  0.19743164821E+02 -0.52618064624E+02  0.77440309696E+02  0.00000000000E+00 0.  1.
         11    1    5    5    0    0  0.19582365531E+03 -0.25645674221E+02  0.11766017933E+03  0.22988806490E+03  0.00000000000E+00 0.  1.
        -11    1    5    5    0    0  0.35369541554E+02  0.13039690479E+02 -0.12966867768E+02  0.39864491182E+02  0.00000000000E+00 0. -1.
          4    1    6    6  503    0  0.83997897049E+01 -0.18317482610E+02 -0.57845761103E+02  0.61255356613E+02  0.00000000000E+00 0. -1.
         -4    1    6    6    0  503 -0.99866342213E+02  0.25276128136E+01 -0.94027313892E+03  0.94556504319E+03  0.00000000000E+00 0.  1.
<mgrwt>
<rscale>  0 0.11032874E+04</rscale>
<asrwt>0</asrwt>
<pdfrwt beam="1">  1        1 0.22257252E+00 0.11032874E+04</pdfrwt>
<pdfrwt beam="2">  1       -2 0.32360786E-01 0.11032874E+04</pdfrwt>
<totfact> 0.55378694E+01</totfact>
</mgrwt>
</event>
<event>
12    4  0.4280696E-008  0.1634919E+04  0.7818608E-02  0.8799378E-01
         -2   -1    0    0    0  501 -0.00000000000E+00  0.00000000000E+00  0.40325644239E+03  0.40325644239E+03  0.00000000000E+00 0.  1.
          1   -1    0    0  501    0  0.00000000000E+00 -0.00000000000E+00 -0.16571095246E+04  0.16571095246E+04  0.00000000000E+00 0. -1.
        -24    2    1    2    0    0  0.13113885287E+03  0.47560219177E+03 -0.70136548775E+02  0.50474038081E+03  0.80304875311E+02 0.  0.
        254    2    1    2    0    0 -0.13113885287E+03 -0.47560219177E+03 -0.11837165335E+04  0.15556255862E+04  0.88056305245E+03 0.  0.
         23    2    4    4    0    0 -0.20804869351E+03 -0.50971292800E+03 -0.12803080938E+04  0.13965961559E+04  0.90556500534E+02 0.  0.
         23    2    4    4    0    0  0.76909840643E+02  0.34110736232E+02  0.96591560330E+02  0.15902943032E+03  0.94243112565E+02 0.  0.
          3    1    3    3  502    0  0.20793026065E+02  0.25574883897E+02 -0.20298063973E+02  0.38709637306E+02  0.00000000000E+00 0. -1.
         -4    1    3    3    0  502  0.11034582680E+03  0.45002730788E+03 -0.49838484803E+02  0.46603074351E+03  0.00000000000E+00 0.  1.
         11    1    5    5    0    0 -0.37698045280E+02 -0.70074931940E+02 -0.27381323036E+03  0.28514088417E+03  0.00000000000E+00 0. -1.
        -11    1    5    5    0    0 -0.17035064823E+03 -0.43963799606E+03 -0.10064948634E+04  0.11114552717E+04  0.00000000000E+00 0.  1.
          4    1    6    6  503    0  0.48284070286E+02  0.32316030351E+02 -0.17580850437E+00  0.58100844828E+02  0.00000000000E+00 0. -1.
         -4    1    6    6    0  503  0.28625770357E+02  0.17947058808E+01  0.96767368834E+02  0.10092858549E+03  0.00000000000E+00 0.  1.
<mgrwt>
<rscale>  0 0.16349191E+04</rscale>
<asrwt>0</asrwt>
<pdfrwt beam="1">  1        1 0.25493993E+00 0.16349191E+04</pdfrwt>
<pdfrwt beam="2">  1       -2 0.62039453E-01 0.16349191E+04</pdfrwt>
<totfact> 0.10329389E+01</totfact>
</mgrwt>
</event>
<event>
12    4  0.4280696E-008  0.1650438E+04  0.7818608E-02  0.8790148E-01
         -2   -1    0    0    0  501 -0.00000000000E+00  0.00000000000E+00  0.10788861113E+04  0.10788861113E+04  0.00000000000E+00 0.  1.
          1   -1    0    0  501    0  0.00000000000E+00 -0.00000000000E+00 -0.63119363790E+03  0.63119363790E+03  0.00000000000E+00 0. -1.
        -24    2    1    2    0    0 -0.51106554044E+03  0.16208583073E+03  0.37297763688E+03  0.65756194836E+03  0.76260049597E+02 0.  0.
        254    2    1    2    0    0  0.51106554044E+03 -0.16208583073E+03  0.74714836547E+02  0.10525178009E+04  0.90263592395E+03 0.  0.
         23    2    4    4    0    0 -0.36874118969E+02 -0.42246572084E+03 -0.46798462890E+01  0.43386567724E+03  0.91545283829E+02 0.  0.
         23    2    4    4    0    0  0.54793965941E+03  0.26037989010E+03  0.79394682836E+02  0.61865212364E+03  0.91604458902E+02 0.  0.
          3    1    3    3  502    0 -0.74468476253E+02  0.18985744520E+02  0.88328520251E+02  0.11708091194E+03  0.00000000000E+00 0. -1.
         -4    1    3    3    0  502 -0.43659706419E+03  0.14310008621E+03  0.28464911663E+03  0.54048103642E+03  0.00000000000E+00 0.  1.
         11    1    5    5    0    0 -0.18547563685E+02 -0.13548526930E+03  0.40846925583E+02  0.14271910050E+03  0.00000000000E+00 0. -1.
        -11    1    5    5    0    0 -0.18326555284E+02 -0.28698045153E+03 -0.45526771872E+02  0.29114657674E+03  0.00000000000E+00 0.  1.
          1    1    6    6  503    0  0.18508543425E+03  0.41300675225E+02  0.27686772958E+02  0.19164790931E+03  0.00000000000E+00 0. -1.
         -1    1    6    6    0  503  0.36285422516E+03  0.21907921488E+03  0.51707909878E+02  0.42700421433E+03  0.00000000000E+00 0.  1.
<mgrwt>
<rscale>  0 0.16504376E+04</rscale>
<asrwt>0</asrwt>
<pdfrwt beam="1">  1        1 0.97106714E-01 0.16504376E+04</pdfrwt>
<pdfrwt beam="2">  1       -2 0.16598248E+00 0.16504376E+04</pdfrwt>
<totfact> 0.60547392E+00</totfact>
</mgrwt>
</event>
<event>
12    4  0.4280696E-008  0.3107126E+04  0.7818608E-02  0.8213785E-01
         -2   -1    0    0    0  501 -0.00000000000E+00  0.00000000000E+00  0.14900010838E+04  0.14900010838E+04  0.00000000000E+00 0.  1.
          1   -1    0    0  501    0  0.00000000000E+00 -0.00000000000E+00 -0.16198360846E+04  0.16198360846E+04  0.00000000000E+00 0. -1.
        -24    2    1    2    0    0 -0.17617240992E+03 -0.78840915749E+02  0.13480239397E+04  0.13640461271E+04  0.78744438856E+02 0.  0.
        254    2    1    2    0    0  0.17617240992E+03  0.78840915749E+02 -0.14778589405E+04  0.17457910414E+04  0.90910214170E+03 0.  0.
         23    2    4    4    0    0 -0.76115818276E+02 -0.12807879222E+03  0.50900364057E+02  0.17982211552E+03  0.86875493450E+02 0.  0.
         23    2    4    4    0    0  0.25228822820E+03  0.20691970797E+03 -0.15287593046E+04  0.15659689258E+04  0.93212390582E+02 0.  0.
          3    1    3    3  502    0 -0.92057719858E+02 -0.42699636001E+01  0.74022526662E+03  0.74593987809E+03  0.00000000000E+00 0. -1.
         -4    1    3    3    0  502 -0.84114690065E+02 -0.74570952149E+02  0.60779867312E+03  0.61810624899E+03  0.00000000000E+00 0.  1.
         11    1    5    5    0    0 -0.51595877371E+02 -0.11218433089E+02  0.20200694985E+02  0.56533670326E+02  0.00000000000E+00 0. -1.
        -11    1    5    5    0    0 -0.24519940905E+02 -0.11686035913E+03  0.30699669072E+02  0.12328844520E+03  0.00000000000E+00 0.  1.
          3    1    6    6  503    0  0.22135799210E+03  0.13697291011E+03 -0.10947584515E+04  0.11252808565E+04  0.00000000000E+00 0. -1.
         -3    1    6    6    0  503  0.30930236102E+02  0.69946797857E+02 -0.43400085305E+03  0.44068806937E+03  0.00000000000E+00 0.  1.
<mgrwt>
<rscale>  0 0.31071257E+04</rscale>
<asrwt>0</asrwt>
<pdfrwt beam="1">  1        1 0.24920555E+00 0.31071257E+04</pdfrwt>
<pdfrwt beam="2">  1       -2 0.22923094E+00 0.31071257E+04</pdfrwt>
<totfact> 0.34638459E-01</totfact>
</mgrwt>
</event>
<event>
12    4  0.4280696E-008  0.9121376E+03  0.7818608E-02  0.9410535E-01
          1   -1    0    0  501    0  0.00000000000E+00  0.00000000000E+00  0.65606342879E+03  0.65606342879E+03  0.00000000000E+00 0. -1.
         -2   -1    0    0    0  501 -0.00000000000E+00 -0.00000000000E+00 -0.31704057652E+03  0.31704057652E+03  0.00000000000E+00 0.  1.
        -24    2    1    2    0    0  0.52616143594E+01  0.30056615172E+02 -0.13753799908E+02  0.87556337592E+02  0.80906492566E+02 0.  0.
        254    2    1    2    0    0 -0.52616143594E+01 -0.30056615172E+02  0.35277665218E+03  0.88554766772E+03  0.81167248369E+03 0.  0.
         23    2    4    4    0    0  0.85627214408E+01  0.24557466634E+03 -0.15176077133E+03  0.30317121358E+03  0.92202039439E+02 0.  0.
         23    2    4    4    0    0 -0.13824335800E+02 -0.27563128152E+03  0.50453742352E+03  0.58237645414E+03  0.91872776186E+02 0.  0.
          1    1    3    3  502    0 -0.17425178645E+02 -0.15543849587E+02  0.16245523086E+02  0.28445828009E+02  0.00000000000E+00 0. -1.
         -2    1    3    3    0  502  0.22686793004E+02  0.45600464759E+02 -0.29999322994E+02  0.59110509583E+02  0.00000000000E+00 0.  1.
         11    1    5    5    0    0  0.11832627827E+02 -0.21748659911E+01 -0.17857398989E+02  0.21532018531E+02  0.00000000000E+00 0. -1.
        -11    1    5    5    0    0 -0.32699063864E+01  0.24774953233E+03 -0.13390337234E+03  0.28163919504E+03  0.00000000000E+00 0.  1.
          4    1    6    6  503    0 -0.43350266584E+02 -0.15578331724E+03  0.22777196934E+03  0.27933449046E+03  0.00000000000E+00 0.  1.
         -4    1    6    6    0  503  0.29525930784E+02 -0.11984796428E+03  0.27676545417E+03  0.30304196368E+03  0.00000000000E+00 0. -1.
<mgrwt>
<rscale>  0 0.91213755E+03</rscale>
<asrwt>0</asrwt>
<pdfrwt beam="1">  1        1 0.10093284E+00 0.91213755E+03</pdfrwt>
<pdfrwt beam="2">  1       -2 0.48775473E-01 0.91213755E+03</pdfrwt>
<totfact> 0.10548487E+02</totfact>
</mgrwt>
</event>
<event>
12    4  0.4280696E-008  0.2300185E+04  0.7818608E-02  0.8477848E-01
         -2   -1    0    0    0  501 -0.00000000000E+00  0.00000000000E+00  0.21282137408E+04  0.21282137408E+04  0.00000000000E+00 0.  1.
          1   -1    0    0  501    0  0.00000000000E+00 -0.00000000000E+00 -0.62151331129E+03  0.62151331129E+03  0.00000000000E+00 0. -1.
        -24    2    1    2    0    0  0.11829564505E+03  0.14084752488E+03  0.17795959415E+04  0.17908362620E+04  0.79378319170E+02 0.  0.
        254    2    1    2    0    0 -0.11829564505E+03 -0.14084752488E+03 -0.27289551201E+03  0.95889079003E+03  0.90064848960E+03 0.  0.
         23    2    4    4    0    0 -0.35802840035E+03 -0.38139531065E+03 -0.29119207493E+03  0.60495907249E+03  0.86809771591E+02 0.  0.
         23    2    4    4    0    0  0.23973275530E+03  0.24054778577E+03  0.18296562926E+02  0.35393171754E+03  0.97968695301E+02 0.  0.
          3    1    3    3  502    0  0.54945996502E+02  0.13639136412E+02  0.61551843304E+03  0.61811651813E+03  0.00000000000E+00 0. -1.
         -4    1    3    3    0  502  0.63349648544E+02  0.12720838846E+03  0.11640775085E+04  0.11727197439E+04  0.00000000000E+00 0.  1.
         11    1    5    5    0    0 -0.24178277909E+02 -0.37203361957E+01 -0.39350523859E+01  0.24777301333E+02  0.00000000000E+00 0. -1.
        -11    1    5    5    0    0 -0.33385012244E+03 -0.37767497445E+03 -0.28725702255E+03  0.58018177116E+03  0.00000000000E+00 0.  1.
          4    1    6    6  503    0  0.84246578441E+02  0.88111753881E+02  0.53908869312E+02  0.13329416094E+03  0.00000000000E+00 0. -1.
         -4    1    6    6    0  503  0.15548617686E+03  0.15243603189E+03 -0.35612306386E+02  0.22063755659E+03  0.00000000000E+00 0.  1.
<mgrwt>
<rscale>  0 0.23001854E+04</rscale>
<asrwt>0</asrwt>
<pdfrwt beam="1">  1        1 0.95617433E-01 0.23001854E+04</pdfrwt>
<pdfrwt beam="2">  1       -2 0.32741750E+00 0.23001854E+04</pdfrwt>
<totfact> 0.55546176E-01</totfact>
</mgrwt>
</event>
<event>
12    4  0.4280696E-008  0.1819198E+04  0.7818608E-02  0.8696156E-01
         -2   -1    0    0    0  501 -0.00000000000E+00  0.00000000000E+00  0.28437094013E+03  0.28437094013E+03  0.00000000000E+00 0.  1.
          1   -1    0    0  501    0  0.00000000000E+00 -0.00000000000E+00 -0.29094766323E+04  0.29094766323E+04  0.00000000000E+00 0. -1.
        -24    2    1    2    0    0 -0.46413555378E+02 -0.67392172661E+03 -0.11417423241E+04  0.13291122222E+04  0.81480383088E+02 0.  0.
        254    2    1    2    0    0  0.46413555378E+02  0.67392172661E+03 -0.14833633680E+04  0.18647353502E+04  0.90584012548E+03 0.  0.
         23    2    4    4    0    0  0.26170413007E+03 -0.69453038627E+02 -0.71722282332E+03  0.77196611148E+03  0.90610831096E+02 0.  0.
         23    2    4    4    0    0 -0.21529057469E+03  0.74337476524E+03 -0.76614054472E+03  0.10927692387E+04  0.90648782054E+02 0.  0.
          3    1    3    3  502    0 -0.35960280938E+02 -0.65813740988E+03 -0.11248725951E+04  0.13037547113E+04  0.00000000000E+00 0. -1.
         -4    1    3    3    0  502 -0.10453274440E+02 -0.15784316737E+02 -0.16869729006E+02  0.25357510881E+02  0.00000000000E+00 0.  1.
         11    1    5    5    0    0  0.24095893193E+03 -0.76356504088E+02 -0.69966910834E+03  0.74392767374E+03  0.00000000000E+00 0. -1.
        -11    1    5    5    0    0  0.20745198139E+02  0.69034654616E+01 -0.17553714981E+02  0.28038437739E+02  0.00000000000E+00 0.  1.
          1    1    6    6  503    0 -0.18370900874E+03  0.51607127648E+03 -0.57426327217E+03  0.79363522355E+03  0.00000000000E+00 0. -1.
         -1    1    6    6    0  503 -0.31581565951E+02  0.22730348876E+03 -0.19187727255E+03  0.29913401517E+03  0.00000000000E+00 0.  1.
<mgrwt>
<rscale>  0 0.18191983E+04</rscale>
<asrwt>0</asrwt>
<pdfrwt beam="1">  1        1 0.44761179E+00 0.18191983E+04</pdfrwt>
<pdfrwt beam="2">  1       -2 0.43749376E-01 0.18191983E+04</pdfrwt>
<totfact> 0.28583788E+00</totfact>
</mgrwt>
</event>
<event>
12    4  0.4280696E-008  0.2331090E+04  0.7818608E-02  0.8465763E-01
          1   -1    0    0  501    0  0.00000000000E+00  0.00000000000E+00  0.33823120479E+04  0.33823120479E+04  0.00000000000E+00 0. -1.
         -2   -1    0    0    0  501 -0.00000000000E+00 -0.00000000000E+00 -0.40164705376E+03  0.40164705376E+03  0.00000000000E+00 0.  1.
        -24    2    1    2    0    0  0.94967967237E+03  0.13961146151E+03  0.16814784044E+04  0.19377840400E+04  0.79085530214E+02 0.  0.
        254    2    1    2    0    0 -0.94967967237E+03 -0.13961146151E+03  0.12991865898E+04  0.18461750617E+04  0.89392042314E+03 0.  0.
         23    2    4    4    0    0 -0.29212701381E+03  0.13373149489E+03 -0.30505263585E+02  0.33504772091E+03  0.90022770757E+02 0.  0.
         23    2    4    4    0    0 -0.65755265856E+03 -0.27334295641E+03  0.13296918534E+04  0.15111273407E+04  0.91288249240E+02 0.  0.
          1    1    3    3  502    0  0.73901528780E+03  0.12991618549E+03  0.13611584481E+04  0.15542760796E+04  0.00000000000E+00 0. -1.
         -2    1    3    3    0  502  0.21066438457E+03  0.96952760175E+01  0.32031995634E+03  0.38350796046E+03  0.00000000000E+00 0.  1.
         11    1    5    5    0    0 -0.13582835987E+03  0.80838430602E+02 -0.56800444310E+02  0.16795977400E+03  0.00000000000E+00 0. -1.
        -11    1    5    5    0    0 -0.15629865394E+03  0.52893064293E+02  0.26295180725E+02  0.16708794691E+03  0.00000000000E+00 0.  1.
          2    1    6    6  503    0 -0.37944930773E+03 -0.15416185722E+03  0.85788457427E+03  0.95063852128E+03  0.00000000000E+00 0. -1.
         -2    1    6    6    0  503 -0.27810335083E+03 -0.11918109919E+03  0.47180727909E+03  0.56048881947E+03  0.00000000000E+00 0.  1.
<mgrwt>
<rscale>  0 0.23310904E+04</rscale>
<asrwt>0</asrwt>
<pdfrwt beam="1">  1        1 0.52035568E+00 0.23310904E+04</pdfrwt>
<pdfrwt beam="2">  1       -2 0.61791857E-01 0.23310904E+04</pdfrwt>
<totfact> 0.59619895E-01</totfact>
</mgrwt>
</event>
<event>
12    4  0.4280696E-008  0.1309700E+04  0.7818608E-02  0.9021908E-01
         -2   -1    0    0    0  501 -0.00000000000E+00  0.00000000000E+00  0.15563536848E+03  0.15563536848E+03  0.00000000000E+00 0.  1.
          1   -1    0    0  501    0  0.00000000000E+00 -0.00000000000E+00 -0.27553408172E+04  0.27553408172E+04  0.00000000000E+00 0. -1.
        -24    2    1    2    0    0 -0.89218605873E+02 -0.12813311215E+03 -0.13145713279E+04  0.13262235810E+04  0.79957217269E+02 0.  0.
        254    2    1    2    0    0  0.89218605873E+02  0.12813311215E+03 -0.12851341208E+04  0.15847526047E+04  0.91405309227E+03 0.  0.
         23    2    4    4    0    0 -0.75831688824E+02 -0.37212108829E+03 -0.48888889960E+03  0.62570169562E+03  0.90915930206E+02 0.  0.
         23    2    4    4    0    0  0.16505029470E+03  0.50025420044E+03 -0.79624522118E+03  0.95905090903E+03  0.90974331673E+02 0.  0.
          1    1    3    3  502    0 -0.85644885828E+02 -0.85910943683E+02 -0.72030644004E+03  0.73044993276E+03  0.00000000000E+00 0. -1.
         -2    1    3    3    0  502 -0.35737200445E+01 -0.42222168468E+02 -0.59426488786E+03  0.59577364823E+03  0.00000000000E+00 0.  1.
         11    1    5    5    0    0 -0.56465160925E+02 -0.20667998709E+03 -0.20486347846E+03  0.29643545042E+03  0.00000000000E+00 0.  1.
        -11    1    5    5    0    0 -0.19366527899E+02 -0.16544110120E+03 -0.28402542115E+03  0.32926624520E+03  0.00000000000E+00 0. -1.
          3    1    6    6  503    0  0.67986761649E+02  0.20275791962E+03 -0.24524061296E+03  0.32538582018E+03  0.00000000000E+00 0. -1.
         -3    1    6    6    0  503  0.97063533048E+02  0.29749628082E+03 -0.55100460822E+03  0.63366508885E+03  0.00000000000E+00 0.  1.
<mgrwt>
<rscale>  0 0.13096999E+04</rscale>
<asrwt>0</asrwt>
<pdfrwt beam="1">  1        1 0.42389854E+00 0.13096999E+04</pdfrwt>
<pdfrwt beam="2">  1       -2 0.23943905E-01 0.13096999E+04</pdfrwt>
<totfact> 0.12074652E+01</totfact>
</mgrwt>
</event>
<event>
12    4  0.4280696E-008  0.1675887E+04  0.7818608E-02  0.8775237E-01
          1   -1    0    0  501    0  0.00000000000E+00  0.00000000000E+00  0.79338614028E+03  0.79338614028E+03  0.00000000000E+00 0. -1.
         -2   -1    0    0    0  501 -0.00000000000E+00 -0.00000000000E+00 -0.88500376495E+03  0.88500376495E+03  0.00000000000E+00 0.  1.
        -24    2    1    2    0    0 -0.41727837853E+03  0.12209500250E+02 -0.45776078040E+03  0.62630625642E+03  0.91892750914E+02 0.  0.
        254    2    1    2    0    0  0.41727837853E+03 -0.12209500250E+02  0.36614315573E+03  0.10520836488E+04  0.89361562012E+03 0.  0.
         23    2    4    4    0    0  0.35924250899E+03 -0.25994848751E+03 -0.14389928999E+03  0.47493153006E+03  0.90689338741E+02 0.  0.
         23    2    4    4    0    0  0.58035869536E+02  0.24773898726E+03  0.51004244573E+03  0.57715211875E+03  0.90655963791E+02 0.  0.
          3    1    3    3  502    0 -0.69171647419E+02  0.82359691665E+01 -0.32915495775E+02  0.77045297436E+02  0.00000000000E+00 0. -1.
         -4    1    3    3    0  502 -0.34810673111E+03  0.39735310834E+01 -0.42484528462E+03  0.54926095898E+03  0.00000000000E+00 0.  1.
         11    1    5    5    0    0  0.88979718909E+02 -0.10749343980E+03 -0.20693277450E+02  0.14106892539E+03  0.00000000000E+00 0. -1.
        -11    1    5    5    0    0  0.27026279009E+03 -0.15245504771E+03 -0.12320601254E+03  0.33386260468E+03  0.00000000000E+00 0.  1.
          4    1    6    6  503    0  0.50534288913E+02  0.12018416645E+03  0.17244565490E+03  0.21618383870E+03  0.00000000000E+00 0. -1.
         -4    1    6    6    0  503  0.75015806233E+01  0.12755482081E+03  0.33759679082E+03  0.36096828004E+03  0.00000000000E+00 0.  1.
<mgrwt>
<rscale>  0 0.16758875E+04</rscale>
<asrwt>0</asrwt>
<pdfrwt beam="1">  1        1 0.12205941E+00 0.16758875E+04</pdfrwt>
<pdfrwt beam="2">  1       -2 0.13615443E+00 0.16758875E+04</pdfrwt>
<totfact> 0.72219949E+00</totfact>
</mgrwt>
</event>
<event>
12    4  0.4280696E-008  0.2022145E+04  0.7818608E-02  0.8596337E-01
          1   -1    0    0  501    0  0.00000000000E+00  0.00000000000E+00  0.12895748945E+04  0.12895748945E+04  0.00000000000E+00 0. -1.
         -2   -1    0    0    0  501 -0.00000000000E+00 -0.00000000000E+00 -0.79271685840E+03  0.79271685840E+03  0.00000000000E+00 0.  1.
        -24    2    1    2    0    0  0.69383427069E+03  0.40553180750E+03  0.26544585699E+03  0.85014478399E+03  0.80141179667E+02 0.  0.
        254    2    1    2    0    0 -0.69383427069E+03 -0.40553180750E+03  0.23141217915E+03  0.12321469690E+04  0.90486049443E+03 0.  0.
         23    2    4    4    0    0 -0.70255333359E+02 -0.54016471480E+03  0.20074225303E+03  0.58757921310E+03  0.90764247013E+02 0.  0.
         23    2    4    4    0    0 -0.62357893733E+03  0.13463290730E+03  0.30669926124E+02  0.64456775586E+03  0.86892098109E+02 0.  0.
          1    1    3    3  502    0  0.60679281573E+03  0.38255127495E+03  0.24307779707E+03  0.75738353204E+03  0.00000000000E+00 0. -1.
         -2    1    3    3    0  502  0.87041454964E+02  0.22980532550E+02  0.22368059918E+02  0.92761251948E+02  0.00000000000E+00 0.  1.
         11    1    5    5    0    0 -0.79750970238E+02 -0.37758862067E+03  0.17066673668E+03  0.42197217767E+03  0.00000000000E+00 0. -1.
        -11    1    5    5    0    0  0.94956368786E+01 -0.16257609413E+03  0.30075516347E+02  0.16560703543E+03  0.00000000000E+00 0.  1.
          1    1    6    6  503    0 -0.37222725123E+03  0.83515809324E+02 -0.24271521967E+02  0.38225269619E+03  0.00000000000E+00 0. -1.
         -1    1    6    6    0  503 -0.25135168610E+03  0.51117097976E+02  0.54941448091E+02  0.26231505967E+03  0.00000000000E+00 0.  1.
<mgrwt>
<rscale>  0 0.20221452E+04</rscale>
<asrwt>0</asrwt>
<pdfrwt beam="1">  1        1 0.19839614E+00 0.20221452E+04</pdfrwt>
<pdfrwt beam="2">  1       -2 0.12195644E+00 0.20221452E+04</pdfrwt>
<totfact> 0.38129257E+00</totfact>
</mgrwt>
</event>
<event>
12    4  0.4280696E-008  0.2488384E+04  0.7818608E-02  0.8407136E-01
          1   -1    0    0  501    0  0.00000000000E+00  0.00000000000E+00  0.28036967999E+04  0.28036967999E+04  0.00000000000E+00 0. -1.
         -2   -1    0    0    0  501 -0.00000000000E+00 -0.00000000000E+00 -0.55213291133E+03  0.55213291133E+03  0.00000000000E+00 0.  1.
        -24    2    1    2    0    0  0.49787639003E+03 -0.12987041122E+03 -0.30101992288E+03  0.60131434923E+03  0.78858919395E+02 0.  0.
        254    2    1    2    0    0 -0.49787639003E+03  0.12987041122E+03  0.25525838115E+04  0.27545153620E+04  0.89828923043E+03 0.  0.
         23    2    4    4    0    0 -0.49637444253E+03  0.26584496527E+03  0.73936955506E+03  0.93384831889E+03  0.91346652881E+02 0.  0.
         23    2    4    4    0    0 -0.15019474982E+01 -0.13597455405E+03  0.18132142564E+04  0.18206670431E+04  0.92688764422E+02 0.  0.
          3    1    3    3  502    0  0.10945678078E+03 -0.56373413073E+02 -0.95184806685E+02  0.15562421400E+03  0.00000000000E+00 0. -1.
         -4    1    3    3    0  502  0.38841960925E+03 -0.73496998148E+02 -0.20583511619E+03  0.44569013523E+03  0.00000000000E+00 0.  1.
         11    1    5    5    0    0 -0.35616590733E+03  0.14904117515E+03  0.46597702704E+03  0.60514627584E+03  0.00000000000E+00 0. -1.
        -11    1    5    5    0    0 -0.14020853519E+03  0.11680379011E+03  0.27339252802E+03  0.32870204305E+03  0.00000000000E+00 0.  1.
          2    1    6    6  503    0 -0.82895790268E+01 -0.43020337570E+02  0.11610864658E+04  0.11619127539E+04  0.00000000000E+00 0. -1.
         -2    1    6    6    0  503  0.67876315286E+01 -0.92954216476E+02  0.65212779062E+03  0.65875428925E+03  0.00000000000E+00 0.  1.
<mgrwt>
<rscale>  0 0.24883836E+04</rscale>
<asrwt>0</asrwt>
<pdfrwt beam="1">  1        1 0.43133796E+00 0.24883836E+04</pdfrwt>
<pdfrwt beam="2">  1       -2 0.84943526E-01 0.24883836E+04</pdfrwt>
<totfact> 0.78148721E-01</totfact>
</mgrwt>
</event>
<event>
12    4  0.4280696E-008  0.1456235E+04  0.7818608E-02  0.8914089E-01
          1   -1    0    0  501    0  0.00000000000E+00  0.00000000000E+00  0.18282102487E+04  0.18282102487E+04  0.00000000000E+00 0. -1.
         -2   -1    0    0    0  501 -0.00000000000E+00 -0.00000000000E+00 -0.28998591996E+03  0.28998591996E+03  0.00000000000E+00 0.  1.
        -24    2    1    2    0    0  0.18856086326E+03 -0.27825141419E+03  0.86642471023E+03  0.93257507470E+03  0.77623725769E+02 0.  0.
        254    2    1    2    0    0 -0.18856086326E+03  0.27825141419E+03  0.67179961847E+03  0.11856210939E+04  0.91728054724E+03 0.  0.
         23    2    4    4    0    0 -0.24469526976E+03 -0.23906149893E+03  0.31622536936E+02  0.35550875156E+03  0.91434743284E+02 0.  0.
         23    2    4    4    0    0  0.56134406506E+02  0.51731291312E+03  0.64017708154E+03  0.83011234237E+03  0.92174202172E+02 0.  0.
          3    1    3    3  502    0  0.99446002310E+02 -0.11205798647E+03  0.47546924128E+03  0.49851529476E+03  0.00000000000E+00 0. -1.
         -4    1    3    3    0  502  0.89114860946E+02 -0.16619342772E+03  0.39095546896E+03  0.43405977994E+03  0.00000000000E+00 0.  1.
         11    1    5    5    0    0 -0.31649420472E+02  0.73680790178E-01  0.14407159214E+02  0.34774379673E+02  0.00000000000E+00 0. -1.
        -11    1    5    5    0    0 -0.21304584929E+03 -0.23913517973E+03  0.17215377722E+02  0.32073437189E+03  0.00000000000E+00 0.  1.
          4    1    6    6  503    0  0.18217369467E+02  0.40418810483E+03  0.53711273416E+03  0.67245073116E+03  0.00000000000E+00 0.  1.
         -4    1    6    6    0  503  0.37917037039E+02  0.11312480829E+03  0.10306434738E+03  0.15766161121E+03  0.00000000000E+00 0. -1.
<mgrwt>
<rscale>  0 0.14562352E+04</rscale>
<asrwt>0</asrwt>
<pdfrwt beam="1">  1        1 0.28126311E+00 0.14562352E+04</pdfrwt>
<pdfrwt beam="2">  1       -2 0.44613220E-01 0.14562352E+04</pdfrwt>
<totfact> 0.15831525E+01</totfact>
</mgrwt>
</event>
<event>
12    4  0.4280696E-008  0.1470081E+04  0.7818608E-02  0.8904596E-01
          1   -1    0    0  501    0  0.00000000000E+00  0.00000000000E+00  0.53858128152E+03  0.53858128152E+03  0.00000000000E+00 0. -1.
         -2   -1    0    0    0  501 -0.00000000000E+00 -0.00000000000E+00 -0.10031625789E+04  0.10031625789E+04  0.00000000000E+00 0.  1.
        -24    2    1    2    0    0  0.27908347769E+03 -0.28150548935E+03  0.10036296487E+02  0.40444692499E+03  0.79647095562E+02 0.  0.
        254    2    1    2    0    0 -0.27908347769E+03  0.28150548935E+03 -0.47461759389E+03  0.11372969355E+04  0.95448914657E+03 0.  0.
         23    2    4    4    0    0  0.54224212567E+02 -0.30010176311E+03 -0.12838384678E+02  0.31830177625E+03  0.90276592706E+02 0.  0.
         23    2    4    4    0    0 -0.33330769026E+03  0.58160725246E+03 -0.46177920921E+03  0.81899515921E+03  0.90288538887E+02 0.  0.
          1    1    3    3  502    0  0.49953435003E+02 -0.89867724663E+02  0.23378871334E+02  0.10544252097E+03  0.00000000000E+00 0. -1.
         -2    1    3    3    0  502  0.22913004269E+03 -0.19163776469E+03 -0.13342574847E+02  0.29900440401E+03  0.00000000000E+00 0.  1.
         11    1    5    5    0    0  0.11035900514E+02 -0.32610332003E+01 -0.14270492686E+02  0.18332277523E+02  0.00000000000E+00 0. -1.
        -11    1    5    5    0    0  0.43188312053E+02 -0.29684072991E+03  0.14321080076E+01  0.29996949872E+03  0.00000000000E+00 0.  1.
          4    1    6    6  503    0 -0.99912065958E+02  0.16784463085E+03 -0.18586990956E+03  0.26963283241E+03  0.00000000000E+00 0. -1.
         -4    1    6    6    0  503 -0.23339562430E+03  0.41376262161E+03 -0.27590929965E+03  0.54936232680E+03  0.00000000000E+00 0.  1.
<mgrwt>
<rscale>  0 0.14700811E+04</rscale>
<asrwt>0</asrwt>
<pdfrwt beam="1">  1        1 0.82858659E-01 0.14700811E+04</pdfrwt>
<pdfrwt beam="2">  1       -2 0.15433270E+00 0.14700811E+04</pdfrwt>
<totfact> 0.94050409E+00</totfact>
</mgrwt>
</event>
<event>
12    4  0.4280696E-008  0.1564370E+04  0.7818608E-02  0.8842741E-01
         -2   -1    0    0    0  501 -0.00000000000E+00  0.00000000000E+00  0.28385018969E+03  0.28385018969E+03  0.00000000000E+00 0.  1.
          1   -1    0    0  501    0  0.00000000000E+00 -0.00000000000E+00 -0.21554086946E+04  0.21554086946E+04  0.00000000000E+00 0. -1.
        -24    2    1    2    0    0 -0.29075365577E+03 -0.38028845620E+03 -0.94276158777E+03  0.10604307790E+04  0.80975473824E+02 0.  0.
        254    2    1    2    0    0  0.29075365577E+03  0.38028845620E+03 -0.92879691715E+03  0.13788281053E+04  0.89963672250E+03 0.  0.
         23    2    4    4    0    0 -0.12525725946E+03  0.48078479834E+03 -0.23160176431E+03  0.55562628698E+03  0.90762272934E+02 0.  0.
         23    2    4    4    0    0  0.41601091524E+03 -0.10049634214E+03 -0.69719515284E+03  0.82320181835E+03  0.91736340758E+02 0.  0.
          1    1    3    3  502    0 -0.19683181895E+03 -0.29078002723E+03 -0.61929559631E+03  0.71191489997E+03  0.00000000000E+00 0. -1.
         -2    1    3    3    0  502 -0.93921836828E+02 -0.89508428960E+02 -0.32346599146E+03  0.34851587901E+03  0.00000000000E+00 0.  1.
         11    1    5    5    0    0  0.80711913608E+01  0.12063423793E+03 -0.60521646028E+02  0.13520589162E+03  0.00000000000E+00 0. -1.
        -11    1    5    5    0    0 -0.13332845082E+03  0.36015056041E+03 -0.17108011828E+03  0.42042039536E+03  0.00000000000E+00 0.  1.
          1    1    6    6  503    0  0.74007819056E+02 -0.45666900533E+02 -0.19076161430E+03  0.20964879341E+03  0.00000000000E+00 0. -1.
         -1    1    6    6    0  503  0.34200309618E+03 -0.54829441607E+02 -0.50643353854E+03  0.61355302495E+03  0.00000000000E+00 0.  1.
<mgrwt>
<rscale>  0 0.15643697E+04</rscale>
<asrwt>0</asrwt>
<pdfrwt beam="1">  1        1 0.33160133E+00 0.15643697E+04</pdfrwt>
<pdfrwt beam="2">  1       -2 0.43669261E-01 0.15643697E+04</pdfrwt>
<totfact> 0.98252875E+00</totfact>
</mgrwt>
</event>
<event>
12    4  0.4280696E-008  0.1563569E+04  0.7818608E-02  0.8843247E-01
          1   -1    0    0  501    0  0.00000000000E+00  0.00000000000E+00  0.23619526068E+04  0.23619526068E+04  0.00000000000E+00 0. -1.
         -2   -1    0    0    0  501 -0.00000000000E+00 -0.00000000000E+00 -0.25876348149E+03  0.25876348149E+03  0.00000000000E+00 0.  1.
        -24    2    1    2    0    0  0.21572776095E+02 -0.29554860934E+03  0.14092504813E+04  0.14423477875E+04  0.81029969605E+02 0.  0.
        254    2    1    2    0    0 -0.21572776095E+02  0.29554860934E+03  0.69393864396E+03  0.11783683007E+04  0.90508930244E+03 0.  0.
         23    2    4    4    0    0 -0.12156292545E+03  0.62934011537E+02 -0.19174016420E+03  0.25242214557E+03  0.90633406377E+02 0.  0.
         23    2    4    4    0    0  0.99990149356E+02  0.23261459780E+03  0.88567880817E+03  0.92594615515E+03  0.94030579701E+02 0.  0.
          3    1    3    3  502    0 -0.31040811888E+02 -0.10591404604E+03  0.51847829945E+03  0.53009533496E+03  0.00000000000E+00 0. -1.
         -4    1    3    3    0  502  0.52613587983E+02 -0.18963456330E+03  0.89077218188E+03  0.91225245258E+03  0.00000000000E+00 0.  1.
         11    1    5    5    0    0 -0.94046116476E+02  0.39456265473E+02 -0.65755448092E+02  0.12134763229E+03  0.00000000000E+00 0.  1.
        -11    1    5    5    0    0 -0.27516808976E+02  0.23477746064E+02 -0.12598471611E+03  0.13107451328E+03  0.00000000000E+00 0. -1.
          1    1    6    6  503    0  0.67658327821E+02  0.22294886962E+03  0.71633089046E+03  0.75326873851E+03  0.00000000000E+00 0. -1.
         -1    1    6    6    0  503  0.32331821535E+02  0.96657281777E+01  0.16934791771E+03  0.17267741664E+03  0.00000000000E+00 0.  1.
<mgrwt>
<rscale>  0 0.15635691E+04</rscale>
<asrwt>0</asrwt>
<pdfrwt beam="1">  1        1 0.36337731E+00 0.15635691E+04</pdfrwt>
<pdfrwt beam="2">  1       -2 0.39809768E-01 0.15635691E+04</pdfrwt>
<totfact> 0.85266830E+00</totfact>
</mgrwt>
</event>
<event>
12    4  0.4280696E-008  0.1165465E+04  0.7818608E-02  0.9143634E-01
          1   -1    0    0  501    0  0.00000000000E+00  0.00000000000E+00  0.63289662667E+03  0.63289662667E+03  0.00000000000E+00 0. -1.
         -2   -1    0    0    0  501 -0.00000000000E+00 -0.00000000000E+00 -0.53654461066E+03  0.53654461066E+03  0.00000000000E+00 0.  1.
        -24    2    1    2    0    0  0.46871664932E+02 -0.13793037210E+03 -0.12236903404E+03  0.21446868780E+03  0.98999479963E+02 0.  0.
        254    2    1    2    0    0 -0.46871664932E+02  0.13793037210E+03  0.21872105006E+03  0.95497254953E+03  0.91810235382E+03 0.  0.
         23    2    4    4    0    0  0.17089003107E+03 -0.32457577160E+03 -0.31928376754E+02  0.37939368048E+03  0.91472997758E+02 0.  0.
         23    2    4    4    0    0 -0.21776169600E+03  0.46250614370E+03  0.25064942681E+03  0.57557886905E+03  0.84461885683E+02 0.  0.
          1    1    3    3  502    0  0.34351206146E+02  0.17803842298E+01 -0.13684012998E+02  0.37019283399E+02  0.00000000000E+00 0. -1.
         -2    1    3    3    0  502  0.12520458787E+02 -0.13971075633E+03 -0.10868502104E+03  0.17744940440E+03  0.00000000000E+00 0.  1.
         11    1    5    5    0    0  0.64107420967E+00 -0.80216247927E+02 -0.56596698314E+01  0.80418214791E+02  0.00000000000E+00 0.  1.
        -11    1    5    5    0    0  0.17024895686E+03 -0.24435952367E+03 -0.26268706922E+02  0.29897546569E+03  0.00000000000E+00 0. -1.
          1    1    6    6  503    0 -0.11555620892E+03  0.33436657482E+03  0.18246217306E+03  0.39805362499E+03  0.00000000000E+00 0. -1.
         -1    1    6    6    0  503 -0.10220548708E+03  0.12813956888E+03  0.68187253752E+02  0.17752524406E+03  0.00000000000E+00 0.  1.
<mgrwt>
<rscale>  0 0.11654652E+04</rscale>
<asrwt>0</asrwt>
<pdfrwt beam="1">  1        1 0.97368712E-01 0.11654652E+04</pdfrwt>
<pdfrwt beam="2">  1       -2 0.82545325E-01 0.11654652E+04</pdfrwt>
<totfact> 0.35446527E+01</totfact>
</mgrwt>
</event>
<event>
12    4  0.4280696E-008  0.2135056E+04  0.7818608E-02  0.8545956E-01
          1   -1    0    0  501    0  0.00000000000E+00  0.00000000000E+00  0.28065518916E+04  0.28065518916E+04  0.00000000000E+00 0. -1.
         -2   -1    0    0    0  501 -0.00000000000E+00 -0.00000000000E+00 -0.40605552600E+03  0.40605552600E+03  0.00000000000E+00 0.  1.
        -24    2    1    2    0    0 -0.40829518704E+03 -0.38023993500E+03  0.20007055087E+04  0.20785833440E+04  0.79992608977E+02 0.  0.
        254    2    1    2    0    0  0.40829518704E+03  0.38023993500E+03  0.39979085687E+03  0.11340240736E+04  0.90271285704E+03 0.  0.
         23    2    4    4    0    0  0.23824185909E+02  0.26131323866E+03 -0.24289179717E+03  0.37003435937E+03  0.95272249114E+02 0.  0.
         23    2    4    4    0    0  0.38447100113E+03  0.11892669634E+03  0.64268265403E+03  0.76398971419E+03  0.93154601541E+02 0.  0.
          3    1    3    3  502    0 -0.26989418016E+03 -0.29968022269E+03  0.14070022485E+04  0.14636619937E+04  0.00000000000E+00 0. -1.
         -4    1    3    3    0  502 -0.13840100688E+03 -0.80559712307E+02  0.59370326019E+03  0.61492135035E+03  0.00000000000E+00 0.  1.
         11    1    5    5    0    0 -0.15531704977E+02  0.20261017640E+03 -0.14649652420E+03  0.25050618564E+03  0.00000000000E+00 0. -1.
        -11    1    5    5    0    0  0.39355890886E+02  0.58703062262E+02 -0.96395272961E+02  0.11952817373E+03  0.00000000000E+00 0.  1.
          3    1    6    6  503    0  0.26922313090E+03  0.57609896782E+02  0.36538234155E+03  0.45749781413E+03  0.00000000000E+00 0. -1.
         -3    1    6    6    0  503  0.11524787023E+03  0.61316799558E+02  0.27730031248E+03  0.30649190006E+03  0.00000000000E+00 0.  1.
<mgrwt>
<rscale>  0 0.21350559E+04</rscale>
<asrwt>0</asrwt>
<pdfrwt beam="1">  1        1 0.43177720E+00 0.21350559E+04</pdfrwt>
<pdfrwt beam="2">  1       -2 0.62470083E-01 0.21350559E+04</pdfrwt>
<totfact> 0.15801175E+00</totfact>
</mgrwt>
</event>
<event>
12    4  0.4280696E-008  0.1538293E+04  0.7818608E-02  0.8859381E-01
         -2   -1    0    0    0  501 -0.00000000000E+00  0.00000000000E+00  0.68161718114E+03  0.68161718114E+03  0.00000000000E+00 0.  1.
          1   -1    0    0  501    0  0.00000000000E+00 -0.00000000000E+00 -0.86791545366E+03  0.86791545366E+03  0.00000000000E+00 0. -1.
        -24    2    1    2    0    0  0.26592369376E+03 -0.27498255216E+03  0.26735519874E+03  0.47310658047E+03  0.77590072122E+02 0.  0.
        254    2    1    2    0    0 -0.26592369376E+03  0.27498255216E+03 -0.45365347126E+03  0.10764260543E+04  0.89808728059E+03 0.  0.
         23    2    4    4    0    0 -0.59083795438E+03  0.16582709962E+03 -0.32211468380E+03  0.69803401768E+03  0.83099368334E+02 0.  0.
         23    2    4    4    0    0  0.32491426062E+03  0.10915545254E+03 -0.13153878747E+03  0.37839203665E+03  0.91618181689E+02 0.  0.
          1    1    3    3  502    0  0.18675230659E+03 -0.17925084305E+03  0.13637605708E+03  0.29258454795E+03  0.00000000000E+00 0. -1.
         -2    1    3    3    0  502  0.79171387168E+02 -0.95731709106E+02  0.13097914166E+03  0.18052203252E+03  0.00000000000E+00 0.  1.
         11    1    5    5    0    0 -0.52864242030E+02  0.33282431135E+02 -0.13831475938E+02  0.63981700777E+02  0.00000000000E+00 0. -1.
        -11    1    5    5    0    0 -0.53797371235E+03  0.13254466848E+03 -0.30828320786E+03  0.63405231691E+03  0.00000000000E+00 0.  1.
          3    1    6    6  503    0  0.14603520626E+03  0.91605067049E+01 -0.81305939251E+02  0.16739430130E+03  0.00000000000E+00 0. -1.
         -3    1    6    6    0  503  0.17887905436E+03  0.99994945833E+02 -0.50232848214E+02  0.21099773535E+03  0.00000000000E+00 0.  1.
<mgrwt>
<rscale>  0 0.15382927E+04</rscale>
<asrwt>0</asrwt>
<pdfrwt beam="1">  1        1 0.13352545E+00 0.15382927E+04</pdfrwt>
<pdfrwt beam="2">  1       -2 0.10486418E+00 0.15382927E+04</pdfrwt>
<totfact> 0.12054038E+01</totfact>
</mgrwt>
</event>
<event>
12    4  0.4280696E-008  0.1473762E+04  0.7818608E-02  0.8902091E-01
         -2   -1    0    0    0  501 -0.00000000000E+00  0.00000000000E+00  0.32002452988E+03  0.32002452988E+03  0.00000000000E+00 0.  1.
          1   -1    0    0  501    0  0.00000000000E+00 -0.00000000000E+00 -0.16967248874E+04  0.16967248874E+04  0.00000000000E+00 0. -1.
        -24    2    1    2    0    0 -0.31019136347E+02  0.86770610790E+02 -0.10496159715E+04  0.10566065151E+04  0.78945008681E+02 0.  0.
        254    2    1    2    0    0  0.31019136347E+02 -0.86770610790E+02 -0.32708438606E+03  0.96014290222E+03  0.89799714441E+03 0.  0.
         23    2    4    4    0    0 -0.14386127686E+03  0.22940043026E+03 -0.47878030003E+03  0.55763241152E+03  0.91666276810E+02 0.  0.
         23    2    4    4    0    0  0.17488041321E+03 -0.31617104105E+03  0.15169591396E+03  0.40251049070E+03  0.91955199325E+02 0.  0.
          1    1    3    3  502    0 -0.15544878497E+02  0.47691445761E+02 -0.89424414624E+03  0.89564988155E+03  0.00000000000E+00 0. -1.
         -2    1    3    3    0  502 -0.15474257850E+02  0.39079165029E+02 -0.15537182524E+03  0.16095663352E+03  0.00000000000E+00 0.  1.
         11    1    5    5    0    0 -0.17281066290E+02  0.86449753847E+02 -0.99058660294E+02  0.13260774250E+03  0.00000000000E+00 0. -1.
        -11    1    5    5    0    0 -0.12658021057E+03  0.14295067642E+03 -0.37972163973E+03  0.42502466902E+03  0.00000000000E+00 0.  1.
          3    1    6    6  503    0 -0.87394060003E+01 -0.14117372329E+02 -0.26190603287E+01  0.16808833859E+02  0.00000000000E+00 0. -1.
         -3    1    6    6    0  503  0.18361981921E+03 -0.30205366872E+03  0.15431497429E+03  0.38570165684E+03  0.00000000000E+00 0.  1.
<mgrwt>
<rscale>  0 0.14737620E+04</rscale>
<asrwt>0</asrwt>
<pdfrwt beam="1">  1        1 0.26103460E+00 0.14737620E+04</pdfrwt>
<pdfrwt beam="2">  1       -2 0.49234542E-01 0.14737620E+04</pdfrwt>
<totfact> 0.15919062E+01</totfact>
</mgrwt>
</event>
<event>
12    4  0.4280696E-008  0.1765416E+04  0.7818608E-02  0.8724910E-01
          1   -1    0    0  501    0  0.00000000000E+00  0.00000000000E+00  0.87549316868E+03  0.87549316868E+03  0.00000000000E+00 0. -1.
         -2   -1    0    0    0  501 -0.00000000000E+00 -0.00000000000E+00 -0.88998223518E+03  0.88998223518E+03  0.00000000000E+00 0.  1.
        -24    2    1    2    0    0  0.47124514708E+03  0.10360434894E+03 -0.44666419556E+03  0.66225974129E+03  0.79203608361E+02 0.  0.
        254    2    1    2    0    0 -0.47124514708E+03 -0.10360434894E+03  0.43217512906E+03  0.11032156626E+04  0.89303057405E+03 0.  0.
         23    2    4    4    0    0 -0.51177636240E+03 -0.42668518220E+03  0.24088669212E+03  0.71437907206E+03  0.91300440016E+02 0.  0.
         23    2    4    4    0    0  0.40531215314E+02  0.32308083326E+03  0.19128843694E+03  0.38883659050E+03  0.92620860354E+02 0.  0.
          3    1    3    3  502    0  0.25381504995E+02  0.16771673694E+02 -0.96145425267E+01  0.31905317148E+02  0.00000000000E+00 0. -1.
         -4    1    3    3    0  502  0.44586364209E+03  0.86832675246E+02 -0.43704965303E+03  0.63035442415E+03  0.00000000000E+00 0.  1.
         11    1    5    5    0    0 -0.35516823001E+03 -0.34610250812E+03  0.16553249771E+03  0.52281203652E+03  0.00000000000E+00 0. -1.
        -11    1    5    5    0    0 -0.15660813238E+03 -0.80582674082E+02  0.75354194413E+02  0.19156703554E+03  0.00000000000E+00 0.  1.
          4    1    6    6  503    0 -0.10838493997E+00  0.19215314187E+03  0.66150134168E+02  0.20322077140E+03  0.00000000000E+00 0. -1.
         -4    1    6    6    0  503  0.40639600254E+02  0.13092769139E+03  0.12513830277E+03  0.18561581911E+03  0.00000000000E+00 0.  1.
<mgrwt>
<rscale>  0 0.17654159E+04</rscale>
<asrwt>0</asrwt>
<pdfrwt beam="1">  1        1 0.13469126E+00 0.17654159E+04</pdfrwt>
<pdfrwt beam="2">  1       -2 0.13692034E+00 0.17654159E+04</pdfrwt>
<totfact> 0.60144683E+00</totfact>
</mgrwt>
</event>
<event>
12    4  0.4280696E-008  0.1514387E+04  0.7818608E-02  0.8874942E-01
          1   -1    0    0  501    0  0.00000000000E+00  0.00000000000E+00  0.35711092278E+03  0.35711092278E+03  0.00000000000E+00 0. -1.
         -2   -1    0    0    0  501 -0.00000000000E+00 -0.00000000000E+00 -0.16055015668E+04  0.16055015668E+04  0.00000000000E+00 0.  1.
        -24    2    1    2    0    0  0.68819660770E+01 -0.36978665217E+03  0.48217274738E+01  0.37828086098E+03  0.79269358160E+02 0.  0.
        254    2    1    2    0    0 -0.68819660770E+01  0.36978665217E+03 -0.12532123715E+04  0.15843316286E+04  0.89597764022E+03 0.  0.
         23    2    4    4    0    0  0.38654207994E+03  0.36627850108E+03 -0.53545739792E+03  0.76094622747E+03  0.93540452181E+02 0.  0.
         23    2    4    4    0    0 -0.39342404602E+03  0.35081510938E+01 -0.71775497356E+03  0.82338540113E+03  0.89423316930E+02 0.  0.
          1    1    3    3  502    0  0.42721723186E+02 -0.20312097437E+03  0.89095130882E+01  0.20775624006E+03  0.00000000000E+00 0. -1.
         -2    1    3    3    0  502 -0.35839757109E+02 -0.16666567780E+03 -0.40877856144E+01  0.17052462092E+03  0.00000000000E+00 0.  1.
         11    1    5    5    0    0  0.18459487803E+03  0.16327395219E+03 -0.31281611161E+03  0.39823055150E+03  0.00000000000E+00 0. -1.
        -11    1    5    5    0    0  0.20194720192E+03  0.20300454888E+03 -0.22264128631E+03  0.36271567597E+03  0.00000000000E+00 0.  1.
          4    1    6    6  503    0 -0.93772918201E+02 -0.36860850247E+02 -0.16469234861E+03  0.19306903470E+03  0.00000000000E+00 0. -1.
         -4    1    6    6    0  503 -0.29965112782E+03  0.40369001341E+02 -0.55306262495E+03  0.63031636643E+03  0.00000000000E+00 0.  1.
<mgrwt>
<rscale>  0 0.15143872E+04</rscale>
<asrwt>0</asrwt>
<pdfrwt beam="1">  1        1 0.54940142E-01 0.15143872E+04</pdfrwt>
<pdfrwt beam="2">  1       -2 0.24700024E+00 0.15143872E+04</pdfrwt>
<totfact> 0.39501843E+00</totfact>
</mgrwt>
</event>
<event>
12    4  0.4280696E-008  0.1911175E+04  0.7818608E-02  0.8649314E-01
         -2   -1    0    0    0  501 -0.00000000000E+00  0.00000000000E+00  0.94031799443E+03  0.94031799443E+03  0.00000000000E+00 0.  1.
          1   -1    0    0  501    0  0.00000000000E+00 -0.00000000000E+00 -0.97110507404E+03  0.97110507404E+03  0.00000000000E+00 0. -1.
        -24    2    1    2    0    0  0.60748695885E+01  0.64968508925E+03  0.33705950206E+03  0.73617961295E+03  0.78890400984E+02 0.  0.
        254    2    1    2    0    0 -0.60748695885E+01 -0.64968508925E+03 -0.36784658167E+03  0.11752434555E+04  0.90761139970E+03 0.  0.
         23    2    4    4    0    0  0.28621398587E+03 -0.54562533924E+03  0.74839012750E+02  0.62703853772E+03  0.89168343186E+02 0.  0.
         23    2    4    4    0    0 -0.29228885546E+03 -0.10405975001E+03 -0.44268559442E+03  0.54820491780E+03  0.91087264775E+02 0.  0.
          3    1    3    3  502    0  0.41777364022E+02  0.29550810122E+03  0.15896467869E+03  0.33814221135E+03  0.00000000000E+00 0. -1.
         -4    1    3    3    0  502 -0.35702494433E+02  0.35417698803E+03  0.17809482337E+03  0.39803740160E+03  0.00000000000E+00 0.  1.
         11    1    5    5    0    0  0.25114483101E+03 -0.51462543503E+03  0.85631050011E+02  0.57900409433E+03  0.00000000000E+00 0. -1.
        -11    1    5    5    0    0  0.35069154860E+02 -0.30999904213E+02 -0.10792037262E+02  0.48034443393E+02  0.00000000000E+00 0.  1.
          2    1    6    6  503    0 -0.22478583729E+03 -0.96424584926E+02 -0.39713179984E+03  0.46641187771E+03  0.00000000000E+00 0. -1.
         -2    1    6    6    0  503 -0.67503018170E+02 -0.76351650809E+01 -0.45553794579E+02  0.81793040098E+02  0.00000000000E+00 0.  1.
<mgrwt>
<rscale>  0 0.19111751E+04</rscale>
<asrwt>0</asrwt>
<pdfrwt beam="1">  1        1 0.14940078E+00 0.19111751E+04</pdfrwt>
<pdfrwt beam="2">  1       -2 0.14466431E+00 0.19111751E+04</pdfrwt>
<totfact> 0.43066085E+00</totfact>
</mgrwt>
</event>
<event>
12    4  0.4280696E-008  0.2614066E+04  0.7818608E-02  0.8363439E-01
          1   -1    0    0  501    0  0.00000000000E+00  0.00000000000E+00  0.24173584814E+04  0.24173584814E+04  0.00000000000E+00 0. -1.
         -2   -1    0    0    0  501 -0.00000000000E+00 -0.00000000000E+00 -0.70669478439E+03  0.70669478439E+03  0.00000000000E+00 0.  1.
        -24    2    1    2    0    0 -0.36999920970E+03  0.77282966128E+02  0.20515849482E+04  0.20876861605E+04  0.80997734346E+02 0.  0.
        254    2    1    2    0    0  0.36999920970E+03 -0.77282966128E+02 -0.34092125121E+03  0.10363671053E+04  0.90274991295E+03 0.  0.
         23    2    4    4    0    0 -0.26341806497E+03  0.88385700801E+02 -0.21325145621E+03  0.36270036043E+03  0.94203284531E+02 0.  0.
         23    2    4    4    0    0  0.63341727468E+03 -0.16566866693E+03 -0.12766979500E+03  0.67366674485E+03  0.94147519884E+02 0.  0.
          1    1    3    3  502    0 -0.33588472232E+03  0.71798712305E+02  0.19586050542E+04  0.19884937416E+04  0.00000000000E+00 0. -1.
         -2    1    3    3    0  502 -0.34114487380E+02  0.54842538223E+01  0.92979893971E+02  0.99192418924E+02  0.00000000000E+00 0.  1.
         11    1    5    5    0    0 -0.99842356689E+02 -0.93308255559E+01 -0.96891523028E+02  0.13944005066E+03  0.00000000000E+00 0.  1.
        -11    1    5    5    0    0 -0.16357570828E+03  0.97716526357E+02 -0.11635993318E+03  0.22326030976E+03  0.00000000000E+00 0. -1.
          2    1    6    6  503    0  0.61683352036E+03 -0.16720817033E+03 -0.13832766880E+03  0.65389349899E+03  0.00000000000E+00 0. -1.
         -2    1    6    6    0  503  0.16583754320E+02  0.15395034054E+01  0.10657873797E+02  0.19773245863E+02  0.00000000000E+00 0.  1.
<mgrwt>
<rscale>  0 0.26140655E+04</rscale>
<asrwt>0</asrwt>
<pdfrwt beam="1">  1        1 0.37190130E+00 0.26140655E+04</pdfrwt>
<pdfrwt beam="2">  1       -2 0.10872228E+00 0.26140655E+04</pdfrwt>
<totfact> 0.80769148E-01</totfact>
</mgrwt>
</event>
<event>
12    4  0.4280696E-008  0.1867749E+04  0.7818608E-02  0.8671078E-01
          1   -1    0    0  501    0  0.00000000000E+00  0.00000000000E+00  0.12738215020E+04  0.12738215020E+04  0.00000000000E+00 0. -1.
         -2   -1    0    0    0  501 -0.00000000000E+00 -0.00000000000E+00 -0.68465006053E+03  0.68465006053E+03  0.00000000000E+00 0.  1.
        -24    2    1    2    0    0 -0.69965046179E+03 -0.11780717498E+03  0.62046104188E+02  0.71661019866E+03  0.79316824358E+02 0.  0.
        254    2    1    2    0    0  0.69965046179E+03  0.11780717498E+03  0.52712533727E+03  0.12418613639E+04  0.87233550124E+03 0.  0.
         23    2    4    4    0    0  0.62244880489E+03  0.17115138708E+03  0.74391329348E+03  0.98911794691E+03  0.90620155996E+02 0.  0.
         23    2    4    4    0    0  0.77201656894E+02 -0.53344212098E+02 -0.21678795620E+03  0.25274341697E+03  0.89869439046E+02 0.  0.
          1    1    3    3  502    0 -0.54969487090E+02 -0.26301115076E+02  0.19900963742E+02  0.64104925888E+02  0.00000000000E+00 0. -1.
         -2    1    3    3    0  502 -0.64468097470E+03 -0.91506059902E+02  0.42145140446E+02  0.65250527277E+03  0.00000000000E+00 0.  1.
         11    1    5    5    0    0  0.68651522439E+02  0.47724454365E+02  0.11355892665E+03  0.14101873953E+03  0.00000000000E+00 0.  1.
        -11    1    5    5    0    0  0.55379728245E+03  0.12342693271E+03  0.63035436683E+03  0.84809920737E+03  0.00000000000E+00 0. -1.
          4    1    6    6  503    0  0.54673741247E+02  0.10540148805E+02 -0.13816935578E+03  0.14896671976E+03  0.00000000000E+00 0. -1.
         -4    1    6    6    0  503  0.22527915647E+02 -0.63884360903E+02 -0.78618600423E+02  0.10377669721E+03  0.00000000000E+00 0.  1.
<mgrwt>
<rscale>  0 0.18677494E+04</rscale>
<asrwt>0</asrwt>
<pdfrwt beam="1">  1        1 0.19597254E+00 0.18677494E+04</pdfrwt>
<pdfrwt beam="2">  1       -2 0.10533078E+00 0.18677494E+04</pdfrwt>
<totfact> 0.56718433E+00</totfact>
</mgrwt>
</event>
<event>
12    4  0.4280696E-008  0.1220303E+04  0.7818608E-02  0.9095269E-01
          1   -1    0    0  501    0  0.00000000000E+00  0.00000000000E+00  0.53390281454E+03  0.53390281454E+03  0.00000000000E+00 0. -1.
         -2   -1    0    0    0  501 -0.00000000000E+00 -0.00000000000E+00 -0.69728961578E+03  0.69728961578E+03  0.00000000000E+00 0.  1.
        -24    2    1    2    0    0 -0.14538960585E+03  0.81702786140E+02  0.17446776061E+03  0.25483399416E+03  0.81779473794E+02 0.  0.
        254    2    1    2    0    0  0.14538960585E+03 -0.81702786140E+02 -0.33785456185E+03  0.97635843617E+03  0.90073115199E+03 0.  0.
         23    2    4    4    0    0 -0.34512551778E+03 -0.10945319419E+03 -0.29385251385E+03  0.47506373005E+03  0.90799906236E+02 0.  0.
         23    2    4    4    0    0  0.49051512362E+03  0.27750408050E+02 -0.44002048001E+02  0.50129470612E+03  0.89358997909E+02 0.  0.
          3    1    3    3  502    0 -0.13977708744E+03  0.95501129683E+02  0.16830113002E+03  0.23871189813E+03  0.00000000000E+00 0. -1.
         -4    1    3    3    0  502 -0.56125184048E+01 -0.13798343542E+02  0.61666305911E+01  0.16122096024E+02  0.00000000000E+00 0.  1.
         11    1    5    5    0    0 -0.50044403827E+02 -0.51602688696E+02 -0.45579150961E+02  0.85116031612E+02  0.00000000000E+00 0. -1.
        -11    1    5    5    0    0 -0.29508111395E+03 -0.57850505495E+02 -0.24827336289E+03  0.38994769844E+03  0.00000000000E+00 0.  1.
          4    1    6    6  503    0  0.19973580314E+03  0.46057686774E+02 -0.45361036567E+02  0.20993647898E+03  0.00000000000E+00 0. -1.
         -4    1    6    6    0  503  0.29077932048E+03 -0.18307278724E+02  0.13589885658E+01  0.29135822714E+03  0.00000000000E+00 0.  1.
<mgrwt>
<rscale>  0 0.12203031E+04</rscale>
<asrwt>0</asrwt>
<pdfrwt beam="1">  1        1 0.82138895E-01 0.12203031E+04</pdfrwt>
<pdfrwt beam="2">  1       -2 0.10727533E+00 0.12203031E+04</pdfrwt>
<totfact> 0.24410650E+01</totfact>
</mgrwt>
</event>
<event>
12    4  0.4280696E-008  0.1060424E+04  0.7818608E-02  0.9244647E-01
         -2   -1    0    0    0  501 -0.00000000000E+00  0.00000000000E+00  0.10039745853E+03  0.10039745853E+03  0.00000000000E+00 0.  1.
          1   -1    0    0  501    0  0.00000000000E+00 -0.00000000000E+00 -0.28001203506E+04  0.28001203506E+04  0.00000000000E+00 0. -1.
        -24    2    1    2    0    0 -0.37445779932E+02  0.64628988482E+02 -0.66467931061E+03  0.67353240863E+03  0.79172134874E+02 0.  0.
        254    2    1    2    0    0  0.37445779932E+02 -0.64628988482E+02 -0.20350435814E+04  0.22269854005E+04  0.90137811321E+03 0.  0.
         23    2    4    4    0    0 -0.41364335883E+03 -0.83681474758E+01 -0.11891108039E+04  0.12625618870E+04  0.94377753408E+02 0.  0.
         23    2    4    4    0    0  0.45108913877E+03 -0.56260841006E+02 -0.84593277753E+03  0.96442351347E+03  0.88677820729E+02 0.  0.
          1    1    3    3  502    0 -0.38524180693E+02  0.14818607744E+02 -0.49423726540E+03  0.49595783907E+03  0.00000000000E+00 0. -1.
         -2    1    3    3    0  502  0.10784007611E+01  0.49810380738E+02 -0.17044204521E+03  0.17757456956E+03  0.00000000000E+00 0.  1.
         11    1    5    5    0    0 -0.36801024132E+03  0.10109314690E+02 -0.11092340476E+04  0.11687317520E+04  0.00000000000E+00 0.  1.
        -11    1    5    5    0    0 -0.45633117513E+02 -0.18477462166E+02 -0.79876756340E+02  0.93830134953E+02  0.00000000000E+00 0. -1.
          1    1    6    6  503    0  0.26953535947E+03 -0.50399278708E+02 -0.42261904604E+03  0.50378195222E+03  0.00000000000E+00 0. -1.
         -1    1    6    6    0  503  0.18155377930E+03 -0.58615622981E+01 -0.42331373149E+03  0.46064156126E+03  0.00000000000E+00 0.  1.
<mgrwt>
<rscale>  0 0.10604244E+04</rscale>
<asrwt>0</asrwt>
<pdfrwt beam="1">  1        1 0.43078775E+00 0.10604244E+04</pdfrwt>
<pdfrwt beam="2">  1       -2 0.15445763E-01 0.10604244E+04</pdfrwt>
<totfact> 0.24795214E+01</totfact>
</mgrwt>
</event>
<event>
12    4  0.4280696E-008  0.1102372E+04  0.7818608E-02  0.9202883E-01
          1   -1    0    0  501    0  0.00000000000E+00  0.00000000000E+00  0.55588584970E+03  0.55588584970E+03  0.00000000000E+00 0. -1.
         -2   -1    0    0    0  501 -0.00000000000E+00 -0.00000000000E+00 -0.54652602619E+03  0.54652602619E+03  0.00000000000E+00 0.  1.
        -24    2    1    2    0    0  0.80283309136E+02 -0.30128614427E+02  0.15300999479E+03  0.19300150753E+03  0.80525649763E+02 0.  0.
        254    2    1    2    0    0 -0.80283309136E+02  0.30128614427E+02 -0.14365017128E+03  0.90941036836E+03  0.89388964824E+03 0.  0.
         23    2    4    4    0    0  0.23790221027E+03 -0.79743901825E+02 -0.39658637555E+03  0.47757223665E+03  0.88532120800E+02 0.  0.
         23    2    4    4    0    0 -0.31818551940E+03  0.10987251625E+03  0.25293620427E+03  0.43183813171E+03  0.95882500930E+02 0.  0.
          3    1    3    3  502    0  0.89601515239E+02 -0.26303422911E+02  0.15658249105E+03  0.18231395474E+03  0.00000000000E+00 0. -1.
         -4    1    3    3    0  502 -0.93182061033E+01 -0.38251915159E+01 -0.35724962580E+01  0.10687552790E+02  0.00000000000E+00 0.  1.
         11    1    5    5    0    0  0.22353953120E+03 -0.72018705580E+02 -0.39699245718E+03  0.46125874195E+03  0.00000000000E+00 0.  1.
        -11    1    5    5    0    0  0.14362679068E+02 -0.77251962448E+01  0.40608163010E+00  0.16313494700E+02  0.00000000000E+00 0. -1.
          2    1    6    6  503    0 -0.12857398136E+03  0.73005921451E+02  0.62295988578E+02  0.16044289776E+03  0.00000000000E+00 0. -1.
         -2    1    6    6    0  503 -0.18961153804E+03  0.36866594801E+02  0.19064021569E+03  0.27139523395E+03  0.00000000000E+00 0.  1.
<mgrwt>
<rscale>  0 0.11023721E+04</rscale>
<asrwt>0</asrwt>
<pdfrwt beam="1">  1        1 0.85520900E-01 0.11023721E+04</pdfrwt>
<pdfrwt beam="2">  1       -2 0.84080927E-01 0.11023721E+04</pdfrwt>
<totfact> 0.41156364E+01</totfact>
</mgrwt>
</event>
<event>
12    4  0.4280696E-008  0.1246230E+04  0.7818608E-02  0.9073327E-01
          1   -1    0    0  501    0  0.00000000000E+00  0.00000000000E+00  0.31681532440E+04  0.31681532440E+04  0.00000000000E+00 0. -1.
         -2   -1    0    0    0  501 -0.00000000000E+00 -0.00000000000E+00 -0.12255478240E+03  0.12255478240E+03  0.00000000000E+00 0.  1.
        -24    2    1    2    0    0  0.14344628227E+03 -0.22611385475E+02  0.14285661875E+04  0.14382537743E+04  0.81758525236E+02 0.  0.
        254    2    1    2    0    0 -0.14344628227E+03  0.22611385475E+02  0.16170322741E+04  0.18524542522E+04  0.89202313321E+03 0.  0.
         23    2    4    4    0    0  0.63542565183E+02 -0.32385663568E+03  0.12600674145E+04  0.13054405197E+04  0.86511752311E+02 0.  0.
         23    2    4    4    0    0 -0.20698884746E+03  0.34646802115E+03  0.35696485961E+03  0.54701373248E+03  0.94422666062E+02 0.  0.
          1    1    3    3  502    0  0.14383798118E+03 -0.38437931306E+02  0.13437282700E+04  0.13519513686E+04  0.00000000000E+00 0. -1.
         -2    1    3    3    0  502 -0.39169890900E+00  0.15826545832E+02  0.84837917473E+02  0.86302405657E+02  0.00000000000E+00 0.  1.
         11    1    5    5    0    0 -0.49065535414E+01  0.24773677245E+01  0.78003098813E+01  0.95423504830E+01  0.00000000000E+00 0.  1.
        -11    1    5    5    0    0  0.68449118725E+02 -0.32633400340E+03  0.12522671046E+04  0.12958981692E+04  0.00000000000E+00 0. -1.
          4    1    6    6  503    0 -0.21610153092E+03  0.34111046726E+03  0.34979823099E+03  0.53424247767E+03  0.00000000000E+00 0. -1.
         -4    1    6    6    0  503  0.91126834614E+01  0.53575538925E+01  0.71666286165E+01  0.12771254805E+02  0.00000000000E+00 0.  1.
<mgrwt>
<rscale>  0 0.12462300E+04</rscale>
<asrwt>0</asrwt>
<pdfrwt beam="1">  1        1 0.48740813E+00 0.12462300E+04</pdfrwt>
<pdfrwt beam="2">  1       -2 0.18854584E-01 0.12462300E+04</pdfrwt>
<totfact> 0.93505088E+00</totfact>
</mgrwt>
</event>
<event>
12    4  0.4280696E-008  0.1616946E+04  0.7818608E-02  0.8810204E-01
         -2   -1    0    0    0  501 -0.00000000000E+00  0.00000000000E+00  0.24198730793E+03  0.24198730793E+03  0.00000000000E+00 0.  1.
          1   -1    0    0  501    0  0.00000000000E+00 -0.00000000000E+00 -0.27010876224E+04  0.27010876224E+04  0.00000000000E+00 0. -1.
        -24    2    1    2    0    0  0.48252382418E+03  0.96739610375E+02 -0.38848936625E+03  0.63183742934E+03  0.78145737636E+02 0.  0.
        254    2    1    2    0    0 -0.48252382418E+03 -0.96739610375E+02 -0.20706109482E+04  0.23112375009E+04  0.90122211135E+03 0.  0.
         23    2    4    4    0    0 -0.12046268723E+03 -0.43792691063E+03 -0.13774458437E+04  0.14532019022E+04  0.90263382128E+02 0.  0.
         23    2    4    4    0    0 -0.36206113695E+03  0.34118730025E+03 -0.69316510450E+03  0.85803559877E+03  0.90830534116E+02 0.  0.
          3    1    3    3  502    0  0.62182571762E+02 -0.34658488217E+01 -0.77609581030E+02  0.99508448921E+02  0.00000000000E+00 0. -1.
         -4    1    3    3    0  502  0.42034125242E+03  0.10020545920E+03 -0.31087978522E+03  0.53232898042E+03  0.00000000000E+00 0.  1.
         11    1    5    5    0    0 -0.11114888065E+02 -0.10811686338E+02 -0.11377239282E+03  0.11482417284E+03  0.00000000000E+00 0. -1.
        -11    1    5    5    0    0 -0.10934779916E+03 -0.42711522429E+03 -0.12636734509E+04  0.13383777293E+04  0.00000000000E+00 0.  1.
          3    1    6    6  503    0 -0.10868744066E+03  0.12168855354E+03 -0.16194454670E+03  0.22988497129E+03  0.00000000000E+00 0. -1.
         -3    1    6    6    0  503 -0.25337369629E+03  0.21949874671E+03 -0.53122055779E+03  0.62815062748E+03  0.00000000000E+00 0.  1.
<mgrwt>
<rscale>  0 0.16169464E+04</rscale>
<asrwt>0</asrwt>
<pdfrwt beam="1">  1        1 0.41555196E+00 0.16169464E+04</pdfrwt>
<pdfrwt beam="2">  1       -2 0.37228815E-01 0.16169464E+04</pdfrwt>
<totfact> 0.56236357E+00</totfact>
</mgrwt>
</event>
<event>
12    4  0.4280696E-008  0.1300014E+04  0.7818608E-02  0.9029554E-01
          1   -1    0    0  501    0  0.00000000000E+00  0.00000000000E+00  0.95498416477E+03  0.95498416477E+03  0.00000000000E+00 0. -1.
         -2   -1    0    0    0  501 -0.00000000000E+00 -0.00000000000E+00 -0.44242508083E+03  0.44242508083E+03  0.00000000000E+00 0.  1.
        -24    2    1    2    0    0  0.26627927057E+03 -0.15014196451E+03  0.23656206459E+02  0.32150226720E+03  0.96730720390E+02 0.  0.
        254    2    1    2    0    0 -0.26627927057E+03  0.15014196451E+03  0.48890287748E+03  0.10759069784E+04  0.90835155260E+03 0.  0.
         23    2    4    4    0    0 -0.80632298767E+02 -0.36695052913E+03  0.29700971293E+03  0.48718568649E+03  0.89335687803E+02 0.  0.
         23    2    4    4    0    0 -0.18564697180E+03  0.51709249364E+03  0.19189316455E+03  0.58872129191E+03  0.88996223644E+02 0.  0.
          3    1    3    3  502    0  0.28467744993E+00 -0.16599006209E+02 -0.13709665143E+02  0.21530512458E+02  0.00000000000E+00 0. -1.
         -4    1    3    3    0  502  0.26599459312E+03 -0.13354295830E+03  0.37365871602E+02  0.29997175474E+03  0.00000000000E+00 0.  1.
         11    1    5    5    0    0 -0.79700159287E+02 -0.21614714693E+03  0.14046916221E+03  0.26982084806E+03  0.00000000000E+00 0. -1.
        -11    1    5    5    0    0 -0.93213948001E+00 -0.15080338220E+03  0.15654055072E+03  0.21736483843E+03  0.00000000000E+00 0.  1.
          1    1    6    6  503    0 -0.10112929481E+03  0.26091240437E+03  0.14413153676E+03  0.31476390662E+03  0.00000000000E+00 0. -1.
         -1    1    6    6    0  503 -0.84517676997E+02  0.25618008927E+03  0.47761627795E+02  0.27395738529E+03  0.00000000000E+00 0.  1.
<mgrwt>
<rscale>  0 0.13000138E+04</rscale>
<asrwt>0</asrwt>
<pdfrwt beam="1">  1        1 0.14692064E+00 0.13000138E+04</pdfrwt>
<pdfrwt beam="2">  1       -2 0.68065398E-01 0.13000138E+04</pdfrwt>
<totfact> 0.27953098E+01</totfact>
</mgrwt>
</event>
<event>
12    4  0.4280696E-008  0.2022222E+04  0.7818608E-02  0.8596301E-01
         -2   -1    0    0    0  501 -0.00000000000E+00  0.00000000000E+00  0.66431667430E+03  0.66431667430E+03  0.00000000000E+00 0.  1.
          1   -1    0    0  501    0  0.00000000000E+00 -0.00000000000E+00 -0.15389428666E+04  0.15389428666E+04  0.00000000000E+00 0. -1.
        -24    2    1    2    0    0  0.38211496515E+03  0.22124610990E+03 -0.10727188945E+04  0.11628960386E+04  0.81484245157E+02 0.  0.
        254    2    1    2    0    0 -0.38211496515E+03 -0.22124610990E+03  0.19809270214E+03  0.10403635024E+04  0.92095266473E+03 0.  0.
         23    2    4    4    0    0  0.56858430476E+02 -0.33550188833E+03  0.40329847629E+03  0.53532692169E+03  0.90171247711E+02 0.  0.
         23    2    4    4    0    0 -0.43897339562E+03  0.11425577843E+03 -0.20520577415E+03  0.50503658067E+03  0.84855837181E+02 0.  0.
          1    1    3    3  502    0  0.18765693324E+03  0.11532674938E+03 -0.63943788807E+03  0.67631072475E+03  0.00000000000E+00 0. -1.
         -4    1    3    3    0  502  0.19445803190E+03  0.10591936052E+03 -0.43328100641E+03  0.48658531381E+03  0.00000000000E+00 0.  1.
         11    1    5    5    0    0  0.60931367521E+02 -0.16108240584E+03  0.15393105243E+03  0.23098688690E+03  0.00000000000E+00 0. -1.
        -11    1    5    5    0    0 -0.40729370444E+01 -0.17441948250E+03  0.24936742387E+03  0.30434003479E+03  0.00000000000E+00 0.  1.
          2    1    6    6  503    0 -0.15255880869E+03  0.66859955279E+01 -0.42474689431E+02  0.15850234033E+03  0.00000000000E+00 0. -1.
         -2    1    6    6    0  503 -0.28641458693E+03  0.10756978290E+03 -0.16273108472E+03  0.34653424035E+03  0.00000000000E+00 0.  1.
<mgrwt>
<rscale>  0 0.20222220E+04</rscale>
<asrwt>0</asrwt>
<pdfrwt beam="1">  1        1 0.23676044E+00 0.20222220E+04</pdfrwt>
<pdfrwt beam="2">  1       -2 0.10220257E+00 0.20222220E+04</pdfrwt>
<totfact> 0.39183822E+00</totfact>
</mgrwt>
</event>
<event>
12    4  0.4280696E-008  0.1593600E+04  0.7818608E-02  0.8824489E-01
          1   -1    0    0  501    0  0.00000000000E+00  0.00000000000E+00  0.11867991142E+04  0.11867991142E+04  0.00000000000E+00 0. -1.
         -2   -1    0    0    0  501 -0.00000000000E+00 -0.00000000000E+00 -0.53496009398E+03  0.53496009398E+03  0.00000000000E+00 0.  1.
        -24    2    1    2    0    0  0.36684895734E+03  0.14213930244E+02  0.65435187456E+03  0.75451259089E+03  0.79578142402E+02 0.  0.
        254    2    1    2    0    0 -0.36684895734E+03 -0.14213930244E+02 -0.25128543355E+01  0.96724661731E+03  0.89486284476E+03 0.  0.
         23    2    4    4    0    0 -0.64398049526E+03 -0.75214484747E+02 -0.79982019753E+02  0.65946068266E+03  0.90128638608E+02 0.  0.
         23    2    4    4    0    0  0.27713153792E+03  0.61000554503E+02  0.77469165417E+02  0.30778593464E+03  0.90596650115E+02 0.  0.
          3    1    3    3  502    0  0.34258864185E+03  0.13748926752E+02  0.55604146901E+03  0.65325196193E+03  0.00000000000E+00 0. -1.
         -4    1    3    3    0  502  0.24260315489E+02  0.46500349144E+00  0.98310405551E+02  0.10126062895E+03  0.00000000000E+00 0.  1.
         11    1    5    5    0    0 -0.41691376400E+03 -0.93552318944E+01 -0.32236061641E+02  0.41826280094E+03  0.00000000000E+00 0.  1.
        -11    1    5    5    0    0 -0.22706673126E+03 -0.65859252852E+02 -0.47745958112E+02  0.24119788172E+03  0.00000000000E+00 0. -1.
          4    1    6    6  503    0  0.26552523772E+02  0.22816847170E+02  0.37291595820E+02  0.51149859748E+02  0.00000000000E+00 0. -1.
         -4    1    6    6    0  503  0.25057901415E+03  0.38183707333E+02  0.40177569597E+02  0.25663607489E+03  0.00000000000E+00 0.  1.
<mgrwt>
<rscale>  0 0.15935999E+04</rscale>
<asrwt>0</asrwt>
<pdfrwt beam="1">  1        1 0.18258448E+00 0.15935999E+04</pdfrwt>
<pdfrwt beam="2">  1       -2 0.82301553E-01 0.15935999E+04</pdfrwt>
<totfact> 0.11928563E+01</totfact>
</mgrwt>
</event>
<event>
12    4  0.4280696E-008  0.1624877E+04  0.7818608E-02  0.8805409E-01
          1   -1    0    0  501    0  0.00000000000E+00  0.00000000000E+00  0.84103376538E+03  0.84103376538E+03  0.00000000000E+00 0. -1.
         -2   -1    0    0    0  501 -0.00000000000E+00 -0.00000000000E+00 -0.78481536325E+03  0.78481536325E+03  0.00000000000E+00 0.  1.
        -24    2    1    2    0    0 -0.14482296617E+02  0.14054025832E+03  0.59844927641E+03  0.61980958433E+03  0.77852959299E+02 0.  0.
        254    2    1    2    0    0  0.14482296617E+02 -0.14054025832E+03 -0.54223087428E+03  0.10060395443E+04  0.83554769017E+03 0.  0.
         23    2    4    4    0    0 -0.13641331275E+03  0.39866163010E+02  0.17647040528E+03  0.24413924016E+03  0.90907985316E+02 0.  0.
         23    2    4    4    0    0  0.15089560937E+03 -0.18040642133E+03 -0.71870127956E+03  0.76190030414E+03  0.92976246550E+02 0.  0.
          3    1    3    3  502    0 -0.38410548240E+02  0.12504763379E+03  0.52421507252E+03  0.54029040634E+03  0.00000000000E+00 0. -1.
         -4    1    3    3    0  502  0.23928251623E+02  0.15492624530E+02  0.74234203895E+02  0.79519177992E+02  0.00000000000E+00 0.  1.
         11    1    5    5    0    0 -0.46924963925E+02  0.65916830117E+01  0.46996937058E+01  0.47618165076E+02  0.00000000000E+00 0. -1.
        -11    1    5    5    0    0 -0.89488348828E+02  0.33274479999E+02  0.17177071158E+03  0.19652107508E+03  0.00000000000E+00 0.  1.
          2    1    6    6  503    0  0.55281784898E+01 -0.42225105580E+02 -0.61712955980E+02  0.74980058912E+02  0.00000000000E+00 0. -1.
         -2    1    6    6    0  503  0.14536743088E+03 -0.13818131575E+03 -0.65698832358E+03  0.68692024523E+03  0.00000000000E+00 0.  1.
<mgrwt>
<rscale>  0 0.16248769E+04</rscale>
<asrwt>0</asrwt>
<pdfrwt beam="1">  1        1 0.12938981E+00 0.16248769E+04</pdfrwt>
<pdfrwt beam="2">  1       -2 0.12074083E+00 0.16248769E+04</pdfrwt>
<totfact> 0.89404737E+00</totfact>
</mgrwt>
</event>
<event>
12    4  0.4280696E-008  0.1442450E+04  0.7818608E-02  0.8923651E-01
         -2   -1    0    0    0  501 -0.00000000000E+00  0.00000000000E+00  0.21759779431E+03  0.21759779431E+03  0.00000000000E+00 0.  1.
          1   -1    0    0  501    0  0.00000000000E+00 -0.00000000000E+00 -0.23904919962E+04  0.23904919962E+04  0.00000000000E+00 0. -1.
        -24    2    1    2    0    0 -0.26643286744E+03 -0.17834116444E+03 -0.12910934612E+03  0.35471886887E+03  0.79775991941E+02 0.  0.
        254    2    1    2    0    0  0.26643286744E+03  0.17834116444E+03 -0.20437848558E+04  0.22533709217E+04  0.89321438077E+03 0.  0.
         23    2    4    4    0    0 -0.72658538942E+02 -0.12072372391E+03 -0.16143081670E+04  0.16229667694E+04  0.90425637309E+02 0.  0.
         23    2    4    4    0    0  0.33909140638E+03  0.29906488835E+03 -0.42947668884E+03  0.63040415226E+03  0.92392530020E+02 0.  0.
          1    1    3    3  502    0 -0.28909146965E+02 -0.56409537281E+02 -0.23691502153E+02  0.67668766420E+02  0.00000000000E+00 0. -1.
         -2    1    3    3    0  502 -0.23752372047E+03 -0.12193162716E+03 -0.10541784397E+03  0.28705010245E+03  0.00000000000E+00 0.  1.
         11    1    5    5    0    0 -0.45421581998E+02 -0.41035514314E+01 -0.34034974149E+03  0.34339176720E+03  0.00000000000E+00 0. -1.
        -11    1    5    5    0    0 -0.27236956944E+02 -0.11662017247E+03 -0.12739584255E+04  0.12795750022E+04  0.00000000000E+00 0.  1.
          1    1    6    6  503    0  0.10644123502E+02  0.20796879995E+02 -0.15432579989E+01  0.23413441181E+02  0.00000000000E+00 0. -1.
         -1    1    6    6    0  503  0.32844728288E+03  0.27826800835E+03 -0.42793343084E+03  0.60699071108E+03  0.00000000000E+00 0.  1.
<mgrwt>
<rscale>  0 0.14424504E+04</rscale>
<asrwt>0</asrwt>
<pdfrwt beam="1">  1        1 0.36776798E+00 0.14424504E+04</pdfrwt>
<pdfrwt beam="2">  1       -2 0.33476585E-01 0.14424504E+04</pdfrwt>
<totfact> 0.11505914E+01</totfact>
</mgrwt>
</event>
<event>
12    4  0.4280696E-008  0.1745435E+04  0.7818608E-02  0.8735867E-01
          1   -1    0    0  501    0  0.00000000000E+00  0.00000000000E+00  0.12789441731E+04  0.12789441731E+04  0.00000000000E+00 0. -1.
         -2   -1    0    0    0  501 -0.00000000000E+00 -0.00000000000E+00 -0.59551907360E+03  0.59551907360E+03  0.00000000000E+00 0.  1.
        -24    2    1    2    0    0  0.50091996522E+03  0.39133927223E+02 -0.16902047886E+03  0.53620167511E+03  0.80573185985E+02 0.  0.
        254    2    1    2    0    0 -0.50091996522E+03 -0.39133927223E+02  0.85244557832E+03  0.13382615715E+04  0.90101514640E+03 0.  0.
         23    2    4    4    0    0 -0.41569480967E+03  0.33068979387E+03  0.76744688797E+03  0.93809305384E+03  0.94265249451E+02 0.  0.
         23    2    4    4    0    0 -0.85225155555E+02 -0.36982372110E+03  0.84998690348E+02  0.40016851770E+03  0.94218646613E+02 0.  0.
          3    1    3    3  502    0  0.15439832866E+03  0.50351331818E+00 -0.89914980512E+02  0.17867232897E+03  0.00000000000E+00 0. -1.
         -4    1    3    3    0  502  0.34652163657E+03  0.38630413904E+02 -0.79105498353E+02  0.35752934615E+03  0.00000000000E+00 0.  1.
         11    1    5    5    0    0 -0.10381499086E+03  0.34725271581E+02  0.15026131996E+03  0.18590820608E+03  0.00000000000E+00 0. -1.
        -11    1    5    5    0    0 -0.31187981881E+03  0.29596452229E+03  0.61718556802E+03  0.75218484776E+03  0.00000000000E+00 0.  1.
          3    1    6    6  503    0  0.97724365771E+01 -0.14773915345E+03  0.15800213372E+02  0.14890266862E+03  0.00000000000E+00 0. -1.
         -3    1    6    6    0  503 -0.94997592132E+02 -0.22208456765E+03  0.69198476976E+02  0.25126584908E+03  0.00000000000E+00 0.  1.
<mgrwt>
<rscale>  0 0.17454348E+04</rscale>
<asrwt>0</asrwt>
<pdfrwt beam="1">  1        1 0.19676064E+00 0.17454348E+04</pdfrwt>
<pdfrwt beam="2">  1       -2 0.91618320E-01 0.17454348E+04</pdfrwt>
<totfact> 0.78987025E+00</totfact>
</mgrwt>
</event>
<event>
12    4  0.4280696E-008  0.1500349E+04  0.7818608E-02  0.8884221E-01
         -2   -1    0    0    0  501 -0.00000000000E+00  0.00000000000E+00  0.65857839966E+03  0.65857839966E+03  0.00000000000E+00 0.  1.
          1   -1    0    0  501    0  0.00000000000E+00 -0.00000000000E+00 -0.85451009020E+03  0.85451009020E+03  0.00000000000E+00 0. -1.
        -24    2    1    2    0    0  0.32665936879E+02  0.11213343135E+03  0.40275586288E+03  0.42804050340E+03  0.85822011237E+02 0.  0.
        254    2    1    2    0    0 -0.32665936879E+02 -0.11213343135E+03 -0.59868755342E+03  0.10850479865E+04  0.89736356982E+03 0.  0.
         23    2    4    4    0    0  0.33054993177E+03  0.15972903467E+03 -0.47355037603E+03  0.60547441472E+03  0.87021183227E+02 0.  0.
         23    2    4    4    0    0 -0.36321586865E+03 -0.27186246602E+03 -0.12513717738E+03  0.47957357174E+03  0.92176623254E+02 0.  0.
          1    1    3    3  502    0  0.25470620727E+02  0.31299466660E+02  0.41902038897E+02  0.58173791325E+02  0.00000000000E+00 0. -1.
         -2    1    3    3    0  502  0.71953161521E+01  0.80833964691E+02  0.36085382398E+03  0.36986671208E+03  0.00000000000E+00 0.  1.
         11    1    5    5    0    0  0.64584346034E+02  0.27821769204E+02 -0.42785515927E+02  0.82315180662E+02  0.00000000000E+00 0. -1.
        -11    1    5    5    0    0  0.26596558574E+03  0.13190726547E+03 -0.43076486011E+03  0.52315923406E+03  0.00000000000E+00 0.  1.
          4    1    6    6  503    0 -0.24452836081E+03 -0.13869497048E+03 -0.47845247773E+02  0.28516588473E+03  0.00000000000E+00 0.  1.
         -4    1    6    6    0  503 -0.11868750784E+03 -0.13316749554E+03 -0.77291929610E+02  0.19440768701E+03  0.00000000000E+00 0. -1.
<mgrwt>
<rscale>  0 0.15003491E+04</rscale>
<asrwt>0</asrwt>
<pdfrwt beam="1">  1        1 0.13146309E+00 0.15003491E+04</pdfrwt>
<pdfrwt beam="2">  1       -2 0.10131975E+00 0.15003491E+04</pdfrwt>
<totfact> 0.13472622E+01</totfact>
</mgrwt>
</event>
<event>
12    4  0.4280696E-008  0.1306045E+04  0.7818608E-02  0.9024785E-01
          1   -1    0    0  501    0  0.00000000000E+00  0.00000000000E+00  0.20233831801E+03  0.20233831801E+03  0.00000000000E+00 0. -1.
         -2   -1    0    0    0  501 -0.00000000000E+00 -0.00000000000E+00 -0.21075519694E+04  0.21075519694E+04  0.00000000000E+00 0.  1.
        -24    2    1    2    0    0  0.11741762540E+03 -0.57192243349E+02  0.38125190732E+02  0.15838617616E+03  0.81085135360E+02 0.  0.
        254    2    1    2    0    0 -0.11741762540E+03  0.57192243349E+02 -0.19433388421E+04  0.21515041112E+04  0.91397277529E+03 0.  0.
         23    2    4    4    0    0 -0.28168308019E+03  0.42260524443E+02 -0.19401565637E+04  0.19630927145E+04  0.91619891654E+02 0.  0.
         23    2    4    4    0    0  0.16426545479E+03  0.14931718906E+02 -0.31822783673E+01  0.18841139668E+03  0.91008964596E+02 0.  0.
          3    1    3    3  502    0  0.12795467853E+03 -0.46400927886E+02  0.24984822050E+02  0.13838239484E+03  0.00000000000E+00 0. -1.
         -4    1    3    3    0  502 -0.10537053135E+02 -0.10791315462E+02  0.13140368682E+02  0.20003781324E+02  0.00000000000E+00 0.  1.
         11    1    5    5    0    0 -0.26758790072E+03  0.60926036413E+02 -0.17289768736E+04  0.17506216884E+04  0.00000000000E+00 0. -1.
        -11    1    5    5    0    0 -0.14095179465E+02 -0.18665511970E+02 -0.21117969010E+03  0.21247102610E+03  0.00000000000E+00 0.  1.
          4    1    6    6  503    0  0.14807665990E+03  0.25742949403E+01  0.28433375644E+02  0.15080378328E+03  0.00000000000E+00 0. -1.
         -4    1    6    6    0  503  0.16188794890E+02  0.12357423966E+02 -0.31615654011E+02  0.37607613400E+02  0.00000000000E+00 0.  1.
<mgrwt>
<rscale>  0 0.13060452E+04</rscale>
<asrwt>0</asrwt>
<pdfrwt beam="1">  1        1 0.31128975E-01 0.13060452E+04</pdfrwt>
<pdfrwt beam="2">  1       -2 0.32423874E+00 0.13060452E+04</pdfrwt>
<totfact> 0.28527941E+00</totfact>
</mgrwt>
</event>
<event>
12    4  0.4280696E-008  0.1838873E+04  0.7818608E-02  0.8685896E-01
         -2   -1    0    0    0  501 -0.00000000000E+00  0.00000000000E+00  0.26054914894E+04  0.26054914894E+04  0.00000000000E+00 0.  1.
          1   -1    0    0  501    0  0.00000000000E+00 -0.00000000000E+00 -0.32445451259E+03  0.32445451259E+03  0.00000000000E+00 0. -1.
        -24    2    1    2    0    0 -0.20149468452E+03  0.44980925737E+03  0.82975520230E+02  0.50684734036E+03  0.84147570185E+02 0.  0.
        254    2    1    2    0    0  0.20149468452E+03 -0.44980925737E+03  0.21980614566E+04  0.24230986616E+04  0.89275107457E+03 0.  0.
         23    2    4    4    0    0 -0.12338096826E+03 -0.59003082357E+03  0.16957674271E+04  0.18019575141E+04  0.89802449006E+02 0.  0.
         23    2    4    4    0    0  0.32487565278E+03  0.14022156620E+03  0.50229402947E+03  0.62114114748E+03  0.91163345999E+02 0.  0.
          3    1    3    3  502    0 -0.20196057919E+03  0.43731302538E+03  0.93279270393E+02  0.49064424994E+03  0.00000000000E+00 0. -1.
         -4    1    3    3    0  502  0.46589467069E+00  0.12496231989E+02 -0.10303750162E+02  0.16203090420E+02  0.00000000000E+00 0.  1.
         11    1    5    5    0    0 -0.12878434459E+03 -0.44344305012E+03  0.12415138572E+04  0.13246070375E+04  0.00000000000E+00 0. -1.
        -11    1    5    5    0    0  0.54033763309E+01 -0.14658777345E+03  0.45425356991E+03  0.47735047667E+03  0.00000000000E+00 0.  1.
          3    1    6    6  503    0  0.21296009030E+03  0.67700859923E+02  0.37646252316E+03  0.43778926190E+03  0.00000000000E+00 0. -1.
         -3    1    6    6    0  503  0.11191556248E+03  0.72520706278E+02  0.12583150632E+03  0.18335188558E+03  0.00000000000E+00 0.  1.
<mgrwt>
<rscale>  0 0.18388730E+04</rscale>
<asrwt>0</asrwt>
<pdfrwt beam="1">  1        1 0.49916081E-01 0.18388730E+04</pdfrwt>
<pdfrwt beam="2">  1       -2 0.40084483E+00 0.18388730E+04</pdfrwt>
<totfact> 0.47882454E-01</totfact>
</mgrwt>
</event>
<event>
12    4  0.4280696E-008  0.1620259E+04  0.7818608E-02  0.8808198E-01
         -2   -1    0    0    0  501 -0.00000000000E+00  0.00000000000E+00  0.78369921578E+03  0.78369921578E+03  0.00000000000E+00 0.  1.
          1   -1    0    0  501    0  0.00000000000E+00 -0.00000000000E+00 -0.83745091987E+03  0.83745091987E+03  0.00000000000E+00 0. -1.
        -24    2    1    2    0    0 -0.32943661429E+03  0.21083303200E+03  0.38025535349E+03  0.55136477345E+03  0.80186840145E+02 0.  0.
        254    2    1    2    0    0  0.32943661429E+03 -0.21083303200E+03 -0.43400705758E+03  0.10697853622E+04  0.89615821423E+03 0.  0.
         23    2    4    4    0    0 -0.18783039546E+03 -0.20872687736E+03  0.10727621127E+03  0.31438929963E+03  0.92115576449E+02 0.  0.
         23    2    4    4    0    0  0.51726700974E+03 -0.21061546413E+01 -0.54128326885E+03  0.75539606257E+03  0.10032965145E+03 0.  0.
          3    1    3    3  502    0 -0.14693397856E+03  0.54332079280E+02  0.17863627853E+03  0.23759732512E+03  0.00000000000E+00 0. -1.
         -4    1    3    3    0  502 -0.18250263572E+03  0.15650095272E+03  0.20161907496E+03  0.31376744834E+03  0.00000000000E+00 0.  1.
         11    1    5    5    0    0 -0.79942636170E+02 -0.15264678720E+03  0.78960969511E+02  0.18954340249E+03  0.00000000000E+00 0.  1.
        -11    1    5    5    0    0 -0.10788775929E+03 -0.56080090159E+02  0.28315241760E+02  0.12484589714E+03  0.00000000000E+00 0. -1.
          2    1    6    6  503    0  0.67578764001E+01  0.14639484455E+02 -0.16079480715E+02  0.22771321846E+02  0.00000000000E+00 0. -1.
         -2    1    6    6    0  503  0.51050913334E+03 -0.16745639096E+02 -0.52520378813E+03  0.73262474073E+03  0.00000000000E+00 0.  1.
<mgrwt>
<rscale>  0 0.16202588E+04</rscale>
<asrwt>0</asrwt>
<pdfrwt beam="1">  1        1 0.12883860E+00 0.16202588E+04</pdfrwt>
<pdfrwt beam="2">  1       -2 0.12056911E+00 0.16202588E+04</pdfrwt>
<totfact> 0.90387352E+00</totfact>
</mgrwt>
</event>
<event>
12    4  0.4280696E-008  0.1621196E+04  0.7818608E-02  0.8807631E-01
          1   -1    0    0  501    0  0.00000000000E+00  0.00000000000E+00  0.18755664473E+04  0.18755664473E+04  0.00000000000E+00 0. -1.
         -2   -1    0    0    0  501 -0.00000000000E+00 -0.00000000000E+00 -0.35033106380E+03  0.35033106380E+03  0.00000000000E+00 0.  1.
        -24    2    1    2    0    0  0.14045004829E+03 -0.12748199411E+03  0.12479100994E+04  0.12650440619E+04  0.84136719356E+02 0.  0.
        254    2    1    2    0    0 -0.14045004829E+03  0.12748199411E+03  0.27732528413E+03  0.96085344920E+03  0.90019562470E+03 0.  0.
         23    2    4    4    0    0 -0.44189509681E+03 -0.17377264872E+03  0.15373248920E+03  0.50774492710E+03  0.93289992667E+02 0.  0.
         23    2    4    4    0    0  0.30144504852E+03  0.30125464283E+03  0.12359279493E+03  0.45310852209E+03  0.91698837137E+02 0.  0.
          1    1    3    3  502    0  0.13401556068E+03 -0.75646775939E+02  0.99103009892E+03  0.10029074046E+04  0.00000000000E+00 0. -1.
         -2    1    3    3    0  502  0.64344876133E+01 -0.51835218169E+02  0.25688000050E+03  0.26213665735E+03  0.00000000000E+00 0.  1.
         11    1    5    5    0    0 -0.26610040474E+03 -0.84436675565E+02  0.45675874857E+02  0.28288736827E+03  0.00000000000E+00 0.  1.
        -11    1    5    5    0    0 -0.17579469207E+03 -0.89335973158E+02  0.10805661434E+03  0.22485755883E+03  0.00000000000E+00 0. -1.
          2    1    6    6  503    0  0.17831063150E+03  0.13653743561E+03  0.10089492884E+03  0.24620507569E+03  0.00000000000E+00 0.  1.
         -2    1    6    6    0  503  0.12313441701E+03  0.16471720722E+03  0.22697866085E+02  0.20690344640E+03  0.00000000000E+00 0. -1.
<mgrwt>
<rscale>  0 0.16211961E+04</rscale>
<asrwt>0</asrwt>
<pdfrwt beam="1">  1        1 0.28854868E+00 0.16211961E+04</pdfrwt>
<pdfrwt beam="2">  1       -2 0.53897088E-01 0.16211961E+04</pdfrwt>
<totfact> 0.98716397E+00</totfact>
</mgrwt>
</event>
<event>
12    4  0.4280696E-008  0.2236899E+04  0.7818608E-02  0.8503225E-01
         -4   -1    0    0    0  501 -0.00000000000E+00  0.00000000000E+00  0.13368474296E+04  0.13368474296E+04  0.00000000000E+00 0.  1.
          3   -1    0    0  501    0  0.00000000000E+00 -0.00000000000E+00 -0.93573054840E+03  0.93573054840E+03  0.00000000000E+00 0. -1.
        -24    2    1    2    0    0 -0.62648617860E+03  0.33903387290E+03 -0.41951140730E+03  0.83046889861E+03  0.79119351251E+02 0.  0.
        254    2    1    2    0    0  0.62648617860E+03 -0.33903387290E+03  0.82062828851E+03  0.14421090794E+04  0.94806060461E+03 0.  0.
         23    2    4    4    0    0  0.39449135151E+03 -0.64220950907E+03  0.37143989233E+03  0.84588604307E+03  0.97463451103E+02 0.  0.
         23    2    4    4    0    0  0.23199482709E+03  0.30317563616E+03  0.44918839618E+03  0.59622303632E+03  0.89300770538E+02 0.  0.
          1    1    3    3  502    0 -0.47866135684E+03  0.24923898675E+03 -0.35455358760E+03  0.64571279492E+03  0.00000000000E+00 0. -1.
         -2    1    3    3    0  502 -0.14782482175E+03  0.89794886159E+02 -0.64957819707E+02  0.18475610368E+03  0.00000000000E+00 0.  1.
         11    1    5    5    0    0  0.22433650171E+03 -0.38246825387E+03  0.16548811440E+03  0.47328125594E+03  0.00000000000E+00 0. -1.
        -11    1    5    5    0    0  0.17015484980E+03 -0.25974125520E+03  0.20595177793E+03  0.37260478714E+03  0.00000000000E+00 0.  1.
          4    1    6    6  503    0  0.17430892131E+03  0.17596297271E+03  0.32995200110E+03  0.41257107368E+03  0.00000000000E+00 0. -1.
         -4    1    6    6    0  503  0.57685905784E+02  0.12721266345E+03  0.11923639508E+03  0.18365196264E+03  0.00000000000E+00 0.  1.
<mgrwt>
<rscale>  0 0.22368987E+04</rscale>
<asrwt>0</asrwt>
<pdfrwt beam="1">  1        3 0.14395855E+00 0.22368987E+04</pdfrwt>
<pdfrwt beam="2">  1       -4 0.20566884E+00 0.22368987E+04</pdfrwt>
<totfact> 0.90336534E-02</totfact>
</mgrwt>
</event>
<event>
12    4  0.4280696E-008  0.1602321E+04  0.7818608E-02  0.8819123E-01
         -2   -1    0    0    0  501 -0.00000000000E+00  0.00000000000E+00  0.44295331012E+03  0.44295331012E+03  0.00000000000E+00 0.  1.
          1   -1    0    0  501    0  0.00000000000E+00 -0.00000000000E+00 -0.14490425912E+04  0.14490425912E+04  0.00000000000E+00 0. -1.
        -24    2    1    2    0    0  0.48702780885E+03  0.20720659146E+03 -0.49988629553E+03  0.73401078995E+03  0.93567479231E+02 0.  0.
        254    2    1    2    0    0 -0.48702780885E+03 -0.20720659146E+03 -0.50620298556E+03  0.11579851114E+04  0.89697123558E+03 0.  0.
         23    2    4    4    0    0  0.10459979782E+03  0.24715673447E+03 -0.79500446613E+02  0.29384851462E+03  0.89437461029E+02 0.  0.
         23    2    4    4    0    0 -0.59162760667E+03 -0.45436332593E+03 -0.42670253895E+03  0.86413659676E+03  0.90486154787E+02 0.  0.
          3    1    3    3  502    0  0.94918160312E+02  0.22201674340E+02 -0.13972306958E+03  0.17036697941E+03  0.00000000000E+00 0. -1.
         -4    1    3    3    0  502  0.39210964854E+03  0.18500491712E+03 -0.36016322595E+03  0.56364381054E+03  0.00000000000E+00 0.  1.
         11    1    5    5    0    0  0.74074980740E+02  0.10438475267E+03 -0.73777824194E+02  0.14773776330E+03  0.00000000000E+00 0.  1.
        -11    1    5    5    0    0  0.30524817077E+02  0.14277198179E+03 -0.57226224190E+01  0.14611075132E+03  0.00000000000E+00 0. -1.
          4    1    6    6  503    0 -0.20263100836E+03 -0.19120957160E+03 -0.19777419258E+03  0.34166512417E+03  0.00000000000E+00 0. -1.
         -4    1    6    6    0  503 -0.38899659830E+03 -0.26315375433E+03 -0.22892834637E+03  0.52247147260E+03  0.00000000000E+00 0.  1.
<mgrwt>
<rscale>  0 0.16023211E+04</rscale>
<asrwt>0</asrwt>
<pdfrwt beam="1">  1        1 0.22292963E+00 0.16023211E+04</pdfrwt>
<pdfrwt beam="2">  1       -2 0.68146664E-01 0.16023211E+04</pdfrwt>
<totfact> 0.11776251E+01</totfact>
</mgrwt>
</event>
<event>
12    4  0.4280696E-008  0.1498740E+04  0.7818608E-02  0.8885291E-01
          3   -1    0    0  501    0  0.00000000000E+00  0.00000000000E+00  0.32395577033E+03  0.32395577033E+03  0.00000000000E+00 0. -1.
         -4   -1    0    0    0  501 -0.00000000000E+00 -0.00000000000E+00 -0.17334318572E+04  0.17334318572E+04  0.00000000000E+00 0.  1.
        -24    2    1    2    0    0 -0.34957379232E+03 -0.18822974533E+03 -0.85710904322E+02  0.41392059750E+03  0.79697105399E+02 0.  0.
        254    2    1    2    0    0  0.34957379232E+03  0.18822974533E+03 -0.13237651826E+04  0.16434670301E+04  0.88938031628E+03 0.  0.
         23    2    4    4    0    0  0.61860312413E+03  0.65174908320E+02 -0.66566517177E+03  0.91556487917E+03  0.90726695170E+02 0.  0.
         23    2    4    4    0    0 -0.26902933181E+03  0.12305483701E+03 -0.65810001083E+03  0.72790215090E+03  0.96055414983E+02 0.  0.
          3    1    3    3  502    0 -0.27493932079E+03 -0.14504091744E+03 -0.32384058182E+02  0.31253355831E+03  0.00000000000E+00 0. -1.
         -4    1    3    3    0  502 -0.74634471529E+02 -0.43188827892E+02 -0.53326846140E+02  0.10138703918E+03  0.00000000000E+00 0.  1.
         11    1    5    5    0    0  0.71763075364E+02  0.23121530750E+02 -0.12127763294E+03  0.14280339079E+03  0.00000000000E+00 0. -1.
        -11    1    5    5    0    0  0.54684004876E+03  0.42053377570E+02 -0.54438753883E+03  0.77276148839E+03  0.00000000000E+00 0.  1.
          2    1    6    6  503    0 -0.16841305263E+03  0.24605815308E+02 -0.35248069991E+03  0.39142182649E+03  0.00000000000E+00 0. -1.
         -2    1    6    6    0  503 -0.10061627918E+03  0.98449021700E+02 -0.30561931092E+03  0.33648032441E+03  0.00000000000E+00 0.  1.
<mgrwt>
<rscale>  0 0.14987398E+04</rscale>
<asrwt>0</asrwt>
<pdfrwt beam="1">  1        3 0.49839349E-01 0.14987398E+04</pdfrwt>
<pdfrwt beam="2">  1       -4 0.26668183E+00 0.14987398E+04</pdfrwt>
<totfact> 0.44049454E-01</totfact>
</mgrwt>
</event>
<event>
12    4  0.4280696E-008  0.2106621E+04  0.7818608E-02  0.8558332E-01
         -2   -1    0    0    0  501 -0.00000000000E+00  0.00000000000E+00  0.11223855019E+04  0.11223855019E+04  0.00000000000E+00 0.  1.
          1   -1    0    0  501    0  0.00000000000E+00 -0.00000000000E+00 -0.98848692668E+03  0.98848692668E+03  0.00000000000E+00 0. -1.
        -24    2    1    2    0    0  0.16737808378E+03 -0.68779106169E+03  0.54654967398E+03  0.89748675192E+03  0.75458308206E+02 0.  0.
        254    2    1    2    0    0 -0.16737808378E+03  0.68779106169E+03 -0.41265109877E+03  0.12133856767E+04  0.89495916305E+03 0.  0.
         23    2    4    4    0    0  0.18446987392E+03  0.17043239632E+03 -0.50921109576E+03  0.57382931902E+03  0.83113243353E+02 0.  0.
         23    2    4    4    0    0 -0.35184795770E+03  0.51735866537E+03  0.96559996994E+02  0.63955635764E+03  0.90837919429E+02 0.  0.
          1    1    3    3  502    0  0.73571790645E+02 -0.34315660629E+03  0.22491977702E+03  0.41684310108E+03  0.00000000000E+00 0. -1.
         -2    1    3    3    0  502  0.93806293134E+02 -0.34463445540E+03  0.32162989696E+03  0.48064365084E+03  0.00000000000E+00 0.  1.
         11    1    5    5    0    0  0.13667869297E+03  0.15730445460E+03 -0.45456906091E+03  0.50005878423E+03  0.00000000000E+00 0. -1.
        -11    1    5    5    0    0  0.47791180948E+02  0.13127941713E+02 -0.54642034852E+02  0.73770534787E+02  0.00000000000E+00 0.  1.
          3    1    6    6  503    0 -0.27709046035E+03  0.46257708893E+03  0.75095895779E+02  0.54442270341E+03  0.00000000000E+00 0. -1.
         -3    1    6    6    0  503 -0.74757497342E+02  0.54781576438E+02  0.21464101215E+02  0.95133654228E+02  0.00000000000E+00 0.  1.
<mgrwt>
<rscale>  0 0.21066214E+04</rscale>
<asrwt>0</asrwt>
<pdfrwt beam="1">  1        1 0.15207491E+00 0.21066214E+04</pdfrwt>
<pdfrwt beam="2">  1       -2 0.17267469E+00 0.21066214E+04</pdfrwt>
<totfact> 0.25395940E+00</totfact>
</mgrwt>
</event>
<event>
12    4  0.4280696E-008  0.1887843E+04  0.7818608E-02  0.8660931E-01
         -2   -1    0    0    0  501 -0.00000000000E+00  0.00000000000E+00  0.40168721760E+03  0.40168721760E+03  0.00000000000E+00 0.  1.
          1   -1    0    0  501    0  0.00000000000E+00 -0.00000000000E+00 -0.22181141431E+04  0.22181141431E+04  0.00000000000E+00 0. -1.
        -24    2    1    2    0    0  0.87243805351E+02  0.71962094685E+03 -0.77729715575E+03  0.10659755365E+04  0.81530284375E+02 0.  0.
        254    2    1    2    0    0 -0.87243805351E+02 -0.71962094685E+03 -0.10391297698E+04  0.15538258243E+04  0.89950999161E+03 0.  0.
         23    2    4    4    0    0 -0.18000388830E+03 -0.22662466189E+03  0.88663070933E+02  0.31605600001E+03  0.90940188116E+02 0.  0.
         23    2    4    4    0    0  0.92760082946E+02 -0.49299628496E+03 -0.11277928407E+04  0.12377698243E+04  0.92237065863E+02 0.  0.
          1    1    3    3  502    0  0.18690966768E+02  0.22140931664E+03 -0.29367730589E+03  0.36826321800E+03  0.00000000000E+00 0. -1.
         -2    1    3    3    0  502  0.68552838583E+02  0.49821163021E+03 -0.48361984986E+03  0.69771231846E+03  0.00000000000E+00 0.  1.
         11    1    5    5    0    0  0.38106999022E+01  0.94256360085E+00 -0.72144357075E+01  0.82132784236E+01  0.00000000000E+00 0. -1.
        -11    1    5    5    0    0 -0.18381458820E+03 -0.22756722550E+03  0.95877506641E+02  0.30784272159E+03  0.00000000000E+00 0.  1.
          4    1    6    6  503    0  0.14516752014E+01 -0.36817960340E+01  0.10161854291E+01  0.40860268909E+01  0.00000000000E+00 0. -1.
         -4    1    6    6    0  503  0.91308407745E+02 -0.48931448892E+03 -0.11288090261E+04  0.12336837974E+04  0.00000000000E+00 0.  1.
<mgrwt>
<rscale>  0 0.18878433E+04</rscale>
<asrwt>0</asrwt>
<pdfrwt beam="1">  1        1 0.34124833E+00 0.18878433E+04</pdfrwt>
<pdfrwt beam="2">  1       -2 0.61798033E-01 0.18878433E+04</pdfrwt>
<totfact> 0.42378005E+00</totfact>
</mgrwt>
</event>
<event>
12    4  0.4280696E-008  0.1580192E+04  0.7818608E-02  0.8832810E-01
          1   -1    0    0  501    0  0.00000000000E+00  0.00000000000E+00  0.84401590340E+03  0.84401590340E+03  0.00000000000E+00 0. -1.
         -2   -1    0    0    0  501 -0.00000000000E+00 -0.00000000000E+00 -0.73962091775E+03  0.73962091775E+03  0.00000000000E+00 0.  1.
        -24    2    1    2    0    0 -0.35937206052E+03  0.35993756849E+03 -0.87859873821E+02  0.52243023395E+03  0.80688666017E+02 0.  0.
        254    2    1    2    0    0  0.35937206052E+03 -0.35993756849E+03  0.19225485948E+03  0.10612065872E+04  0.91131452234E+03 0.  0.
         23    2    4    4    0    0  0.15893443569E+03 -0.22439782613E+03 -0.35395787651E+03  0.45773815471E+03  0.92862805882E+02 0.  0.
         23    2    4    4    0    0  0.20043762483E+03 -0.13553974236E+03  0.54621273599E+03  0.60346843249E+03  0.85320178451E+02 0.  0.
          3    1    3    3  502    0 -0.30683753884E+03  0.31975508232E+03 -0.49364116024E+02  0.44590290856E+03  0.00000000000E+00 0. -1.
         -4    1    3    3    0  502 -0.52534521676E+02  0.40182486170E+02 -0.38495757797E+02  0.76527325387E+02  0.00000000000E+00 0.  1.
         11    1    5    5    0    0  0.58454565525E+01 -0.78007511726E+02 -0.88129348621E+02  0.11783939637E+03  0.00000000000E+00 0.  1.
        -11    1    5    5    0    0  0.15308897914E+03 -0.14639031440E+03 -0.26582852789E+03  0.33989875834E+03  0.00000000000E+00 0. -1.
          3    1    6    6  503    0  0.19137024611E+03 -0.14612392748E+03  0.52972645453E+03  0.58188047734E+03  0.00000000000E+00 0. -1.
         -3    1    6    6    0  503  0.90673787167E+01  0.10584185116E+02  0.16486281458E+02  0.21587955153E+02  0.00000000000E+00 0.  1.
<mgrwt>
<rscale>  0 0.15801922E+04</rscale>
<asrwt>0</asrwt>
<pdfrwt beam="1">  1        1 0.12984860E+00 0.15801922E+04</pdfrwt>
<pdfrwt beam="2">  1       -2 0.11378783E+00 0.15801922E+04</pdfrwt>
<totfact> 0.10323905E+01</totfact>
</mgrwt>
</event>
<event>
12    4  0.4280696E-008  0.4322497E+04  0.7818608E-02  0.7942471E-01
         -2   -1    0    0    0  501 -0.00000000000E+00  0.00000000000E+00  0.21743754379E+04  0.21743754379E+04  0.00000000000E+00 0.  1.
          1   -1    0    0  501    0  0.00000000000E+00 -0.00000000000E+00 -0.21482012507E+04  0.21482012507E+04  0.00000000000E+00 0. -1.
        -24    2    1    2    0    0 -0.10112149299E+04 -0.11851662292E+04  0.13755926200E+04  0.20798478702E+04  0.79608302987E+02 0.  0.
        254    2    1    2    0    0  0.10112149299E+04  0.11851662292E+04 -0.13494184328E+04  0.22427288184E+04  0.88415373161E+03 0.  0.
         23    2    4    4    0    0  0.51604173719E+03  0.16576756393E+03 -0.82105407922E+03  0.98817662065E+03  0.92656747336E+02 0.  0.
         23    2    4    4    0    0  0.49517319270E+03  0.10193986652E+04 -0.52836435355E+03  0.12545521978E+04  0.10179487899E+03 0.  0.
          1    1    3    3  502    0 -0.10102046866E+03 -0.15288367543E+03  0.17855005666E+03  0.25584893205E+03  0.00000000000E+00 0. -1.
         -2    1    3    3    0  502 -0.91019446123E+03 -0.10322825537E+04  0.11970425633E+04  0.18239989382E+04  0.00000000000E+00 0.  1.
         11    1    5    5    0    0  0.12347389839E+03  0.68029102158E+02 -0.16086997162E+03  0.21389929896E+03  0.00000000000E+00 0.  1.
        -11    1    5    5    0    0  0.39256783880E+03  0.97738461769E+02 -0.66018410759E+03  0.77427732169E+03  0.00000000000E+00 0. -1.
          3    1    6    6  503    0  0.33317053798E+03  0.68105345570E+03 -0.40555074979E+03  0.85983011552E+03  0.00000000000E+00 0. -1.
         -3    1    6    6    0  503  0.16200265472E+03  0.33834520954E+03 -0.12281360376E+03  0.39472208225E+03  0.00000000000E+00 0.  1.
<mgrwt>
<rscale>  0 0.43224974E+04</rscale>
<asrwt>0</asrwt>
<pdfrwt beam="1">  1        1 0.33049250E+00 0.43224974E+04</pdfrwt>
<pdfrwt beam="2">  1       -2 0.33451930E+00 0.43224974E+04</pdfrwt>
<totfact> 0.30805899E-02</totfact>
</mgrwt>
</event>
<event>
12    4  0.4280696E-008  0.2519400E+04  0.7818608E-02  0.8396107E-01
          1   -1    0    0  501    0  0.00000000000E+00  0.00000000000E+00  0.18291111991E+04  0.18291111991E+04  0.00000000000E+00 0. -1.
         -2   -1    0    0    0  501 -0.00000000000E+00 -0.00000000000E+00 -0.86754912044E+03  0.86754912044E+03  0.00000000000E+00 0.  1.
        -24    2    1    2    0    0 -0.27954517752E+03 -0.63204283891E+03 -0.49611832672E+03  0.85442517412E+03  0.79280057868E+02 0.  0.
        254    2    1    2    0    0  0.27954517752E+03  0.63204283891E+03  0.14576804054E+04  0.18422351455E+04  0.88959232819E+03 0.  0.
         23    2    4    4    0    0  0.54034803741E+03  0.60393005955E+03  0.12621031102E+04  0.15024710125E+04  0.88359290531E+02 0.  0.
         23    2    4    4    0    0 -0.26080285988E+03  0.28112779359E+02  0.19557729520E+03  0.33976413297E+03  0.91546313801E+02 0.  0.
          3    1    3    3  502    0 -0.96518296189E+02 -0.30875503834E+03 -0.21261890523E+03  0.38710754844E+03  0.00000000000E+00 0. -1.
         -4    1    3    3    0  502 -0.18302688134E+03 -0.32328780057E+03 -0.28349942148E+03  0.46731762568E+03  0.00000000000E+00 0.  1.
         11    1    5    5    0    0  0.19065358960E+03  0.21345793803E+03  0.52580128823E+03  0.59864854234E+03  0.00000000000E+00 0.  1.
        -11    1    5    5    0    0  0.34969444781E+03  0.39047212152E+03  0.73630182198E+03  0.90382247016E+03  0.00000000000E+00 0. -1.
          1    1    6    6  503    0 -0.16632135141E+03 -0.26640788637E+02  0.11252667651E+03  0.20257042351E+03  0.00000000000E+00 0. -1.
         -1    1    6    6    0  503 -0.94481508469E+02  0.54753567996E+02  0.83050618695E+02  0.13719370946E+03  0.00000000000E+00 0.  1.
<mgrwt>
<rscale>  0 0.25193998E+04</rscale>
<asrwt>0</asrwt>
<pdfrwt beam="1">  1        1 0.28140172E+00 0.25193998E+04</pdfrwt>
<pdfrwt beam="2">  1       -2 0.13346910E+00 0.25193998E+04</pdfrwt>
<totfact> 0.12320216E+00</totfact>
</mgrwt>
</event>
<event>
12    4  0.4280696E-008  0.2380466E+04  0.7818608E-02  0.8446853E-01
          1   -1    0    0  501    0  0.00000000000E+00  0.00000000000E+00  0.15487528010E+04  0.15487528010E+04  0.00000000000E+00 0. -1.
         -2   -1    0    0    0  501 -0.00000000000E+00 -0.00000000000E+00 -0.91470695388E+03  0.91470695388E+03  0.00000000000E+00 0.  1.
        -24    2    1    2    0    0 -0.12286876813E+03  0.10072026660E+04  0.20112005927E+03  0.10374960808E+04  0.79968087179E+02 0.  0.
        254    2    1    2    0    0  0.12286876813E+03 -0.10072026660E+04  0.43292578787E+03  0.14259636741E+04  0.90354508330E+03 0.  0.
         23    2    4    4    0    0  0.32543185104E+03 -0.70887730173E+03 -0.82449728374E+02  0.78985119009E+03  0.93027018691E+02 0.  0.
         23    2    4    4    0    0 -0.20256308291E+03 -0.29832536423E+03  0.51537551624E+03  0.63611248400E+03  0.94854330751E+02 0.  0.
          3    1    3    3  502    0 -0.78349271628E+02  0.65221044502E+03  0.91084517066E+02  0.66318433501E+03  0.00000000000E+00 0. -1.
         -4    1    3    3    0  502 -0.44519496501E+02  0.35499222093E+03  0.11003554221E+03  0.37431174580E+03  0.00000000000E+00 0.  1.
         11    1    5    5    0    0  0.24517923734E+03 -0.44258799541E+03 -0.76153584327E+02  0.51166039568E+03  0.00000000000E+00 0. -1.
        -11    1    5    5    0    0  0.80252613699E+02 -0.26628930632E+03 -0.62961440475E+01  0.27819079441E+03  0.00000000000E+00 0.  1.
          1    1    6    6  503    0 -0.10486557832E+03 -0.22683661997E+03  0.37637485181E+03  0.45178498288E+03  0.00000000000E+00 0. -1.
         -1    1    6    6    0  503 -0.97697504596E+02 -0.71488744252E+02  0.13900066443E+03  0.18432750113E+03  0.00000000000E+00 0.  1.
<mgrwt>
<rscale>  0 0.23804663E+04</rscale>
<asrwt>0</asrwt>
<pdfrwt beam="1">  1        1 0.23826966E+00 0.23804663E+04</pdfrwt>
<pdfrwt beam="2">  1       -2 0.14072415E+00 0.23804663E+04</pdfrwt>
<totfact> 0.16906554E+00</totfact>
</mgrwt>
</event>
<event>
12    4  0.4280696E-008  0.1803030E+04  0.7818608E-02  0.8704690E-01
          1   -1    0    0  501    0  0.00000000000E+00  0.00000000000E+00  0.91761521416E+03  0.91761521416E+03  0.00000000000E+00 0. -1.
         -2   -1    0    0    0  501 -0.00000000000E+00 -0.00000000000E+00 -0.88569751361E+03  0.88569751361E+03  0.00000000000E+00 0.  1.
        -24    2    1    2    0    0  0.22673184793E+02 -0.23198330053E+03 -0.62397487402E+03  0.67084142969E+03  0.79707310443E+02 0.  0.
        254    2    1    2    0    0 -0.22673184793E+02  0.23198330053E+03  0.65589257458E+03  0.11324712981E+04  0.89328934090E+03 0.  0.
         23    2    4    4    0    0 -0.15787053492E+03 -0.16344540651E+03  0.66112713689E+03  0.70423135035E+03  0.84942315532E+02 0.  0.
         23    2    4    4    0    0  0.13519735013E+03  0.39542870704E+03 -0.52345623172E+01  0.42823994774E+03  0.93380224691E+02 0.  0.
          1    1    3    3  502    0 -0.21460316234E+02 -0.14775202621E+03 -0.33906553306E+03  0.37048163535E+03  0.00000000000E+00 0. -1.
         -2    1    3    3    0  502  0.44133501027E+02 -0.84231274326E+02 -0.28490934096E+03  0.30035979433E+03  0.00000000000E+00 0.  1.
         11    1    5    5    0    0 -0.11819843018E+03 -0.62965178139E+02  0.34026412087E+03  0.36567082807E+03  0.00000000000E+00 0. -1.
        -11    1    5    5    0    0 -0.39672104746E+02 -0.10048022837E+03  0.32086301603E+03  0.33856052227E+03  0.00000000000E+00 0.  1.
          2    1    6    6  503    0  0.46617232040E+02  0.66743667352E+02 -0.30391925045E+02  0.86899669520E+02  0.00000000000E+00 0. -1.
         -2    1    6    6    0  503  0.88580118092E+02  0.32868503969E+03  0.25157362728E+02  0.34134027822E+03  0.00000000000E+00 0.  1.
<mgrwt>
<rscale>  0 0.18030302E+04</rscale>
<asrwt>0</asrwt>
<pdfrwt beam="1">  1        1 0.14117157E+00 0.18030302E+04</pdfrwt>
<pdfrwt beam="2">  1       -2 0.13626116E+00 0.18030302E+04</pdfrwt>
<totfact> 0.56055839E+00</totfact>
</mgrwt>
</event>
<event>
12    4  0.4280696E-008  0.1114037E+04  0.7818608E-02  0.9191617E-01
          1   -1    0    0  501    0  0.00000000000E+00  0.00000000000E+00  0.62637175978E+03  0.62637175978E+03  0.00000000000E+00 0. -1.
         -2   -1    0    0    0  501 -0.00000000000E+00 -0.00000000000E+00 -0.49534424473E+03  0.49534424473E+03  0.00000000000E+00 0.  1.
        -24    2    1    2    0    0  0.53308144563E+02  0.24094546725E+02  0.14794312474E+03  0.17796702925E+03  0.79767097735E+02 0.  0.
        254    2    1    2    0    0 -0.53308144563E+02 -0.24094546725E+02 -0.16915609696E+02  0.94374897527E+03  0.94178218554E+03 0.  0.
         23    2    4    4    0    0 -0.33703986953E+03 -0.14940583767E+03  0.30558762625E+03  0.48763623904E+03  0.92126686300E+02 0.  0.
         23    2    4    4    0    0  0.28373172497E+03  0.12531129095E+03 -0.32250323595E+03  0.45611273622E+03  0.88452696713E+02 0.  0.
          3    1    3    3  502    0  0.52676166059E+02  0.16011144346E+02  0.15666569046E+03  0.16605804341E+03  0.00000000000E+00 0. -1.
         -4    1    3    3    0  502  0.63197850333E+00  0.80834023794E+01 -0.87225657189E+01  0.11908985833E+02  0.00000000000E+00 0.  1.
         11    1    5    5    0    0 -0.38845887112E+02 -0.53530661232E+02  0.42874819069E+02  0.78821220160E+02  0.00000000000E+00 0. -1.
        -11    1    5    5    0    0 -0.29819398242E+03 -0.95875176442E+02  0.26271280718E+03  0.40881501888E+03  0.00000000000E+00 0.  1.
          3    1    6    6  503    0  0.17692077722E+03  0.10427922684E+03 -0.25733281218E+03  0.32923440706E+03  0.00000000000E+00 0. -1.
         -3    1    6    6    0  503  0.10681094774E+03  0.21032064111E+02 -0.65170423765E+02  0.12687832917E+03  0.00000000000E+00 0.  1.
<mgrwt>
<rscale>  0 0.11140371E+04</rscale>
<asrwt>0</asrwt>
<pdfrwt beam="1">  1        1 0.96364887E-01 0.11140371E+04</pdfrwt>
<pdfrwt beam="2">  1       -2 0.76206806E-01 0.11140371E+04</pdfrwt>
<totfact> 0.43220945E+01</totfact>
</mgrwt>
</event>
<event>
12    4  0.4280696E-008  0.1416296E+04  0.7818608E-02  0.8942106E-01
         -2   -1    0    0    0  501 -0.00000000000E+00  0.00000000000E+00  0.36947116424E+03  0.36947116424E+03  0.00000000000E+00 0.  1.
          1   -1    0    0  501    0  0.00000000000E+00 -0.00000000000E+00 -0.13572742745E+04  0.13572742745E+04  0.00000000000E+00 0. -1.
        -24    2    1    2    0    0 -0.38326357146E+03 -0.18531294787E+03 -0.26819156717E+03  0.50936016285E+03  0.79304507704E+02 0.  0.
        254    2    1    2    0    0  0.38326357146E+03  0.18531294787E+03 -0.71961154313E+03  0.12173852759E+04  0.88484703943E+03 0.  0.
         23    2    4    4    0    0 -0.12751687071E+02 -0.31889012130E+03 -0.20686428514E+03  0.39122788002E+03  0.91721898444E+02 0.  0.
         23    2    4    4    0    0  0.39601525853E+03  0.50420306917E+03 -0.51274725799E+03  0.82615739591E+03  0.92614644065E+02 0.  0.
          3    1    3    3  502    0 -0.28696391743E+03 -0.16165015850E+03 -0.23569268094E+03  0.40500630057E+03  0.00000000000E+00 0. -1.
         -4    1    3    3    0  502 -0.96299654036E+02 -0.23662789371E+02 -0.32498886226E+02  0.10435386229E+03  0.00000000000E+00 0.  1.
         11    1    5    5    0    0 -0.10639935498E+02 -0.11310434650E+03 -0.24408415964E+02  0.11619626583E+03  0.00000000000E+00 0.  1.
        -11    1    5    5    0    0 -0.21117515733E+01 -0.20578577480E+03 -0.18245586918E+03  0.27503161419E+03  0.00000000000E+00 0. -1.
          3    1    6    6  503    0  0.14824511377E+03  0.16705571475E+03 -0.12624004515E+03  0.25655559745E+03  0.00000000000E+00 0. -1.
         -3    1    6    6    0  503  0.24777014476E+03  0.33714735443E+03 -0.38650721284E+03  0.56960179846E+03  0.00000000000E+00 0.  1.
<mgrwt>
<rscale>  0 0.14162962E+04</rscale>
<asrwt>0</asrwt>
<pdfrwt beam="1">  1        1 0.20881142E+00 0.14162962E+04</pdfrwt>
<pdfrwt beam="2">  1       -2 0.56841719E-01 0.14162962E+04</pdfrwt>
<totfact> 0.20417860E+01</totfact>
</mgrwt>
</event>
<event>
12    4  0.4280696E-008  0.1380033E+04  0.7818608E-02  0.8968400E-01
          1   -1    0    0  501    0  0.00000000000E+00  0.00000000000E+00  0.91491467227E+03  0.91491467227E+03  0.00000000000E+00 0. -1.
         -2   -1    0    0    0  501 -0.00000000000E+00 -0.00000000000E+00 -0.52040159180E+03  0.52040159180E+03  0.00000000000E+00 0.  1.
        -24    2    1    2    0    0 -0.93437520125E+02  0.30626367129E+03  0.35849256837E+03  0.48768171114E+03  0.82392495309E+02 0.  0.
        254    2    1    2    0    0  0.93437520125E+02 -0.30626367129E+03  0.36020512094E+02  0.94763455294E+03  0.89117100610E+03 0.  0.
         23    2    4    4    0    0 -0.14419729502E+03  0.22134122537E+03 -0.17018951169E+03  0.32658273567E+03  0.88921400200E+02 0.  0.
         23    2    4    4    0    0  0.23763481514E+03 -0.52760489665E+03  0.20621002378E+03  0.62105181726E+03  0.91354000882E+02 0.  0.
          3    1    3    3  502    0 -0.73238581024E+02  0.27743370482E+03  0.34781211760E+03  0.45089535312E+03  0.00000000000E+00 0. -1.
         -4    1    3    3    0  502 -0.20198939101E+02  0.28829966471E+02  0.10680450778E+02  0.36786358020E+02  0.00000000000E+00 0.  1.
         11    1    5    5    0    0 -0.79379881760E+02  0.83729691224E+02 -0.11984104885E+03  0.16635415177E+03  0.00000000000E+00 0. -1.
        -11    1    5    5    0    0 -0.64817413256E+02  0.13761153414E+03 -0.50348462841E+02  0.16022858391E+03  0.00000000000E+00 0.  1.
          1    1    6    6  503    0  0.74823887605E+02 -0.80312675201E+02  0.41802366670E+02  0.11745713181E+03  0.00000000000E+00 0. -1.
         -1    1    6    6    0  503  0.16281092754E+03 -0.44729222145E+03  0.16440765711E+03  0.50359468545E+03  0.00000000000E+00 0.  1.
<mgrwt>
<rscale>  0 0.13800334E+04</rscale>
<asrwt>0</asrwt>
<pdfrwt beam="1">  1        1 0.14075610E+00 0.13800334E+04</pdfrwt>
<pdfrwt beam="2">  1       -2 0.80061783E-01 0.13800334E+04</pdfrwt>
<totfact> 0.20898167E+01</totfact>
</mgrwt>
</event>
<event>
12    4  0.4280696E-008  0.2115529E+04  0.7818608E-02  0.8554434E-01
          1   -1    0    0  501    0  0.00000000000E+00  0.00000000000E+00  0.52496598670E+03  0.52496598670E+03  0.00000000000E+00 0. -1.
         -2   -1    0    0    0  501 -0.00000000000E+00 -0.00000000000E+00 -0.21313103364E+04  0.21313103364E+04  0.00000000000E+00 0.  1.
        -24    2    1    2    0    0 -0.35730898414E+03  0.48391334021E+03 -0.14300703343E+04  0.15534868197E+04  0.79864304631E+02 0.  0.
        254    2    1    2    0    0  0.35730898414E+03 -0.48391334021E+03 -0.17627401543E+03  0.11027895034E+04  0.90732041155E+03 0.  0.
         23    2    4    4    0    0  0.56013651226E+03 -0.55153297277E+03  0.26624688358E+02  0.79171983324E+03  0.90387432143E+02 0.  0.
         23    2    4    4    0    0 -0.20282752812E+03  0.67619632562E+02 -0.20289870379E+03  0.31106967012E+03  0.99423512294E+02 0.  0.
          3    1    3    3  502    0 -0.38500510704E+02  0.40064267519E+02 -0.83996745203E+02  0.10071190625E+03  0.00000000000E+00 0. -1.
         -4    1    3    3    0  502 -0.31880847344E+03  0.44384907269E+03 -0.13460735891E+04  0.14527749135E+04  0.00000000000E+00 0.  1.
         11    1    5    5    0    0  0.15897280468E+03 -0.19014843336E+03 -0.26083647110E+02  0.24921704593E+03  0.00000000000E+00 0. -1.
        -11    1    5    5    0    0  0.40116370758E+03 -0.36138453941E+03  0.52708335468E+02  0.54250278731E+03  0.00000000000E+00 0.  1.
          1    1    6    6  503    0 -0.15890649065E+03  0.93661377089E+02 -0.15260944450E+03  0.23940210709E+03  0.00000000000E+00 0. -1.
         -1    1    6    6    0  503 -0.43921037476E+02 -0.26041744527E+02 -0.50289259286E+02  0.71667563029E+02  0.00000000000E+00 0.  1.
<mgrwt>
<rscale>  0 0.21155287E+04</rscale>
<asrwt>0</asrwt>
<pdfrwt beam="1">  1        1 0.80763997E-01 0.21155287E+04</pdfrwt>
<pdfrwt beam="2">  1       -2 0.32789390E+00 0.21155287E+04</pdfrwt>
<totfact> 0.71358395E-01</totfact>
</mgrwt>
</event>
<event>
12    4  0.4280696E-008  0.1566484E+04  0.7818608E-02  0.8841407E-01
         -2   -1    0    0    0  501 -0.00000000000E+00  0.00000000000E+00  0.29170462783E+03  0.29170462783E+03  0.00000000000E+00 0.  1.
          1   -1    0    0  501    0  0.00000000000E+00 -0.00000000000E+00 -0.21030452506E+04  0.21030452506E+04  0.00000000000E+00 0. -1.
        -24    2    1    2    0    0 -0.30623626902E+03 -0.95101937609E+02  0.24601369848E+02  0.33129624398E+03  0.79542082390E+02 0.  0.
        254    2    1    2    0    0  0.30623626902E+03  0.95101937609E+02 -0.18359419927E+04  0.20634536345E+04  0.88562569426E+03 0.  0.
         23    2    4    4    0    0  0.12937750313E+01 -0.36410455370E+03 -0.60219017614E+03  0.70905222490E+03  0.86880662511E+02 0.  0.
         23    2    4    4    0    0  0.30494249399E+03  0.45920649131E+03 -0.12337518165E+04  0.13544014096E+04  0.91646643445E+02 0.  0.
          1    1    3    3  502    0 -0.11122255116E+02  0.11882022118E+02  0.37201762103E+01  0.16695110647E+02  0.00000000000E+00 0. -1.
         -2    1    3    3    0  502 -0.29511401391E+03 -0.10698395973E+03  0.20881193637E+02  0.31460113333E+03  0.00000000000E+00 0.  1.
         11    1    5    5    0    0  0.43512311517E+02 -0.15944786441E+03 -0.25848250205E+03  0.30680636659E+03  0.00000000000E+00 0.  1.
        -11    1    5    5    0    0 -0.42218536486E+02 -0.20465668930E+03 -0.34370767409E+03  0.40224585831E+03  0.00000000000E+00 0. -1.
          2    1    6    6  503    0  0.12585382006E+03  0.27204546759E+03 -0.66675880369E+03  0.73103708713E+03  0.00000000000E+00 0. -1.
         -2    1    6    6    0  503  0.17908867393E+03  0.18716102372E+03 -0.56699301283E+03  0.62336432247E+03  0.00000000000E+00 0.  1.
<mgrwt>
<rscale>  0 0.15664840E+04</rscale>
<asrwt>0</asrwt>
<pdfrwt beam="1">  1        1 0.32354542E+00 0.15664840E+04</pdfrwt>
<pdfrwt beam="2">  1       -2 0.44877636E-01 0.15664840E+04</pdfrwt>
<totfact> 0.10096319E+01</totfact>
</mgrwt>
</event>
<event>
12    4  0.4280696E-008  0.1341426E+04  0.7818608E-02  0.8997344E-01
          1   -1    0    0  501    0  0.00000000000E+00  0.00000000000E+00  0.64807148432E+03  0.64807148432E+03  0.00000000000E+00 0. -1.
         -2   -1    0    0    0  501 -0.00000000000E+00 -0.00000000000E+00 -0.69414535765E+03  0.69414535765E+03  0.00000000000E+00 0.  1.
        -24    2    1    2    0    0 -0.16325973992E+02  0.50954180780E+02 -0.43306730928E+03  0.44365067524E+03  0.80098447637E+02 0.  0.
        254    2    1    2    0    0  0.16325973992E+02 -0.50954180780E+02  0.38699343595E+03  0.89856616673E+03  0.80919365454E+03 0.  0.
         23    2    4    4    0    0  0.27678415826E+03 -0.30470713579E+03  0.28993800272E+03  0.51163107343E+03  0.90809696674E+02 0.  0.
         23    2    4    4    0    0 -0.26045818427E+03  0.25375295501E+03  0.97055433226E+02  0.38693509329E+03  0.89833075038E+02 0.  0.
          1    1    3    3  502    0  0.23853831368E+02  0.30140179356E+02 -0.93664580148E+02  0.10124469990E+03  0.00000000000E+00 0. -1.
         -2    1    3    3    0  502 -0.40179805361E+02  0.20814001424E+02 -0.33940272913E+03  0.34240597535E+03  0.00000000000E+00 0.  1.
         11    1    5    5    0    0  0.69094061017E+02 -0.12834267789E+03  0.13229133414E+03  0.19684214316E+03  0.00000000000E+00 0.  1.
        -11    1    5    5    0    0  0.20769009725E+03 -0.17636445790E+03  0.15764666858E+03  0.31478893027E+03  0.00000000000E+00 0. -1.
          4    1    6    6  503    0 -0.91502156504E+02  0.36456236132E+02  0.36925418405E+02  0.10519119888E+03  0.00000000000E+00 0. -1.
         -4    1    6    6    0  503 -0.16895602777E+03  0.21729671888E+03  0.60130014821E+02  0.28174389441E+03  0.00000000000E+00 0.  1.
<mgrwt>
<rscale>  0 0.13414258E+04</rscale>
<asrwt>0</asrwt>
<pdfrwt beam="1">  1        1 0.99703305E-01 0.13414258E+04</pdfrwt>
<pdfrwt beam="2">  1       -2 0.10679159E+00 0.13414258E+04</pdfrwt>
<totfact> 0.18510811E+01</totfact>
</mgrwt>
</event>
<event>
12    4  0.4574874E-008  0.2028573E+04  0.7818608E-02  0.8593377E-01
          1   -1    0    0  501    0  0.00000000000E+00  0.00000000000E+00  0.12656520618E+04  0.12656520618E+04  0.00000000000E+00 0. -1.
         -2   -1    0    0    0  501 -0.00000000000E+00 -0.00000000000E+00 -0.81284315451E+03  0.81284315451E+03  0.00000000000E+00 0.  1.
        -24    2    1    2    0    0  0.33376266585E+03  0.46789710421E+03 -0.40431284472E+03  0.70694254140E+03  0.77289476581E+02 0.  0.
        254    2    1    2    0    0 -0.33376266585E+03 -0.46789710421E+03  0.85712175202E+03  0.13715526749E+04  0.90342339190E+03 0.  0.
         23    2    4    4    0    0  0.15896187496E+03  0.13728228997E+03  0.39909254314E+03  0.46199417967E+03  0.10024200333E+03 0.  0.
         23    2    4    4    0    0 -0.49272454081E+03 -0.60517939418E+03  0.45802920888E+03  0.90955849524E+03  0.92121266937E+02 0.  0.
          3    1    3    3  502    0  0.31006918189E+02  0.15186974769E+02 -0.15915961426E+02  0.38018298309E+02  0.00000000000E+00 0. -1.
         -4    1    3    3    0  502  0.30275574766E+03  0.45271012944E+03 -0.38839688329E+03  0.66892424309E+03  0.00000000000E+00 0.  1.
         11    1    5    5    0    0  0.89431783653E+01  0.23597011338E+02  0.56729314089E+01  0.25864677345E+02  0.00000000000E+00 0. -1.
        -11    1    5    5    0    0  0.15001869659E+03  0.11368527863E+03  0.39341961173E+03  0.43612950233E+03  0.00000000000E+00 0.  1.
          3    1    6    6  503    0  0.37274699153E+01 -0.44322440741E+01  0.71289319354E+01  0.91847966793E+01  0.00000000000E+00 0. -1.
         -3    1    6    6    0  503 -0.49645201072E+03 -0.60074715011E+03  0.45090027694E+03  0.90037369856E+03  0.00000000000E+00 0.  1.
<mgrwt>
<rscale>  0 0.20285725E+04</rscale>
<asrwt>0</asrwt>
<pdfrwt beam="1">  1        1 0.19471570E+00 0.20285725E+04</pdfrwt>
<pdfrwt beam="2">  1       -2 0.12505279E+00 0.20285725E+04</pdfrwt>
<totfact> 0.37232261E+00</totfact>
</mgrwt>
</event>
<event>
12    4  0.4280696E-008  0.1415984E+04  0.7818608E-02  0.8942329E-01
         -2   -1    0    0    0  501 -0.00000000000E+00  0.00000000000E+00  0.58558567153E+03  0.58558567153E+03  0.00000000000E+00 0.  1.
          1   -1    0    0  501    0  0.00000000000E+00 -0.00000000000E+00 -0.85598578400E+03  0.85598578400E+03  0.00000000000E+00 0. -1.
        -24    2    1    2    0    0  0.16860246477E+03  0.20459753139E+03 -0.40633466867E+03  0.49167323251E+03  0.79672853746E+02 0.  0.
        254    2    1    2    0    0 -0.16860246477E+03 -0.20459753139E+03  0.13593455620E+03  0.94989822302E+03  0.90196534831E+03 0.  0.
         23    2    4    4    0    0  0.45999123400E+02 -0.35062006422E+03 -0.27498527969E+03  0.45551230269E+03  0.82608746892E+02 0.  0.
         23    2    4    4    0    0 -0.21460158817E+03  0.14602253283E+03  0.41091983589E+03  0.49438592033E+03  0.90475991048E+02 0.  0.
          1    1    3    3  502    0  0.17612175592E+03  0.18338913449E+03 -0.37609586757E+03  0.45398078061E+03  0.00000000000E+00 0. -1.
         -2    1    3    3    0  502 -0.75192911459E+01  0.21208396904E+02 -0.30238801107E+02  0.37692451909E+02  0.00000000000E+00 0.  1.
         11    1    5    5    0    0  0.19849054037E+02 -0.30507611302E+03 -0.20531656990E+03  0.36826663378E+03  0.00000000000E+00 0. -1.
        -11    1    5    5    0    0  0.26150069362E+02 -0.45543951205E+02 -0.69668709790E+02  0.87245668906E+02  0.00000000000E+00 0.  1.
          3    1    6    6  503    0 -0.35685569552E+02  0.56367811887E+02  0.56745684729E+02  0.87583462061E+02  0.00000000000E+00 0. -1.
         -3    1    6    6    0  503 -0.17891601862E+03  0.89654720942E+02  0.35417415116E+03  0.40680245827E+03  0.00000000000E+00 0.  1.
<mgrwt>
<rscale>  0 0.14159845E+04</rscale>
<asrwt>0</asrwt>
<pdfrwt beam="1">  1        1 0.13169012E+00 0.14159845E+04</pdfrwt>
<pdfrwt beam="2">  1       -2 0.90090104E-01 0.14159845E+04</pdfrwt>
<totfact> 0.17812792E+01</totfact>
</mgrwt>
</event>
<event>
12    4  0.4280696E-008  0.1990692E+04  0.7818608E-02  0.8610985E-01
         -2   -1    0    0    0  501 -0.00000000000E+00  0.00000000000E+00  0.22363020913E+04  0.22363020913E+04  0.00000000000E+00 0.  1.
          1   -1    0    0  501    0  0.00000000000E+00 -0.00000000000E+00 -0.44301422480E+03  0.44301422480E+03  0.00000000000E+00 0. -1.
        -24    2    1    2    0    0 -0.29236891485E+03 -0.35731373667E+03 -0.14498714116E+03  0.49063595867E+03  0.80930118313E+02 0.  0.
        254    2    1    2    0    0  0.29236891485E+03  0.35731373667E+03  0.19382750077E+04  0.21886803574E+04  0.90568151850E+03 0.  0.
         23    2    4    4    0    0  0.60615008105E+03  0.26375113701E+03  0.11346189625E+04  0.13161721062E+04  0.89253796157E+02 0.  0.
         23    2    4    4    0    0 -0.31378116620E+03  0.93562599665E+02  0.80365604518E+03  0.87250825123E+03  0.90526400510E+02 0.  0.
          3    1    3    3  502    0 -0.27540781271E+03 -0.31065709653E+03 -0.14837415283E+03  0.44087660876E+03  0.00000000000E+00 0. -1.
         -2    1    3    3    0  502 -0.16961102141E+02 -0.46656640139E+02  0.33870116645E+01  0.49759349905E+02  0.00000000000E+00 0.  1.
         11    1    5    5    0    0  0.10242457140E+03  0.79277717917E+02  0.25147776600E+03  0.28287243799E+03  0.00000000000E+00 0. -1.
        -11    1    5    5    0    0  0.50372550965E+03  0.18447341909E+03  0.88314119648E+03  0.10332996682E+04  0.00000000000E+00 0.  1.
          1    1    6    6  503    0 -0.16685933071E+03  0.45720614619E+02  0.30726571340E+03  0.35262533868E+03  0.00000000000E+00 0.  1.
         -1    1    6    6    0  503 -0.14692183548E+03  0.47841985046E+02  0.49639033178E+03  0.51988291255E+03  0.00000000000E+00 0. -1.
<mgrwt>
<rscale>  0 0.19906920E+04</rscale>
<asrwt>0</asrwt>
<pdfrwt beam="1">  1        1 0.68156036E-01 0.19906920E+04</pdfrwt>
<pdfrwt beam="2">  1       -2 0.34404647E+00 0.19906920E+04</pdfrwt>
<totfact> 0.72234311E-01</totfact>
</mgrwt>
</event>
<event>
12    4  0.4280696E-008  0.1580030E+04  0.7818608E-02  0.8832911E-01
         -2   -1    0    0    0  501 -0.00000000000E+00  0.00000000000E+00  0.53985388536E+03  0.53985388536E+03  0.00000000000E+00 0.  1.
          1   -1    0    0  501    0  0.00000000000E+00 -0.00000000000E+00 -0.11560978025E+04  0.11560978025E+04  0.00000000000E+00 0. -1.
        -24    2    1    2    0    0 -0.22929825073E+03 -0.43428613604E+03  0.93703341070E+01  0.49775267138E+03  0.80546774956E+02 0.  0.
        254    2    1    2    0    0  0.22929825073E+03  0.43428613604E+03 -0.62561425122E+03  0.11981990165E+04  0.89616156800E+03 0.  0.
         23    2    4    4    0    0  0.24836129712E+03  0.14489264360E+03  0.17018626087E+03  0.34631065953E+03  0.91052168775E+02 0.  0.
         23    2    4    4    0    0 -0.19063046389E+02  0.28939349244E+03 -0.79580051209E+03  0.85188835693E+03  0.91122579127E+02 0.  0.
          1    1    3    3  502    0 -0.97963997806E+02 -0.26987535908E+03  0.11062749754E+02  0.28731870586E+03  0.00000000000E+00 0. -1.
         -2    1    3    3    0  502 -0.13133425292E+03 -0.16441077696E+03 -0.16924156465E+01  0.21043396551E+03  0.00000000000E+00 0.  1.
         11    1    5    5    0    0  0.18057003643E+03  0.13750577401E+03  0.98645304973E+02  0.24747580111E+03  0.00000000000E+00 0. -1.
        -11    1    5    5    0    0  0.67791260692E+02  0.73868695923E+01  0.71540955896E+02  0.98834858421E+02  0.00000000000E+00 0.  1.
          3    1    6    6  503    0 -0.53012857232E+02  0.15902931717E+03 -0.39664423240E+03  0.43061274232E+03  0.00000000000E+00 0. -1.
         -3    1    6    6    0  503  0.33949810844E+02  0.13036417527E+03 -0.39915627968E+03  0.42127561461E+03  0.00000000000E+00 0.  1.
<mgrwt>
<rscale>  0 0.15800302E+04</rscale>
<asrwt>0</asrwt>
<pdfrwt beam="1">  1        1 0.17786120E+00 0.15800302E+04</pdfrwt>
<pdfrwt beam="2">  1       -2 0.83054443E-01 0.15800302E+04</pdfrwt>
<totfact> 0.12323474E+01</totfact>
</mgrwt>
</event>
<event>
12    4  0.4280696E-008  0.1696519E+04  0.7818608E-02  0.8763352E-01
          1   -1    0    0  501    0  0.00000000000E+00  0.00000000000E+00  0.10174974636E+04  0.10174974636E+04  0.00000000000E+00 0. -1.
         -2   -1    0    0    0  501 -0.00000000000E+00 -0.00000000000E+00 -0.70717070840E+03  0.70717070840E+03  0.00000000000E+00 0.  1.
        -24    2    1    2    0    0  0.44870440019E+03  0.17650531891E+03 -0.26127172195E+03  0.55534768240E+03  0.87512109520E+02 0.  0.
        254    2    1    2    0    0 -0.44870440019E+03 -0.17650531891E+03  0.57159847718E+03  0.11693204896E+04  0.89894150089E+03 0.  0.
         23    2    4    4    0    0 -0.32381836675E+03 -0.48707188942E+03  0.56989736292E+03  0.82116046756E+03  0.86163502248E+02 0.  0.
         23    2    4    4    0    0 -0.12488603344E+03  0.31056657052E+03  0.17011142629E+01  0.34816002207E+03  0.95730826325E+02 0.  0.
          1    1    3    3  502    0  0.56939959255E+02  0.32511401027E+02 -0.70971705307E+02  0.96623667447E+02  0.00000000000E+00 0. -1.
         -2    1    3    3    0  502  0.39176444093E+03  0.14399391788E+03 -0.19030001664E+03  0.45872401496E+03  0.00000000000E+00 0.  1.
         11    1    5    5    0    0 -0.16036116619E+03 -0.18009705874E+03  0.26916532634E+03  0.36138708761E+03  0.00000000000E+00 0.  1.
        -11    1    5    5    0    0 -0.16345720056E+03 -0.30697483069E+03  0.30073203657E+03  0.45977337995E+03  0.00000000000E+00 0. -1.
          4    1    6    6  503    0 -0.55130589213E+01 -0.69501312617E+01  0.11438941787E+01  0.89446429284E+01  0.00000000000E+00 0.  1.
         -4    1    6    6    0  503 -0.11937297451E+03  0.31751670178E+03  0.55722008425E+00  0.33921537914E+03  0.00000000000E+00 0. -1.
<mgrwt>
<rscale>  0 0.16965193E+04</rscale>
<asrwt>0</asrwt>
<pdfrwt beam="1">  1        1 0.15653807E+00 0.16965193E+04</pdfrwt>
<pdfrwt beam="2">  1       -2 0.10879549E+00 0.16965193E+04</pdfrwt>
<totfact> 0.82566572E+00</totfact>
</mgrwt>
</event>
<event>
12    4  0.4280696E-008  0.2223109E+04  0.7818608E-02  0.8508871E-01
          3   -1    0    0  501    0  0.00000000000E+00  0.00000000000E+00  0.13620584194E+04  0.13620584194E+04  0.00000000000E+00 0. -1.
         -4   -1    0    0    0  501 -0.00000000000E+00 -0.00000000000E+00 -0.90712193085E+03  0.90712193085E+03  0.00000000000E+00 0.  1.
        -24    2    1    2    0    0  0.17557798513E+03 -0.80048006105E+03 -0.24905862378E+03  0.86029782709E+03  0.80536924617E+02 0.  0.
        254    2    1    2    0    0 -0.17557798513E+03  0.80048006105E+03  0.70399511234E+03  0.14088825232E+04  0.90429247972E+03 0.  0.
         23    2    4    4    0    0  0.30743779473E+03  0.51649042056E+03  0.17517490229E+03  0.63281308672E+03  0.92118424738E+02 0.  0.
         23    2    4    4    0    0 -0.48301577987E+03  0.28398964049E+03  0.52882021005E+03  0.77606943644E+03  0.93158982991E+02 0.  0.
          1    1    3    3  502    0  0.19936991918E+02 -0.51616563897E+02  0.17464341224E+01  0.55360666068E+02  0.00000000000E+00 0. -1.
         -2    1    3    3    0  502  0.15564099322E+03 -0.74886349715E+03 -0.25080505790E+03  0.80493716103E+03  0.00000000000E+00 0.  1.
         11    1    5    5    0    0  0.30115393925E+03  0.51986565435E+03  0.17152101918E+03  0.62479873056E+03  0.00000000000E+00 0. -1.
        -11    1    5    5    0    0  0.62838554847E+01 -0.33752337870E+01  0.36538831095E+01  0.80143561593E+01  0.00000000000E+00 0.  1.
          3    1    6    6  503    0 -0.42535871424E+03  0.25258151745E+03  0.50303946145E+03  0.70553253541E+03  0.00000000000E+00 0. -1.
         -3    1    6    6    0  503 -0.57657065625E+02  0.31408123034E+02  0.25780748603E+02  0.70536901035E+02  0.00000000000E+00 0.  1.
<mgrwt>
<rscale>  0 0.22231087E+04</rscale>
<asrwt>0</asrwt>
<pdfrwt beam="1">  1        3 0.20954745E+00 0.22231087E+04</pdfrwt>
<pdfrwt beam="2">  1       -4 0.13955722E+00 0.22231087E+04</pdfrwt>
<totfact> 0.96564390E-02</totfact>
</mgrwt>
</event>
<event>
12    4  0.4280696E-008  0.1376641E+04  0.7818608E-02  0.8970903E-01
         -4   -1    0    0    0  501 -0.00000000000E+00  0.00000000000E+00  0.76764250798E+03  0.76764250798E+03  0.00000000000E+00 0.  1.
          1   -1    0    0  501    0  0.00000000000E+00 -0.00000000000E+00 -0.61719508534E+03  0.61719508534E+03  0.00000000000E+00 0. -1.
        -24    2    1    2    0    0 -0.27802070850E+03 -0.21669986073E+03  0.20950322165E+03  0.41766030966E+03  0.79335933755E+02 0.  0.
        254    2    1    2    0    0  0.27802070850E+03  0.21669986073E+03 -0.59055799014E+02  0.96717728367E+03  0.89871573184E+03 0.  0.
         23    2    4    4    0    0  0.84130757723E+02  0.32372729489E+03  0.35034012668E+03  0.49311487690E+03  0.92448534889E+02 0.  0.
         23    2    4    4    0    0  0.19388995077E+03 -0.10702743416E+03 -0.40939592570E+03  0.47406240677E+03  0.89899704453E+02 0.  0.
          3    1    3    3  502    0  0.52251380244E+00 -0.14151653581E+02 -0.70000757791E+00  0.14178587037E+02  0.00000000000E+00 0. -1.
         -4    1    3    3    0  502 -0.27854322230E+03 -0.20254820715E+03  0.21020322923E+03  0.40348172262E+03  0.00000000000E+00 0.  1.
         11    1    5    5    0    0  0.27375785469E+02  0.56779538546E+02  0.23402004598E+02  0.67238407527E+02  0.00000000000E+00 0. -1.
        -11    1    5    5    0    0  0.56754972254E+02  0.26694775634E+03  0.32693812208E+03  0.42587646937E+03  0.00000000000E+00 0.  1.
          1    1    6    6  503    0  0.27253742956E+02 -0.46452246765E+02 -0.15406600162E+03  0.16320818175E+03  0.00000000000E+00 0. -1.
         -1    1    6    6    0  503  0.16663620782E+03 -0.60575187392E+02 -0.25532992407E+03  0.31085422502E+03  0.00000000000E+00 0.  1.
<mgrwt>
<rscale>  0 0.13766411E+04</rscale>
<asrwt>0</asrwt>
<pdfrwt beam="1">  1        1 0.94953090E-01 0.13766411E+04</pdfrwt>
<pdfrwt beam="2">  1       -4 0.11809885E+00 0.13766411E+04</pdfrwt>
<totfact> 0.85181962E+00</totfact>
</mgrwt>
</event>
<event>
12    4  0.4280696E-008  0.1998604E+04  0.7818608E-02  0.8607274E-01
         -2   -1    0    0    0  501 -0.00000000000E+00  0.00000000000E+00  0.89307122751E+03  0.89307122751E+03  0.00000000000E+00 0.  1.
          1   -1    0    0  501    0  0.00000000000E+00 -0.00000000000E+00 -0.11181689488E+04  0.11181689488E+04  0.00000000000E+00 0. -1.
        -24    2    1    2    0    0 -0.24550664609E+03 -0.60522978870E+03  0.36405916292E+03  0.75215683641E+03  0.81389323866E+02 0.  0.
        254    2    1    2    0    0  0.24550664609E+03  0.60522978870E+03 -0.58915688426E+03  0.12590833400E+04  0.90089311922E+03 0.  0.
         23    2    4    4    0    0  0.56903840900E+03  0.47040038949E+03 -0.33771648712E+03  0.81809559528E+03  0.10073102793E+03 0.  0.
         23    2    4    4    0    0 -0.32353176291E+03  0.13482939921E+03 -0.25144039714E+03  0.44098774467E+03  0.91630503306E+02 0.  0.
          3    1    3    3  502    0 -0.36350756057E+02 -0.18773458382E+03  0.10659234506E+03  0.21892368408E+03  0.00000000000E+00 0. -1.
         -4    1    3    3    0  502 -0.20915589004E+03 -0.41749520489E+03  0.25746681786E+03  0.53323315233E+03  0.00000000000E+00 0.  1.
         11    1    5    5    0    0  0.19749090441E+03  0.13629687040E+03 -0.15696164981E+03  0.28673411677E+03  0.00000000000E+00 0. -1.
        -11    1    5    5    0    0  0.37154750459E+03  0.33410351909E+03 -0.18075483731E+03  0.53136147851E+03  0.00000000000E+00 0.  1.
          2    1    6    6  503    0 -0.18488978097E+03  0.59363678483E+02 -0.86169387709E+02  0.21244632453E+03  0.00000000000E+00 0. -1.
         -2    1    6    6    0  503 -0.13864198194E+03  0.75465720728E+02 -0.16527100943E+03  0.22854142014E+03  0.00000000000E+00 0.  1.
<mgrwt>
<rscale>  0 0.19986040E+04</rscale>
<asrwt>0</asrwt>
<pdfrwt beam="1">  1        1 0.17202599E+00 0.19986040E+04</pdfrwt>
<pdfrwt beam="2">  1       -2 0.13739557E+00 0.19986040E+04</pdfrwt>
<totfact> 0.37694565E+00</totfact>
</mgrwt>
</event>
<event>
12    4  0.4280696E-008  0.1304109E+04  0.7818608E-02  0.9026313E-01
          1   -1    0    0  501    0  0.00000000000E+00  0.00000000000E+00  0.56352824506E+03  0.56352824506E+03  0.00000000000E+00 0. -1.
         -2   -1    0    0    0  501 -0.00000000000E+00 -0.00000000000E+00 -0.75448780681E+03  0.75448780681E+03  0.00000000000E+00 0.  1.
        -24    2    1    2    0    0  0.54145178118E+01  0.32891374142E+03  0.13036481303E+02  0.33971089408E+03  0.83785293516E+02 0.  0.
        254    2    1    2    0    0 -0.54145178118E+01 -0.32891374142E+03 -0.20399604305E+03  0.97830515780E+03  0.89847260943E+03 0.  0.
         23    2    4    4    0    0  0.10982467370E+02 -0.18780013161E+01  0.33142296263E+03  0.34507286193E+03  0.95446102092E+02 0.  0.
         23    2    4    4    0    0 -0.16396985182E+02 -0.32703574011E+03 -0.53541900568E+03  0.63323229586E+03  0.84192591407E+02 0.  0.
          1    1    3    3  502    0  0.60231858419E+01  0.20482509545E+03  0.48653424824E+02  0.21061043241E+03  0.00000000000E+00 0. -1.
         -2    1    3    3    0  502 -0.60866803012E+00  0.12408864598E+03 -0.35616943521E+02  0.12910046167E+03  0.00000000000E+00 0.  1.
         11    1    5    5    0    0 -0.26570989546E+02  0.23015572948E+02  0.56942891714E+02  0.66919556188E+02  0.00000000000E+00 0.  1.
        -11    1    5    5    0    0  0.37553456916E+02 -0.24893574264E+02  0.27448007092E+03  0.27815330575E+03  0.00000000000E+00 0. -1.
          2    1    6    6  503    0 -0.27070308473E+02 -0.27733974201E+03 -0.49597100712E+03  0.56889135518E+03  0.00000000000E+00 0. -1.
         -2    1    6    6    0  503  0.10673323291E+02 -0.49695998098E+02 -0.39447998564E+02  0.64340940681E+02  0.00000000000E+00 0.  1.
<mgrwt>
<rscale>  0 0.13041092E+04</rscale>
<asrwt>0</asrwt>
<pdfrwt beam="1">  1        1 0.86696653E-01 0.13041092E+04</pdfrwt>
<pdfrwt beam="2">  1       -2 0.11607505E+00 0.13041092E+04</pdfrwt>
<totfact> 0.18558192E+01</totfact>
</mgrwt>
</event>
<event>
12    4  0.4280696E-008  0.3010279E+04  0.7818608E-02  0.8240802E-01
         -2   -1    0    0    0  501 -0.00000000000E+00  0.00000000000E+00  0.66060956458E+03  0.66060956458E+03  0.00000000000E+00 0.  1.
          1   -1    0    0  501    0  0.00000000000E+00 -0.00000000000E+00 -0.34293242912E+04  0.34293242912E+04  0.00000000000E+00 0. -1.
        -24    2    1    2    0    0 -0.12593137508E+04  0.14273335347E+03 -0.55219987291E+03  0.13846760675E+04  0.78480437283E+02 0.  0.
        254    2    1    2    0    0  0.12593137508E+04 -0.14273335347E+03 -0.22165148537E+04  0.27052577883E+04  0.89400093465E+03 0.  0.
         23    2    4    4    0    0  0.18181078992E+03  0.80512048164E+02  0.96562685485E+01  0.22031372274E+03  0.94379763054E+02 0.  0.
         23    2    4    4    0    0  0.10775029609E+04 -0.22324540164E+03 -0.22261711222E+04  0.24849440655E+04  0.90873556197E+02 0.  0.
          3    1    3    3  502    0 -0.47067687762E+03  0.44836305741E+02 -0.16588685888E+03  0.50106433458E+03  0.00000000000E+00 0. -1.
         -4    1    3    3    0  502 -0.78863687319E+03  0.97897047734E+02 -0.38631301403E+03  0.88361173290E+03  0.00000000000E+00 0.  1.
         11    1    5    5    0    0  0.47764699284E+02  0.22035926374E+02  0.45711294948E+02  0.69689102697E+02  0.00000000000E+00 0.  1.
        -11    1    5    5    0    0  0.13404609064E+03  0.58476121790E+02 -0.36055026399E+02  0.15062462004E+03  0.00000000000E+00 0. -1.
          4    1    6    6  503    0  0.31416233897E+03 -0.10426988525E+03 -0.70452006978E+03  0.77840780631E+03  0.00000000000E+00 0. -1.
         -4    1    6    6    0  503  0.76334062193E+03 -0.11897551639E+03 -0.15216510525E+04  0.17065362592E+04  0.00000000000E+00 0.  1.
<mgrwt>
<rscale>  0 0.30102787E+04</rscale>
<asrwt>0</asrwt>
<pdfrwt beam="1">  1        1 0.52758834E+00 0.30102787E+04</pdfrwt>
<pdfrwt beam="2">  1       -2 0.10163224E+00 0.30102787E+04</pdfrwt>
<totfact> 0.16873790E-01</totfact>
</mgrwt>
</event>
<event>
12    4  0.4280696E-008  0.2149050E+04  0.7818608E-02  0.8539939E-01
         -2   -1    0    0    0  501 -0.00000000000E+00  0.00000000000E+00  0.91305871696E+03  0.91305871696E+03  0.00000000000E+00 0.  1.
          1   -1    0    0  501    0  0.00000000000E+00 -0.00000000000E+00 -0.12645455236E+04  0.12645455236E+04  0.00000000000E+00 0. -1.
        -24    2    1    2    0    0  0.62869681792E+03 -0.53603060831E+03 -0.41806539104E+03  0.92984402316E+03  0.85104255657E+02 0.  0.
        254    2    1    2    0    0 -0.62869681792E+03  0.53603060831E+03  0.66578584387E+02  0.12477602174E+04  0.93267590852E+03 0.  0.
         23    2    4    4    0    0 -0.59002431584E+02  0.34255869414E+03  0.41340671512E+03  0.54757278687E+03  0.90017214785E+02 0.  0.
         23    2    4    4    0    0 -0.56969438633E+03  0.19347191417E+03 -0.34682813073E+03  0.70018743053E+03  0.89384619585E+02 0.  0.
          3    1    3    3  502    0  0.29854311843E+03 -0.27290948228E+03 -0.24958388800E+03  0.47528906597E+03  0.00000000000E+00 0. -1.
         -4    1    3    3    0  502  0.33015369948E+03 -0.26312112602E+03 -0.16848150304E+03  0.45455495719E+03  0.00000000000E+00 0.  1.
         11    1    5    5    0    0 -0.68334196113E+02  0.13550389854E+03  0.17046325042E+03  0.22822924576E+03  0.00000000000E+00 0. -1.
        -11    1    5    5    0    0  0.93317645293E+01  0.20705479560E+03  0.24294346470E+03  0.31934354111E+03  0.00000000000E+00 0.  1.
          4    1    6    6  503    0 -0.39310336960E+03  0.12640381408E+03 -0.28380848052E+03  0.50105432542E+03  0.00000000000E+00 0. -1.
         -4    1    6    6    0  503 -0.17659101673E+03  0.67068100089E+02 -0.63019650211E+02  0.19913310511E+03  0.00000000000E+00 0.  1.
<mgrwt>
<rscale>  0 0.21490503E+04</rscale>
<asrwt>0</asrwt>
<pdfrwt beam="1">  1        1 0.19454546E+00 0.21490503E+04</pdfrwt>
<pdfrwt beam="2">  1       -2 0.14047057E+00 0.21490503E+04</pdfrwt>
<totfact> 0.27441202E+00</totfact>
</mgrwt>
</event>
<event>
12    4  0.4280696E-008  0.2613519E+04  0.7818608E-02  0.8363624E-01
          1   -1    0    0  501    0  0.00000000000E+00  0.00000000000E+00  0.21072218618E+04  0.21072218618E+04  0.00000000000E+00 0. -1.
         -2   -1    0    0    0  501 -0.00000000000E+00 -0.00000000000E+00 -0.81036567106E+03  0.81036567106E+03  0.00000000000E+00 0.  1.
        -24    2    1    2    0    0 -0.11831560458E+03  0.48430243805E+03  0.17270574953E+04  0.17992341112E+04  0.77255168505E+02 0.  0.
        254    2    1    2    0    0  0.11831560458E+03 -0.48430243805E+03 -0.43020130459E+03  0.11183534216E+04  0.90393239759E+03 0.  0.
         23    2    4    4    0    0 -0.25983253830E+03 -0.51500459719E+03 -0.73735850006E+02  0.58976334587E+03  0.98189334810E+02 0.  0.
         23    2    4    4    0    0  0.37814814288E+03  0.30702159137E+02 -0.35646545458E+03  0.52859007576E+03  0.91658100249E+02 0.  0.
          3    1    3    3  502    0 -0.11765176291E+03  0.48140835657E+03  0.16670342263E+04  0.17391374457E+04  0.00000000000E+00 0. -1.
         -4    1    3    3    0  502 -0.66384166218E+00  0.28940814810E+01  0.60023268974E+02  0.60096665562E+02  0.00000000000E+00 0.  1.
         11    1    5    5    0    0 -0.22685577769E+03 -0.39010457232E+03 -0.25908116108E+02  0.45201366318E+03  0.00000000000E+00 0. -1.
        -11    1    5    5    0    0 -0.32976760607E+02 -0.12490002487E+03 -0.47827733899E+02  0.13774968269E+03  0.00000000000E+00 0.  1.
          2    1    6    6  503    0  0.22740823404E+03  0.25995242584E+02 -0.27287056902E+03  0.35615811795E+03  0.00000000000E+00 0. -1.
         -2    1    6    6    0  503  0.15073990884E+03  0.47069165535E+01 -0.83594885561E+02  0.17243195781E+03  0.00000000000E+00 0.  1.
<mgrwt>
<rscale>  0 0.26135189E+04</rscale>
<asrwt>0</asrwt>
<pdfrwt beam="1">  1        1 0.32418798E+00 0.26135189E+04</pdfrwt>
<pdfrwt beam="2">  1       -2 0.12467164E+00 0.26135189E+04</pdfrwt>
<totfact> 0.94034545E-01</totfact>
</mgrwt>
</event>
<event>
12    4  0.4280696E-008  0.1577128E+04  0.7818608E-02  0.8834723E-01
          1   -1    0    0  501    0  0.00000000000E+00  0.00000000000E+00  0.27017477557E+03  0.27017477557E+03  0.00000000000E+00 0. -1.
         -2   -1    0    0    0  501 -0.00000000000E+00 -0.00000000000E+00 -0.23015974352E+04  0.23015974352E+04  0.00000000000E+00 0.  1.
        -24    2    1    2    0    0 -0.35692405802E+03  0.10778800877E+03 -0.80647175770E+02  0.39068237422E+03  0.84354683007E+02 0.  0.
        254    2    1    2    0    0  0.35692405802E+03 -0.10778800877E+03 -0.19507754839E+04  0.21810898366E+04  0.90145152320E+03 0.  0.
         23    2    4    4    0    0 -0.23016666697E+03  0.63021195172E+01 -0.11567583247E+04  0.11828139330E+04  0.89121081213E+02 0.  0.
         23    2    4    4    0    0  0.58709072499E+03 -0.11409012828E+03 -0.79401715919E+03  0.99827590355E+03  0.91648533991E+02 0.  0.
          3    1    3    3  502    0 -0.26293808830E+03  0.80828550426E+02 -0.20403427762E+02  0.27583689512E+03  0.00000000000E+00 0. -1.
         -4    1    3    3    0  502 -0.93985969717E+02  0.26959458339E+02 -0.60243748008E+02  0.11484547911E+03  0.00000000000E+00 0.  1.
         11    1    5    5    0    0 -0.11872635254E+03  0.26173346829E+02 -0.41410391942E+03  0.43158202807E+03  0.00000000000E+00 0. -1.
        -11    1    5    5    0    0 -0.11144031443E+03 -0.19871227312E+02 -0.74265440527E+03  0.75123190495E+03  0.00000000000E+00 0.  1.
          3    1    6    6  503    0  0.97285320229E+02 -0.44119923490E+02 -0.18477722894E+03  0.21343295321E+03  0.00000000000E+00 0. -1.
         -3    1    6    6    0  503  0.48980540476E+03 -0.69970204792E+02 -0.60923993025E+03  0.78484295034E+03  0.00000000000E+00 0.  1.
<mgrwt>
<rscale>  0 0.15771285E+04</rscale>
<asrwt>0</asrwt>
<pdfrwt beam="1">  1        1 0.41565350E-01 0.15771285E+04</pdfrwt>
<pdfrwt beam="2">  1       -2 0.35409191E+00 0.15771285E+04</pdfrwt>
<totfact> 0.12446571E+00</totfact>
</mgrwt>
</event>
<event>
12    4  0.4280696E-008  0.2152386E+04  0.7818608E-02  0.8538512E-01
         -2   -1    0    0    0  501 -0.00000000000E+00  0.00000000000E+00  0.10496484585E+04  0.10496484585E+04  0.00000000000E+00 0.  1.
          1   -1    0    0  501    0  0.00000000000E+00 -0.00000000000E+00 -0.11034089627E+04  0.11034089627E+04  0.00000000000E+00 0. -1.
        -24    2    1    2    0    0  0.70965289702E+03 -0.31173094212E+03  0.40100684435E+03  0.87610473749E+03  0.77263233959E+02 0.  0.
        254    2    1    2    0    0 -0.70965289702E+03  0.31173094212E+03 -0.45476734850E+03  0.12769526837E+04  0.90719975782E+03 0.  0.
         23    2    4    4    0    0 -0.63328278365E+03 -0.11329144905E+03 -0.87447523240E+01  0.64976182362E+03  0.90729930277E+02 0.  0.
         23    2    4    4    0    0 -0.76370113372E+02  0.42502239117E+03 -0.44602259617E+03  0.62719086006E+03  0.89195243353E+02 0.  0.
          1    1    3    3  502    0  0.26978192351E+02 -0.29965051832E+02  0.23690219184E+02  0.46764876551E+02  0.00000000000E+00 0. -1.
         -2    1    3    3    0  502  0.68267470467E+03 -0.28176589029E+03  0.37731662516E+03  0.82933986094E+03  0.00000000000E+00 0.  1.
         11    1    5    5    0    0 -0.55467621416E+03 -0.11105679529E+03  0.19990338298E+02  0.56603792096E+03  0.00000000000E+00 0.  1.
        -11    1    5    5    0    0 -0.78606569485E+02 -0.22346537561E+01 -0.28735090622E+02  0.83723902660E+02  0.00000000000E+00 0. -1.
          4    1    6    6  503    0 -0.61129325295E+02  0.11814803153E+03 -0.15086351272E+03  0.20113565381E+03  0.00000000000E+00 0. -1.
         -4    1    6    6    0  503 -0.15240788077E+02  0.30687435964E+03 -0.29515908346E+03  0.42605520625E+03  0.00000000000E+00 0.  1.
<mgrwt>
<rscale>  0 0.21523861E+04</rscale>
<asrwt>0</asrwt>
<pdfrwt beam="1">  1        1 0.16975523E+00 0.21523861E+04</pdfrwt>
<pdfrwt beam="2">  1       -2 0.16148438E+00 0.21523861E+04</pdfrwt>
<totfact> 0.24855270E+00</totfact>
</mgrwt>
</event>
<event>
12    4  0.4280696E-008  0.1864007E+04  0.7818608E-02  0.8672983E-01
         -2   -1    0    0    0  501 -0.00000000000E+00  0.00000000000E+00  0.31647952296E+04  0.31647952296E+04  0.00000000000E+00 0.  1.
          1   -1    0    0  501    0  0.00000000000E+00 -0.00000000000E+00 -0.27446652506E+03  0.27446652506E+03  0.00000000000E+00 0. -1.
        -24    2    1    2    0    0 -0.23317909756E+03  0.66924028471E+03  0.97070570913E+03  0.12046004777E+04  0.80855963427E+02 0.  0.
        254    2    1    2    0    0  0.23317909756E+03 -0.66924028471E+03  0.19196229954E+04  0.22346612770E+04  0.89805541488E+03 0.  0.
         23    2    4    4    0    0  0.21971146957E+01 -0.83778782424E+03  0.13890933759E+04  0.16251442370E+04  0.98082202778E+02 0.  0.
         23    2    4    4    0    0  0.23098198286E+03  0.16854753953E+03  0.53052961953E+03  0.60951703996E+03  0.91040624540E+02 0.  0.
          3    1    3    3  502    0 -0.21733924118E+03  0.60833200060E+03  0.91800947587E+03  0.11225175128E+04  0.00000000000E+00 0. -1.
         -4    1    3    3    0  502 -0.15839856377E+02  0.60908284113E+02  0.52696233255E+02  0.82082964876E+02  0.00000000000E+00 0.  1.
         11    1    5    5    0    0 -0.32724179556E+02 -0.42014945625E+03  0.76486632245E+03  0.87327941046E+03  0.00000000000E+00 0. -1.
        -11    1    5    5    0    0  0.34921294252E+02 -0.41763836799E+03  0.62422705344E+03  0.75186482659E+03  0.00000000000E+00 0.  1.
          4    1    6    6  503    0  0.54705148399E+02  0.57065332541E+02  0.77131520991E+02  0.11044626281E+03  0.00000000000E+00 0. -1.
         -4    1    6    6    0  503  0.17627683447E+03  0.11148220699E+03  0.45339809854E+03  0.49907077715E+03  0.00000000000E+00 0.  1.
<mgrwt>
<rscale>  0 0.18640068E+04</rscale>
<asrwt>0</asrwt>
<pdfrwt beam="1">  1        1 0.42225621E-01 0.18640068E+04</pdfrwt>
<pdfrwt beam="2">  1       -2 0.48689155E+00 0.18640068E+04</pdfrwt>
<totfact> 0.16099710E-01</totfact>
</mgrwt>
</event>
<event>
12    4  0.4280696E-008  0.1291325E+04  0.7818608E-02  0.9036473E-01
          1   -1    0    0  501    0  0.00000000000E+00  0.00000000000E+00  0.41787990662E+03  0.41787990662E+03  0.00000000000E+00 0. -1.
         -2   -1    0    0    0  501 -0.00000000000E+00 -0.00000000000E+00 -0.99760797924E+03  0.99760797924E+03  0.00000000000E+00 0.  1.
        -24    2    1    2    0    0 -0.64453162334E+01 -0.30934324851E+03  0.10935615656E+02  0.31959023092E+03  0.79268786505E+02 0.  0.
        254    2    1    2    0    0  0.64453162334E+01  0.30934324851E+03 -0.59066368828E+03  0.10958976549E+04  0.86969724039E+03 0.  0.
         23    2    4    4    0    0  0.80642582885E+02  0.37261459146E+03 -0.77235252533E+03  0.86632234404E+03  0.92957627274E+02 0.  0.
         23    2    4    4    0    0 -0.74197266652E+02 -0.63271342949E+02  0.18168883704E+03  0.22957531089E+03  0.10092320174E+03 0.  0.
          3    1    3    3  502    0  0.59254523108E+01 -0.30612251166E+03  0.71692795044E+01  0.30626377797E+03  0.00000000000E+00 0. -1.
         -4    1    3    3    0  502 -0.12370768544E+02 -0.32207368461E+01  0.37663361514E+01  0.13326452949E+02  0.00000000000E+00 0.  1.
         11    1    5    5    0    0  0.62403922222E+02  0.12894045563E+03 -0.22258281349E+03  0.26469416213E+03  0.00000000000E+00 0.  1.
        -11    1    5    5    0    0  0.18238660664E+02  0.24367413583E+03 -0.54976971184E+03  0.60162818191E+03  0.00000000000E+00 0. -1.
          4    1    6    6  503    0 -0.32586513871E+02 -0.21845313927E+02  0.16344930451E+03  0.16809156365E+03  0.00000000000E+00 0. -1.
         -4    1    6    6    0  503 -0.41610752781E+02 -0.41426029022E+02  0.18239532532E+02  0.61483747239E+02  0.00000000000E+00 0.  1.
<mgrwt>
<rscale>  0 0.12913254E+04</rscale>
<asrwt>0</asrwt>
<pdfrwt beam="1">  1        1 0.64289217E-01 0.12913254E+04</pdfrwt>
<pdfrwt beam="2">  1       -2 0.15347815E+00 0.12913254E+04</pdfrwt>
<totfact> 0.13689885E+01</totfact>
</mgrwt>
</event>
<event>
12    4  0.4280696E-008  0.1456537E+04  0.7818608E-02  0.8913881E-01
         -2   -1    0    0    0  501 -0.00000000000E+00  0.00000000000E+00  0.59693852374E+03  0.59693852374E+03  0.00000000000E+00 0.  1.
          1   -1    0    0  501    0  0.00000000000E+00 -0.00000000000E+00 -0.88849199278E+03  0.88849199278E+03  0.00000000000E+00 0. -1.
        -24    2    1    2    0    0 -0.14943593669E+03 -0.41374414667E+03 -0.15528863439E+03  0.47303910228E+03  0.78333353301E+02 0.  0.
        254    2    1    2    0    0  0.14943593669E+03  0.41374414667E+03 -0.13626483465E+03  0.10123914142E+04  0.90158358037E+03 0.  0.
         23    2    4    4    0    0 -0.22800007262E+03 -0.13716788315E+03 -0.18458233190E+03  0.33675387639E+03  0.92376808382E+02 0.  0.
         23    2    4    4    0    0  0.37743600932E+03  0.55091202982E+03  0.48317497248E+02  0.67563753785E+03  0.90495835734E+02 0.  0.
          1    1    3    3  502    0 -0.59254232364E+02 -0.23054995678E+03 -0.11719382131E+03  0.26532760575E+03  0.00000000000E+00 0. -1.
         -2    1    3    3    0  502 -0.90181704327E+02 -0.18319418989E+03 -0.38094813081E+02  0.20771149652E+03  0.00000000000E+00 0.  1.
         11    1    5    5    0    0 -0.15213030936E+03 -0.13706268608E+03 -0.12162671538E+03  0.23816563320E+03  0.00000000000E+00 0.  1.
        -11    1    5    5    0    0 -0.75869763260E+02 -0.10519707346E+00 -0.62955616525E+02  0.98588243192E+02  0.00000000000E+00 0. -1.
          2    1    6    6  503    0  0.26097504751E+03  0.44656402876E+03  0.28480521089E+02  0.51801404159E+03  0.00000000000E+00 0. -1.
         -2    1    6    6    0  503  0.11646096180E+03  0.10434800106E+03  0.19836976159E+02  0.15762349626E+03  0.00000000000E+00 0.  1.
<mgrwt>
<rscale>  0 0.14565371E+04</rscale>
<asrwt>0</asrwt>
<pdfrwt beam="1">  1        1 0.13669108E+00 0.14565371E+04</pdfrwt>
<pdfrwt beam="2">  1       -2 0.91836696E-01 0.14565371E+04</pdfrwt>
<totfact> 0.15957355E+01</totfact>
</mgrwt>
</event>
<event>
12    4  0.4280696E-008  0.1828191E+04  0.7818608E-02  0.8691450E-01
         -2   -1    0    0    0  501 -0.00000000000E+00  0.00000000000E+00  0.30834027958E+03  0.30834027958E+03  0.00000000000E+00 0.  1.
          1   -1    0    0  501    0  0.00000000000E+00 -0.00000000000E+00 -0.27098990720E+04  0.27098990720E+04  0.00000000000E+00 0. -1.
        -24    2    1    2    0    0  0.66325579622E+03 -0.19460418714E+03 -0.97018002629E+03  0.11937012373E+04  0.76774471984E+02 0.  0.
        254    2    1    2    0    0 -0.66325579622E+03  0.19460418714E+03 -0.14313787661E+04  0.18245381143E+04  0.89572044613E+03 0.  0.
         23    2    4    4    0    0 -0.36982796390E+03  0.52899996362E+03 -0.10220500196E+04  0.12128804509E+04  0.99393466524E+02 0.  0.
         23    2    4    4    0    0 -0.29342783232E+03 -0.33439577648E+03 -0.40932874648E+03  0.61165766339E+03  0.93030351960E+02 0.  0.
          1    1    3    3  502    0  0.16095504127E+03 -0.39553344720E+02 -0.18054908656E+03  0.24508970816E+03  0.00000000000E+00 0. -1.
         -4    1    3    3    0  502  0.50230075495E+03 -0.15505084242E+03 -0.78963093972E+03  0.94861152909E+03  0.00000000000E+00 0.  1.
         11    1    5    5    0    0 -0.31805043239E+03  0.49631742606E+03 -0.89264384733E+03  0.10697196376E+04  0.00000000000E+00 0. -1.
        -11    1    5    5    0    0 -0.51777531505E+02  0.32682537558E+02 -0.12940617229E+03  0.14316081327E+03  0.00000000000E+00 0.  1.
          2    1    6    6  503    0 -0.25159663322E+03 -0.26407671517E+03 -0.28528985916E+03  0.46306336616E+03  0.00000000000E+00 0. -1.
         -2    1    6    6    0  503 -0.41831199099E+02 -0.70319061304E+02 -0.12403888732E+03  0.14859429723E+03  0.00000000000E+00 0.  1.
<mgrwt>
<rscale>  0 0.18281915E+04</rscale>
<asrwt>0</asrwt>
<pdfrwt beam="1">  1        1 0.41690755E+00 0.18281915E+04</pdfrwt>
<pdfrwt beam="2">  1       -2 0.47436966E-01 0.18281915E+04</pdfrwt>
<totfact> 0.33683245E+00</totfact>
</mgrwt>
</event>
<event>
12    4  0.4280696E-008  0.1274441E+04  0.7818608E-02  0.9050083E-01
          1   -1    0    0  501    0  0.00000000000E+00  0.00000000000E+00  0.10322669333E+04  0.10322669333E+04  0.00000000000E+00 0. -1.
         -2   -1    0    0    0  501 -0.00000000000E+00 -0.00000000000E+00 -0.39335765155E+03  0.39335765155E+03  0.00000000000E+00 0.  1.
        -24    2    1    2    0    0 -0.18585606357E+03 -0.14605131110E+03 -0.72081711126E+02  0.25933100440E+03  0.78634184209E+02 0.  0.
        254    2    1    2    0    0  0.18585606357E+03  0.14605131110E+03  0.71099099291E+03  0.11662935805E+04  0.89378915971E+03 0.  0.
         23    2    4    4    0    0 -0.40243889069E+02  0.10428940845E+03  0.86350940654E+03  0.87594417946E+03  0.95571224866E+02 0.  0.
         23    2    4    4    0    0  0.22609995264E+03  0.41761902648E+02 -0.15251841362E+03  0.29034940102E+03  0.90419373369E+02 0.  0.
          3    1    3    3  502    0 -0.62161934389E+02 -0.27433980832E+02  0.11076140675E+02  0.68843375016E+02  0.00000000000E+00 0. -1.
         -4    1    3    3    0  502 -0.12369412918E+03 -0.11861733027E+03 -0.83157851801E+02  0.19048762939E+03  0.00000000000E+00 0.  1.
         11    1    5    5    0    0 -0.17011872407E+02  0.11022298669E+03  0.80535238298E+03  0.81303811188E+03  0.00000000000E+00 0.  1.
        -11    1    5    5    0    0 -0.23232016662E+02 -0.59335782389E+01  0.58157023558E+02  0.62906067577E+02  0.00000000000E+00 0. -1.
          1    1    6    6  503    0  0.69101513932E+02  0.29343487797E+00 -0.23010310223E+01  0.69140437339E+02  0.00000000000E+00 0. -1.
         -1    1    6    6    0  503  0.15699843871E+03  0.41468467770E+02 -0.15021738260E+03  0.22120896368E+03  0.00000000000E+00 0.  1.
<mgrwt>
<rscale>  0 0.12744412E+04</rscale>
<asrwt>0</asrwt>
<pdfrwt beam="1">  1        1 0.15881030E+00 0.12744412E+04</pdfrwt>
<pdfrwt beam="2">  1       -2 0.60516562E-01 0.12744412E+04</pdfrwt>
<totfact> 0.31348952E+01</totfact>
</mgrwt>
</event>
<event>
12    4  0.4280696E-008  0.1452003E+04  0.7818608E-02  0.8917013E-01
         -2   -1    0    0    0  501 -0.00000000000E+00  0.00000000000E+00  0.78083182790E+03  0.78083182790E+03  0.00000000000E+00 0.  1.
          1   -1    0    0  501    0  0.00000000000E+00 -0.00000000000E+00 -0.67502176460E+03  0.67502176460E+03  0.00000000000E+00 0. -1.
        -24    2    1    2    0    0 -0.49450442202E+02 -0.64881841472E+02  0.47721311902E+03  0.49069038797E+03  0.79935575910E+02 0.  0.
        254    2    1    2    0    0  0.49450442202E+02  0.64881841472E+02 -0.37140305572E+03  0.96516320454E+03  0.88709908241E+03 0.  0.
         23    2    4    4    0    0 -0.32408035779E+03 -0.12688486589E+01  0.10209862154E+03  0.35182662617E+03  0.91258742473E+02 0.  0.
         23    2    4    4    0    0  0.37353079999E+03  0.66150690131E+02 -0.47350167725E+03  0.61333657837E+03  0.89870727453E+02 0.  0.
          3    1    3    3  502    0  0.21571446003E+02 -0.89038803264E+01  0.81452470476E+02  0.84729636576E+02  0.00000000000E+00 0. -1.
         -4    1    3    3    0  502 -0.71021888205E+02 -0.55977961146E+02  0.39576064854E+03  0.40596075139E+03  0.00000000000E+00 0.  1.
         11    1    5    5    0    0 -0.17396129273E+03 -0.73506567029E+01  0.74890691892E+01  0.17427750767E+03  0.00000000000E+00 0. -1.
        -11    1    5    5    0    0 -0.15011906506E+03  0.60818080440E+01  0.94609552348E+02  0.17754911850E+03  0.00000000000E+00 0.  1.
          2    1    6    6  503    0  0.22157805223E+02 -0.10950003507E+02 -0.10112300879E+02  0.26704485357E+02  0.00000000000E+00 0. -1.
         -2    1    6    6    0  503  0.35137299477E+03  0.77100693638E+02 -0.46338937637E+03  0.58663209301E+03  0.00000000000E+00 0.  1.
<mgrwt>
<rscale>  0 0.14520034E+04</rscale>
<asrwt>0</asrwt>
<pdfrwt beam="1">  1        1 0.10384950E+00 0.14520034E+04</pdfrwt>
<pdfrwt beam="2">  1       -2 0.12012797E+00 0.14520034E+04</pdfrwt>
<totfact> 0.12957089E+01</totfact>
</mgrwt>
</event>
<event>
12    4  0.4280696E-008  0.1317740E+04  0.7818608E-02  0.9015614E-01
         -2   -1    0    0    0  501 -0.00000000000E+00  0.00000000000E+00  0.49115147238E+03  0.49115147238E+03  0.00000000000E+00 0.  1.
          1   -1    0    0  501    0  0.00000000000E+00 -0.00000000000E+00 -0.88386153627E+03  0.88386153627E+03  0.00000000000E+00 0. -1.
        -24    2    1    2    0    0 -0.37146164701E+02 -0.33778017534E+03 -0.11923119748E+03  0.36880777350E+03  0.79547538816E+02 0.  0.
        254    2    1    2    0    0  0.37146164701E+02  0.33778017534E+03 -0.27347886641E+03  0.10062052351E+04  0.90674307301E+03 0.  0.
         23    2    4    4    0    0  0.98623875445E+01 -0.85834300037E+02  0.27758723698E+03  0.30464868804E+03  0.91056879141E+02 0.  0.
         23    2    4    4    0    0  0.27283777156E+02  0.42361447538E+03 -0.55106610339E+03  0.70155654710E+03  0.91181742841E+02 0.  0.
          3    1    3    3  502    0 -0.40490347168E+02 -0.29945583656E+03 -0.77316828320E+02  0.31191530614E+03  0.00000000000E+00 0. -1.
         -4    1    3    3    0  502  0.33441824676E+01 -0.38324338780E+02 -0.41914369160E+02  0.56892467351E+02  0.00000000000E+00 0.  1.
         11    1    5    5    0    0  0.12445155057E+02 -0.45898098661E+02  0.35676987152E+02  0.59450523608E+02  0.00000000000E+00 0. -1.
        -11    1    5    5    0    0 -0.25827675121E+01 -0.39936201376E+02  0.24191024983E+03  0.24519816443E+03  0.00000000000E+00 0.  1.
          1    1    6    6  503    0 -0.45963052690E+01  0.28072684899E+02 -0.91437469936E+01  0.29879922500E+02  0.00000000000E+00 0. -1.
         -1    1    6    6    0  503  0.31880082425E+02  0.39554179048E+03 -0.54192235640E+03  0.67167662460E+03  0.00000000000E+00 0.  1.
<mgrwt>
<rscale>  0 0.13177403E+04</rscale>
<asrwt>0</asrwt>
<pdfrwt beam="1">  1        1 0.13597870E+00 0.13177403E+04</pdfrwt>
<pdfrwt beam="2">  1       -2 0.75561766E-01 0.13177403E+04</pdfrwt>
<totfact> 0.25343932E+01</totfact>
</mgrwt>
</event>
<event>
12    4  0.4280696E-008  0.1382803E+04  0.7818608E-02  0.8966361E-01
          1   -1    0    0  501    0  0.00000000000E+00  0.00000000000E+00  0.56747856871E+03  0.56747856871E+03  0.00000000000E+00 0. -1.
         -2   -1    0    0    0  501 -0.00000000000E+00 -0.00000000000E+00 -0.84238622971E+03  0.84238622971E+03  0.00000000000E+00 0.  1.
        -24    2    1    2    0    0 -0.28111369081E+03 -0.30516284051E+02  0.20369528274E+03  0.35653675694E+03  0.75302988557E+02 0.  0.
        254    2    1    2    0    0  0.28111369081E+03  0.30516284051E+02 -0.47860294375E+03  0.10533280415E+04  0.89469717471E+03 0.  0.
         23    2    4    4    0    0  0.44604528829E+02 -0.29915072173E+03 -0.54698585999E+03  0.63162758651E+03  0.90989882445E+02 0.  0.
         23    2    4    4    0    0  0.23650916198E+03  0.32966700578E+03  0.68382916245E+02  0.42170045496E+03  0.92402013398E+02 0.  0.
          1    1    3    3  502    0 -0.18899956124E+03 -0.39169349485E+02  0.17259800035E+03  0.25893076645E+03  0.00000000000E+00 0. -1.
         -4    1    3    3    0  502 -0.92114129576E+02  0.86530654345E+01  0.31097282391E+02  0.97605990498E+02  0.00000000000E+00 0.  1.
         11    1    5    5    0    0  0.17109163821E+02 -0.20792147267E+02 -0.15599895288E+02  0.31119023244E+02  0.00000000000E+00 0. -1.
        -11    1    5    5    0    0  0.27495365008E+02 -0.27835857446E+03 -0.53138596470E+03  0.60050856327E+03  0.00000000000E+00 0.  1.
          3    1    6    6  503    0  0.46882671692E+02  0.16547010455E+02  0.26939935032E+01  0.49790019692E+02  0.00000000000E+00 0. -1.
         -3    1    6    6    0  503  0.18962649029E+03  0.31311999532E+03  0.65688922742E+02  0.37191043527E+03  0.00000000000E+00 0.  1.
<mgrwt>
<rscale>  0 0.13828031E+04</rscale>
<asrwt>0</asrwt>
<pdfrwt beam="1">  1        1 0.87304396E-01 0.13828031E+04</pdfrwt>
<pdfrwt beam="2">  1       -2 0.12959788E+00 0.13828031E+04</pdfrwt>
<totfact> 0.13867712E+01</totfact>
</mgrwt>
</event>
<event>
12    4  0.4280696E-008  0.2629029E+04  0.7818608E-02  0.8358407E-01
          1   -1    0    0  501    0  0.00000000000E+00  0.00000000000E+00  0.23071211160E+04  0.23071211160E+04  0.00000000000E+00 0. -1.
         -2   -1    0    0    0  501 -0.00000000000E+00 -0.00000000000E+00 -0.74896288129E+03  0.74896288129E+03  0.00000000000E+00 0.  1.
        -24    2    1    2    0    0  0.40352838904E+03 -0.97783000971E+03  0.13064410077E+03  0.10693906259E+04  0.86843197749E+02 0.  0.
        254    2    1    2    0    0 -0.40352838904E+03  0.97783000971E+03  0.14275141339E+04  0.19866933714E+04  0.88891352827E+03 0.  0.
         23    2    4    4    0    0 -0.57846452507E+03  0.68001000725E+03  0.58465836262E+03  0.10710547467E+04  0.91093647634E+02 0.  0.
         23    2    4    4    0    0  0.17493613604E+03  0.29782000246E+03  0.84285577130E+03  0.91563862473E+03  0.93213916995E+02 0.  0.
          3    1    3    3  502    0  0.15053584647E+03 -0.36501774675E+03  0.91204870606E+02  0.40523736863E+03  0.00000000000E+00 0. -1.
         -4    1    3    3    0  502  0.25299254257E+03 -0.61281226296E+03  0.39439230166E+02  0.66415325724E+03  0.00000000000E+00 0.  1.
         11    1    5    5    0    0 -0.28154964721E+03  0.36784030704E+03  0.34908697713E+03  0.58003311365E+03  0.00000000000E+00 0. -1.
        -11    1    5    5    0    0 -0.29691487787E+03  0.31216970020E+03  0.23557138549E+03  0.49102163301E+03  0.00000000000E+00 0.  1.
          4    1    6    6  503    0  0.16371075165E+02  0.29879004300E+02  0.18139821513E+03  0.18456998524E+03  0.00000000000E+00 0. -1.
         -4    1    6    6    0  503  0.15856506087E+03  0.26794099816E+03  0.66145755617E+03  0.73106863949E+03  0.00000000000E+00 0.  1.
<mgrwt>
<rscale>  0 0.26290288E+04</rscale>
<asrwt>0</asrwt>
<pdfrwt beam="1">  1        1 0.35494171E+00 0.26290288E+04</pdfrwt>
<pdfrwt beam="2">  1       -2 0.11522506E+00 0.26290288E+04</pdfrwt>
<totfact> 0.83399904E-01</totfact>
</mgrwt>
</event>
<event>
12    4  0.4280696E-008  0.1680041E+04  0.7818608E-02  0.8772830E-01
         -2   -1    0    0    0  501 -0.00000000000E+00  0.00000000000E+00  0.85363848287E+03  0.85363848287E+03  0.00000000000E+00 0.  1.
          1   -1    0    0  501    0  0.00000000000E+00 -0.00000000000E+00 -0.82662021307E+03  0.82662021307E+03  0.00000000000E+00 0. -1.
        -24    2    1    2    0    0 -0.21724229670E+03 -0.53101245119E+03  0.16872464310E+03  0.60321513610E+03  0.78943374917E+02 0.  0.
        254    2    1    2    0    0  0.21724229670E+03  0.53101245119E+03 -0.14170637330E+03  0.10770435598E+04  0.90042972783E+03 0.  0.
         23    2    4    4    0    0  0.22966263156E+03 -0.98103935705E+02 -0.32013313226E+03  0.41624510701E+03  0.91681296917E+02 0.  0.
         23    2    4    4    0    0 -0.12420334861E+02  0.62911638689E+03  0.17842675897E+03  0.66079845282E+03  0.94216739276E+02 0.  0.
          1    1    3    3  502    0 -0.70990046750E+02 -0.19195737882E+03  0.21862809494E+02  0.20582809444E+03  0.00000000000E+00 0. -1.
         -2    1    3    3    0  502 -0.14625224995E+03 -0.33905507237E+03  0.14686183360E+03  0.39738704166E+03  0.00000000000E+00 0.  1.
         11    1    5    5    0    0  0.49911090256E+02 -0.41804865535E+02 -0.33391503334E+02  0.73169366595E+02  0.00000000000E+00 0.  1.
        -11    1    5    5    0    0  0.17975154130E+03 -0.56299070169E+02 -0.28674162893E+03  0.34307574042E+03  0.00000000000E+00 0. -1.
          3    1    6    6  503    0 -0.59453604990E+01  0.59150874995E+03  0.18934992496E+03  0.62110493691E+03  0.00000000000E+00 0. -1.
         -3    1    6    6    0  503 -0.64749743616E+01  0.37607636949E+02 -0.10923165997E+02  0.39693515909E+02  0.00000000000E+00 0.  1.
<mgrwt>
<rscale>  0 0.16800415E+04</rscale>
<asrwt>0</asrwt>
<pdfrwt beam="1">  1        1 0.12717234E+00 0.16800415E+04</pdfrwt>
<pdfrwt beam="2">  1       -2 0.13132900E+00 0.16800415E+04</pdfrwt>
<totfact> 0.74089551E+00</totfact>
</mgrwt>
</event>
<event>
12    4  0.4280696E-008  0.1118875E+04  0.7818608E-02  0.9186988E-01
         -2   -1    0    0    0  501 -0.00000000000E+00  0.00000000000E+00  0.85862708864E+03  0.85862708864E+03  0.00000000000E+00 0.  1.
          1   -1    0    0  501    0  0.00000000000E+00 -0.00000000000E+00 -0.36450072473E+03  0.36450072473E+03  0.00000000000E+00 0. -1.
        -24    2    1    2    0    0 -0.38503571640E+02  0.11269600762E+03  0.22612251041E+03  0.26831867506E+03  0.81734977256E+02 0.  0.
        254    2    1    2    0    0  0.38503571640E+02 -0.11269600762E+03  0.26800385349E+03  0.95480913831E+03  0.90865367988E+03 0.  0.
         23    2    4    4    0    0  0.37386034153E+03  0.13985414448E+02 -0.13457152054E+03  0.40770538701E+03  0.90260964297E+02 0.  0.
         23    2    4    4    0    0 -0.33535676989E+03 -0.12668142207E+03  0.40257537403E+03  0.54710375130E+03  0.93505278488E+02 0.  0.
          3    1    3    3  502    0 -0.10478033945E+02 -0.12093210165E+02  0.33156913607E+02  0.36815972721E+02  0.00000000000E+00 0. -1.
         -4    1    3    3    0  502 -0.28025537695E+02  0.12478921779E+03  0.19296559680E+03  0.23150270234E+03  0.00000000000E+00 0.  1.
         11    1    5    5    0    0  0.27862217089E+03  0.49874793197E+02 -0.96762899600E+02  0.29913352846E+03  0.00000000000E+00 0. -1.
        -11    1    5    5    0    0  0.95238170637E+02 -0.35889378749E+02 -0.37808620935E+02  0.10857185856E+03  0.00000000000E+00 0.  1.
          3    1    6    6  503    0 -0.21150004462E+03 -0.37614041329E+02  0.19999301140E+03  0.29350347457E+03  0.00000000000E+00 0. -1.
         -3    1    6    6    0  503 -0.12385672527E+03 -0.89067380743E+02  0.20258236263E+03  0.25360027673E+03  0.00000000000E+00 0.  1.
<mgrwt>
<rscale>  0 0.11188748E+04</rscale>
<asrwt>0</asrwt>
<pdfrwt beam="1">  1        1 0.56077035E-01 0.11188748E+04</pdfrwt>
<pdfrwt beam="2">  1       -2 0.13209648E+00 0.11188748E+04</pdfrwt>
<totfact> 0.24585368E+01</totfact>
</mgrwt>
</event>
<event>
12    4  0.4280696E-008  0.1493832E+04  0.7818608E-02  0.8888565E-01
         -2   -1    0    0    0  501 -0.00000000000E+00  0.00000000000E+00  0.44820834889E+03  0.44820834889E+03  0.00000000000E+00 0.  1.
          1   -1    0    0  501    0  0.00000000000E+00 -0.00000000000E+00 -0.12446965913E+04  0.12446965913E+04  0.00000000000E+00 0. -1.
        -24    2    1    2    0    0  0.19827136513E+03 -0.15650205115E+03 -0.69252562684E+03  0.74119292869E+03  0.77270870681E+02 0.  0.
        254    2    1    2    0    0 -0.19827136513E+03  0.15650205115E+03 -0.10396261559E+03  0.95171201152E+03  0.91167050034E+03 0.  0.
         23    2    4    4    0    0 -0.44279257336E+02  0.90120184157E+02  0.39471902711E+03  0.41726155066E+03  0.90674092616E+02 0.  0.
         23    2    4    4    0    0 -0.15399210780E+03  0.66381866996E+02 -0.49868164270E+03  0.53445046086E+03  0.93988258939E+02 0.  0.
          3    1    3    3  502    0  0.17519179894E+03 -0.12030016549E+03 -0.63355954892E+03  0.66825294482E+03  0.00000000000E+00 0. -1.
         -4    1    3    3    0  502  0.23079566191E+02 -0.36201885660E+02 -0.58966077923E+02  0.72939983867E+02  0.00000000000E+00 0.  1.
         11    1    5    5    0    0  0.14444275373E+02 -0.88257775997E+01  0.26151626537E+02  0.31151870118E+02  0.00000000000E+00 0.  1.
        -11    1    5    5    0    0 -0.58723532708E+02  0.98945961757E+02  0.36856740058E+03  0.38610968054E+03  0.00000000000E+00 0. -1.
          3    1    6    6  503    0 -0.10246813253E+03  0.78579549870E+02 -0.42162514192E+03  0.44095603425E+03  0.00000000000E+00 0. -1.
         -3    1    6    6    0  503 -0.51523975268E+02 -0.12197682874E+02 -0.77056500779E+02  0.93494426610E+02  0.00000000000E+00 0.  1.
<mgrwt>
<rscale>  0 0.14938319E+04</rscale>
<asrwt>0</asrwt>
<pdfrwt beam="1">  1        1 0.19149178E+00 0.14938319E+04</pdfrwt>
<pdfrwt beam="2">  1       -2 0.68955132E-01 0.14938319E+04</pdfrwt>
<totfact> 0.16167143E+01</totfact>
</mgrwt>
</event>
<event>
12    4  0.4280696E-008  0.2071531E+04  0.7818608E-02  0.8573889E-01
          1   -1    0    0  501    0  0.00000000000E+00  0.00000000000E+00  0.26160113305E+04  0.26160113305E+04  0.00000000000E+00 0. -1.
         -2   -1    0    0    0  501 -0.00000000000E+00 -0.00000000000E+00 -0.41009394798E+03  0.41009394798E+03  0.00000000000E+00 0.  1.
        -24    2    1    2    0    0  0.29167896380E+03  0.41022562582E+03  0.18687743918E+04  0.19369663722E+04  0.78481319944E+02 0.  0.
        254    2    1    2    0    0 -0.29167896380E+03 -0.41022562582E+03  0.33714299072E+03  0.10891389063E+04  0.90509473480E+03 0.  0.
         23    2    4    4    0    0 -0.42026796987E+02  0.26278820243E+02  0.53210690669E+03  0.54193258367E+03  0.89979647882E+02 0.  0.
         23    2    4    4    0    0 -0.24965216681E+03 -0.43650444606E+03 -0.19496391597E+03  0.54720632261E+03  0.92528347820E+02 0.  0.
          3    1    3    3  502    0  0.18691133375E+03  0.24697922188E+03  0.12853312905E+04  0.13221237117E+04  0.00000000000E+00 0. -1.
         -4    1    3    3    0  502  0.10476763005E+03  0.16324640394E+03  0.58344310136E+03  0.61484266055E+03  0.00000000000E+00 0.  1.
         11    1    5    5    0    0 -0.49954343829E+02 -0.20668775074E+02  0.24392700273E+03  0.24984598734E+03  0.00000000000E+00 0. -1.
        -11    1    5    5    0    0  0.79275468423E+01  0.46947595317E+02  0.28817990396E+03  0.29208659633E+03  0.00000000000E+00 0.  1.
          3    1    6    6  503    0 -0.13240236363E+03 -0.28456983640E+03 -0.15940853788E+03  0.35202479974E+03  0.00000000000E+00 0. -1.
         -3    1    6    6    0  503 -0.11724980318E+03 -0.15193460967E+03 -0.35555378088E+02  0.19518152287E+03  0.00000000000E+00 0.  1.
<mgrwt>
<rscale>  0 0.20715312E+04</rscale>
<asrwt>0</asrwt>
<pdfrwt beam="1">  1        1 0.40246327E+00 0.20715312E+04</pdfrwt>
<pdfrwt beam="2">  1       -2 0.63091378E-01 0.20715312E+04</pdfrwt>
<totfact> 0.21208477E+00</totfact>
</mgrwt>
</event>
<event>
12    4  0.4280696E-008  0.1607780E+04  0.7818608E-02  0.8815783E-01
          1   -1    0    0  501    0  0.00000000000E+00  0.00000000000E+00  0.18843613699E+04  0.18843613699E+04  0.00000000000E+00 0. -1.
         -2   -1    0    0    0  501 -0.00000000000E+00 -0.00000000000E+00 -0.34294873764E+03  0.34294873764E+03  0.00000000000E+00 0.  1.
        -24    2    1    2    0    0 -0.23835848942E+03 -0.40523927345E+03  0.12823517491E+03  0.49375191388E+03  0.79454730190E+02 0.  0.
        254    2    1    2    0    0  0.23835848942E+03  0.40523927345E+03  0.14131774573E+04  0.17335581936E+04  0.88719774945E+03 0.  0.
         23    2    4    4    0    0 -0.22590067681E+03  0.46580773369E+03  0.75256046261E+03  0.91865850465E+03  0.97868471568E+02 0.  0.
         23    2    4    4    0    0  0.46425916623E+03 -0.60568460249E+02  0.66061699471E+03  0.81489968899E+03  0.91878058373E+02 0.  0.
          1    1    3    3  502    0 -0.14979083759E+02 -0.40858468710E+01  0.13268503028E+02  0.20423522407E+02  0.00000000000E+00 0. -1.
         -2    1    3    3    0  502 -0.22337940566E+03 -0.40115342657E+03  0.11496667188E+03  0.47332839147E+03  0.00000000000E+00 0.  1.
         11    1    5    5    0    0 -0.20463075530E+03  0.41344515284E+03  0.71463221951E+03  0.85059382174E+03  0.00000000000E+00 0. -1.
        -11    1    5    5    0    0 -0.21269921508E+02  0.52362580855E+02  0.37928243101E+02  0.68064682908E+02  0.00000000000E+00 0.  1.
          1    1    6    6  503    0  0.44050477074E+03 -0.53648679365E+02  0.65202742003E+03  0.78870931928E+03  0.00000000000E+00 0. -1.
         -1    1    6    6    0  503  0.23754395492E+02 -0.69197808840E+01  0.85895746831E+01  0.26190369717E+02  0.00000000000E+00 0.  1.
<mgrwt>
<rscale>  0 0.16077803E+04</rscale>
<asrwt>0</asrwt>
<pdfrwt beam="1">  1        1 0.28990174E+00 0.16077803E+04</pdfrwt>
<pdfrwt beam="2">  1       -2 0.52761345E-01 0.16077803E+04</pdfrwt>
<totfact> 0.10186983E+01</totfact>
</mgrwt>
</event>
<event>
12    4  0.4280696E-008  0.1750530E+04  0.7818608E-02  0.8733058E-01
         -2   -1    0    0    0  501 -0.00000000000E+00  0.00000000000E+00  0.53478580356E+03  0.53478580356E+03  0.00000000000E+00 0.  1.
          1   -1    0    0  501    0  0.00000000000E+00 -0.00000000000E+00 -0.14325158301E+04  0.14325158301E+04  0.00000000000E+00 0. -1.
        -24    2    1    2    0    0  0.29145787843E+03 -0.10863679554E+02  0.30337428288E+03  0.42859375408E+03  0.81184580368E+02 0.  0.
        254    2    1    2    0    0 -0.29145787843E+03  0.10863679554E+02 -0.12011043094E+04  0.15387078796E+04  0.91646312646E+03 0.  0.
         23    2    4    4    0    0 -0.34524384997E+03 -0.30553386855E+03 -0.10909357048E+04  0.11874733535E+04  0.86069696275E+02 0.  0.
         23    2    4    4    0    0  0.53785971540E+02  0.31639754810E+03 -0.11016860467E+03  0.35123452608E+03  0.90709600773E+02 0.  0.
          1    1    3    3  502    0  0.22020010954E+02  0.22133769600E+02  0.28431543715E+02  0.42227210624E+02  0.00000000000E+00 0. -1.
         -2    1    3    3    0  502  0.26943786748E+03 -0.32997449154E+02  0.27494273916E+03  0.38636654345E+03  0.00000000000E+00 0.  1.
         11    1    5    5    0    0 -0.11969821427E+00 -0.15916466829E+02 -0.65841266249E+02  0.67737881464E+02  0.00000000000E+00 0.  1.
        -11    1    5    5    0    0 -0.34512415176E+03 -0.28961740172E+03 -0.10250944385E+04  0.11197354721E+04  0.00000000000E+00 0. -1.
          4    1    6    6  503    0  0.73818540285E+02  0.20718592560E+03 -0.52520252264E+02  0.22612731271E+03  0.00000000000E+00 0. -1.
         -4    1    6    6    0  503 -0.20032568745E+02  0.10921162250E+03 -0.57648352409E+02  0.12510721337E+03  0.00000000000E+00 0.  1.
<mgrwt>
<rscale>  0 0.17505304E+04</rscale>
<asrwt>0</asrwt>
<pdfrwt beam="1">  1        1 0.22038705E+00 0.17505304E+04</pdfrwt>
<pdfrwt beam="2">  1       -2 0.82274738E-01 0.17505304E+04</pdfrwt>
<totfact> 0.78643203E+00</totfact>
</mgrwt>
</event>
<event>
12    4  0.4280696E-008  0.1747963E+04  0.7818608E-02  0.8734473E-01
          1   -1    0    0  501    0  0.00000000000E+00  0.00000000000E+00  0.66296762171E+03  0.66296762171E+03  0.00000000000E+00 0. -1.
         -2   -1    0    0    0  501 -0.00000000000E+00 -0.00000000000E+00 -0.11521576882E+04  0.11521576882E+04  0.00000000000E+00 0.  1.
        -24    2    1    2    0    0 -0.44677640676E+03  0.88794797656E+02  0.28308417823E+03  0.54252281133E+03  0.81857651543E+02 0.  0.
        254    2    1    2    0    0  0.44677640676E+03 -0.88794797656E+02 -0.77227424470E+03  0.12726024986E+04  0.90311457557E+03 0.  0.
         23    2    4    4    0    0  0.53868383366E+03 -0.31207389235E+03 -0.22758743050E+03  0.66905049184E+03  0.90896288041E+02 0.  0.
         23    2    4    4    0    0 -0.91907426902E+02  0.22327909470E+03 -0.54468681421E+03  0.60355200673E+03  0.96388640427E+02 0.  0.
          3    1    3    3  502    0 -0.32958287264E+03  0.38710534607E+02  0.23352092630E+03  0.40577752334E+03  0.00000000000E+00 0. -1.
         -4    1    3    3    0  502 -0.11719353412E+03  0.50084263049E+02  0.49563251932E+02  0.13674528799E+03  0.00000000000E+00 0.  1.
         11    1    5    5    0    0  0.20975637949E+03 -0.71700267079E+02 -0.75038012998E+02  0.23402856755E+03  0.00000000000E+00 0.  1.
        -11    1    5    5    0    0  0.32892745417E+03 -0.24037362527E+03 -0.15254941750E+03  0.43502192429E+03  0.00000000000E+00 0. -1.
          4    1    6    6  503    0 -0.10561945708E+03  0.19435113489E+03 -0.51229992385E+03  0.55801348131E+03  0.00000000000E+00 0.  1.
         -4    1    6    6    0  503  0.13712030177E+02  0.28927959807E+02 -0.32386890361E+02  0.45538525420E+02  0.00000000000E+00 0. -1.
<mgrwt>
<rscale>  0 0.17479625E+04</rscale>
<asrwt>0</asrwt>
<pdfrwt beam="1">  1        1 0.10199502E+00 0.17479625E+04</pdfrwt>
<pdfrwt beam="2">  1       -2 0.17725503E+00 0.17479625E+04</pdfrwt>
<totfact> 0.46461914E+00</totfact>
</mgrwt>
</event>
<event>
12    4  0.4280696E-008  0.2865192E+04  0.7818608E-02  0.8283310E-01
          1   -1    0    0  501    0  0.00000000000E+00  0.00000000000E+00  0.77668435247E+03  0.77668435247E+03  0.00000000000E+00 0. -1.
         -4   -1    0    0    0  501 -0.00000000000E+00 -0.00000000000E+00 -0.26424256492E+04  0.26424256492E+04  0.00000000000E+00 0.  1.
        -24    2    1    2    0    0  0.87991493798E+03  0.74982675683E+03 -0.16003810909E+03  0.11699034170E+04  0.81063836021E+02 0.  0.
        254    2    1    2    0    0 -0.87991493798E+03 -0.74982675683E+03 -0.17057031876E+04  0.22492065846E+04  0.90167423864E+03 0.  0.
         23    2    4    4    0    0 -0.99512225953E+03 -0.57996635442E+03 -0.10640794117E+04  0.15707821204E+04  0.91990171816E+02 0.  0.
         23    2    4    4    0    0  0.11520732155E+03 -0.16986040241E+03 -0.64162377590E+03  0.67842446419E+03  0.80333060202E+02 0.  0.
          1    1    3    3  502    0  0.81273759584E+03  0.71754473827E+03 -0.14425867468E+03  0.10937199899E+04  0.00000000000E+00 0. -1.
         -2    1    3    3    0  502  0.67177342138E+02  0.32282018557E+02 -0.15779434406E+02  0.76183427128E+02  0.00000000000E+00 0.  1.
         11    1    5    5    0    0 -0.35883256202E+03 -0.26053354590E+03 -0.41562545850E+03  0.60776891814E+03  0.00000000000E+00 0.  1.
        -11    1    5    5    0    0 -0.63628969751E+03 -0.31943280853E+03 -0.64845395324E+03  0.96301320230E+03  0.00000000000E+00 0. -1.
          4    1    6    6  503    0  0.64867362700E+02 -0.15001240480E+03 -0.52515363092E+03  0.54999802945E+03  0.00000000000E+00 0. -1.
         -4    1    6    6    0  503  0.50339958846E+02 -0.19847997607E+02 -0.11647014499E+03  0.12842643474E+03  0.00000000000E+00 0.  1.
<mgrwt>
<rscale>  0 0.28651915E+04</rscale>
<asrwt>0</asrwt>
<pdfrwt beam="1">  1        1 0.11948990E+00 0.28651915E+04</pdfrwt>
<pdfrwt beam="2">  1       -4 0.40652703E+00 0.28651915E+04</pdfrwt>
<totfact> 0.58223358E-02</totfact>
</mgrwt>
</event>
<event>
12    4  0.4280696E-008  0.2184202E+04  0.7818608E-02  0.8525032E-01
          1   -1    0    0  501    0  0.00000000000E+00  0.00000000000E+00  0.93869693291E+03  0.93869693291E+03  0.00000000000E+00 0. -1.
         -2   -1    0    0    0  501 -0.00000000000E+00 -0.00000000000E+00 -0.12705747544E+04  0.12705747544E+04  0.00000000000E+00 0.  1.
        -24    2    1    2    0    0 -0.82951307315E+03  0.31380177245E+03  0.16211170567E+02  0.89069855597E+03  0.80731806829E+02 0.  0.
        254    2    1    2    0    0  0.82951307315E+03 -0.31380177245E+03 -0.34808899206E+03  0.13185731314E+04  0.91154027087E+03 0.  0.
         23    2    4    4    0    0  0.22221478713E+03 -0.23795953379E+03  0.27901921935E+03  0.43761280449E+03  0.87459079250E+02 0.  0.
         23    2    4    4    0    0  0.60729828601E+03 -0.75842238663E+02 -0.62710821141E+03  0.88096032686E+03  0.90901789423E+02 0.  0.
          1    1    3    3  502    0 -0.42635325497E+03  0.16631090905E+03  0.48440184264E+02  0.46019872658E+03  0.00000000000E+00 0. -1.
         -2    1    3    3    0  502 -0.40315981817E+03  0.14749086340E+03 -0.32229013697E+02  0.43049982938E+03  0.00000000000E+00 0.  1.
         11    1    5    5    0    0  0.11543749577E+03 -0.73149541361E+02  0.14852384563E+03  0.20183162179E+03  0.00000000000E+00 0.  1.
        -11    1    5    5    0    0  0.10677729136E+03 -0.16480999243E+03  0.13049537372E+03  0.23578118270E+03  0.00000000000E+00 0. -1.
          3    1    6    6  503    0  0.30805175721E+03  0.68830158902E+01 -0.32141311315E+03  0.44525234456E+03  0.00000000000E+00 0. -1.
         -3    1    6    6    0  503  0.29924652880E+03 -0.82725254553E+02 -0.30569509827E+03  0.43570798230E+03  0.00000000000E+00 0.  1.
<mgrwt>
<rscale>  0 0.21842020E+04</rscale>
<asrwt>0</asrwt>
<pdfrwt beam="1">  1        1 0.14441491E+00 0.21842020E+04</pdfrwt>
<pdfrwt beam="2">  1       -2 0.19547304E+00 0.21842020E+04</pdfrwt>
<totfact> 0.19296145E+00</totfact>
</mgrwt>
</event>
<event>
12    4  0.4280696E-008  0.1331450E+04  0.7818608E-02  0.9004990E-01
         -2   -1    0    0    0  501 -0.00000000000E+00  0.00000000000E+00  0.32459006924E+03  0.32459006924E+03  0.00000000000E+00 0.  1.
          1   -1    0    0  501    0  0.00000000000E+00 -0.00000000000E+00 -0.13653833345E+04  0.13653833345E+04  0.00000000000E+00 0. -1.
        -24    2    1    2    0    0  0.30564617486E+03  0.16426247057E+03 -0.17129212467E+03  0.39464843111E+03  0.77489668722E+02 0.  0.
        254    2    1    2    0    0 -0.30564617486E+03 -0.16426247057E+03 -0.86950114055E+03  0.12953249726E+04  0.89522779659E+03 0.  0.
         23    2    4    4    0    0 -0.37077443374E+03 -0.32418703022E+02 -0.10029546766E+04  0.10739555969E+04  0.94540402293E+02 0.  0.
         23    2    4    4    0    0  0.65128258880E+02 -0.13184376755E+03  0.13345353608E+03  0.22136937573E+03  0.97826811616E+02 0.  0.
          3    1    3    3  502    0  0.16300042306E+03  0.11202086370E+03 -0.61184037756E+02  0.20702970390E+03  0.00000000000E+00 0. -1.
         -2    1    3    3    0  502  0.14264575179E+03  0.52241606873E+02 -0.11010808692E+03  0.18761872720E+03  0.00000000000E+00 0.  1.
         11    1    5    5    0    0 -0.10294289195E+03  0.17367276212E+02 -0.19315864314E+03  0.21956575941E+03  0.00000000000E+00 0.  1.
        -11    1    5    5    0    0 -0.26783154178E+03 -0.49785979233E+02 -0.80979603350E+03  0.85438983747E+03  0.00000000000E+00 0. -1.
          3    1    6    6  503    0  0.90594553063E+02 -0.10789296079E+03  0.11486421089E+03  0.18177472590E+03  0.00000000000E+00 0. -1.
         -3    1    6    6    0  503 -0.25466294183E+02 -0.23950806760E+02  0.18589325191E+02  0.39594649827E+02  0.00000000000E+00 0.  1.
<mgrwt>
<rscale>  0 0.13314501E+04</rscale>
<asrwt>0</asrwt>
<pdfrwt beam="1">  1        1 0.21005898E+00 0.13314501E+04</pdfrwt>
<pdfrwt beam="2">  1       -2 0.49936933E-01 0.13314501E+04</pdfrwt>
<totfact> 0.26512631E+01</totfact>
</mgrwt>
</event>
<event>
12    4  0.4280696E-008  0.1163543E+04  0.7818608E-02  0.9145380E-01
          1   -1    0    0  501    0  0.00000000000E+00  0.00000000000E+00  0.25824199992E+03  0.25824199992E+03  0.00000000000E+00 0. -1.
         -2   -1    0    0    0  501 -0.00000000000E+00 -0.00000000000E+00 -0.13106238668E+04  0.13106238668E+04  0.00000000000E+00 0.  1.
        -24    2    1    2    0    0  0.61903701969E+02 -0.19560030852E+03 -0.88951002198E+02  0.23761659223E+03  0.80360531967E+02 0.  0.
        254    2    1    2    0    0 -0.61903701969E+02  0.19560030852E+03 -0.96343086472E+03  0.13312492745E+04  0.89550770561E+03 0.  0.
         23    2    4    4    0    0 -0.27729979219E+03  0.89263260381E+01 -0.98782479925E+03  0.10303126520E+04  0.93656141799E+02 0.  0.
         23    2    4    4    0    0  0.21539609022E+03  0.18667398248E+03  0.24393934525E+02  0.30093662249E+03  0.93408432674E+02 0.  0.
          1    1    3    3  502    0  0.40961509051E+02 -0.13854723470E+03 -0.10018339583E+03  0.17581209932E+03  0.00000000000E+00 0. -1.
         -2    1    3    3    0  502  0.20942192918E+02 -0.57053073825E+02  0.11232393633E+02  0.61804492910E+02  0.00000000000E+00 0.  1.
         11    1    5    5    0    0 -0.10935767763E+03  0.27666030445E+01 -0.23875759625E+03  0.26262510450E+03  0.00000000000E+00 0. -1.
        -11    1    5    5    0    0 -0.16794211456E+03  0.61597229936E+01 -0.74906720300E+03  0.76768754754E+03  0.00000000000E+00 0.  1.
          2    1    6    6  503    0  0.19082252087E+03  0.13052210975E+03 -0.85534034901E+01  0.23134912214E+03  0.00000000000E+00 0. -1.
         -2    1    6    6    0  503  0.24573569352E+02  0.56151872738E+02  0.32947338015E+02  0.69587500350E+02  0.00000000000E+00 0.  1.
<mgrwt>
<rscale>  0 0.11635431E+04</rscale>
<asrwt>0</asrwt>
<pdfrwt beam="1">  1        1 0.39729539E-01 0.11635431E+04</pdfrwt>
<pdfrwt beam="2">  1       -2 0.20163444E+00 0.11635431E+04</pdfrwt>
<totfact> 0.11967652E+01</totfact>
</mgrwt>
</event>
<event>
12    4  0.4280696E-008  0.1222710E+04  0.7818608E-02  0.9093207E-01
         -2   -1    0    0    0  501 -0.00000000000E+00  0.00000000000E+00  0.38082204865E+03  0.38082204865E+03  0.00000000000E+00 0.  1.
          1   -1    0    0  501    0  0.00000000000E+00 -0.00000000000E+00 -0.98144312492E+03  0.98144312492E+03  0.00000000000E+00 0. -1.
        -24    2    1    2    0    0  0.25787096447E+03  0.20967855940E+02 -0.20539726442E+03  0.34054958346E+03  0.82758064637E+02 0.  0.
        254    2    1    2    0    0 -0.25787096447E+03 -0.20967855940E+02 -0.39522381185E+03  0.10217155901E+04  0.90596015382E+03 0.  0.
         23    2    4    4    0    0  0.14625618627E+02  0.31300549116E+03 -0.47287605112E+03  0.57415171624E+03  0.88612004418E+02 0.  0.
         23    2    4    4    0    0 -0.27249658310E+03 -0.33397334710E+03  0.77652239265E+02  0.44756387386E+03  0.92146440785E+02 0.  0.
          3    1    3    3  502    0  0.17039908054E+03  0.21449620696E+02 -0.18148803788E+03  0.24986764651E+03  0.00000000000E+00 0. -1.
         -4    1    3    3    0  502  0.87471883931E+02 -0.48176475604E+00 -0.23909226539E+02  0.90681936952E+02  0.00000000000E+00 0.  1.
         11    1    5    5    0    0  0.14308659969E+02  0.31310647270E+03 -0.43438461004E+03  0.53565883773E+03  0.00000000000E+00 0.  1.
        -11    1    5    5    0    0  0.31695865875E+00 -0.10098154000E+00 -0.38491441078E+02  0.38492878515E+02  0.00000000000E+00 0. -1.
          2    1    6    6  503    0 -0.96607135090E+01  0.45717483495E+01 -0.37080701983E+01  0.11312826927E+02  0.00000000000E+00 0. -1.
         -2    1    6    6    0  503 -0.26283586959E+03 -0.33854509545E+03  0.81360309464E+02  0.43625104694E+03  0.00000000000E+00 0.  1.
<mgrwt>
<rscale>  0 0.12227104E+04</rscale>
<asrwt>0</asrwt>
<pdfrwt beam="1">  1        1 0.15099125E+00 0.12227104E+04</pdfrwt>
<pdfrwt beam="2">  1       -2 0.58588006E-01 0.12227104E+04</pdfrwt>
<totfact> 0.36917358E+01</totfact>
</mgrwt>
</event>
<event>
12    4  0.4280696E-008  0.1163965E+04  0.7818608E-02  0.9144996E-01
          1   -1    0    0  501    0  0.00000000000E+00  0.00000000000E+00  0.83658697678E+03  0.83658697678E+03  0.00000000000E+00 0. -1.
         -2   -1    0    0    0  501 -0.00000000000E+00 -0.00000000000E+00 -0.40486336208E+03  0.40486336208E+03  0.00000000000E+00 0.  1.
        -24    2    1    2    0    0 -0.59253319935E+01 -0.24190684541E+03  0.12245256450E+03  0.28133388031E+03  0.74833750693E+02 0.  0.
        254    2    1    2    0    0  0.59253319935E+01  0.24190684541E+03  0.30927105021E+03  0.96011645855E+03  0.87613982906E+03 0.  0.
         23    2    4    4    0    0  0.16750222668E+02  0.28932549055E+02  0.58908525630E+03  0.59702500319E+03  0.91102979569E+02 0.  0.
         23    2    4    4    0    0 -0.10824890675E+02  0.21297429636E+03 -0.27981420610E+03  0.36309145536E+03  0.89800812086E+02 0.  0.
          1    1    3    3  502    0  0.16049509569E+02 -0.15949464090E+02 -0.14992460697E+01  0.22676417286E+02  0.00000000000E+00 0. -1.
         -2    1    3    3    0  502 -0.21974841563E+02 -0.22595738132E+03  0.12395181057E+03  0.25865746303E+03  0.00000000000E+00 0.  1.
         11    1    5    5    0    0  0.21325513272E+02 -0.18116911961E+02  0.64424431575E+02  0.70238930794E+02  0.00000000000E+00 0. -1.
        -11    1    5    5    0    0 -0.45752906039E+01  0.47049461016E+02  0.52466082473E+03  0.52678607240E+03  0.00000000000E+00 0.  1.
          1    1    6    6  503    0  0.98363811121E+01  0.19185032727E+03 -0.27114145268E+03  0.33229653899E+03  0.00000000000E+00 0.  1.
         -1    1    6    6    0  503 -0.20661271787E+02  0.21123969085E+02 -0.86727534193E+01  0.30794916360E+02  0.00000000000E+00 0. -1.
<mgrwt>
<rscale>  0 0.11639646E+04</rscale>
<asrwt>0</asrwt>
<pdfrwt beam="1">  1        1 0.12870569E+00 0.11639646E+04</pdfrwt>
<pdfrwt beam="2">  1       -2 0.62286671E-01 0.11639646E+04</pdfrwt>
<totfact> 0.42765951E+01</totfact>
</mgrwt>
</event>
<event>
12    4  0.4280696E-008  0.1422962E+04  0.7818608E-02  0.8937363E-01
         -2   -1    0    0    0  501 -0.00000000000E+00  0.00000000000E+00  0.16417405137E+03  0.16417405137E+03  0.00000000000E+00 0.  1.
          1   -1    0    0  501    0  0.00000000000E+00 -0.00000000000E+00 -0.30833442791E+04  0.30833442791E+04  0.00000000000E+00 0. -1.
        -24    2    1    2    0    0 -0.31419934822E+02  0.36200850471E+03 -0.13477127687E+04  0.13981446660E+04  0.80258522722E+02 0.  0.
        254    2    1    2    0    0  0.31419934822E+02 -0.36200850471E+03 -0.15714574590E+04  0.18493736644E+04  0.90480220785E+03 0.  0.
         23    2    4    4    0    0 -0.23311175388E+03 -0.54157132174E+02 -0.13575986544E+04  0.13815770660E+04  0.91689684171E+02 0.  0.
         23    2    4    4    0    0  0.26453168870E+03 -0.30785137254E+03 -0.21385880467E+03  0.46779659843E+03  0.91370603953E+02 0.  0.
          1    1    3    3  502    0 -0.44748360806E+02  0.29704688986E+03 -0.11839355332E+04  0.12214510294E+04  0.00000000000E+00 0. -1.
         -2    1    3    3    0  502  0.13328425984E+02  0.64961614854E+02 -0.16377723552E+03  0.17669363661E+03  0.00000000000E+00 0.  1.
         11    1    5    5    0    0 -0.17666353659E+03 -0.55992996741E+02 -0.11986628685E+04  0.12129047338E+04  0.00000000000E+00 0. -1.
        -11    1    5    5    0    0 -0.56448217291E+02  0.18358645669E+01 -0.15893578585E+03  0.16867233222E+03  0.00000000000E+00 0.  1.
          2    1    6    6  503    0  0.11974915614E+03 -0.74019622848E+02 -0.80050903367E+02  0.16194725096E+03  0.00000000000E+00 0.  1.
         -2    1    6    6    0  503  0.14478253256E+03 -0.23383174969E+03 -0.13380790130E+03  0.30584934747E+03  0.00000000000E+00 0. -1.
<mgrwt>
<rscale>  0 0.14229619E+04</rscale>
<asrwt>0</asrwt>
<pdfrwt beam="1">  1        1 0.47436060E+00 0.14229619E+04</pdfrwt>
<pdfrwt beam="2">  1       -2 0.25257550E-01 0.14229619E+04</pdfrwt>
<totfact> 0.63009466E+00</totfact>
</mgrwt>
</event>
<event>
12    4  0.4280696E-008  0.1558942E+04  0.7818608E-02  0.8846176E-01
         -2   -1    0    0    0  501 -0.00000000000E+00  0.00000000000E+00  0.11577830284E+04  0.11577830284E+04  0.00000000000E+00 0.  1.
          1   -1    0    0  501    0  0.00000000000E+00 -0.00000000000E+00 -0.52477459336E+03  0.52477459336E+03  0.00000000000E+00 0. -1.
        -24    2    1    2    0    0  0.46273774009E+03  0.18269011226E+03  0.68810520433E+02  0.50907896203E+03  0.83214233423E+02 0.  0.
        254    2    1    2    0    0 -0.46273774009E+03 -0.18269011226E+03  0.56419791462E+03  0.11734786597E+04  0.90068362080E+03 0.  0.
         23    2    4    4    0    0  0.44632448211E+02 -0.38778263607E+03  0.28728629692E+02  0.40233410422E+03  0.93166351134E+02 0.  0.
         23    2    4    4    0    0 -0.50737018830E+03  0.20509252381E+03  0.53546928493E+03  0.77114455552E+03  0.91919089987E+02 0.  0.
          1    1    3    3  502    0  0.42123866545E+03  0.13782422701E+03  0.57528431809E+02  0.44693070076E+03  0.00000000000E+00 0. -1.
         -2    1    3    3    0  502  0.41499074642E+02  0.44865885249E+02  0.11282088625E+02  0.62148261271E+02  0.00000000000E+00 0.  1.
         11    1    5    5    0    0 -0.21612490670E+01 -0.36464067181E+02  0.30994406802E+02  0.47905661940E+02  0.00000000000E+00 0.  1.
        -11    1    5    5    0    0  0.46793697278E+02 -0.35131856889E+03 -0.22657771093E+01  0.35442844228E+03  0.00000000000E+00 0. -1.
          4    1    6    6  503    0 -0.42678413530E+03  0.18325911075E+03  0.49351039434E+03  0.67770281771E+03  0.00000000000E+00 0. -1.
         -4    1    6    6    0  503 -0.80586053003E+02  0.21833413056E+02  0.41958890587E+02  0.93441737802E+02  0.00000000000E+00 0.  1.
<mgrwt>
<rscale>  0 0.15589421E+04</rscale>
<asrwt>0</asrwt>
<pdfrwt beam="1">  1        1 0.80734553E-01 0.15589421E+04</pdfrwt>
<pdfrwt beam="2">  1       -2 0.17812047E+00 0.15589421E+04</pdfrwt>
<totfact> 0.65149042E+00</totfact>
</mgrwt>
</event>
<event>
12    4  0.4280696E-008  0.1443375E+04  0.7818608E-02  0.8923006E-01
         -2   -1    0    0    0  501 -0.00000000000E+00  0.00000000000E+00  0.37492384965E+03  0.37492384965E+03  0.00000000000E+00 0.  1.
          1   -1    0    0  501    0  0.00000000000E+00 -0.00000000000E+00 -0.13891698032E+04  0.13891698032E+04  0.00000000000E+00 0. -1.
        -24    2    1    2    0    0  0.23684570661E+03  0.35000060128E+03 -0.44466303252E+03  0.61861796650E+03  0.79791392728E+02 0.  0.
        254    2    1    2    0    0 -0.23684570661E+03 -0.35000060128E+03 -0.56958292102E+03  0.11454756863E+04  0.89949626706E+03 0.  0.
         23    2    4    4    0    0 -0.22968232043E+02 -0.53307083212E+03 -0.64266631728E+03  0.84017873122E+03  0.90488967789E+02 0.  0.
         23    2    4    4    0    0 -0.21387747456E+03  0.18307023085E+03  0.73083396259E+02  0.30529695512E+03  0.92772649243E+02 0.  0.
          3    1    3    3  502    0  0.20247160757E+03  0.28864307753E+03 -0.40824023684E+03  0.53941604449E+03  0.00000000000E+00 0. -1.
         -4    1    3    3    0  502  0.34374099041E+02  0.61357523748E+02 -0.36422795685E+02  0.79201922015E+02  0.00000000000E+00 0.  1.
         11    1    5    5    0    0 -0.28125025480E+02 -0.45917363350E+03 -0.59495815735E+03  0.75206824941E+03  0.00000000000E+00 0.  1.
        -11    1    5    5    0    0  0.51567934368E+01 -0.73897198623E+02 -0.47708159923E+02  0.88110481817E+02  0.00000000000E+00 0. -1.
          2    1    6    6  503    0  0.51248818681E+01  0.34606329723E+01 -0.85328137445E+01  0.10537993411E+02  0.00000000000E+00 0. -1.
         -2    1    6    6    0  503 -0.21900235643E+03  0.17960959788E+03  0.81616210004E+02  0.29475896171E+03  0.00000000000E+00 0.  1.
<mgrwt>
<rscale>  0 0.14433751E+04</rscale>
<asrwt>0</asrwt>
<pdfrwt beam="1">  1        1 0.21371843E+00 0.14433751E+04</pdfrwt>
<pdfrwt beam="2">  1       -2 0.57680593E-01 0.14433751E+04</pdfrwt>
<totfact> 0.18760091E+01</totfact>
</mgrwt>
</event>
<event>
12    4  0.4280696E-008  0.1565407E+04  0.7818608E-02  0.8842086E-01
          1   -1    0    0  501    0  0.00000000000E+00  0.00000000000E+00  0.24539413133E+04  0.24539413133E+04  0.00000000000E+00 0. -1.
         -2   -1    0    0    0  501 -0.00000000000E+00 -0.00000000000E+00 -0.24964920323E+03  0.24964920323E+03  0.00000000000E+00 0.  1.
        -24    2    1    2    0    0 -0.48337867896E+03 -0.14812068996E+03  0.85581546422E+03  0.99714025416E+03  0.79207901115E+02 0.  0.
        254    2    1    2    0    0  0.48337867896E+03  0.14812068996E+03  0.13484766458E+04  0.17064502624E+04  0.91541714396E+03 0.  0.
         23    2    4    4    0    0  0.22171539099E+03 -0.65949702465E+02 -0.57290674450E+02  0.25769057927E+03  0.98056796849E+02 0.  0.
         23    2    4    4    0    0  0.26166328798E+03  0.21407039243E+03  0.14057673203E+04  0.14487596831E+04  0.91809865275E+02 0.  0.
          1    1    3    3  502    0 -0.24076237614E+02 -0.27962670004E+02  0.57499036661E+02  0.68320680239E+02  0.00000000000E+00 0. -1.
         -2    1    3    3    0  502 -0.45930244135E+03 -0.12015801996E+03  0.79831642756E+03  0.92881957392E+03  0.00000000000E+00 0.  1.
         11    1    5    5    0    0  0.60727677736E+02  0.14315839913E+02  0.14418731946E+02  0.64036660957E+02  0.00000000000E+00 0. -1.
        -11    1    5    5    0    0  0.16098771325E+03 -0.80265542379E+02 -0.71709406395E+02  0.19365391831E+03  0.00000000000E+00 0.  1.
          1    1    6    6  503    0  0.17857877802E+03  0.15274394311E+03  0.78347700166E+03  0.81795923141E+03  0.00000000000E+00 0. -1.
         -1    1    6    6    0  503  0.83084509953E+02  0.61326449321E+02  0.62229031863E+03  0.63080045168E+03  0.00000000000E+00 0.  1.
<mgrwt>
<rscale>  0 0.15654066E+04</rscale>
<asrwt>0</asrwt>
<pdfrwt beam="1">  1        1 0.37752942E+00 0.15654066E+04</pdfrwt>
<pdfrwt beam="2">  1       -2 0.38407571E-01 0.15654066E+04</pdfrwt>
<totfact> 0.79038983E+00</totfact>
</mgrwt>
</event>
<event>
12    4  0.4280696E-008  0.3113250E+04  0.7818608E-02  0.8212111E-01
          1   -1    0    0  501    0  0.00000000000E+00  0.00000000000E+00  0.90024914614E+03  0.90024914614E+03  0.00000000000E+00 0. -1.
         -2   -1    0    0    0  501 -0.00000000000E+00 -0.00000000000E+00 -0.26915676074E+04  0.26915676074E+04  0.00000000000E+00 0.  1.
        -24    2    1    2    0    0 -0.24242724952E+03 -0.11791077594E+04 -0.16978655366E+04  0.20828348285E+04  0.79921602393E+02 0.  0.
        254    2    1    2    0    0  0.24242724952E+03  0.11791077594E+04 -0.93452924605E+02  0.15089819251E+04  0.90511155199E+03 0.  0.
         23    2    4    4    0    0  0.27413697597E+02  0.96327937292E+03  0.29021170520E+03  0.10106815661E+04  0.92713176650E+02 0.  0.
         23    2    4    4    0    0  0.21501355192E+03  0.21582838647E+03 -0.38366462981E+03  0.49830035898E+03  0.91060307896E+02 0.  0.
          1    1    3    3  502    0 -0.12722321292E+02 -0.73920509786E+02 -0.75679149104E+02  0.10655248864E+03  0.00000000000E+00 0. -1.
         -2    1    3    3    0  502 -0.22970492822E+03 -0.11051872496E+04 -0.16221863875E+04  0.19762823398E+04  0.00000000000E+00 0.  1.
         11    1    5    5    0    0  0.20938286895E+02  0.61138595002E+03  0.13739366000E+03  0.62698342048E+03  0.00000000000E+00 0.  1.
        -11    1    5    5    0    0  0.64754107019E+01  0.35189342290E+03  0.15281804520E+03  0.38369814563E+03  0.00000000000E+00 0. -1.
          1    1    6    6  503    0  0.47377017175E+02  0.99917794762E+02 -0.17187449135E+03  0.20437462720E+03  0.00000000000E+00 0. -1.
         -1    1    6    6    0  503  0.16763653474E+03  0.11591059171E+03 -0.21179013846E+03  0.29392573177E+03  0.00000000000E+00 0.  1.
<mgrwt>
<rscale>  0 0.31132500E+04</rscale>
<asrwt>0</asrwt>
<pdfrwt beam="1">  1        1 0.13849987E+00 0.31132500E+04</pdfrwt>
<pdfrwt beam="2">  1       -2 0.41408733E+00 0.31132500E+04</pdfrwt>
<totfact> 0.80601739E-02</totfact>
</mgrwt>
</event>
<event>
12    4  0.4280696E-008  0.4175014E+04  0.7818608E-02  0.7970142E-01
          1   -1    0    0  501    0  0.00000000000E+00  0.00000000000E+00  0.24880201120E+04  0.24880201120E+04  0.00000000000E+00 0. -1.
         -2   -1    0    0    0  501 -0.00000000000E+00 -0.00000000000E+00 -0.17514671143E+04  0.17514671143E+04  0.00000000000E+00 0.  1.
        -24    2    1    2    0    0 -0.13333848958E+04  0.60697667864E+03  0.17197557841E+04  0.22606941839E+04  0.82717999821E+02 0.  0.
        254    2    1    2    0    0  0.13333848958E+04 -0.60697667864E+03 -0.98320278637E+03  0.19787930424E+04  0.89587846092E+03 0.  0.
         23    2    4    4    0    0  0.54355939723E+03  0.14018418548E+03 -0.58792529745E+03  0.81797320523E+03  0.91189828956E+02 0.  0.
         23    2    4    4    0    0  0.78982549861E+03 -0.74716086412E+03 -0.39527748892E+03  0.11608198372E+04  0.95836976459E+02 0.  0.
          1    1    3    3  502    0 -0.20126691652E+03  0.76999334287E+02  0.21415273915E+03  0.30380695326E+03  0.00000000000E+00 0. -1.
         -2    1    3    3    0  502 -0.11321179793E+04  0.52997734435E+03  0.15056030449E+04  0.19568872306E+04  0.00000000000E+00 0.  1.
         11    1    5    5    0    0  0.32869139771E+03  0.49028156740E+02 -0.38594603053E+03  0.50930946738E+03  0.00000000000E+00 0. -1.
        -11    1    5    5    0    0  0.21486799952E+03  0.91156028739E+02 -0.20197926692E+03  0.30866373784E+03  0.00000000000E+00 0.  1.
          4    1    6    6  503    0  0.60998265373E+03 -0.61968139225E+03 -0.33927127323E+03  0.93337498498E+03  0.00000000000E+00 0. -1.
         -4    1    6    6    0  503  0.17984284488E+03 -0.12747947187E+03 -0.56006215685E+02  0.22744485221E+03  0.00000000000E+00 0.  1.
<mgrwt>
<rscale>  0 0.41750140E+04</rscale>
<asrwt>0</asrwt>
<pdfrwt beam="1">  1        1 0.38277232E+00 0.41750140E+04</pdfrwt>
<pdfrwt beam="2">  1       -2 0.26945648E+00 0.41750140E+04</pdfrwt>
<totfact> 0.45776869E-02</totfact>
</mgrwt>
</event>
<event>
12    4  0.4280696E-008  0.1387500E+04  0.7818608E-02  0.8962916E-01
          1   -1    0    0  501    0  0.00000000000E+00  0.00000000000E+00  0.12629846445E+04  0.12629846445E+04  0.00000000000E+00 0. -1.
         -2   -1    0    0    0  501 -0.00000000000E+00 -0.00000000000E+00 -0.38107297538E+03  0.38107297538E+03  0.00000000000E+00 0.  1.
        -24    2    1    2    0    0  0.82336776542E+02  0.29043160335E+03  0.55593195416E+03  0.63767947141E+03  0.80280194363E+02 0.  0.
        254    2    1    2    0    0 -0.82336776542E+02 -0.29043160335E+03  0.32597971500E+03  0.10063781485E+04  0.90299742093E+03 0.  0.
         23    2    4    4    0    0 -0.23782519303E+03 -0.50771670200E+03 -0.97438778087E+01  0.56782913908E+03  0.89431068954E+02 0.  0.
         23    2    4    4    0    0  0.15548841649E+03  0.21728509866E+03  0.33572359281E+03  0.43854900943E+03  0.90694217781E+02 0.  0.
          3    1    3    3  502    0  0.62725021642E+02  0.16647296190E+03  0.24846399202E+03  0.30558473573E+03  0.00000000000E+00 0. -1.
         -4    1    3    3    0  502  0.19611754900E+02  0.12395864144E+03  0.30746796214E+03  0.33209473567E+03  0.00000000000E+00 0.  1.
         11    1    5    5    0    0 -0.16726098649E+03 -0.26001643390E+03 -0.22274098936E+02  0.30996922263E+03  0.00000000000E+00 0.  1.
        -11    1    5    5    0    0 -0.70564206546E+02 -0.24770026811E+03  0.12530221127E+02  0.25785991644E+03  0.00000000000E+00 0. -1.
          1    1    6    6  503    0  0.10990359476E+03  0.17092457002E+03  0.18667871760E+03  0.27594012463E+03  0.00000000000E+00 0. -1.
         -1    1    6    6    0  503  0.45584821732E+02  0.46360528639E+02  0.14904487521E+03  0.16260888480E+03  0.00000000000E+00 0.  1.
<mgrwt>
<rscale>  0 0.13875004E+04</rscale>
<asrwt>0</asrwt>
<pdfrwt beam="1">  1        1 0.19430533E+00 0.13875004E+04</pdfrwt>
<pdfrwt beam="2">  1       -2 0.58626612E-01 0.13875004E+04</pdfrwt>
<totfact> 0.22391041E+01</totfact>
</mgrwt>
</event>
<event>
12    4  0.4280696E-008  0.1453693E+04  0.7818608E-02  0.8915844E-01
          1   -1    0    0  501    0  0.00000000000E+00  0.00000000000E+00  0.63473810435E+03  0.63473810435E+03  0.00000000000E+00 0. -1.
         -2   -1    0    0    0  501 -0.00000000000E+00 -0.00000000000E+00 -0.83232131632E+03  0.83232131632E+03  0.00000000000E+00 0.  1.
        -24    2    1    2    0    0 -0.11222284667E+03  0.37208178146E+03 -0.29116221451E+03  0.49304730589E+03  0.85331068628E+02 0.  0.
        254    2    1    2    0    0  0.11222284667E+03 -0.37208178146E+03  0.93579002551E+02  0.97401211478E+03  0.88820253918E+03 0.  0.
         23    2    4    4    0    0  0.45337050055E+03 -0.30748513478E+03  0.21370120631E+03  0.59488650256E+03  0.90165550373E+02 0.  0.
         23    2    4    4    0    0 -0.34114765389E+03 -0.64596646686E+02 -0.12012220376E+03  0.37912561222E+03  0.93554462678E+02 0.  0.
          1    1    3    3  502    0 -0.23980669372E+02  0.14358963149E+02 -0.10412488519E+02  0.29827374062E+02  0.00000000000E+00 0. -1.
         -2    1    3    3    0  502 -0.88242177294E+02  0.35772281831E+03 -0.28074972600E+03  0.46321993183E+03  0.00000000000E+00 0.  1.
         11    1    5    5    0    0  0.42781541704E+03 -0.29344733193E+03  0.17729406362E+03  0.54824315104E+03  0.00000000000E+00 0.  1.
        -11    1    5    5    0    0  0.25555083515E+02 -0.14037802847E+02  0.36407142688E+02  0.46643351519E+02  0.00000000000E+00 0. -1.
          3    1    6    6  503    0 -0.13235944859E+03  0.14990417794E+02 -0.21678610517E+02  0.13495813577E+03  0.00000000000E+00 0. -1.
         -3    1    6    6    0  503 -0.20878820530E+03 -0.79587064480E+02 -0.98443593241E+02  0.24416747645E+03  0.00000000000E+00 0.  1.
<mgrwt>
<rscale>  0 0.14536933E+04</rscale>
<asrwt>0</asrwt>
<pdfrwt beam="1">  1        1 0.97652016E-01 0.14536933E+04</pdfrwt>
<pdfrwt beam="2">  1       -2 0.12804943E+00 0.14536933E+04</pdfrwt>
<totfact> 0.12092862E+01</totfact>
</mgrwt>
</event>
<event>
12    4  0.4280696E-008  0.1248591E+04  0.7818608E-02  0.9071357E-01
          1   -1    0    0  501    0  0.00000000000E+00  0.00000000000E+00  0.31663319061E+03  0.31663319061E+03  0.00000000000E+00 0. -1.
         -2   -1    0    0    0  501 -0.00000000000E+00 -0.00000000000E+00 -0.12309035612E+04  0.12309035612E+04  0.00000000000E+00 0.  1.
        -24    2    1    2    0    0 -0.59438110115E+02  0.88731016565E+02 -0.55714591815E+03  0.57295432982E+03  0.80367952031E+02 0.  0.
        254    2    1    2    0    0  0.59438110115E+02 -0.88731016565E+02 -0.35712445246E+03  0.97458242200E+03  0.90048150480E+03 0.  0.
         23    2    4    4    0    0 -0.25544067125E+03 -0.26576905061E+03 -0.45189645690E+03  0.59054546504E+03  0.93007600390E+02 0.  0.
         23    2    4    4    0    0  0.31487878136E+03  0.17703803405E+03  0.94772004443E+02  0.38403695696E+03  0.89507201009E+02 0.  0.
          1    1    3    3  502    0  0.39877984133E+01 -0.59511161985E+01 -0.14968405672E+03  0.14985538080E+03  0.00000000000E+00 0. -1.
         -2    1    3    3    0  502 -0.63425908528E+02  0.94682132763E+02 -0.40746186143E+03  0.42309894901E+03  0.00000000000E+00 0.  1.
         11    1    5    5    0    0 -0.14925311919E+03 -0.88503393690E+02 -0.20339831170E+03  0.26735784538E+03  0.00000000000E+00 0. -1.
        -11    1    5    5    0    0 -0.10618755206E+03 -0.17726565692E+03 -0.24849814520E+03  0.32318761966E+03  0.00000000000E+00 0.  1.
          2    1    6    6  503    0  0.20703490562E+03  0.90046833528E+02  0.96356416219E+02  0.24547187887E+03  0.00000000000E+00 0. -1.
         -2    1    6    6    0  503  0.10784387575E+03  0.86991200517E+02 -0.15844117765E+01  0.13856507808E+03  0.00000000000E+00 0.  1.
<mgrwt>
<rscale>  0 0.12485911E+04</rscale>
<asrwt>0</asrwt>
<pdfrwt beam="1">  1        1 0.48712798E-01 0.12485911E+04</pdfrwt>
<pdfrwt beam="2">  1       -2 0.18936978E+00 0.12485911E+04</pdfrwt>
<totfact> 0.10998920E+01</totfact>
</mgrwt>
</event>
<event>
12    4  0.4280696E-008  0.2129375E+04  0.7818608E-02  0.8548413E-01
         -2   -1    0    0    0  501 -0.00000000000E+00  0.00000000000E+00  0.52071479612E+03  0.52071479612E+03  0.00000000000E+00 0.  1.
          1   -1    0    0  501    0  0.00000000000E+00 -0.00000000000E+00 -0.21769300122E+04  0.21769300122E+04  0.00000000000E+00 0. -1.
        -24    2    1    2    0    0 -0.55476625876E+03 -0.14878087859E+03  0.14735454497E+03  0.59828483737E+03  0.79561504573E+02 0.  0.
        254    2    1    2    0    0  0.55476625876E+03  0.14878087859E+03 -0.18035697611E+04  0.20993599710E+04  0.90804573283E+03 0.  0.
         23    2    4    4    0    0  0.54334582403E+03 -0.54188716810E+02 -0.17921879697E+04  0.18758152866E+04  0.92650791758E+02 0.  0.
         23    2    4    4    0    0  0.11420434729E+02  0.20296959540E+03 -0.11381791388E+02  0.22354468437E+03  0.92279996455E+02 0.  0.
          1    1    3    3  502    0 -0.28984048687E+02 -0.19905293137E+02  0.25388504242E+02  0.43369020289E+02  0.00000000000E+00 0. -1.
         -2    1    3    3    0  502 -0.52578221007E+03 -0.12887558546E+03  0.12196604073E+03  0.55491581708E+03  0.00000000000E+00 0.  1.
         11    1    5    5    0    0  0.41790620323E+03 -0.63737577859E+01 -0.12916766747E+04  0.13576136606E+04  0.00000000000E+00 0. -1.
        -11    1    5    5    0    0  0.12543962080E+03 -0.47814959024E+02 -0.50051129502E+03  0.51820162603E+03  0.00000000000E+00 0.  1.
          2    1    6    6  503    0  0.32514713105E+02  0.17856037405E+03  0.14655374682E+02  0.18208732453E+03  0.00000000000E+00 0. -1.
         -2    1    6    6    0  503 -0.21094278376E+02  0.24409221354E+02 -0.26037166070E+02  0.41457359833E+02  0.00000000000E+00 0.  1.
<mgrwt>
<rscale>  0 0.21293752E+04</rscale>
<asrwt>0</asrwt>
<pdfrwt beam="1">  1        1 0.33491231E+00 0.21293752E+04</pdfrwt>
<pdfrwt beam="2">  1       -2 0.80109969E-01 0.21293752E+04</pdfrwt>
<totfact> 0.25084504E+00</totfact>
</mgrwt>
</event>
<event>
12    4  0.4280696E-008  0.2792116E+04  0.7818608E-02  0.8305720E-01
          1   -1    0    0  501    0  0.00000000000E+00  0.00000000000E+00  0.32132728612E+04  0.32132728612E+04  0.00000000000E+00 0. -1.
         -4   -1    0    0    0  501 -0.00000000000E+00 -0.00000000000E+00 -0.60653966354E+03  0.60653966354E+03  0.00000000000E+00 0.  1.
        -24    2    1    2    0    0  0.81823129012E+03 -0.93306455437E+03  0.96803877641E+03  0.15768044049E+04  0.95399958308E+02 0.  0.
        254    2    1    2    0    0 -0.81823129012E+03  0.93306455437E+03  0.16386944212E+04  0.22430081198E+04  0.89758237087E+03 0.  0.
         23    2    4    4    0    0 -0.54902298478E+03  0.84224724175E+03  0.62649791144E+03  0.11881076276E+04  0.91068368513E+02 0.  0.
         23    2    4    4    0    0 -0.26920830534E+03  0.90817312620E+02  0.10121965098E+04  0.10549004922E+04  0.86904418625E+02 0.  0.
          1    1    3    3  502    0  0.71148940495E+03 -0.79655396765E+03  0.79089279589E+03  0.13289946619E+04  0.00000000000E+00 0. -1.
         -2    1    3    3    0  502  0.10674188517E+03 -0.13651058672E+03  0.17714598052E+03  0.24780974305E+03  0.00000000000E+00 0.  1.
         11    1    5    5    0    0 -0.23692717669E+03  0.44192936255E+03  0.32947014435E+03  0.59998885369E+03  0.00000000000E+00 0. -1.
        -11    1    5    5    0    0 -0.31209580809E+03  0.40031787920E+03  0.29702776709E+03  0.58811877394E+03  0.00000000000E+00 0.  1.
          3    1    6    6  503    0 -0.52050506955E+02  0.22879660018E+02  0.10285659663E+03  0.11752537423E+03  0.00000000000E+00 0. -1.
         -3    1    6    6    0  503 -0.21715779839E+03  0.67937652603E+02  0.90933991317E+03  0.93737511794E+03  0.00000000000E+00 0.  1.
<mgrwt>
<rscale>  0 0.27921156E+04</rscale>
<asrwt>0</asrwt>
<pdfrwt beam="1">  1        1 0.49434966E+00 0.27921156E+04</pdfrwt>
<pdfrwt beam="2">  1       -4 0.93313796E-01 0.27921156E+04</pdfrwt>
<totfact> 0.17345414E-01</totfact>
</mgrwt>
</event>
<event>
12    4  0.4280696E-008  0.1859647E+04  0.7818608E-02  0.8675207E-01
         -2   -1    0    0    0  501 -0.00000000000E+00  0.00000000000E+00  0.49143299604E+03  0.49143299604E+03  0.00000000000E+00 0.  1.
          1   -1    0    0  501    0  0.00000000000E+00 -0.00000000000E+00 -0.17592873228E+04  0.17592873228E+04  0.00000000000E+00 0. -1.
        -24    2    1    2    0    0  0.33455254282E+03 -0.55394533866E+03 -0.83546768075E+03  0.10599317365E+04  0.81659036363E+02 0.  0.
        254    2    1    2    0    0 -0.33455254282E+03  0.55394533866E+03 -0.43238664605E+03  0.11907885824E+04  0.90124269441E+03 0.  0.
         23    2    4    4    0    0  0.12544476092E+03 -0.24011438421E+02  0.17116780448E+03  0.23261785996E+03  0.92193894950E+02 0.  0.
         23    2    4    4    0    0 -0.45999730374E+03  0.57795677708E+03 -0.60355445052E+03  0.95817072247E+03  0.90452214068E+02 0.  0.
          3    1    3    3  502    0  0.28468082704E+02 -0.25790700814E+02 -0.79321433876E+02  0.88133318634E+02  0.00000000000E+00 0. -1.
         -4    1    3    3    0  502  0.30608446012E+03 -0.52815463785E+03 -0.75614624688E+03  0.97179841782E+03  0.00000000000E+00 0.  1.
         11    1    5    5    0    0 -0.63926022498E+01 -0.23039399064E+02  0.40264026880E+02  0.46828101962E+02  0.00000000000E+00 0. -1.
        -11    1    5    5    0    0  0.13183736317E+03 -0.97203935679E+00  0.13090377760E+03  0.18578975800E+03  0.00000000000E+00 0.  1.
          4    1    6    6  503    0 -0.32827938371E+03  0.47303429986E+03 -0.46778845149E+03  0.74185904184E+03  0.00000000000E+00 0. -1.
         -4    1    6    6    0  503 -0.13171792003E+03  0.10492247722E+03 -0.13576599903E+03  0.21631168063E+03  0.00000000000E+00 0.  1.
<mgrwt>
<rscale>  0 0.18596471E+04</rscale>
<asrwt>0</asrwt>
<pdfrwt beam="1">  1        1 0.27065959E+00 0.18596471E+04</pdfrwt>
<pdfrwt beam="2">  1       -2 0.75605077E-01 0.18596471E+04</pdfrwt>
<totfact> 0.56136925E+00</totfact>
</mgrwt>
</event>
<event>
12    4  0.4280696E-008  0.2173802E+04  0.7818608E-02  0.8529412E-01
         -2   -1    0    0    0  501 -0.00000000000E+00  0.00000000000E+00  0.69121654027E+03  0.69121654027E+03  0.00000000000E+00 0.  1.
          1   -1    0    0  501    0  0.00000000000E+00 -0.00000000000E+00 -0.17090943544E+04  0.17090943544E+04  0.00000000000E+00 0. -1.
        -24    2    1    2    0    0 -0.77459096030E+03  0.35039303054E+02 -0.91663647716E+03  0.12033128945E+04  0.80750122670E+02 0.  0.
        254    2    1    2    0    0  0.77459096030E+03 -0.35039303054E+02 -0.10124133693E+03  0.11969980001E+04  0.90627561782E+03 0.  0.
         23    2    4    4    0    0  0.13654434442E+03 -0.74998084992E+02  0.36021498428E+03  0.40317716136E+03  0.92346725969E+02 0.  0.
         23    2    4    4    0    0  0.63804661588E+03  0.39958781938E+02 -0.46145632120E+03  0.79382083876E+03  0.92246405828E+02 0.  0.
          1    1    3    3  502    0 -0.52701885585E+03  0.44848124471E+02 -0.67124618459E+03  0.85459444710E+03  0.00000000000E+00 0. -1.
         -2    1    3    3    0  502 -0.24757210445E+03 -0.98088214175E+01 -0.24539029257E+03  0.34871844741E+03  0.00000000000E+00 0.  1.
         11    1    5    5    0    0  0.76600591097E+02 -0.20197780472E+02  0.84840835203E+02  0.11607570034E+03  0.00000000000E+00 0. -1.
        -11    1    5    5    0    0  0.59943753321E+02 -0.54800304520E+02  0.27537414907E+03  0.28710146101E+03  0.00000000000E+00 0.  1.
          4    1    6    6  503    0  0.15126494781E+03  0.40534485975E+02 -0.83060759910E+02  0.17726595506E+03  0.00000000000E+00 0. -1.
         -4    1    6    6    0  503  0.48678166807E+03 -0.57570403680E+00 -0.37839556129E+03  0.61655488370E+03  0.00000000000E+00 0.  1.
<mgrwt>
<rscale>  0 0.21738025E+04</rscale>
<asrwt>0</asrwt>
<pdfrwt beam="1">  1        1 0.26293759E+00 0.21738025E+04</pdfrwt>
<pdfrwt beam="2">  1       -2 0.10634101E+00 0.21738025E+04</pdfrwt>
<totfact> 0.26880333E+00</totfact>
</mgrwt>
</event>
<event>
12    4  0.4280696E-008  0.2000895E+04  0.7818608E-02  0.8606202E-01
         -2   -1    0    0    0  501 -0.00000000000E+00  0.00000000000E+00  0.10068516801E+04  0.10068516801E+04  0.00000000000E+00 0.  1.
          1   -1    0    0  501    0  0.00000000000E+00 -0.00000000000E+00 -0.99408387735E+03  0.99408387735E+03  0.00000000000E+00 0. -1.
        -24    2    1    2    0    0  0.15514397234E+03 -0.65598124014E+03 -0.38108566764E+03  0.77837493022E+03  0.79121465813E+02 0.  0.
        254    2    1    2    0    0 -0.15514397234E+03  0.65598124014E+03  0.39385347035E+03  0.12225606272E+04  0.94082564351E+03 0.  0.
         23    2    4    4    0    0 -0.35687716249E+03  0.39892561176E+03 -0.16597638006E+03  0.56777943429E+03  0.91227048868E+02 0.  0.
         23    2    4    4    0    0  0.20173319015E+03  0.25705562838E+03  0.55982985042E+03  0.65478119290E+03  0.92493638015E+02 0.  0.
          3    1    3    3  502    0  0.11938608662E+03 -0.56974375468E+03 -0.30078978980E+03  0.65523696578E+03  0.00000000000E+00 0. -1.
         -4    1    3    3    0  502  0.35757885720E+02 -0.86237485459E+02 -0.80295877840E+02  0.12313796444E+03  0.00000000000E+00 0.  1.
         11    1    5    5    0    0 -0.23486629102E+03  0.19642491465E+03 -0.83071837180E+02  0.31724730398E+03  0.00000000000E+00 0.  1.
        -11    1    5    5    0    0 -0.12201087146E+03  0.20250069711E+03 -0.82904542883E+02  0.25053213031E+03  0.00000000000E+00 0. -1.
          1    1    6    6  503    0  0.67886485221E+02  0.13114309381E+03  0.17992430720E+03  0.23276563804E+03  0.00000000000E+00 0.  1.
         -1    1    6    6    0  503  0.13384670493E+03  0.12591253457E+03  0.37990554321E+03  0.42201555486E+03  0.00000000000E+00 0. -1.
<mgrwt>
<rscale>  0 0.20008948E+04</rscale>
<asrwt>0</asrwt>
<pdfrwt beam="1">  1        1 0.15293598E+00 0.20008948E+04</pdfrwt>
<pdfrwt beam="2">  1       -2 0.15490026E+00 0.20008948E+04</pdfrwt>
<totfact> 0.34194598E+00</totfact>
</mgrwt>
</event>
<event>
12    4  0.4280696E-008  0.2020367E+04  0.7818608E-02  0.8597157E-01
          1   -1    0    0  501    0  0.00000000000E+00  0.00000000000E+00  0.12235371025E+04  0.12235371025E+04  0.00000000000E+00 0. -1.
         -2   -1    0    0    0  501 -0.00000000000E+00 -0.00000000000E+00 -0.83403294431E+03  0.83403294431E+03  0.00000000000E+00 0.  1.
        -24    2    1    2    0    0  0.12459194057E+03  0.66578179577E+01  0.96612284932E+03  0.97726236517E+03  0.77980075690E+02 0.  0.
        254    2    1    2    0    0 -0.12459194057E+03 -0.66578179577E+01 -0.57661869117E+03  0.10803076816E+04  0.90499065947E+03 0.  0.
         23    2    4    4    0    0  0.17156653148E+03 -0.27112916020E+03  0.45113079707E+02  0.33618638987E+03  0.89666061269E+02 0.  0.
         23    2    4    4    0    0 -0.29615847205E+03  0.26447134224E+03 -0.62173177088E+03  0.74412129173E+03  0.97525229792E+02 0.  0.
          1    1    3    3  502    0  0.92351088614E+02 -0.17494030311E+02  0.45801697001E+03  0.46756209158E+03  0.00000000000E+00 0. -1.
         -2    1    3    3    0  502  0.32240851960E+02  0.24151848268E+02  0.50810587930E+03  0.50970027359E+03  0.00000000000E+00 0.  1.
         11    1    5    5    0    0  0.17553320161E+03 -0.27383769533E+03  0.37827229135E+02  0.32745974945E+03  0.00000000000E+00 0. -1.
        -11    1    5    5    0    0 -0.39666701276E+01  0.27085351315E+01  0.72858505718E+01  0.87266404196E+01  0.00000000000E+00 0.  1.
          1    1    6    6  503    0 -0.24055276386E+03  0.25813494212E+03 -0.54053917402E+03  0.64550900783E+03  0.00000000000E+00 0. -1.
         -1    1    6    6    0  503 -0.55605708196E+02  0.63364001242E+01 -0.81192596857E+02  0.98612283895E+02  0.00000000000E+00 0.  1.
<mgrwt>
<rscale>  0 0.20203666E+04</rscale>
<asrwt>0</asrwt>
<pdfrwt beam="1">  1        1 0.18823648E+00 0.20203666E+04</pdfrwt>
<pdfrwt beam="2">  1       -2 0.12831276E+00 0.20203666E+04</pdfrwt>
<totfact> 0.37456045E+00</totfact>
</mgrwt>
</event>
<event>
12    4  0.4280696E-008  0.2113743E+04  0.7818608E-02  0.8555213E-01
          1   -1    0    0  501    0  0.00000000000E+00  0.00000000000E+00  0.17788034586E+04  0.17788034586E+04  0.00000000000E+00 0. -1.
         -2   -1    0    0    0  501 -0.00000000000E+00 -0.00000000000E+00 -0.62793773950E+03  0.62793773950E+03  0.00000000000E+00 0.  1.
        -24    2    1    2    0    0  0.33878651549E+03  0.79393099780E+03  0.45300667776E+03  0.97813820041E+03  0.80228153844E+02 0.  0.
        254    2    1    2    0    0 -0.33878651549E+03 -0.79393099780E+03  0.69785904138E+03  0.14286029977E+04  0.89933116881E+03 0.  0.
         23    2    4    4    0    0  0.28836469389E+03 -0.17911934213E+03  0.28287754573E+03  0.45255416916E+03  0.97711998923E+02 0.  0.
         23    2    4    4    0    0 -0.62715120938E+03 -0.61481165567E+03  0.41498149565E+03  0.97604882858E+03  0.95653869169E+02 0.  0.
          3    1    3    3  502    0  0.27442226952E+03  0.70826200932E+03  0.40371124553E+03  0.86018918013E+03  0.00000000000E+00 0. -1.
         -4    1    3    3    0  502  0.64364245963E+02  0.85668988479E+02  0.49295432237E+02  0.11794902028E+03  0.00000000000E+00 0.  1.
         11    1    5    5    0    0  0.26264465083E+03 -0.19106734185E+03  0.26301715320E+03  0.41793177028E+03  0.00000000000E+00 0. -1.
        -11    1    5    5    0    0  0.25720043062E+02  0.11947999722E+02  0.19860392529E+02  0.34622398875E+02  0.00000000000E+00 0.  1.
          1    1    6    6  503    0 -0.38822435510E+03 -0.31475302803E+03  0.24153557545E+03  0.55509193181E+03  0.00000000000E+00 0. -1.
         -1    1    6    6    0  503 -0.23892685427E+03 -0.30005862764E+03  0.17344592019E+03  0.42095689678E+03  0.00000000000E+00 0.  1.
<mgrwt>
<rscale>  0 0.21137434E+04</rscale>
<asrwt>0</asrwt>
<pdfrwt beam="1">  1        1 0.27366207E+00 0.21137434E+04</pdfrwt>
<pdfrwt beam="2">  1       -2 0.96605807E-01 0.21137434E+04</pdfrwt>
<totfact> 0.30442171E+00</totfact>
</mgrwt>
</event>
<event>
12    4  0.4280696E-008  0.2547483E+04  0.7818608E-02  0.8386262E-01
          1   -1    0    0  501    0  0.00000000000E+00  0.00000000000E+00  0.20209028287E+04  0.20209028287E+04  0.00000000000E+00 0. -1.
         -2   -1    0    0    0  501 -0.00000000000E+00 -0.00000000000E+00 -0.80281783927E+03  0.80281783927E+03  0.00000000000E+00 0.  1.
        -24    2    1    2    0    0  0.83934004815E+03  0.16024460472E+03 -0.25345511839E+03  0.89491177062E+03  0.80358760510E+02 0.  0.
        254    2    1    2    0    0 -0.83934004815E+03 -0.16024460472E+03  0.14715401079E+04  0.19288088974E+04  0.90813183173E+03 0.  0.
         23    2    4    4    0    0 -0.65769832182E+03  0.17833343017E+02  0.15125918171E+04  0.16526085221E+04  0.10146827795E+03 0.  0.
         23    2    4    4    0    0 -0.18164172634E+03 -0.17807794774E+03 -0.41051709252E+02  0.27620037530E+03  0.99478300469E+02 0.  0.
          1    1    3    3  502    0  0.29308316793E+03  0.87788438720E+02 -0.11400584218E+03  0.32649944157E+03  0.00000000000E+00 0. -1.
         -2    1    3    3    0  502  0.54625688023E+03  0.72456165999E+02 -0.13944927621E+03  0.56841232906E+03  0.00000000000E+00 0.  1.
         11    1    5    5    0    0 -0.31942419294E+02  0.11060190154E+02  0.38801191930E+02  0.51460455223E+02  0.00000000000E+00 0.  1.
        -11    1    5    5    0    0 -0.62575590252E+03  0.67731528637E+01  0.14737906252E+04  0.16011480669E+04  0.00000000000E+00 0. -1.
          3    1    6    6  503    0 -0.59206671833E+02 -0.54380464376E+02 -0.61142499582E+02  0.10100034728E+03  0.00000000000E+00 0.  1.
         -3    1    6    6    0  503 -0.12243505450E+03 -0.12369748336E+03  0.20090790330E+02  0.17520002802E+03  0.00000000000E+00 0. -1.
<mgrwt>
<rscale>  0 0.25474826E+04</rscale>
<asrwt>0</asrwt>
<pdfrwt beam="1">  1        1 0.31090813E+00 0.25474826E+04</pdfrwt>
<pdfrwt beam="2">  1       -2 0.12351044E+00 0.25474826E+04</pdfrwt>
<totfact> 0.11080604E+00</totfact>
</mgrwt>
</event>
<event>
12    4  0.4280696E-008  0.1345912E+04  0.7818608E-02  0.8993928E-01
         -2   -1    0    0    0  501 -0.00000000000E+00  0.00000000000E+00  0.21632512711E+03  0.21632512711E+03  0.00000000000E+00 0.  1.
          1   -1    0    0  501    0  0.00000000000E+00 -0.00000000000E+00 -0.20934682286E+04  0.20934682286E+04  0.00000000000E+00 0. -1.
        -24    2    1    2    0    0 -0.34036445813E+03  0.48414232835E+02 -0.30704805970E+03  0.46831359677E+03  0.82747880090E+02 0.  0.
        254    2    1    2    0    0  0.34036445813E+03 -0.48414232835E+02 -0.15700950418E+04  0.18414797590E+04  0.89869759098E+03 0.  0.
         23    2    4    4    0    0  0.20478149825E+03  0.40790244541E+03 -0.63869332001E+03  0.79059184790E+03  0.93736043973E+02 0.  0.
         23    2    4    4    0    0  0.13558295988E+03 -0.45631667825E+03 -0.93140172183E+03  0.10508879111E+04  0.10123529217E+03 0.  0.
          1    1    3    3  502    0 -0.16527264918E+03  0.30042030217E+02 -0.20422102297E+03  0.26443108434E+03  0.00000000000E+00 0. -1.
         -2    1    3    3    0  502 -0.17509180896E+03  0.18372202618E+02 -0.10282703673E+03  0.20388251243E+03  0.00000000000E+00 0.  1.
         11    1    5    5    0    0  0.29541706386E+02  0.22259066482E+02 -0.90822843103E+02  0.98066137307E+02  0.00000000000E+00 0. -1.
        -11    1    5    5    0    0  0.17523979187E+03  0.38564337893E+03 -0.54787047691E+03  0.69252571060E+03  0.00000000000E+00 0.  1.
          1    1    6    6  503    0  0.50799196012E+02 -0.18002191299E+03 -0.26353733600E+03  0.32317236104E+03  0.00000000000E+00 0. -1.
         -1    1    6    6    0  503  0.84783763865E+02 -0.27629476526E+03 -0.66786438582E+03  0.72771555004E+03  0.00000000000E+00 0.  1.
<mgrwt>
<rscale>  0 0.13459120E+04</rscale>
<asrwt>0</asrwt>
<pdfrwt beam="1">  1        1 0.32207203E+00 0.13459120E+04</pdfrwt>
<pdfrwt beam="2">  1       -2 0.33280789E-01 0.13459120E+04</pdfrwt>
<totfact> 0.18692789E+01</totfact>
</mgrwt>
</event>
<event>
12    4  0.4280696E-008  0.1267660E+04  0.7818608E-02  0.9055612E-01
         -2   -1    0    0    0  501 -0.00000000000E+00  0.00000000000E+00  0.56710988526E+03  0.56710988526E+03  0.00000000000E+00 0.  1.
          1   -1    0    0  501    0  0.00000000000E+00 -0.00000000000E+00 -0.70839928513E+03  0.70839928513E+03  0.00000000000E+00 0. -1.
        -24    2    1    2    0    0 -0.30080097242E+03 -0.87820944358E+01 -0.14110396560E+02  0.31155730407E+03  0.79438657054E+02 0.  0.
        254    2    1    2    0    0  0.30080097242E+03  0.87820944358E+01 -0.12717900331E+03  0.96395186632E+03  0.90690151147E+03 0.  0.
         23    2    4    4    0    0  0.10107206837E+03  0.15127928577E+01  0.38310085809E+03  0.40745948161E+03  0.95074234898E+02 0.  0.
         23    2    4    4    0    0  0.19972890405E+03  0.72693015781E+01 -0.51027986140E+03  0.55649238470E+03  0.96714835580E+02 0.  0.
          1    1    3    3  502    0 -0.56616508492E+02 -0.22784019917E+02 -0.26774820148E+02  0.66644066437E+02  0.00000000000E+00 0. -1.
         -2    1    3    3    0  502 -0.24418446393E+03  0.14001925481E+02  0.12664423588E+02  0.24491323763E+03  0.00000000000E+00 0.  1.
         11    1    5    5    0    0  0.86375685603E+02 -0.14221129130E+02  0.37396052204E+03  0.38406961820E+03  0.00000000000E+00 0.  1.
        -11    1    5    5    0    0  0.14696382766E+02  0.15733921988E+02  0.91403360475E+01  0.23389863415E+02  0.00000000000E+00 0. -1.
          1    1    6    6  503    0  0.49924598245E+01  0.15586941201E+02 -0.90599130209E+01  0.18707202224E+02  0.00000000000E+00 0. -1.
         -1    1    6    6    0  503  0.19473644423E+03 -0.83176396230E+01 -0.50121994838E+03  0.53778518248E+03  0.00000000000E+00 0.  1.
<mgrwt>
<rscale>  0 0.12676596E+04</rscale>
<asrwt>0</asrwt>
<pdfrwt beam="1">  1        1 0.10898451E+00 0.12676596E+04</pdfrwt>
<pdfrwt beam="2">  1       -2 0.87247675E-01 0.12676596E+04</pdfrwt>
<totfact> 0.26196430E+01</totfact>
</mgrwt>
</event>
<event>
12    4  0.4280696E-008  0.1583498E+04  0.7818608E-02  0.8830750E-01
         -4   -1    0    0    0  501 -0.00000000000E+00  0.00000000000E+00  0.19239469475E+04  0.19239469475E+04  0.00000000000E+00 0.  1.
          1   -1    0    0  501    0  0.00000000000E+00 -0.00000000000E+00 -0.32582323484E+03  0.32582323484E+03  0.00000000000E+00 0. -1.
        -24    2    1    2    0    0 -0.45322087401E+01 -0.25815638398E+03 -0.11707338104E+03  0.29557707244E+03  0.83632348409E+02 0.  0.
        254    2    1    2    0    0  0.45322087401E+01  0.25815638398E+03  0.17151970938E+04  0.19541931099E+04  0.90016908469E+03 0.  0.
         23    2    4    4    0    0  0.36616884282E+03 -0.43414359576E+02  0.38826468435E+03  0.54333974911E+03  0.92218164071E+02 0.  0.
         23    2    4    4    0    0 -0.36163663408E+03  0.30157074356E+03  0.13269324094E+04  0.14108533608E+04  0.89619295804E+02 0.  0.
          3    1    3    3  502    0  0.15437076543E+02 -0.24522727830E+03 -0.11611809730E+03  0.27176852996E+03  0.00000000000E+00 0. -1.
         -4    1    3    3    0  502 -0.19969285283E+02 -0.12929105680E+02 -0.95528374674E+00  0.23808542488E+02  0.00000000000E+00 0.  1.
         11    1    5    5    0    0  0.19347517010E+03 -0.59385621984E+02  0.16823828065E+03  0.26317943047E+03  0.00000000000E+00 0.  1.
        -11    1    5    5    0    0  0.17269367271E+03  0.15971262409E+02  0.22002640370E+03  0.28016031864E+03  0.00000000000E+00 0. -1.
          3    1    6    6  503    0 -0.36043813716E+03  0.28082499976E+03  0.12891970041E+04  0.13677745598E+04  0.00000000000E+00 0. -1.
         -3    1    6    6    0  503 -0.11984969130E+01  0.20745743794E+02  0.37735405328E+02  0.43078801001E+02  0.00000000000E+00 0.  1.
<mgrwt>
<rscale>  0 0.15834982E+04</rscale>
<asrwt>0</asrwt>
<pdfrwt beam="1">  1        1 0.50126653E-01 0.15834982E+04</pdfrwt>
<pdfrwt beam="2">  1       -4 0.29599183E+00 0.15834982E+04</pdfrwt>
<totfact> 0.11769681E+00</totfact>
</mgrwt>
</event>
<event>
12    4  0.4280696E-008  0.2037819E+04  0.7818608E-02  0.8589141E-01
         -2   -1    0    0    0  501 -0.00000000000E+00  0.00000000000E+00  0.36443961173E+03  0.36443961173E+03  0.00000000000E+00 0.  1.
          1   -1    0    0  501    0  0.00000000000E+00 -0.00000000000E+00 -0.28486920389E+04  0.28486920389E+04  0.00000000000E+00 0. -1.
        -24    2    1    2    0    0 -0.76783466193E+03 -0.29493055311E+03 -0.96420977771E+03  0.12697525417E+04  0.77568824532E+02 0.  0.
        254    2    1    2    0    0  0.76783466193E+03  0.29493055311E+03 -0.15200426494E+04  0.19433791089E+04  0.88861611821E+03 0.  0.
         23    2    4    4    0    0  0.64027634717E+02  0.42432251673E+03 -0.31950290332E+03  0.54282555015E+03  0.91805971768E+02 0.  0.
         23    2    4    4    0    0  0.70380702721E+03 -0.12939196362E+03 -0.12005397461E+04  0.14005535587E+04  0.90376861481E+02 0.  0.
          1    1    3    3  502    0 -0.15872593441E+03 -0.90147454030E+02 -0.24026866635E+03  0.30174412629E+03  0.00000000000E+00 0. -1.
         -2    1    3    3    0  502 -0.60910872752E+03 -0.20478309908E+03 -0.72394111135E+03  0.96800841542E+03  0.00000000000E+00 0.  1.
         11    1    5    5    0    0 -0.17849306795E+02  0.29084741068E+02 -0.35846300595E+02  0.49492193146E+02  0.00000000000E+00 0. -1.
        -11    1    5    5    0    0  0.81876941511E+02  0.39523777566E+03 -0.28365660273E+03  0.49333335701E+03  0.00000000000E+00 0.  1.
          1    1    6    6  503    0  0.42125720763E+03 -0.32579082017E+02 -0.69206279352E+03  0.81084520208E+03  0.00000000000E+00 0. -1.
         -1    1    6    6    0  503  0.28254981958E+03 -0.96812881603E+02 -0.50847695258E+03  0.58970835664E+03  0.00000000000E+00 0.  1.
<mgrwt>
<rscale>  0 0.20378187E+04</rscale>
<asrwt>0</asrwt>
<pdfrwt beam="1">  1        1 0.43826032E+00 0.20378187E+04</pdfrwt>
<pdfrwt beam="2">  1       -2 0.56067632E-01 0.20378187E+04</pdfrwt>
<totfact> 0.18685238E+00</totfact>
</mgrwt>
</event>
<event>
12    4  0.4280696E-008  0.1852616E+04  0.7818608E-02  0.8678809E-01
          1   -1    0    0  501    0  0.00000000000E+00  0.00000000000E+00  0.21392824928E+04  0.21392824928E+04  0.00000000000E+00 0. -1.
         -2   -1    0    0    0  501 -0.00000000000E+00 -0.00000000000E+00 -0.40109077853E+03  0.40109077853E+03  0.00000000000E+00 0.  1.
        -24    2    1    2    0    0  0.23373375651E+03  0.35412171310E+03 -0.11284103536E+03  0.44692777737E+03  0.83532522406E+02 0.  0.
        254    2    1    2    0    0 -0.23373375651E+03 -0.35412171310E+03  0.18510327496E+04  0.20934454940E+04  0.88099837650E+03 0.  0.
         23    2    4    4    0    0  0.71842279407E+01 -0.59034084724E+03  0.89774199520E+03  0.10781406958E+04  0.88841099671E+02 0.  0.
         23    2    4    4    0    0 -0.24091798445E+03  0.23621913414E+03  0.95329075445E+03  0.10153047982E+04  0.90772331086E+02 0.  0.
          1    1    3    3  502    0  0.71121184547E+02  0.13381026853E+03 -0.20828547066E+01  0.15155114364E+03  0.00000000000E+00 0. -1.
         -2    1    3    3    0  502  0.16261257196E+03  0.22031144457E+03 -0.11075818065E+03  0.29537663372E+03  0.00000000000E+00 0.  1.
         11    1    5    5    0    0  0.43822497949E+02 -0.43127507539E+03  0.63660043870E+03  0.77018096609E+03  0.00000000000E+00 0.  1.
        -11    1    5    5    0    0 -0.36638270008E+02 -0.15906577185E+03  0.26114155650E+03  0.30795972973E+03  0.00000000000E+00 0. -1.
          3    1    6    6  503    0 -0.20919017754E+03  0.23323163129E+03  0.80924340448E+03  0.86777440151E+03  0.00000000000E+00 0. -1.
         -3    1    6    6    0  503 -0.31727806909E+02  0.29875028428E+01  0.14404734997E+03  0.14753039666E+03  0.00000000000E+00 0.  1.
<mgrwt>
<rscale>  0 0.18526160E+04</rscale>
<asrwt>0</asrwt>
<pdfrwt beam="1">  1        1 0.32912038E+00 0.18526160E+04</pdfrwt>
<pdfrwt beam="2">  1       -2 0.61706275E-01 0.18526160E+04</pdfrwt>
<totfact> 0.48250344E+00</totfact>
</mgrwt>
</event>
<event>
12    4  0.4280696E-008  0.3085525E+04  0.7818608E-02  0.8219722E-01
         -2   -1    0    0    0  501 -0.00000000000E+00  0.00000000000E+00  0.16980189689E+04  0.16980189689E+04  0.00000000000E+00 0.  1.
          1   -1    0    0  501    0  0.00000000000E+00 -0.00000000000E+00 -0.14017013671E+04  0.14017013671E+04  0.00000000000E+00 0. -1.
        -24    2    1    2    0    0  0.41573239987E+03 -0.94425643796E+03 -0.81020829326E+03  0.13145374488E+04  0.84365733753E+02 0.  0.
        254    2    1    2    0    0 -0.41573239987E+03  0.94425643796E+03  0.11065258950E+04  0.17851828871E+04  0.94764167025E+03 0.  0.
         23    2    4    4    0    0 -0.20248411506E+03  0.56565116407E+03  0.16475185597E+02  0.60809110567E+03  0.92424589740E+02 0.  0.
         23    2    4    4    0    0 -0.21324828482E+03  0.37860527389E+03  0.10900507094E+04  0.11770917815E+04  0.92291540503E+02 0.  0.
          1    1    3    3  502    0  0.33348187573E+03 -0.81506733644E+03 -0.66540920664E+03  0.11037727740E+04  0.00000000000E+00 0. -1.
         -2    1    3    3    0  502  0.82250524144E+02 -0.12918910152E+03 -0.14479908662E+03  0.21076467484E+03  0.00000000000E+00 0.  1.
         11    1    5    5    0    0 -0.19406924771E+03  0.52555456509E+03  0.38524735475E+02  0.56156444780E+03  0.00000000000E+00 0. -1.
        -11    1    5    5    0    0 -0.84148673463E+01  0.40096598978E+02 -0.22049549878E+02  0.46526657863E+02  0.00000000000E+00 0.  1.
          4    1    6    6  503    0 -0.16419966389E+03  0.22153090762E+03  0.75578158702E+03  0.80451431306E+03  0.00000000000E+00 0. -1.
         -4    1    6    6    0  503 -0.49048620923E+02  0.15707436627E+03  0.33426912243E+03  0.37257746841E+03  0.00000000000E+00 0.  1.
<mgrwt>
<rscale>  0 0.30855246E+04</rscale>
<asrwt>0</asrwt>
<pdfrwt beam="1">  1        1 0.21564636E+00 0.30855246E+04</pdfrwt>
<pdfrwt beam="2">  1       -2 0.26123369E+00 0.30855246E+04</pdfrwt>
<totfact> 0.31167008E-01</totfact>
</mgrwt>
</event>
<event>
12    4  0.4280696E-008  0.1436929E+04  0.7818608E-02  0.8927513E-01
          1   -1    0    0  501    0  0.00000000000E+00  0.00000000000E+00  0.20169149637E+04  0.20169149637E+04  0.00000000000E+00 0. -1.
         -2   -1    0    0    0  501 -0.00000000000E+00 -0.00000000000E+00 -0.25593111872E+03  0.25593111872E+03  0.00000000000E+00 0.  1.
        -24    2    1    2    0    0  0.62079555212E+02  0.30644117119E+03  0.10002962844E+04  0.10515335769E+04  0.85849542946E+02 0.  0.
        254    2    1    2    0    0 -0.62079555212E+02 -0.30644117119E+03  0.76068756051E+03  0.12213125055E+04  0.90288349683E+03 0.  0.
         23    2    4    4    0    0 -0.10470116553E+03  0.29297854320E+03  0.39982827996E+03  0.51467665125E+03  0.90722880546E+02 0.  0.
         23    2    4    4    0    0  0.42621610321E+02 -0.59941971439E+03  0.36085928056E+03  0.70663585427E+03  0.89410371398E+02 0.  0.
          3    1    3    3  502    0  0.50154284740E+02  0.23716077873E+03  0.63840376167E+03  0.68287630663E+03  0.00000000000E+00 0. -1.
         -4    1    3    3    0  502  0.11925270472E+02  0.69280392464E+02  0.36189252277E+03  0.36865727023E+03  0.00000000000E+00 0.  1.
         11    1    5    5    0    0 -0.74770222269E+02  0.24315694407E+03  0.37088922424E+03  0.44974959950E+03  0.00000000000E+00 0. -1.
        -11    1    5    5    0    0 -0.29930943264E+02  0.49821599125E+02  0.28939055712E+02  0.64927051754E+02  0.00000000000E+00 0.  1.
          3    1    6    6  503    0  0.19405128138E+02 -0.15102926702E+03  0.48984049319E+02  0.15995573007E+03  0.00000000000E+00 0. -1.
         -3    1    6    6    0  503  0.23216482183E+02 -0.44839044737E+03  0.31187523124E+03  0.54668012420E+03  0.00000000000E+00 0.  1.
<mgrwt>
<rscale>  0 0.14369291E+04</rscale>
<asrwt>0</asrwt>
<pdfrwt beam="1">  1        1 0.31029460E+00 0.14369291E+04</pdfrwt>
<pdfrwt beam="2">  1       -2 0.39374019E-01 0.14369291E+04</pdfrwt>
<totfact> 0.15122693E+01</totfact>
</mgrwt>
</event>
<event>
12    4  0.4280696E-008  0.2222751E+04  0.7818608E-02  0.8509018E-01
         -2   -1    0    0    0  501 -0.00000000000E+00  0.00000000000E+00  0.16309950321E+04  0.16309950321E+04  0.00000000000E+00 0.  1.
          1   -1    0    0  501    0  0.00000000000E+00 -0.00000000000E+00 -0.75730174810E+03  0.75730174810E+03  0.00000000000E+00 0. -1.
        -24    2    1    2    0    0 -0.36382840699E+03  0.41430588832E+03 -0.43442043639E+03  0.70667864019E+03  0.81566574737E+02 0.  0.
        254    2    1    2    0    0  0.36382840699E+03 -0.41430588832E+03  0.13081137204E+04  0.16816181400E+04  0.90147522679E+03 0.  0.
         23    2    4    4    0    0 -0.14466281859E+03 -0.27548662228E+02  0.90436475973E+03  0.92052521276E+03  0.88344715804E+02 0.  0.
         23    2    4    4    0    0  0.50849122558E+03 -0.38675722609E+03  0.40374896070E+03  0.76109292729E+03  0.90026342112E+02 0.  0.
          3    1    3    3  502    0 -0.28516821837E+03  0.36820986803E+03 -0.37395655025E+03  0.59727960049E+03  0.00000000000E+00 0. -1.
         -4    1    3    3    0  502 -0.78660188618E+02  0.46096020287E+02 -0.60463886145E+02  0.10939903970E+03  0.00000000000E+00 0.  1.
         11    1    5    5    0    0 -0.50487369396E+02 -0.47839011668E+02  0.26649657858E+03  0.27542325955E+03  0.00000000000E+00 0. -1.
        -11    1    5    5    0    0 -0.94175449191E+02  0.20290349440E+02  0.63786818115E+03  0.64510195321E+03  0.00000000000E+00 0.  1.
          3    1    6    6  503    0  0.40105077145E+03 -0.28475524425E+03  0.34922857923E+03  0.60323119196E+03  0.00000000000E+00 0. -1.
         -3    1    6    6    0  503  0.10744045413E+03 -0.10200198184E+03  0.54520381473E+02  0.15786173533E+03  0.00000000000E+00 0.  1.
<mgrwt>
<rscale>  0 0.22227509E+04</rscale>
<asrwt>0</asrwt>
<pdfrwt beam="1">  1        1 0.11650796E+00 0.22227509E+04</pdfrwt>
<pdfrwt beam="2">  1       -2 0.25092231E+00 0.22227509E+04</pdfrwt>
<totfact> 0.12199190E+00</totfact>
</mgrwt>
</event>
<event>
12    4  0.4280696E-008  0.2281068E+04  0.7818608E-02  0.8485423E-01
         -2   -1    0    0    0  501 -0.00000000000E+00  0.00000000000E+00  0.75817635959E+03  0.75817635959E+03  0.00000000000E+00 0.  1.
          1   -1    0    0  501    0  0.00000000000E+00 -0.00000000000E+00 -0.17157198352E+04  0.17157198352E+04  0.00000000000E+00 0. -1.
        -24    2    1    2    0    0 -0.75938292729E+03  0.59621103583E+03 -0.42995444557E+03  0.10600414948E+04  0.81835908558E+02 0.  0.
        254    2    1    2    0    0  0.75938292729E+03 -0.59621103583E+03 -0.52758903007E+03  0.14138547000E+04  0.88797798315E+03 0.  0.
         23    2    4    4    0    0  0.65276004615E+03 -0.13684696647E+03  0.35373137043E+02  0.67396222835E+03  0.90283200740E+02 0.  0.
         23    2    4    4    0    0  0.10662288114E+03 -0.45936406936E+03 -0.56296216711E+03  0.73989247165E+03  0.90170288931E+02 0.  0.
          1    1    3    3  502    0 -0.32309753612E+03  0.28428164203E+03 -0.22738372218E+03  0.48673547945E+03  0.00000000000E+00 0. -1.
         -2    1    3    3    0  502 -0.43628539117E+03  0.31192939381E+03 -0.20257072340E+03  0.57330601536E+03  0.00000000000E+00 0.  1.
         11    1    5    5    0    0  0.22627050471E+02  0.29313325450E+00 -0.14944597359E+02  0.27118449998E+02  0.00000000000E+00 0. -1.
        -11    1    5    5    0    0  0.63013299568E+03 -0.13714009972E+03  0.50317734402E+02  0.64684377835E+03  0.00000000000E+00 0.  1.
          3    1    6    6  503    0  0.10973640995E+02 -0.15406983799E+02 -0.33834767856E+01  0.19215719128E+02  0.00000000000E+00 0. -1.
         -3    1    6    6    0  503  0.95649240147E+02 -0.44395708557E+03 -0.55957869033E+03  0.72067675253E+03  0.00000000000E+00 0.  1.
<mgrwt>
<rscale>  0 0.22810684E+04</rscale>
<asrwt>0</asrwt>
<pdfrwt beam="1">  1        1 0.26395689E+00 0.22810684E+04</pdfrwt>
<pdfrwt beam="2">  1       -2 0.11664252E+00 0.22810684E+04</pdfrwt>
<totfact> 0.21056457E+00</totfact>
</mgrwt>
</event>
<event>
12    4  0.4280696E-008  0.2167034E+04  0.7818608E-02  0.8532276E-01
          1   -1    0    0  501    0  0.00000000000E+00  0.00000000000E+00  0.26889677932E+04  0.26889677932E+04  0.00000000000E+00 0. -1.
         -2   -1    0    0    0  501 -0.00000000000E+00 -0.00000000000E+00 -0.43660224581E+03  0.43660224581E+03  0.00000000000E+00 0.  1.
        -24    2    1    2    0    0  0.12318760118E+03 -0.41115644317E+03  0.20243492943E+04  0.20708293358E+04  0.78225744131E+02 0.  0.
        254    2    1    2    0    0 -0.12318760118E+03  0.41115644317E+03  0.22801625313E+03  0.10547407032E+04  0.93608852864E+03 0.  0.
         23    2    4    4    0    0  0.27529372255E+01 -0.24776210029E+03 -0.12397107027E+03  0.29184407813E+03  0.91708792793E+02 0.  0.
         23    2    4    4    0    0 -0.12594053841E+03  0.65891854345E+03  0.35198732340E+03  0.76289662507E+03  0.89897266859E+02 0.  0.
          1    1    3    3  502    0  0.19799660300E+02 -0.15556099332E+03  0.86912373507E+03  0.88315758280E+03  0.00000000000E+00 0. -1.
         -2    1    3    3    0  502  0.10338794088E+03 -0.25559544985E+03  0.11552255592E+04  0.11876717530E+04  0.00000000000E+00 0.  1.
         11    1    5    5    0    0 -0.68138162575E+01 -0.15300042961E+03 -0.12326908338E+03  0.19659813445E+03  0.00000000000E+00 0.  1.
        -11    1    5    5    0    0  0.95667534829E+01 -0.94761670677E+02 -0.70198688729E+00  0.95245943679E+02  0.00000000000E+00 0. -1.
          2    1    6    6  503    0 -0.51848260717E+02  0.10203224147E+03  0.71819816121E+02  0.13511812028E+03  0.00000000000E+00 0. -1.
         -2    1    6    6    0  503 -0.74092277689E+02  0.55688630198E+03  0.28016750728E+03  0.62777850479E+03  0.00000000000E+00 0.  1.
<mgrwt>
<rscale>  0 0.21670343E+04</rscale>
<asrwt>0</asrwt>
<pdfrwt beam="1">  1        1 0.41368734E+00 0.21670343E+04</pdfrwt>
<pdfrwt beam="2">  1       -2 0.67169578E-01 0.21670343E+04</pdfrwt>
<totfact> 0.16332205E+00</totfact>
</mgrwt>
</event>
<event>
12    4  0.4280696E-008  0.1327957E+04  0.7818608E-02  0.9007684E-01
         -2   -1    0    0    0  501 -0.00000000000E+00  0.00000000000E+00  0.17962486407E+04  0.17962486407E+04  0.00000000000E+00 0.  1.
          1   -1    0    0  501    0  0.00000000000E+00 -0.00000000000E+00 -0.24543774772E+03  0.24543774772E+03  0.00000000000E+00 0. -1.
        -24    2    1    2    0    0 -0.28166963340E+03 -0.16600695268E+03  0.59265653523E+03  0.68153858035E+03  0.79730653053E+02 0.  0.
        254    2    1    2    0    0  0.28166963340E+03  0.16600695268E+03  0.95815435770E+03  0.13601478080E+04  0.90832053581E+03 0.  0.
         23    2    4    4    0    0  0.19454255232E+03  0.88868783712E+01 -0.13180546543E+03  0.25160225198E+03  0.89471957686E+02 0.  0.
         23    2    4    4    0    0  0.87127081080E+02  0.15712007431E+03  0.10899598231E+04  0.11085455560E+04  0.92644415777E+02 0.  0.
          3    1    3    3  502    0 -0.59390262716E+02 -0.45161201003E+02  0.77338670693E+02  0.10746165533E+03  0.00000000000E+00 0. -1.
         -4    1    3    3    0  502 -0.22227937069E+03 -0.12084575168E+03  0.51531786454E+03  0.57407692502E+03  0.00000000000E+00 0.  1.
         11    1    5    5    0    0  0.18692407778E+03  0.31877720590E+02 -0.12195998224E+03  0.22545739552E+03  0.00000000000E+00 0.  1.
        -11    1    5    5    0    0  0.76184745417E+01 -0.22990842219E+02 -0.98454831894E+01  0.26144856464E+02  0.00000000000E+00 0. -1.
          2    1    6    6  503    0  0.71022666107E+01 -0.12490194796E+02  0.64957080327E+02  0.66527208281E+02  0.00000000000E+00 0. -1.
         -2    1    6    6    0  503  0.80024814469E+02  0.16961026911E+03  0.10250027428E+04  0.10420183478E+04  0.00000000000E+00 0.  1.
<mgrwt>
<rscale>  0 0.13279567E+04</rscale>
<asrwt>0</asrwt>
<pdfrwt beam="1">  1        1 0.37759655E-01 0.13279567E+04</pdfrwt>
<pdfrwt beam="2">  1       -2 0.27634594E+00 0.13279567E+04</pdfrwt>
<totfact> 0.43353506E+00</totfact>
</mgrwt>
</event>
<event>
12    4  0.4280696E-008  0.3094558E+04  0.7818608E-02  0.8217233E-01
          1   -1    0    0  501    0  0.00000000000E+00  0.00000000000E+00  0.10835321167E+04  0.10835321167E+04  0.00000000000E+00 0. -1.
         -2   -1    0    0    0  501 -0.00000000000E+00 -0.00000000000E+00 -0.22095069185E+04  0.22095069185E+04  0.00000000000E+00 0.  1.
        -24    2    1    2    0    0  0.93083524414E+03 -0.38413629877E+03  0.55154548328E+03  0.11513177153E+04  0.85528438170E+02 0.  0.
        254    2    1    2    0    0 -0.93083524414E+03  0.38413629877E+03 -0.16775202851E+04  0.21417213198E+04  0.87113773728E+03 0.  0.
         23    2    4    4    0    0 -0.67924406506E+03  0.19193233222E+03 -0.16628509965E+04  0.18087213040E+04  0.90491983023E+02 0.  0.
         23    2    4    4    0    0 -0.25159117907E+03  0.19220396654E+03 -0.14669288580E+02  0.33300001584E+03  0.10214370454E+03 0.  0.
          1    1    3    3  502    0  0.26159256932E+03 -0.13839347801E+03  0.13151572799E+03  0.32385153047E+03  0.00000000000E+00 0. -1.
         -4    1    3    3    0  502  0.66924267481E+03 -0.24574282076E+03  0.42002975528E+03  0.82746618485E+03  0.00000000000E+00 0.  1.
         11    1    5    5    0    0 -0.47388660167E+03  0.92974842678E+02 -0.11674884824E+04  0.12634247857E+04  0.00000000000E+00 0. -1.
        -11    1    5    5    0    0 -0.20535746340E+03  0.98957489544E+02 -0.49536251412E+03  0.54529651833E+03  0.00000000000E+00 0.  1.
          1    1    6    6  503    0 -0.66842254252E+02  0.11379369597E+03 -0.66246900841E+01  0.13213923988E+03  0.00000000000E+00 0. -1.
         -1    1    6    6    0  503 -0.18474892482E+03  0.78410270572E+02 -0.80445984960E+01  0.20086077596E+03  0.00000000000E+00 0.  1.
<mgrwt>
<rscale>  0 0.30945576E+04</rscale>
<asrwt>0</asrwt>
<pdfrwt beam="1">  1        1 0.16669725E+00 0.30945576E+04</pdfrwt>
<pdfrwt beam="2">  1       -2 0.33992414E+00 0.30945576E+04</pdfrwt>
<totfact> 0.17396369E-01</totfact>
</mgrwt>
</event>
<event>
12    4  0.4280696E-008  0.1819058E+04  0.7818608E-02  0.8696230E-01
          1   -1    0    0  501    0  0.00000000000E+00  0.00000000000E+00  0.10898318487E+04  0.10898318487E+04  0.00000000000E+00 0. -1.
         -2   -1    0    0    0  501 -0.00000000000E+00 -0.00000000000E+00 -0.75905563611E+03  0.75905563611E+03  0.00000000000E+00 0.  1.
        -24    2    1    2    0    0  0.25552815496E+03  0.54353080688E+03  0.46163063155E+03  0.76157370835E+03  0.78557604665E+02 0.  0.
        254    2    1    2    0    0 -0.25552815496E+03 -0.54353080688E+03 -0.13085441900E+03  0.10873137764E+04  0.89688794919E+03 0.  0.
         23    2    4    4    0    0 -0.19774064016E+03 -0.45044886223E+03  0.33326022793E+03  0.60134017059E+03  0.92423389825E+02 0.  0.
         23    2    4    4    0    0 -0.57787514803E+02 -0.93081944653E+02 -0.46411464694E+03  0.48597360583E+03  0.93617812242E+02 0.  0.
          1    1    3    3  502    0  0.22612066417E+03  0.40948890496E+03  0.34114849759E+03  0.57895942471E+03  0.00000000000E+00 0. -1.
         -2    1    3    3    0  502  0.29407490796E+02  0.13404190192E+03  0.12048213396E+03  0.18261428364E+03  0.00000000000E+00 0.  1.
         11    1    5    5    0    0 -0.26611928950E+02 -0.18957903468E+02  0.42497347474E+02  0.53606169502E+02  0.00000000000E+00 0. -1.
        -11    1    5    5    0    0 -0.17112871121E+03 -0.43149095876E+03  0.29076288046E+03  0.54773400109E+03  0.00000000000E+00 0.  1.
          4    1    6    6  503    0 -0.49254770221E+02 -0.55241844576E+02 -0.12981522502E+03  0.14943120969E+03  0.00000000000E+00 0. -1.
         -4    1    6    6    0  503 -0.85327445828E+01 -0.37840100077E+02 -0.33429942191E+03  0.33654239614E+03  0.00000000000E+00 0.  1.
<mgrwt>
<rscale>  0 0.18190580E+04</rscale>
<asrwt>0</asrwt>
<pdfrwt beam="1">  1        1 0.16766644E+00 0.18190580E+04</pdfrwt>
<pdfrwt beam="2">  1       -2 0.11677779E+00 0.18190580E+04</pdfrwt>
<totfact> 0.60544168E+00</totfact>
</mgrwt>
</event>
<event>
12    4  0.4280696E-008  0.2152401E+04  0.7818608E-02  0.8538505E-01
         -2   -1    0    0    0  501 -0.00000000000E+00  0.00000000000E+00  0.17106049013E+04  0.17106049013E+04  0.00000000000E+00 0.  1.
          1   -1    0    0  501    0  0.00000000000E+00 -0.00000000000E+00 -0.67707510452E+03  0.67707510452E+03  0.00000000000E+00 0. -1.
        -24    2    1    2    0    0  0.28630279969E+03  0.71280885612E+03  0.95523994643E+03  0.12283697780E+04  0.79644195464E+02 0.  0.
        254    2    1    2    0    0 -0.28630279969E+03 -0.71280885612E+03  0.78289850310E+02  0.11593102277E+04  0.86475727520E+03 0.  0.
         23    2    4    4    0    0 -0.35831513003E+03 -0.75936149600E+03  0.30635999048E+03  0.89860656495E+03  0.92831572163E+02 0.  0.
         23    2    4    4    0    0  0.72012330332E+02  0.46552639877E+02 -0.22807014017E+03  0.26070366280E+03  0.92722634552E+02 0.  0.
          3    1    3    3  502    0  0.23584345710E+03  0.55898349571E+03  0.70241240190E+03  0.92815293302E+03  0.00000000000E+00 0. -1.
         -4    1    3    3    0  502  0.50459342595E+02  0.15382536042E+03  0.25282754453E+03  0.30021684503E+03  0.00000000000E+00 0.  1.
         11    1    5    5    0    0 -0.22931927171E+03 -0.38734692138E+03  0.14285471599E+03  0.47226310015E+03  0.00000000000E+00 0. -1.
        -11    1    5    5    0    0 -0.12899585831E+03 -0.37201457462E+03  0.16350527449E+03  0.42634346480E+03  0.00000000000E+00 0.  1.
          2    1    6    6  503    0  0.71511840586E+02  0.51753416462E+02 -0.10353210924E+03  0.13605608073E+03  0.00000000000E+00 0. -1.
         -2    1    6    6    0  503  0.50048974649E+00 -0.52007765852E+01 -0.12453803093E+03  0.12464758207E+03  0.00000000000E+00 0.  1.
<mgrwt>
<rscale>  0 0.21524014E+04</rscale>
<asrwt>0</asrwt>
<pdfrwt beam="1">  1        1 0.10416540E+00 0.21524014E+04</pdfrwt>
<pdfrwt beam="2">  1       -2 0.26316998E+00 0.21524014E+04</pdfrwt>
<totfact> 0.12262249E+00</totfact>
</mgrwt>
</event>
<event>
12    4  0.4280696E-008  0.1684961E+04  0.7818608E-02  0.8769988E-01
         -2   -1    0    0    0  501 -0.00000000000E+00  0.00000000000E+00  0.28426742587E+03  0.28426742587E+03  0.00000000000E+00 0.  1.
          1   -1    0    0  501    0  0.00000000000E+00 -0.00000000000E+00 -0.24968513495E+04  0.24968513495E+04  0.00000000000E+00 0. -1.
        -24    2    1    2    0    0  0.23600376455E+03  0.21397317397E+03 -0.16253871806E+04  0.16582795724E+04  0.80779684019E+02 0.  0.
        254    2    1    2    0    0 -0.23600376455E+03 -0.21397317397E+03 -0.58719674297E+03  0.11228392029E+04  0.90248853986E+03 0.  0.
         23    2    4    4    0    0  0.90706520071E+02  0.15341286384E+03 -0.58835212447E+03  0.62277149656E+03  0.99613929681E+02 0.  0.
         23    2    4    4    0    0 -0.32671028462E+03 -0.36738603780E+03  0.11553814987E+01  0.50006770635E+03  0.91401669439E+02 0.  0.
          3    1    3    3  502    0  0.91368673682E+02  0.65313145601E+02 -0.40023245129E+03  0.41569226188E+03  0.00000000000E+00 0. -1.
         -4    1    3    3    0  502  0.14463509087E+03  0.14866002837E+03 -0.12251547293E+04  0.12425873105E+04  0.00000000000E+00 0.  1.
         11    1    5    5    0    0  0.16756485795E+02  0.11447149313E+03 -0.40632817051E+03  0.42247731857E+03  0.00000000000E+00 0.  1.
        -11    1    5    5    0    0  0.73950034276E+02  0.38941370708E+02 -0.18202395395E+03  0.20029417798E+03  0.00000000000E+00 0. -1.
          3    1    6    6  503    0 -0.16372945208E+03 -0.12233687809E+03 -0.17795600442E+02  0.20515927621E+03  0.00000000000E+00 0. -1.
         -3    1    6    6    0  503 -0.16298083254E+03 -0.24504915971E+03  0.18950981941E+02  0.29490843014E+03  0.00000000000E+00 0.  1.
<mgrwt>
<rscale>  0 0.16849611E+04</rscale>
<asrwt>0</asrwt>
<pdfrwt beam="1">  1        1 0.38413098E+00 0.16849611E+04</pdfrwt>
<pdfrwt beam="2">  1       -2 0.43733450E-01 0.16849611E+04</pdfrwt>
<totfact> 0.56575677E+00</totfact>
</mgrwt>
</event>
<event>
12    4  0.4280696E-008  0.1343828E+04  0.7818608E-02  0.8995513E-01
          1   -1    0    0  501    0  0.00000000000E+00  0.00000000000E+00  0.15260562339E+04  0.15260562339E+04  0.00000000000E+00 0. -1.
         -2   -1    0    0    0  501 -0.00000000000E+00 -0.00000000000E+00 -0.29584013059E+03  0.29584013059E+03  0.00000000000E+00 0.  1.
        -24    2    1    2    0    0  0.31822987497E+03 -0.30161227339E+02  0.61026087570E+03  0.69366254857E+03  0.81052093900E+02 0.  0.
        254    2    1    2    0    0 -0.31822987497E+03  0.30161227339E+02  0.61995522763E+03  0.11282338159E+04  0.88678470115E+03 0.  0.
         23    2    4    4    0    0  0.12846398486E+03 -0.54001773403E+01  0.65129479382E+03  0.66978279389E+03  0.88836508323E+02 0.  0.
         23    2    4    4    0    0 -0.44669385982E+03  0.35561404680E+02 -0.31339566191E+02  0.45845102204E+03  0.91625069152E+02 0.  0.
          3    1    3    3  502    0  0.17223956329E+03  0.14338131429E+02  0.37940551466E+03  0.41691797002E+03  0.00000000000E+00 0. -1.
         -4    1    3    3    0  502  0.14599031168E+03 -0.44499358769E+02  0.23085536104E+03  0.27674457854E+03  0.00000000000E+00 0.  1.
         11    1    5    5    0    0  0.13455041211E+03 -0.62452641803E+01  0.64958721519E+03  0.66340513027E+03  0.00000000000E+00 0. -1.
        -11    1    5    5    0    0 -0.60864272543E+01  0.84508683997E+00  0.17075786276E+01  0.63776636207E+01  0.00000000000E+00 0.  1.
          4    1    6    6  503    0 -0.14259442697E+02 -0.42366159577E+01 -0.18846011011E+02  0.24009430477E+02  0.00000000000E+00 0.  1.
         -4    1    6    6    0  503 -0.43243441713E+03  0.39798020637E+02 -0.12493555180E+02  0.43444159157E+03  0.00000000000E+00 0. -1.
<mgrwt>
<rscale>  0 0.13438284E+04</rscale>
<asrwt>0</asrwt>
<pdfrwt beam="1">  1        1 0.23477788E+00 0.13438284E+04</pdfrwt>
<pdfrwt beam="2">  1       -2 0.45513867E-01 0.13438284E+04</pdfrwt>
<totfact> 0.24684555E+01</totfact>
</mgrwt>
</event>
<event>
12    4  0.4280696E-008  0.2332984E+04  0.7818608E-02  0.8465028E-01
         -2   -1    0    0    0  501 -0.00000000000E+00  0.00000000000E+00  0.39776744241E+03  0.39776744241E+03  0.00000000000E+00 0.  1.
          1   -1    0    0  501    0  0.00000000000E+00 -0.00000000000E+00 -0.34208532191E+04  0.34208532191E+04  0.00000000000E+00 0. -1.
        -24    2    1    2    0    0 -0.92071542629E+03 -0.34027112810E+03 -0.10390244171E+04  0.14316760011E+04  0.81382406237E+02 0.  0.
        254    2    1    2    0    0  0.92071542629E+03  0.34027112810E+03 -0.19840613596E+04  0.23869446604E+04  0.89303079243E+03 0.  0.
         23    2    4    4    0    0 -0.95778430669E+02  0.27231301825E+03 -0.40642776641E+03  0.50673905504E+03  0.90956324171E+02 0.  0.
         23    2    4    4    0    0  0.10164938570E+04  0.67958109857E+02 -0.15776335932E+04  0.18802056054E+04  0.91472936199E+02 0.  0.
          3    1    3    3  502    0 -0.77497295007E+03 -0.29440190675E+03 -0.91663556034E+03  0.12359111240E+04  0.00000000000E+00 0. -1.
         -4    1    3    3    0  502 -0.14574247622E+03 -0.45869221353E+02 -0.12238885674E+03  0.19576487707E+03  0.00000000000E+00 0.  1.
         11    1    5    5    0    0 -0.45018170080E+01  0.11933404524E+02  0.29204428229E+01  0.13084398579E+02  0.00000000000E+00 0.  1.
        -11    1    5    5    0    0 -0.91276613661E+02  0.26037961372E+03 -0.40934820924E+03  0.49365465647E+03  0.00000000000E+00 0. -1.
          4    1    6    6  503    0  0.55460132322E+03 -0.72133669305E+00 -0.90331829395E+03  0.10599844755E+04  0.00000000000E+00 0. -1.
         -4    1    6    6    0  503  0.46189253374E+03  0.68679446551E+02 -0.67431529926E+03  0.82022112989E+03  0.00000000000E+00 0.  1.
<mgrwt>
<rscale>  0 0.23329844E+04</rscale>
<asrwt>0</asrwt>
<pdfrwt beam="1">  1        1 0.52628510E+00 0.23329844E+04</pdfrwt>
<pdfrwt beam="2">  1       -2 0.61194992E-01 0.23329844E+04</pdfrwt>
<totfact> 0.56814522E-01</totfact>
</mgrwt>
</event>
<event>
12    4  0.4280696E-008  0.1124667E+04  0.7818608E-02  0.9181477E-01
         -2   -1    0    0    0  501 -0.00000000000E+00  0.00000000000E+00  0.40644892643E+03  0.40644892643E+03  0.00000000000E+00 0.  1.
          1   -1    0    0  501    0  0.00000000000E+00 -0.00000000000E+00 -0.77800469346E+03  0.77800469346E+03  0.00000000000E+00 0. -1.
        -24    2    1    2    0    0  0.94365910492E+02 -0.58536407680E+02 -0.22568019575E+03  0.26445986689E+03  0.81707003112E+02 0.  0.
        254    2    1    2    0    0 -0.94365910492E+02  0.58536407680E+02 -0.14587557128E+03  0.91999375300E+03  0.90154167245E+03 0.  0.
         23    2    4    4    0    0 -0.94003481101E+02  0.30795974162E+03 -0.42103392272E+03  0.53750882401E+03  0.89276620069E+02 0.  0.
         23    2    4    4    0    0 -0.36242939114E+00 -0.24942333394E+03  0.27515835144E+03  0.38248492899E+03  0.91490281813E+02 0.  0.
          1    1    3    3  502    0  0.14623539879E+02 -0.41377522362E+02 -0.13752460745E+03  0.14435707440E+03  0.00000000000E+00 0. -1.
         -2    1    3    3    0  502  0.79742370613E+02 -0.17158885318E+02 -0.88155588296E+02  0.12010279249E+03  0.00000000000E+00 0.  1.
         11    1    5    5    0    0 -0.22521103714E+01  0.47694143716E+01  0.45574963042E+01  0.69706590173E+01  0.00000000000E+00 0. -1.
        -11    1    5    5    0    0 -0.91751370729E+02  0.30319032725E+03 -0.42559141902E+03  0.53053816499E+03  0.00000000000E+00 0.  1.
          3    1    6    6  503    0 -0.32213046711E+02 -0.82521401753E+02  0.13862415225E+03  0.16451175555E+03  0.00000000000E+00 0. -1.
         -3    1    6    6    0  503  0.31850617320E+02 -0.16690193219E+03  0.13653419919E+03  0.21797317344E+03  0.00000000000E+00 0.  1.
<mgrwt>
<rscale>  0 0.11246674E+04</rscale>
<asrwt>0</asrwt>
<pdfrwt beam="1">  1        1 0.11969303E+00 0.11246674E+04</pdfrwt>
<pdfrwt beam="2">  1       -2 0.62530605E-01 0.11246674E+04</pdfrwt>
<totfact> 0.47806957E+01</totfact>
</mgrwt>
</event>
<event>
12    4  0.4280696E-008  0.1449001E+04  0.7818608E-02  0.8919093E-01
          1   -1    0    0  501    0  0.00000000000E+00  0.00000000000E+00  0.77167492748E+03  0.77167492748E+03  0.00000000000E+00 0. -1.
         -2   -1    0    0    0  501 -0.00000000000E+00 -0.00000000000E+00 -0.68020987560E+03  0.68020987560E+03  0.00000000000E+00 0.  1.
        -24    2    1    2    0    0  0.82100345646E+01 -0.28925058234E+03  0.35743433976E+03  0.46739618253E+03  0.83466041891E+02 0.  0.
        254    2    1    2    0    0 -0.82100345646E+01  0.28925058234E+03 -0.26596928787E+03  0.98448862055E+03  0.90263219412E+03 0.  0.
         23    2    4    4    0    0  0.21273701624E+03 -0.19696919764E+03 -0.31701959287E+03  0.44029894508E+03  0.96477126180E+02 0.  0.
         23    2    4    4    0    0 -0.22094705080E+03  0.48621977998E+03  0.51050305006E+02  0.54418967547E+03  0.91153691908E+02 0.  0.
          1    1    3    3  502    0  0.99253059850E+01 -0.19079435188E+03  0.29276323723E+03  0.34958734170E+03  0.00000000000E+00 0. -1.
         -2    1    3    3    0  502 -0.17152714204E+01 -0.98456230467E+02  0.64671102529E+02  0.11780884082E+03  0.00000000000E+00 0.  1.
         11    1    5    5    0    0  0.29491899822E+02 -0.74179321411E+02 -0.51019323408E+02  0.94738140372E+02  0.00000000000E+00 0. -1.
        -11    1    5    5    0    0  0.18324511641E+03 -0.12278987623E+03 -0.26600026947E+03  0.34556080471E+03  0.00000000000E+00 0.  1.
          1    1    6    6  503    0 -0.12874064476E+03  0.26175237665E+03 -0.16898512451E+02  0.29218832971E+03  0.00000000000E+00 0. -1.
         -1    1    6    6    0  503 -0.92206406038E+02  0.22446740333E+03  0.67948817457E+02  0.25200134577E+03  0.00000000000E+00 0.  1.
<mgrwt>
<rscale>  0 0.14490009E+04</rscale>
<asrwt>0</asrwt>
<pdfrwt beam="1">  1        1 0.11871922E+00 0.14490009E+04</pdfrwt>
<pdfrwt beam="2">  1       -2 0.10464767E+00 0.14490009E+04</pdfrwt>
<totfact> 0.14765026E+01</totfact>
</mgrwt>
</event>
<event>
12    4  0.4280696E-008  0.2036236E+04  0.7818608E-02  0.8589864E-01
          1   -1    0    0  501    0  0.00000000000E+00  0.00000000000E+00  0.20609293271E+04  0.20609293271E+04  0.00000000000E+00 0. -1.
         -2   -1    0    0    0  501 -0.00000000000E+00 -0.00000000000E+00 -0.50295978979E+03  0.50295978979E+03  0.00000000000E+00 0.  1.
        -24    2    1    2    0    0 -0.35100866753E+03 -0.26946717020E+03  0.14954717124E+04  0.15614430099E+04  0.76478690655E+02 0.  0.
        254    2    1    2    0    0  0.35100866753E+03  0.26946717020E+03  0.62497824957E+02  0.10024461070E+04  0.89731409153E+03 0.  0.
         23    2    4    4    0    0 -0.46224054668E+02 -0.28924864409E+03  0.15952998876E+01  0.30754607633E+03  0.93704870463E+02 0.  0.
         23    2    4    4    0    0  0.39723272220E+03  0.55871581428E+03  0.60902525070E+02  0.69490003069E+03  0.96019468749E+02 0.  0.
          3    1    3    3  502    0 -0.38823850207E+02 -0.52003398520E+02  0.29798713685E+03  0.30497209468E+03  0.00000000000E+00 0. -1.
         -4    1    3    3    0  502 -0.31218481732E+03 -0.21746377168E+03  0.11974845755E+04  0.12564709152E+04  0.00000000000E+00 0.  1.
         11    1    5    5    0    0 -0.63884795670E+02 -0.27984532944E+03  0.57894562104E+01  0.28710310574E+03  0.00000000000E+00 0.  1.
        -11    1    5    5    0    0  0.17660741002E+02 -0.94033146529E+01 -0.41941563228E+01  0.20442970588E+02  0.00000000000E+00 0. -1.
          4    1    6    6  503    0  0.25687235651E+03  0.27913042216E+03  0.37447967125E+02  0.38118178125E+03  0.00000000000E+00 0. -1.
         -4    1    6    6    0  503  0.14036036569E+03  0.27958539213E+03  0.23454557944E+02  0.31371824945E+03  0.00000000000E+00 0.  1.
<mgrwt>
<rscale>  0 0.20362363E+04</rscale>
<asrwt>0</asrwt>
<pdfrwt beam="1">  1        1 0.31706605E+00 0.20362363E+04</pdfrwt>
<pdfrwt beam="2">  1       -2 0.77378430E-01 0.20362363E+04</pdfrwt>
<totfact> 0.32776353E+00</totfact>
</mgrwt>
</event>
<event>
12    4  0.4280696E-008  0.1640292E+04  0.7818608E-02  0.8796170E-01
         -2   -1    0    0    0  501 -0.00000000000E+00  0.00000000000E+00  0.68997231928E+03  0.68997231928E+03  0.00000000000E+00 0.  1.
          1   -1    0    0  501    0  0.00000000000E+00 -0.00000000000E+00 -0.97487932020E+03  0.97487932020E+03  0.00000000000E+00 0. -1.
        -24    2    1    2    0    0  0.55073053231E+03  0.32312692836E+02  0.59269975612E+02  0.56052727607E+03  0.79559209826E+02 0.  0.
        254    2    1    2    0    0 -0.55073053231E+03 -0.32312692836E+02 -0.34417697652E+03  0.11043243634E+04  0.89259524933E+03 0.  0.
         23    2    4    4    0    0  0.15887951723E+03  0.21117703024E+03 -0.17726600783E+03  0.33051094780E+03  0.89307390455E+02 0.  0.
         23    2    4    4    0    0 -0.70961004955E+03 -0.24348972307E+03 -0.16691096870E+03  0.77381341561E+03  0.89968122419E+02 0.  0.
          3    1    3    3  502    0  0.51185549858E+02  0.74079594039E+01  0.29352973178E+02  0.59467935992E+02  0.00000000000E+00 0. -1.
         -4    1    3    3    0  502  0.49954498245E+03  0.24904733432E+02  0.29917002434E+02  0.50105934008E+03  0.00000000000E+00 0.  1.
         11    1    5    5    0    0  0.68142665792E+02  0.12835955416E+03 -0.14084135784E+03  0.20237560654E+03  0.00000000000E+00 0. -1.
        -11    1    5    5    0    0  0.90736851442E+02  0.82817476078E+02 -0.36424649992E+02  0.12813534126E+03  0.00000000000E+00 0.  1.
          1    1    6    6  503    0 -0.67467393734E+03 -0.22967627351E+03 -0.13688970120E+03  0.72572370957E+03  0.00000000000E+00 0. -1.
         -1    1    6    6    0  503 -0.34936112205E+02 -0.13813449565E+02 -0.30021267499E+02  0.48089706041E+02  0.00000000000E+00 0.  1.
<mgrwt>
<rscale>  0 0.16402923E+04</rscale>
<asrwt>0</asrwt>
<pdfrwt beam="1">  1        1 0.14998143E+00 0.16402923E+04</pdfrwt>
<pdfrwt beam="2">  1       -2 0.10614959E+00 0.16402923E+04</pdfrwt>
<totfact> 0.95062423E+00</totfact>
</mgrwt>
</event>
<event>
12    4  0.4280696E-008  0.2305688E+04  0.7818608E-02  0.8475682E-01
          1   -1    0    0  501    0  0.00000000000E+00  0.00000000000E+00  0.19434268485E+04  0.19434268485E+04  0.00000000000E+00 0. -1.
         -2   -1    0    0    0  501 -0.00000000000E+00 -0.00000000000E+00 -0.68386878324E+03  0.68386878324E+03  0.00000000000E+00 0.  1.
        -24    2    1    2    0    0 -0.23725801357E+03  0.19075681234E+03  0.15818059271E+04  0.16127022007E+04  0.77581380871E+02 0.  0.
        254    2    1    2    0    0  0.23725801357E+03 -0.19075681234E+03 -0.32224786177E+03  0.10145934311E+04  0.91262074246E+03 0.  0.
         23    2    4    4    0    0 -0.29599568154E+03 -0.26432414219E+03 -0.20556580615E+03  0.45614371369E+03  0.91263855075E+02 0.  0.
         23    2    4    4    0    0  0.53325369511E+03  0.73567329851E+02 -0.11668205563E+03  0.55844971742E+03  0.92085446266E+02 0.  0.
          1    1    3    3  502    0 -0.15905591604E+03  0.17092300616E+03  0.11721202835E+04  0.11951482826E+04  0.00000000000E+00 0. -1.
         -2    1    3    3    0  502 -0.78202097528E+02  0.19833806180E+02  0.40968564358E+03  0.41755391805E+03  0.00000000000E+00 0.  1.
         11    1    5    5    0    0 -0.29964097727E+03 -0.25102351157E+03 -0.18783614179E+03  0.43368183589E+03  0.00000000000E+00 0. -1.
        -11    1    5    5    0    0  0.36452957277E+01 -0.13300630621E+02 -0.17729664359E+02  0.22461877797E+02  0.00000000000E+00 0.  1.
          3    1    6    6  503    0  0.52381027208E+03  0.57003420674E+02 -0.11501845845E+03  0.53931051991E+03  0.00000000000E+00 0. -1.
         -3    1    6    6    0  503  0.94434230312E+01  0.16563909177E+02 -0.16635971794E+01  0.19139197511E+02  0.00000000000E+00 0.  1.
<mgrwt>
<rscale>  0 0.23056877E+04</rscale>
<asrwt>0</asrwt>
<pdfrwt beam="1">  1        1 0.29898874E+00 0.23056877E+04</pdfrwt>
<pdfrwt beam="2">  1       -2 0.10521058E+00 0.23056877E+04</pdfrwt>
<totfact> 0.18900950E+00</totfact>
</mgrwt>
</event>
<event>
12    4  0.4280696E-008  0.1553227E+04  0.7818608E-02  0.8849809E-01
         -2   -1    0    0    0  501 -0.00000000000E+00  0.00000000000E+00  0.92094430122E+03  0.92094430122E+03  0.00000000000E+00 0.  1.
          1   -1    0    0  501    0  0.00000000000E+00 -0.00000000000E+00 -0.65490232142E+03  0.65490232142E+03  0.00000000000E+00 0. -1.
        -24    2    1    2    0    0  0.29719624633E+03  0.31786643224E+03 -0.19886586473E+03  0.48528378612E+03  0.81166762527E+02 0.  0.
        254    2    1    2    0    0 -0.29719624633E+03 -0.31786643224E+03  0.46490784453E+03  0.10905628365E+04  0.88533796875E+03 0.  0.
         23    2    4    4    0    0 -0.83630497715E+02  0.28945322329E+03  0.26005408553E+03  0.40907804322E+03  0.94548873160E+02 0.  0.
         23    2    4    4    0    0 -0.21356574862E+03 -0.60731965553E+03  0.20485375900E+03  0.68148479330E+03  0.89492837423E+02 0.  0.
          1    1    3    3  502    0  0.22130831188E+03  0.22933674324E+03 -0.18326867722E+03  0.36764129088E+03  0.00000000000E+00 0. -1.
         -2    1    3    3    0  502  0.75887934450E+02  0.88529688997E+02 -0.15597187515E+02  0.11764249524E+03  0.00000000000E+00 0.  1.
         11    1    5    5    0    0 -0.59400598680E+02  0.25126116642E+03  0.25612746415E+03  0.36367826821E+03  0.00000000000E+00 0.  1.
        -11    1    5    5    0    0 -0.24229899035E+02  0.38192056871E+02  0.39266213847E+01  0.45399775008E+02  0.00000000000E+00 0. -1.
          3    1    6    6  503    0 -0.13338285475E+03 -0.24831864825E+03  0.79597599762E+02  0.29289744775E+03  0.00000000000E+00 0. -1.
         -3    1    6    6    0  503 -0.80182893867E+02 -0.35900100728E+03  0.12525615924E+03  0.38858734555E+03  0.00000000000E+00 0.  1.
<mgrwt>
<rscale>  0 0.15532270E+04</rscale>
<asrwt>0</asrwt>
<pdfrwt beam="1">  1        1 0.10075420E+00 0.15532270E+04</pdfrwt>
<pdfrwt beam="2">  1       -2 0.14168374E+00 0.15532270E+04</pdfrwt>
<totfact> 0.88365368E+00</totfact>
</mgrwt>
</event>
<event>
12    4  0.4280696E-008  0.1272244E+04  0.7818608E-02  0.9051870E-01
          1   -1    0    0  501    0  0.00000000000E+00  0.00000000000E+00  0.13739942098E+04  0.13739942098E+04  0.00000000000E+00 0. -1.
         -2   -1    0    0    0  501 -0.00000000000E+00 -0.00000000000E+00 -0.29450729105E+03  0.29450729105E+03  0.00000000000E+00 0.  1.
        -24    2    1    2    0    0  0.15820492929E+02  0.11013131922E+03  0.65756927402E+03  0.67171742359E+03  0.80173259526E+02 0.  0.
        254    2    1    2    0    0 -0.15820492929E+02 -0.11013131922E+03  0.42191764475E+03  0.99678407729E+03  0.89620578123E+03 0.  0.
         23    2    4    4    0    0 -0.13413152216E+02 -0.47818093929E+03  0.37480755935E+03  0.61435440650E+03  0.90076117166E+02 0.  0.
         23    2    4    4    0    0 -0.24073407125E+01  0.36804962008E+03  0.47110085400E+02  0.38242967079E+03  0.92556873448E+02 0.  0.
          1    1    3    3  502    0  0.44030130023E+02  0.81251372029E+02  0.37193028959E+03  0.38323958319E+03  0.00000000000E+00 0. -1.
         -2    1    3    3    0  502 -0.28209637095E+02  0.28879947188E+02  0.28563898443E+03  0.28847784039E+03  0.00000000000E+00 0.  1.
         11    1    5    5    0    0  0.31137359940E+02 -0.27915042215E+03  0.18985907524E+03  0.33902944093E+03  0.00000000000E+00 0.  1.
        -11    1    5    5    0    0 -0.44550512156E+02 -0.19903051715E+03  0.18494848412E+03  0.27532496557E+03  0.00000000000E+00 0. -1.
          2    1    6    6  503    0  0.24668838953E+02  0.27868828262E+02  0.13209944542E+02  0.39493364490E+02  0.00000000000E+00 0. -1.
         -2    1    6    6    0  503 -0.27076179665E+02  0.34018079182E+03  0.33900140859E+02  0.34293630630E+03  0.00000000000E+00 0.  1.
<mgrwt>
<rscale>  0 0.12722442E+04</rscale>
<asrwt>0</asrwt>
<pdfrwt beam="1">  1        1 0.21138372E+00 0.12722442E+04</pdfrwt>
<pdfrwt beam="2">  1       -2 0.45308815E-01 0.12722442E+04</pdfrwt>
<totfact> 0.31970905E+01</totfact>
</mgrwt>
</event>
<event>
12    4  0.4280696E-008  0.2362949E+04  0.7818608E-02  0.8453507E-01
          1   -1    0    0  501    0  0.00000000000E+00  0.00000000000E+00  0.22021630108E+04  0.22021630108E+04  0.00000000000E+00 0. -1.
         -2   -1    0    0    0  501 -0.00000000000E+00 -0.00000000000E+00 -0.63386835252E+03  0.63386835252E+03  0.00000000000E+00 0.  1.
        -24    2    1    2    0    0 -0.34164311986E+03 -0.45560311656E+03  0.16785220632E+04  0.17741549844E+04  0.76781317628E+02 0.  0.
        254    2    1    2    0    0  0.34164311986E+03  0.45560311656E+03 -0.11022740490E+03  0.10618763790E+04  0.88945890421E+03 0.  0.
         23    2    4    4    0    0  0.44042424740E+03  0.66749078358E+03 -0.86391604133E+02  0.80984171801E+03  0.94141569517E+02 0.  0.
         23    2    4    4    0    0 -0.98781127533E+02 -0.21188766702E+03 -0.23835800763E+02  0.25203466097E+03  0.91100111630E+02 0.  0.
          1    1    3    3  502    0 -0.26945636678E+03 -0.39816749475E+03  0.14538564388E+04  0.15312878998E+04  0.00000000000E+00 0. -1.
         -2    1    3    3    0  502 -0.72186753085E+02 -0.57435621811E+02  0.22466562447E+03  0.24286708462E+03  0.00000000000E+00 0.  1.
         11    1    5    5    0    0  0.25408979141E+03  0.36382719459E+03 -0.93422212174E+02  0.45349703345E+03  0.00000000000E+00 0.  1.
        -11    1    5    5    0    0  0.18633445599E+03  0.30366358898E+03  0.70306080410E+01  0.35634468456E+03  0.00000000000E+00 0. -1.
          1    1    6    6  503    0  0.95724294025E+01 -0.67469788437E+01  0.12589340086E+02  0.17194319178E+02  0.00000000000E+00 0. -1.
         -1    1    6    6    0  503 -0.10835355694E+03 -0.20514068818E+03 -0.36425140849E+02  0.23484034179E+03  0.00000000000E+00 0.  1.
<mgrwt>
<rscale>  0 0.23629485E+04</rscale>
<asrwt>0</asrwt>
<pdfrwt beam="1">  1        1 0.33879430E+00 0.23629485E+04</pdfrwt>
<pdfrwt beam="2">  1       -2 0.97518210E-01 0.23629485E+04</pdfrwt>
<totfact> 0.15032516E+00</totfact>
</mgrwt>
</event>
<event>
12    4  0.4280696E-008  0.1670939E+04  0.7818608E-02  0.8778115E-01
         -2   -1    0    0    0  501 -0.00000000000E+00  0.00000000000E+00  0.41558251743E+03  0.41558251743E+03  0.00000000000E+00 0.  1.
          1   -1    0    0  501    0  0.00000000000E+00 -0.00000000000E+00 -0.16795926314E+04  0.16795926314E+04  0.00000000000E+00 0. -1.
        -24    2    1    2    0    0 -0.12641684315E+03  0.16702375034E+03 -0.11331106961E+04  0.11550995370E+04  0.80230539338E+02 0.  0.
        254    2    1    2    0    0  0.12641684315E+03 -0.16702375034E+03 -0.13089941792E+03  0.94007561183E+03  0.90704429161E+03 0.  0.
         23    2    4    4    0    0  0.85812472990E+02  0.36660358566E+03 -0.27825219030E+02  0.38824193893E+03  0.90529502333E+02 0.  0.
         23    2    4    4    0    0  0.40604370157E+02 -0.53362733600E+03 -0.10307419889E+03  0.55183367290E+03  0.86540530783E+02 0.  0.
          1    1    3    3  502    0 -0.58191859380E+02  0.11302924988E+03 -0.49410175999E+03  0.51019452472E+03  0.00000000000E+00 0. -1.
         -2    1    3    3    0  502 -0.68224983767E+02  0.53994500461E+02 -0.63900893607E+03  0.64490501228E+03  0.00000000000E+00 0.  1.
         11    1    5    5    0    0  0.86535277845E+02  0.17967913736E+03 -0.27478965202E+02  0.20131577246E+03  0.00000000000E+00 0. -1.
        -11    1    5    5    0    0 -0.72280485480E+00  0.18692444830E+03 -0.34625382786E+00  0.18692616647E+03  0.00000000000E+00 0.  1.
          1    1    6    6  503    0 -0.20916052527E+02 -0.45489239176E+02 -0.11801636730E+02  0.51439583626E+02  0.00000000000E+00 0. -1.
         -1    1    6    6    0  503  0.61520422683E+02 -0.48813809682E+03 -0.91272562155E+02  0.50039408927E+03  0.00000000000E+00 0.  1.
<mgrwt>
<rscale>  0 0.16709391E+04</rscale>
<asrwt>0</asrwt>
<pdfrwt beam="1">  1        1 0.25839886E+00 0.16709391E+04</pdfrwt>
<pdfrwt beam="2">  1       -2 0.63935773E-01 0.16709391E+04</pdfrwt>
<totfact> 0.93208246E+00</totfact>
</mgrwt>
</event>
<event>
12    4  0.4280696E-008  0.1446658E+04  0.7818608E-02  0.8920721E-01
         -2   -1    0    0    0  501 -0.00000000000E+00  0.00000000000E+00  0.35304067991E+03  0.35304067991E+03  0.00000000000E+00 0.  1.
          1   -1    0    0  501    0  0.00000000000E+00 -0.00000000000E+00 -0.14819955964E+04  0.14819955964E+04  0.00000000000E+00 0. -1.
        -24    2    1    2    0    0 -0.35276570409E+03  0.19734603260E+03 -0.14993397516E+03  0.43706350190E+03  0.71799785653E+02 0.  0.
        254    2    1    2    0    0  0.35276570409E+03 -0.19734603260E+03 -0.97902094135E+03  0.13979727744E+04  0.91239069255E+03 0.  0.
         23    2    4    4    0    0  0.20633560579E+03 -0.50528067609E+03 -0.86518222982E+03  0.10272256014E+04  0.93644015087E+02 0.  0.
         23    2    4    4    0    0  0.14643009830E+03  0.30793464348E+03 -0.11383871153E+03  0.37074717300E+03  0.90712158500E+02 0.  0.
          3    1    3    3  502    0 -0.23336434113E+03  0.15678441381E+03 -0.12864594197E+03  0.30917640031E+03  0.00000000000E+00 0. -1.
         -4    1    3    3    0  502 -0.11940136296E+03  0.40561618796E+02 -0.21288033191E+02  0.12788710159E+03  0.00000000000E+00 0.  1.
         11    1    5    5    0    0  0.21523217748E+03 -0.49184437588E+03 -0.82962183160E+03  0.98818427622E+03  0.00000000000E+00 0.  1.
        -11    1    5    5    0    0 -0.88965716903E+01 -0.13436300206E+02 -0.35560398223E+02  0.39041325193E+02  0.00000000000E+00 0. -1.
          4    1    6    6  503    0  0.28798911598E+02  0.11148641164E+03 -0.24809542890E+00  0.11514624979E+03  0.00000000000E+00 0. -1.
         -4    1    6    6    0  503  0.11763118671E+03  0.19644823184E+03 -0.11359061610E+03  0.25560092321E+03  0.00000000000E+00 0.  1.
<mgrwt>
<rscale>  0 0.14466578E+04</rscale>
<asrwt>0</asrwt>
<pdfrwt beam="1">  1        1 0.22799932E+00 0.14466578E+04</pdfrwt>
<pdfrwt beam="2">  1       -2 0.54313950E-01 0.14466578E+04</pdfrwt>
<totfact> 0.18314291E+01</totfact>
</mgrwt>
</event>
<event>
12    4  0.4280696E-008  0.2267158E+04  0.7818608E-02  0.8490984E-01
          1   -1    0    0  501    0  0.00000000000E+00  0.00000000000E+00  0.26906232891E+04  0.26906232891E+04  0.00000000000E+00 0. -1.
         -2   -1    0    0    0  501 -0.00000000000E+00 -0.00000000000E+00 -0.47758491962E+03  0.47758491962E+03  0.00000000000E+00 0.  1.
        -24    2    1    2    0    0  0.94497076268E+03 -0.12309202659E+03  0.96567082108E+03  0.13590136509E+04  0.79224865160E+02 0.  0.
        254    2    1    2    0    0 -0.94497076268E+03  0.12309202659E+03  0.12473675484E+04  0.18091945578E+04  0.89952084910E+03 0.  0.
         23    2    4    4    0    0 -0.56381510619E+03  0.26032410168E+03  0.12448872617E+04  0.13939562601E+04  0.87827380633E+02 0.  0.
         23    2    4    4    0    0 -0.38115565649E+03 -0.13723207509E+03  0.24802867110E+01  0.41523829777E+03  0.91128564138E+02 0.  0.
          3    1    3    3  502    0  0.48659406166E+03 -0.81782394210E+02  0.54947833273E+03  0.73850428502E+03  0.00000000000E+00 0. -1.
         -4    1    3    3    0  502  0.45837670102E+03 -0.41309632379E+02  0.41619248835E+03  0.62050936586E+03  0.00000000000E+00 0.  1.
         11    1    5    5    0    0 -0.25202760158E+03  0.13944681882E+03  0.66224361920E+03  0.72217029738E+03  0.00000000000E+00 0. -1.
        -11    1    5    5    0    0 -0.31178750461E+03  0.12087728286E+03  0.58264364248E+03  0.67178596269E+03  0.00000000000E+00 0.  1.
          3    1    6    6  503    0 -0.27524300888E+03 -0.54010633102E+02 -0.10779466671E+01  0.28049425020E+03  0.00000000000E+00 0. -1.
         -3    1    6    6    0  503 -0.10591264761E+03 -0.83221441987E+02  0.35582333781E+01  0.13474404757E+03  0.00000000000E+00 0.  1.
<mgrwt>
<rscale>  0 0.22671578E+04</rscale>
<asrwt>0</asrwt>
<pdfrwt beam="1">  1        1 0.41394204E+00 0.22671578E+04</pdfrwt>
<pdfrwt beam="2">  1       -2 0.73474605E-01 0.22671578E+04</pdfrwt>
<totfact> 0.13268138E+00</totfact>
</mgrwt>
</event>
<event>
12    4  0.4280696E-008  0.2105347E+04  0.7818608E-02  0.8558892E-01
          1   -1    0    0  501    0  0.00000000000E+00  0.00000000000E+00  0.11131538785E+04  0.11131538785E+04  0.00000000000E+00 0. -1.
         -2   -1    0    0    0  501 -0.00000000000E+00 -0.00000000000E+00 -0.99547893773E+03  0.99547893773E+03  0.00000000000E+00 0.  1.
        -24    2    1    2    0    0 -0.50016514779E+03  0.32235059431E+03 -0.54578391909E+03  0.81114448735E+03  0.77461037373E+02 0.  0.
        254    2    1    2    0    0  0.50016514779E+03 -0.32235059431E+03  0.66345885985E+03  0.12974883289E+04  0.94298633296E+03 0.  0.
         23    2    4    4    0    0 -0.21796569923E+03  0.93658613202E+02  0.28117557330E+03  0.37922655956E+03  0.92044003554E+02 0.  0.
         23    2    4    4    0    0  0.71813084701E+03 -0.41600920752E+03  0.38228328655E+03  0.91826176931E+03  0.91041702744E+02 0.  0.
          3    1    3    3  502    0 -0.14646283671E+03  0.12772362675E+03 -0.14685055019E+03  0.24357703393E+03  0.00000000000E+00 0. -1.
         -4    1    3    3    0  502 -0.35370231107E+03  0.19462696757E+03 -0.39893336889E+03  0.56756745342E+03  0.00000000000E+00 0.  1.
         11    1    5    5    0    0 -0.85808610314E+02  0.82464134999E+01  0.15569026819E+03  0.17796230092E+03  0.00000000000E+00 0.  1.
        -11    1    5    5    0    0 -0.13215708891E+03  0.85412199702E+02  0.12548530511E+03  0.20126425864E+03  0.00000000000E+00 0. -1.
          4    1    6    6  503    0  0.37900923347E+03 -0.22774115761E+03  0.25284808078E+03  0.50935860244E+03  0.00000000000E+00 0. -1.
         -4    1    6    6    0  503  0.33912161354E+03 -0.18826804991E+03  0.12943520577E+03  0.40890316687E+03  0.00000000000E+00 0.  1.
<mgrwt>
<rscale>  0 0.21053468E+04</rscale>
<asrwt>0</asrwt>
<pdfrwt beam="1">  1        1 0.17125444E+00 0.21053468E+04</pdfrwt>
<pdfrwt beam="2">  1       -2 0.15315061E+00 0.21053468E+04</pdfrwt>
<totfact> 0.28322831E+00</totfact>
</mgrwt>
</event>
<event>
12    4  0.4280696E-008  0.1320374E+04  0.7818608E-02  0.9013563E-01
         -2   -1    0    0    0  501 -0.00000000000E+00  0.00000000000E+00  0.25733568473E+03  0.25733568473E+03  0.00000000000E+00 0.  1.
          1   -1    0    0  501    0  0.00000000000E+00 -0.00000000000E+00 -0.16936900180E+04  0.16936900180E+04  0.00000000000E+00 0. -1.
        -24    2    1    2    0    0 -0.28471286815E+03  0.18657512137E+03 -0.50620162013E+03  0.61448078717E+03  0.73992326494E+02 0.  0.
        254    2    1    2    0    0  0.28471286815E+03 -0.18657512137E+03 -0.93015271314E+03  0.13365449156E+04  0.89738316695E+03 0.  0.
         23    2    4    4    0    0  0.52607733467E+03 -0.27668284874E+03 -0.35050489938E+03  0.69631684950E+03  0.93234701498E+02 0.  0.
         23    2    4    4    0    0 -0.24136446652E+03  0.90107727373E+02 -0.57964781376E+03  0.64022806606E+03  0.86742033297E+02 0.  0.
          3    1    3    3  502    0 -0.13311559865E+03  0.47030438041E+02 -0.23035510356E+03  0.27017605083E+03  0.00000000000E+00 0. -1.
         -4    1    3    3    0  502 -0.15159726950E+03  0.13954468333E+03 -0.27584651657E+03  0.34430473635E+03  0.00000000000E+00 0.  1.
         11    1    5    5    0    0  0.22251602879E+03 -0.92997070369E+02 -0.18937212022E+03  0.30663274137E+03  0.00000000000E+00 0.  1.
        -11    1    5    5    0    0  0.30356130588E+03 -0.18368577838E+03 -0.16113277916E+03  0.38968410812E+03  0.00000000000E+00 0. -1.
          3    1    6    6  503    0 -0.15472072110E+03  0.93736545720E+02 -0.44141455601E+03  0.47704491591E+03  0.00000000000E+00 0. -1.
         -3    1    6    6    0  503 -0.86643745419E+02 -0.36288183471E+01 -0.13823325775E+03  0.16318315014E+03  0.00000000000E+00 0.  1.
<mgrwt>
<rscale>  0 0.13203740E+04</rscale>
<asrwt>0</asrwt>
<pdfrwt beam="1">  1        1 0.26056770E+00 0.13203740E+04</pdfrwt>
<pdfrwt beam="2">  1       -2 0.39590104E-01 0.13203740E+04</pdfrwt>
<totfact> 0.25016253E+01</totfact>
</mgrwt>
</event>
<event>
12    4  0.4280696E-008  0.1675575E+04  0.7818608E-02  0.8775419E-01
         -2   -1    0    0    0  501 -0.00000000000E+00  0.00000000000E+00  0.65785936566E+03  0.65785936566E+03  0.00000000000E+00 0.  1.
          1   -1    0    0  501    0  0.00000000000E+00 -0.00000000000E+00 -0.10669268243E+04  0.10669268243E+04  0.00000000000E+00 0. -1.
        -24    2    1    2    0    0 -0.10855701062E+02 -0.51944928744E+03  0.14858739744E+03  0.54624449282E+03  0.79745989163E+02 0.  0.
        254    2    1    2    0    0  0.10855701062E+02  0.51944928744E+03 -0.55765485610E+03  0.11785416972E+04  0.89890832957E+03 0.  0.
         23    2    4    4    0    0 -0.59835249363E+02  0.73868849238E+03 -0.25763160508E+03  0.78979756456E+03  0.90361513982E+02 0.  0.
         23    2    4    4    0    0  0.70690950425E+02 -0.21923920494E+03 -0.30002325102E+03  0.38874413261E+03  0.89693979892E+02 0.  0.
          3    1    3    3  502    0  0.33161160204E+02 -0.18415404547E+03  0.62625114994E+02  0.19731771344E+03  0.00000000000E+00 0. -1.
         -4    1    3    3    0  502 -0.44016861266E+02 -0.33529524197E+03  0.85962282446E+02  0.34892677938E+03  0.00000000000E+00 0.  1.
         11    1    5    5    0    0 -0.57557887308E+02  0.59214324670E+03 -0.24248975954E+03  0.64245452640E+03  0.00000000000E+00 0. -1.
        -11    1    5    5    0    0 -0.22773620549E+01  0.14654524568E+03 -0.15141845537E+02  0.14734303816E+03  0.00000000000E+00 0.  1.
          1    1    6    6  503    0  0.32003165787E+02 -0.20254218195E+03 -0.24767148474E+03  0.32154113647E+03  0.00000000000E+00 0. -1.
         -1    1    6    6    0  503  0.38687784637E+02 -0.16697022987E+02 -0.52351766283E+02  0.67202996137E+02  0.00000000000E+00 0.  1.
<mgrwt>
<rscale>  0 0.16755749E+04</rscale>
<asrwt>0</asrwt>
<pdfrwt beam="1">  1        1 0.16414259E+00 0.16755749E+04</pdfrwt>
<pdfrwt beam="2">  1       -2 0.10120913E+00 0.16755749E+04</pdfrwt>
<totfact> 0.90153248E+00</totfact>
</mgrwt>
</event>
<event>
12    4  0.4280696E-008  0.1319433E+04  0.7818608E-02  0.9014295E-01
         -2   -1    0    0    0  501 -0.00000000000E+00  0.00000000000E+00  0.15905915675E+04  0.15905915675E+04  0.00000000000E+00 0.  1.
          1   -1    0    0  501    0  0.00000000000E+00 -0.00000000000E+00 -0.27362499170E+03  0.27362499170E+03  0.00000000000E+00 0. -1.
        -24    2    1    2    0    0  0.31352742309E+03 -0.13983380683E+03  0.31739941208E+03  0.47434014244E+03  0.80020281066E+02 0.  0.
        254    2    1    2    0    0 -0.31352742309E+03  0.13983380683E+03  0.99956716369E+03  0.13898764167E+04  0.90264555640E+03 0.  0.
         23    2    4    4    0    0 -0.18460566927E+03 -0.26743627209E+03  0.87291512350E+03  0.93577136975E+03  0.89921248071E+02 0.  0.
         23    2    4    4    0    0 -0.12892175382E+03  0.40727007892E+03  0.12665204019E+03  0.45410504698E+03  0.87640850164E+02 0.  0.
          3    1    3    3  502    0  0.62896886006E+02 -0.27178124105E+02  0.24612466287E+02  0.72804135843E+02  0.00000000000E+00 0. -1.
         -4    1    3    3    0  502  0.25063053708E+03 -0.11265568272E+03  0.29278694579E+03  0.40153600660E+03  0.00000000000E+00 0.  1.
         11    1    5    5    0    0 -0.10293895577E+03 -0.19538138250E+03  0.67027027875E+03  0.70571421965E+03  0.00000000000E+00 0. -1.
        -11    1    5    5    0    0 -0.81666713505E+02 -0.72054889590E+02  0.20264484475E+03  0.23005715010E+03  0.00000000000E+00 0.  1.
          4    1    6    6  503    0 -0.77424471265E+02  0.11145246280E+03  0.44215704000E+02  0.14272781332E+03  0.00000000000E+00 0. -1.
         -4    1    6    6    0  503 -0.51497282554E+02  0.29581761612E+03  0.82436336194E+02  0.31137723366E+03  0.00000000000E+00 0.  1.
<mgrwt>
<rscale>  0 0.13194326E+04</rscale>
<asrwt>0</asrwt>
<pdfrwt beam="1">  1        1 0.42096153E-01 0.13194326E+04</pdfrwt>
<pdfrwt beam="2">  1       -2 0.24470639E+00 0.13194326E+04</pdfrwt>
<totfact> 0.58713853E+00</totfact>
</mgrwt>
</event>
<event>
12    4  0.4280696E-008  0.2569861E+04  0.7818608E-02  0.8378511E-01
          1   -1    0    0  501    0  0.00000000000E+00  0.00000000000E+00  0.23984789813E+04  0.23984789813E+04  0.00000000000E+00 0. -1.
         -2   -1    0    0    0  501 -0.00000000000E+00 -0.00000000000E+00 -0.68837222013E+03  0.68837222013E+03  0.00000000000E+00 0.  1.
        -24    2    1    2    0    0 -0.12410289625E+03  0.37865992321E+03 -0.51266623782E+03  0.65485547586E+03  0.84995038452E+02 0.  0.
        254    2    1    2    0    0  0.12410289625E+03 -0.37865992321E+03  0.22227729990E+04  0.24319957256E+04  0.90282807766E+03 0.  0.
         23    2    4    4    0    0 -0.29482184798E+03 -0.38330426624E+03  0.16139532043E+04  0.16872808746E+04  0.90717811408E+02 0.  0.
         23    2    4    4    0    0  0.41892474423E+03  0.46443430320E+01  0.60881979466E+03  0.74471485101E+03  0.91755957232E+02 0.  0.
          3    1    3    3  502    0 -0.54966522732E+02  0.77401306407E+02 -0.15874200618E+03  0.18496298381E+03  0.00000000000E+00 0. -1.
         -4    1    3    3    0  502 -0.69136373518E+02  0.30125861681E+03 -0.35392423164E+03  0.46989249205E+03  0.00000000000E+00 0.  1.
         11    1    5    5    0    0 -0.27058819701E+03 -0.37503974120E+03  0.14687474200E+04  0.15398349794E+04  0.00000000000E+00 0.  1.
        -11    1    5    5    0    0 -0.24233650970E+02 -0.82645250474E+01  0.14520578431E+03  0.14744589520E+03  0.00000000000E+00 0. -1.
          1    1    6    6  503    0  0.10684518860E+03  0.31140689318E+02  0.11569355252E+03  0.16053234862E+03  0.00000000000E+00 0. -1.
         -1    1    6    6    0  503  0.31207955564E+03 -0.26496346286E+02  0.49312624214E+03  0.58418250239E+03  0.00000000000E+00 0.  1.
<mgrwt>
<rscale>  0 0.25698609E+04</rscale>
<asrwt>0</asrwt>
<pdfrwt beam="1">  1        1 0.36899676E+00 0.25698609E+04</pdfrwt>
<pdfrwt beam="2">  1       -2 0.10590342E+00 0.25698609E+04</pdfrwt>
<totfact> 0.89009197E-01</totfact>
</mgrwt>
</event>
<event>
12    4  0.4280696E-008  0.2433487E+04  0.7818608E-02  0.8427072E-01
         -2   -1    0    0    0  501 -0.00000000000E+00  0.00000000000E+00  0.11447859513E+04  0.11447859513E+04  0.00000000000E+00 0.  1.
          1   -1    0    0  501    0  0.00000000000E+00 -0.00000000000E+00 -0.12932239653E+04  0.12932239653E+04  0.00000000000E+00 0. -1.
        -24    2    1    2    0    0  0.31282648585E+03 -0.96869127601E+03  0.18997862712E+03  0.10384201025E+04  0.77467619714E+02 0.  0.
        254    2    1    2    0    0 -0.31282648585E+03  0.96869127601E+03 -0.33841664112E+03  0.13995898141E+04  0.89894528554E+03 0.  0.
         23    2    4    4    0    0 -0.49678063913E+02  0.80218814222E+03 -0.58038633950E+03  0.99561247234E+03  0.91772362094E+02 0.  0.
         23    2    4    4    0    0 -0.26314842194E+03  0.16650313379E+03  0.24196969839E+03  0.40397734180E+03  0.87624039077E+02 0.  0.
          3    1    3    3  502    0  0.19693713841E+03 -0.62741456783E+03  0.85273042828E+02  0.66310238142E+03  0.00000000000E+00 0. -1.
         -4    1    3    3    0  502  0.11588934744E+03 -0.34127670818E+03  0.10470558429E+03  0.37531772111E+03  0.00000000000E+00 0.  1.
         11    1    5    5    0    0 -0.72260107583E+02  0.42995892019E+03 -0.31805670597E+03  0.53967236765E+03  0.00000000000E+00 0. -1.
        -11    1    5    5    0    0  0.22582043670E+02  0.37222922204E+03 -0.26232963353E+03  0.45594010469E+03  0.00000000000E+00 0.  1.
          3    1    6    6  503    0 -0.11679935089E+03  0.36883495936E+02  0.13031333512E+03  0.17884083972E+03  0.00000000000E+00 0. -1.
         -3    1    6    6    0  503 -0.14634907104E+03  0.12961963785E+03  0.11165636326E+03  0.22513650208E+03  0.00000000000E+00 0.  1.
<mgrwt>
<rscale>  0 0.24334869E+04</rscale>
<asrwt>0</asrwt>
<pdfrwt beam="1">  1        1 0.19895753E+00 0.24334869E+04</pdfrwt>
<pdfrwt beam="2">  1       -2 0.17612092E+00 0.24334869E+04</pdfrwt>
<totfact> 0.13840910E+00</totfact>
</mgrwt>
</event>
<event>
12    4  0.4280696E-008  0.1528589E+04  0.7818608E-02  0.8865661E-01
         -2   -1    0    0    0  501 -0.00000000000E+00  0.00000000000E+00  0.33714591085E+03  0.33714591085E+03  0.00000000000E+00 0.  1.
          1   -1    0    0  501    0  0.00000000000E+00 -0.00000000000E+00 -0.17326203975E+04  0.17326203975E+04  0.00000000000E+00 0. -1.
        -24    2    1    2    0    0 -0.18531557884E+03 -0.10524161532E+03 -0.10516676246E+04  0.10759904038E+04  0.79579488407E+02 0.  0.
        254    2    1    2    0    0  0.18531557884E+03  0.10524161532E+03 -0.34380686203E+03  0.99377590458E+03  0.90772778342E+03 0.  0.
         23    2    4    4    0    0  0.32147530181E+03 -0.18451755968E+03  0.14008424159E+03  0.40634604156E+03  0.90002284662E+02 0.  0.
         23    2    4    4    0    0 -0.13615972297E+03  0.28975917500E+03 -0.48389110363E+03  0.58742986302E+03  0.91779050669E+02 0.  0.
          1    1    3    3  502    0 -0.88317596551E+02 -0.20967603600E+02 -0.30045260301E+03  0.31386526555E+03  0.00000000000E+00 0. -1.
         -2    1    3    3    0  502 -0.96997982293E+02 -0.84274011722E+02 -0.75121502160E+03  0.76212513822E+03  0.00000000000E+00 0.  1.
         11    1    5    5    0    0  0.32102402451E+03 -0.19163602523E+03  0.13465619582E+03  0.39738278970E+03  0.00000000000E+00 0.  1.
        -11    1    5    5    0    0  0.45127730431E+00  0.71184655503E+01  0.54280457759E+01  0.89632518620E+01  0.00000000000E+00 0. -1.
          4    1    6    6  503    0 -0.20947441707E+02  0.13506441238E+03 -0.15975415033E+03  0.21024409469E+03  0.00000000000E+00 0.  1.
         -4    1    6    6    0  503 -0.11521228126E+03  0.15469476262E+03 -0.32413695330E+03  0.37718576833E+03  0.00000000000E+00 0. -1.
<mgrwt>
<rscale>  0 0.15285887E+04</rscale>
<asrwt>0</asrwt>
<pdfrwt beam="1">  1        1 0.26655698E+00 0.15285887E+04</pdfrwt>
<pdfrwt beam="2">  1       -2 0.51868602E-01 0.15285887E+04</pdfrwt>
<totfact> 0.13464201E+01</totfact>
</mgrwt>
</event>
<event>
12    4  0.4280696E-008  0.1348536E+04  0.7818608E-02  0.8991937E-01
         -2   -1    0    0    0  501 -0.00000000000E+00  0.00000000000E+00  0.43330347272E+03  0.43330347272E+03  0.00000000000E+00 0.  1.
          1   -1    0    0  501    0  0.00000000000E+00 -0.00000000000E+00 -0.10492359226E+04  0.10492359226E+04  0.00000000000E+00 0. -1.
        -24    2    1    2    0    0 -0.13084356769E+03 -0.33650543207E+03 -0.16026264143E+03  0.40308633912E+03  0.80240498030E+02 0.  0.
        254    2    1    2    0    0  0.13084356769E+03  0.33650543207E+03 -0.45566980846E+03  0.10794530562E+04  0.90952074260E+03 0.  0.
         23    2    4    4    0    0  0.24261768731E+03  0.45551763188E+03  0.62875542864E+02  0.52838092311E+03  0.94198783788E+02 0.  0.
         23    2    4    4    0    0 -0.11177411962E+03 -0.11901219981E+03 -0.51854535133E+03  0.55107213311E+03  0.90187898273E+02 0.  0.
          1    1    3    3  502    0 -0.24013517567E+02 -0.17990930350E+02 -0.30946595239E+02  0.43104690669E+02  0.00000000000E+00 0. -1.
         -2    1    3    3    0  502 -0.10683005012E+03 -0.31851450172E+03 -0.12931604620E+03  0.35998164845E+03  0.00000000000E+00 0.  1.
         11    1    5    5    0    0  0.27785371305E+02  0.10494236305E+02  0.10258825237E+02  0.31422911219E+02  0.00000000000E+00 0. -1.
        -11    1    5    5    0    0  0.21483231600E+03  0.44502339558E+03  0.52616717626E+02  0.49695801189E+03  0.00000000000E+00 0.  1.
          2    1    6    6  503    0 -0.44769581883E+02 -0.68762945703E+02 -0.13096703484E+03  0.15454779966E+03  0.00000000000E+00 0. -1.
         -2    1    6    6    0  503 -0.67004537732E+02 -0.50249254106E+02 -0.38757831649E+03  0.39652433346E+03  0.00000000000E+00 0.  1.
<mgrwt>
<rscale>  0 0.13485363E+04</rscale>
<asrwt>0</asrwt>
<pdfrwt beam="1">  1        1 0.16142091E+00 0.13485363E+04</pdfrwt>
<pdfrwt beam="2">  1       -2 0.66662073E-01 0.13485363E+04</pdfrwt>
<totfact> 0.24591241E+01</totfact>
</mgrwt>
</event>
<event>
12    4  0.4280696E-008  0.2335805E+04  0.7818608E-02  0.8463936E-01
          1   -1    0    0  501    0  0.00000000000E+00  0.00000000000E+00  0.24496632158E+04  0.24496632158E+04  0.00000000000E+00 0. -1.
         -2   -1    0    0    0  501 -0.00000000000E+00 -0.00000000000E+00 -0.55680954340E+03  0.55680954340E+03  0.00000000000E+00 0.  1.
        -24    2    1    2    0    0 -0.37834163523E+03 -0.49656703997E+03 -0.18881113233E+03  0.65707566329E+03  0.79859661079E+02 0.  0.
        254    2    1    2    0    0  0.37834163523E+03  0.49656703997E+03  0.20816648047E+04  0.23493970959E+04  0.89253410966E+03 0.  0.
         23    2    4    4    0    0  0.46044455957E+03  0.66568983466E+03  0.12489308421E+04  0.14912422875E+04  0.93931695629E+02 0.  0.
         23    2    4    4    0    0 -0.82102924339E+02 -0.16912279469E+03  0.83273396262E+03  0.85815480835E+03  0.87409454414E+02 0.  0.
          1    1    3    3  502    0 -0.87846770911E+01 -0.31086347883E+02 -0.24183095158E+02  0.40352864430E+02  0.00000000000E+00 0. -1.
         -2    1    3    3    0  502 -0.36955695814E+03 -0.46548069209E+03 -0.16462803717E+03  0.61672279886E+03  0.00000000000E+00 0.  1.
         11    1    5    5    0    0  0.42569191541E+03  0.59936297897E+03  0.11749083655E+04  0.13859506682E+04  0.00000000000E+00 0. -1.
        -11    1    5    5    0    0  0.34752644151E+02  0.66326855688E+02  0.74022476600E+02  0.10529161934E+03  0.00000000000E+00 0.  1.
          3    1    6    6  503    0 -0.49338974792E+02 -0.12827612335E+03  0.41533227567E+03  0.43748142529E+03  0.00000000000E+00 0. -1.
         -3    1    6    6    0  503 -0.32763949547E+02 -0.40846671336E+02  0.41740168695E+03  0.42067338306E+03  0.00000000000E+00 0.  1.
<mgrwt>
<rscale>  0 0.23358047E+04</rscale>
<asrwt>0</asrwt>
<pdfrwt beam="1">  1        1 0.37687126E+00 0.23358047E+04</pdfrwt>
<pdfrwt beam="2">  1       -2 0.85663008E-01 0.23358047E+04</pdfrwt>
<totfact> 0.13761233E+00</totfact>
</mgrwt>
</event>
<event>
12    4  0.4280696E-008  0.1670343E+04  0.7818608E-02  0.8778462E-01
         -2   -1    0    0    0  501 -0.00000000000E+00  0.00000000000E+00  0.51313308181E+03  0.51313308181E+03  0.00000000000E+00 0.  1.
          1   -1    0    0  501    0  0.00000000000E+00 -0.00000000000E+00 -0.13593184879E+04  0.13593184879E+04  0.00000000000E+00 0. -1.
        -24    2    1    2    0    0 -0.30067673335E+03 -0.49282101554E+03 -0.19211537637E+03  0.61369332675E+03  0.80200561922E+02 0.  0.
        254    2    1    2    0    0  0.30067673335E+03  0.49282101554E+03 -0.65407002974E+03  0.12587582430E+04  0.90740600567E+03 0.  0.
         23    2    4    4    0    0 -0.19259408963E+03 -0.13310746624E+02 -0.47811643966E+03  0.52402972982E+03  0.93499564314E+02 0.  0.
         23    2    4    4    0    0  0.49327082298E+03  0.50613176216E+03 -0.17595359009E+03  0.73472851316E+03  0.96854822908E+02 0.  0.
          3    1    3    3  502    0 -0.10583119115E+03 -0.11366546734E+03 -0.33707657213E+02  0.15892226289E+03  0.00000000000E+00 0. -1.
         -4    1    3    3    0  502 -0.19484554219E+03 -0.37915554819E+03 -0.15840771916E+03  0.45477106386E+03  0.00000000000E+00 0.  1.
         11    1    5    5    0    0 -0.22631598268E+02 -0.31554331741E+02 -0.51949950662E+02  0.64858788653E+02  0.00000000000E+00 0. -1.
        -11    1    5    5    0    0 -0.16996249137E+03  0.18243585117E+02 -0.42616648899E+03  0.45917094117E+03  0.00000000000E+00 0.  1.
          1    1    6    6  503    0  0.18353250176E+03  0.24282328482E+03 -0.10543839078E+03  0.32212510164E+03  0.00000000000E+00 0. -1.
         -1    1    6    6    0  503  0.30973832122E+03  0.26330847734E+03 -0.70515199306E+02  0.41260341152E+03  0.00000000000E+00 0.  1.
<mgrwt>
<rscale>  0 0.16703428E+04</rscale>
<asrwt>0</asrwt>
<pdfrwt beam="1">  1        1 0.20912592E+00 0.16703428E+04</pdfrwt>
<pdfrwt beam="2">  1       -2 0.78943552E-01 0.16703428E+04</pdfrwt>
<totfact> 0.97836513E+00</totfact>
</mgrwt>
</event>
<event>
12    4  0.4280696E-008  0.1546321E+04  0.7818608E-02  0.8854221E-01
         -2   -1    0    0    0  501 -0.00000000000E+00  0.00000000000E+00  0.85442212399E+03  0.85442212399E+03  0.00000000000E+00 0.  1.
          1   -1    0    0  501    0  0.00000000000E+00 -0.00000000000E+00 -0.69962785961E+03  0.69962785961E+03  0.00000000000E+00 0. -1.
        -24    2    1    2    0    0  0.16151602535E+03  0.81118716254E+02 -0.42614648143E+03  0.46964903314E+03  0.79383361774E+02 0.  0.
        254    2    1    2    0    0 -0.16151602535E+03 -0.81118716254E+02  0.58094074581E+03  0.10844009505E+04  0.89764447229E+03 0.  0.
         23    2    4    4    0    0 -0.35249207138E+03 -0.39125905418E+03  0.27532422383E+03  0.60016933111E+03  0.84056468570E+02 0.  0.
         23    2    4    4    0    0  0.19097604603E+03  0.31014033793E+03  0.30561652198E+03  0.48423161935E+03  0.91760140031E+02 0.  0.
          1    1    3    3  502    0  0.10928314764E+03  0.92859151238E+02 -0.32416611982E+03  0.35447045232E+03  0.00000000000E+00 0. -1.
         -2    1    3    3    0  502  0.52232877702E+02 -0.11740434984E+02 -0.10198036161E+03  0.11517858082E+03  0.00000000000E+00 0.  1.
         11    1    5    5    0    0 -0.12746654223E+03 -0.90043067421E+02  0.99657144729E+02  0.18516754541E+03  0.00000000000E+00 0. -1.
        -11    1    5    5    0    0 -0.22502552915E+03 -0.30121598676E+03  0.17566707911E+03  0.41500178570E+03  0.00000000000E+00 0.  1.
          3    1    6    6  503    0  0.10464674024E+03  0.11498109532E+03  0.84576308912E+02  0.17698797855E+03  0.00000000000E+00 0. -1.
         -3    1    6    6    0  503  0.86329305799E+02  0.19515924261E+03  0.22104021307E+03  0.30724364080E+03  0.00000000000E+00 0.  1.
<mgrwt>
<rscale>  0 0.15463215E+04</rscale>
<asrwt>0</asrwt>
<pdfrwt beam="1">  1        1 0.10763506E+00 0.15463215E+04</pdfrwt>
<pdfrwt beam="2">  1       -2 0.13144956E+00 0.15463215E+04</pdfrwt>
<totfact> 0.97118832E+00</totfact>
</mgrwt>
</event>
<event>
12    4  0.4280696E-008  0.1309721E+04  0.7818608E-02  0.9021892E-01
          1   -1    0    0  501    0  0.00000000000E+00  0.00000000000E+00  0.71570087835E+03  0.71570087835E+03  0.00000000000E+00 0. -1.
         -2   -1    0    0    0  501 -0.00000000000E+00 -0.00000000000E+00 -0.59919187783E+03  0.59919187783E+03  0.00000000000E+00 0.  1.
        -24    2    1    2    0    0  0.83712418360E+02 -0.33970804116E+03  0.46742704692E+02  0.36053789359E+03  0.73439567364E+02 0.  0.
        254    2    1    2    0    0 -0.83712418360E+02  0.33970804116E+03  0.69766295827E+02  0.95435486259E+03  0.88516469964E+03 0.  0.
         23    2    4    4    0    0  0.16472842853E+03 -0.10620833628E+03 -0.26082372860E+03  0.33912284361E+03  0.92518213332E+02 0.  0.
         23    2    4    4    0    0 -0.24844084689E+03  0.44591637744E+03  0.33059002443E+03  0.61523201897E+03  0.93039791739E+02 0.  0.
          1    1    3    3  502    0  0.70913121729E+02 -0.21108125877E+03  0.59948346053E+02  0.23060306336E+03  0.00000000000E+00 0. -1.
         -2    1    3    3    0  502  0.12799296631E+02 -0.12862678239E+03 -0.13205641360E+02  0.12993483023E+03  0.00000000000E+00 0.  1.
         11    1    5    5    0    0  0.16580483391E+03 -0.11482055210E+03 -0.26170328195E+03  0.33039916755E+03  0.00000000000E+00 0.  1.
        -11    1    5    5    0    0 -0.10764053802E+01  0.86122158221E+01  0.87955335557E+00  0.87236760608E+01  0.00000000000E+00 0. -1.
          1    1    6    6  503    0 -0.26069123801E+02  0.11811137690E+03  0.99633566039E+02  0.15670591581E+03  0.00000000000E+00 0. -1.
         -1    1    6    6    0  503 -0.22237172309E+03  0.32780500054E+03  0.23095645839E+03  0.45852610316E+03  0.00000000000E+00 0.  1.
<mgrwt>
<rscale>  0 0.13097208E+04</rscale>
<asrwt>0</asrwt>
<pdfrwt beam="1">  1        1 0.11010783E+00 0.13097208E+04</pdfrwt>
<pdfrwt beam="2">  1       -2 0.92183366E-01 0.13097208E+04</pdfrwt>
<totfact> 0.22640638E+01</totfact>
</mgrwt>
</event>
<event>
12    4  0.4280696E-008  0.1830382E+04  0.7818608E-02  0.8690307E-01
         -2   -1    0    0    0  501 -0.00000000000E+00  0.00000000000E+00  0.87684441902E+03  0.87684441902E+03  0.00000000000E+00 0.  1.
          1   -1    0    0  501    0  0.00000000000E+00 -0.00000000000E+00 -0.95521490835E+03  0.95521490835E+03  0.00000000000E+00 0. -1.
        -24    2    1    2    0    0 -0.67072088662E+03  0.12176975951E+03 -0.15637973333E+03  0.70396918640E+03  0.80147441167E+02 0.  0.
        254    2    1    2    0    0  0.67072088662E+03 -0.12176975951E+03  0.78009243998E+02  0.11280901410E+04  0.89543706754E+03 0.  0.
         23    2    4    4    0    0  0.72576827986E+03  0.19683758899E+03  0.17645885046E+03  0.77773814232E+03  0.90852956077E+02 0.  0.
         23    2    4    4    0    0 -0.55047393238E+02 -0.31860734849E+03 -0.98449606459E+02  0.35035199865E+03  0.92267762141E+02 0.  0.
          3    1    3    3  502    0 -0.21267537430E+03  0.57276619309E+02 -0.84245007834E+02  0.23581485809E+03  0.00000000000E+00 0. -1.
         -4    1    3    3    0  502 -0.45804551232E+03  0.64493140198E+02 -0.72134725500E+02  0.46815432831E+03  0.00000000000E+00 0.  1.
         11    1    5    5    0    0  0.50934678842E+03  0.99163014010E+02  0.10148324004E+03  0.52874029752E+03  0.00000000000E+00 0.  1.
        -11    1    5    5    0    0  0.21642149144E+03  0.97674574978E+02  0.74975610420E+02  0.24899784479E+03  0.00000000000E+00 0. -1.
          4    1    6    6  503    0  0.95390189195E+01 -0.21165921159E+00  0.29974406475E+01  0.10001116538E+02  0.00000000000E+00 0. -1.
         -4    1    6    6    0  503 -0.64586412157E+02 -0.31839568928E+03 -0.10144704711E+03  0.34035088211E+03  0.00000000000E+00 0.  1.
<mgrwt>
<rscale>  0 0.18303823E+04</rscale>
<asrwt>0</asrwt>
<pdfrwt beam="1">  1        1 0.14695614E+00 0.18303823E+04</pdfrwt>
<pdfrwt beam="2">  1       -2 0.13489914E+00 0.18303823E+04</pdfrwt>
<totfact> 0.53523403E+00</totfact>
</mgrwt>
</event>
<event>
12    4  0.4280696E-008  0.1390433E+04  0.7818608E-02  0.8960773E-01
         -2   -1    0    0    0  501 -0.00000000000E+00  0.00000000000E+00  0.14930242360E+03  0.14930242360E+03  0.00000000000E+00 0.  1.
          1   -1    0    0  501    0  0.00000000000E+00 -0.00000000000E+00 -0.32372295556E+04  0.32372295556E+04  0.00000000000E+00 0. -1.
        -24    2    1    2    0    0 -0.32390936613E+03  0.22531130125E+03 -0.75200836262E+03  0.85293864638E+03  0.79405900832E+02 0.  0.
        254    2    1    2    0    0  0.32390936613E+03 -0.22531130125E+03 -0.23359187694E+04  0.25335933328E+04  0.89827402227E+03 0.  0.
         23    2    4    4    0    0 -0.16296807932E+03 -0.40928544537E+03 -0.11633220204E+04  0.12472919528E+04  0.91356015348E+02 0.  0.
         23    2    4    4    0    0  0.48687744545E+03  0.18397414412E+03 -0.11725967490E+04  0.12863013801E+04  0.93230746684E+02 0.  0.
          1    1    3    3  502    0 -0.60524222991E+01  0.25468293208E+02 -0.64053977381E+02  0.69196660273E+02  0.00000000000E+00 0. -1.
         -2    1    3    3    0  502 -0.31785694383E+03  0.19984300804E+03 -0.68795438524E+03  0.78374198610E+03  0.00000000000E+00 0.  1.
         11    1    5    5    0    0 -0.88172616335E+02 -0.11907022067E+03 -0.33066320268E+03  0.36234000790E+03  0.00000000000E+00 0. -1.
        -11    1    5    5    0    0 -0.74795462982E+02 -0.29021522470E+03 -0.83265881776E+03  0.88495194486E+03  0.00000000000E+00 0.  1.
          4    1    6    6  503    0  0.44382982181E+03  0.16308466298E+03 -0.11169404642E+04  0.12129045794E+04  0.00000000000E+00 0. -1.
         -4    1    6    6    0  503  0.43047623643E+02  0.20889481139E+02 -0.55656284707E+02  0.73396800686E+02  0.00000000000E+00 0.  1.
<mgrwt>
<rscale>  0 0.13904333E+04</rscale>
<asrwt>0</asrwt>
<pdfrwt beam="1">  1        1 0.49803534E+00 0.13904333E+04</pdfrwt>
<pdfrwt beam="2">  1       -2 0.22969603E-01 0.13904333E+04</pdfrwt>
<totfact> 0.57706705E+00</totfact>
</mgrwt>
</event>
<event>
12    4  0.4280696E-008  0.2587625E+04  0.7818608E-02  0.8372417E-01
         -2   -1    0    0    0  501 -0.00000000000E+00  0.00000000000E+00  0.10599598008E+04  0.10599598008E+04  0.00000000000E+00 0.  1.
          1   -1    0    0  501    0  0.00000000000E+00 -0.00000000000E+00 -0.15792586486E+04  0.15792586486E+04  0.00000000000E+00 0. -1.
        -24    2    1    2    0    0  0.55487067498E+03 -0.61985643290E+03 -0.10179264542E+04  0.13170710353E+04  0.79989891020E+02 0.  0.
        254    2    1    2    0    0 -0.55487067498E+03  0.61985643290E+03  0.49862760638E+03  0.13221474141E+04  0.89852146961E+03 0.  0.
         23    2    4    4    0    0 -0.68220778199E+03  0.69026209797E+03  0.57843608214E+03  0.11334601628E+04  0.90963827240E+02 0.  0.
         23    2    4    4    0    0  0.12733710701E+03 -0.70405665068E+02 -0.79808475756E+02  0.18868725127E+03  0.89787468463E+02 0.  0.
          3    1    3    3  502    0  0.53465822908E+03 -0.61360758251E+03 -0.10000799739E+04  0.12893927413E+04  0.00000000000E+00 0. -1.
         -4    1    3    3    0  502  0.20212445897E+02 -0.62488503900E+01 -0.17846480283E+02  0.27678294001E+02  0.00000000000E+00 0.  1.
         11    1    5    5    0    0 -0.15018098875E+03  0.20672082727E+03  0.13928345971E+03  0.29101153234E+03  0.00000000000E+00 0.  1.
        -11    1    5    5    0    0 -0.53202679324E+03  0.48354127071E+03  0.43915262242E+03  0.84244863047E+03  0.00000000000E+00 0. -1.
          1    1    6    6  503    0  0.12013937364E+03 -0.22913174713E+02 -0.49837119118E+02  0.13206900134E+03  0.00000000000E+00 0. -1.
         -1    1    6    6    0  503  0.71977333711E+01 -0.47492490355E+02 -0.29971356637E+02  0.56618249924E+02  0.00000000000E+00 0.  1.
<mgrwt>
<rscale>  0 0.25876249E+04</rscale>
<asrwt>0</asrwt>
<pdfrwt beam="1">  1        1 0.24296287E+00 0.25876249E+04</pdfrwt>
<pdfrwt beam="2">  1       -2 0.16307074E+00 0.25876249E+04</pdfrwt>
<totfact> 0.10678400E+00</totfact>
</mgrwt>
</event>
<event>
12    4  0.4280696E-008  0.1759554E+04  0.7818608E-02  0.8728109E-01
          1   -1    0    0  501    0  0.00000000000E+00  0.00000000000E+00  0.23202947548E+03  0.23202947548E+03  0.00000000000E+00 0. -1.
         -2   -1    0    0    0  501 -0.00000000000E+00 -0.00000000000E+00 -0.33358150406E+04  0.33358150406E+04  0.00000000000E+00 0.  1.
        -24    2    1    2    0    0  0.23842453998E+03 -0.40302268178E+03 -0.20520171888E+04  0.21062525129E+04  0.79066816389E+02 0.  0.
        254    2    1    2    0    0 -0.23842453998E+03  0.40302268178E+03 -0.10517683763E+04  0.14615920032E+04  0.90042263588E+03 0.  0.
         23    2    4    4    0    0 -0.40693838003E+03  0.17299915425E+03 -0.10700972275E+04  0.11615411299E+04  0.92423848041E+02 0.  0.
         23    2    4    4    0    0  0.16851384004E+03  0.23002352753E+03  0.18328851174E+02  0.30005087332E+03  0.91579704585E+02 0.  0.
          3    1    3    3  502    0  0.12152167107E+03 -0.13163129135E+03 -0.74183029932E+03  0.76315562397E+03  0.00000000000E+00 0. -1.
         -4    1    3    3    0  502  0.11690286892E+03 -0.27139139044E+03 -0.13101868895E+04  0.13430968889E+04  0.00000000000E+00 0.  1.
         11    1    5    5    0    0 -0.15178751715E+03  0.10089208631E+03 -0.35890329977E+03  0.40252980266E+03  0.00000000000E+00 0. -1.
        -11    1    5    5    0    0 -0.25515086288E+03  0.72107067939E+02 -0.71119392772E+03  0.75901132725E+03  0.00000000000E+00 0.  1.
          4    1    6    6  503    0  0.11271323274E+03  0.19127955986E+03 -0.18481717668E+02  0.22278625797E+03  0.00000000000E+00 0.  1.
         -4    1    6    6    0  503  0.55800607304E+02  0.38743967676E+02  0.36810568842E+02  0.77264615350E+02  0.00000000000E+00 0. -1.
<mgrwt>
<rscale>  0 0.17595538E+04</rscale>
<asrwt>0</asrwt>
<pdfrwt beam="1">  1        1 0.35696842E-01 0.17595538E+04</pdfrwt>
<pdfrwt beam="2">  1       -2 0.51320231E+00 0.17595538E+04</pdfrwt>
<totfact> 0.13835625E-01</totfact>
</mgrwt>
</event>
<event>
12    4  0.4280696E-008  0.1839629E+04  0.7818608E-02  0.8685505E-01
         -2   -1    0    0    0  501 -0.00000000000E+00  0.00000000000E+00  0.16671210448E+03  0.16671210448E+03  0.00000000000E+00 0.  1.
          1   -1    0    0  501    0  0.00000000000E+00 -0.00000000000E+00 -0.50749688009E+04  0.50749688009E+04  0.00000000000E+00 0. -1.
        -24    2    1    2    0    0  0.56888585169E+03  0.80684524141E+02 -0.78399270053E+03  0.97544329594E+03  0.81877740678E+02 0.  0.
        254    2    1    2    0    0 -0.56888585169E+03 -0.80684524141E+02 -0.41242639959E+04  0.42662376094E+04  0.92794866653E+03 0.  0.
         23    2    4    4    0    0  0.21957955635E+03 -0.15113111704E+03 -0.13967060613E+04  0.14246626042E+04  0.88430300832E+02 0.  0.
         23    2    4    4    0    0 -0.78846540804E+03  0.70446592901E+02 -0.27275579346E+04  0.28415750052E+04  0.91300611118E+02 0.  0.
          1    1    3    3  502    0  0.15094039541E+03 -0.12100824300E+02 -0.18235314550E+03  0.23702764098E+03  0.00000000000E+00 0. -1.
         -2    1    3    3    0  502  0.41794545629E+03  0.92785348442E+02 -0.60163955502E+03  0.73841565496E+03  0.00000000000E+00 0.  1.
         11    1    5    5    0    0  0.15338712464E+02 -0.34175868130E+02 -0.10032835022E+03  0.10709362222E+03  0.00000000000E+00 0. -1.
        -11    1    5    5    0    0  0.20424084388E+03 -0.11695524891E+03 -0.12963777111E+04  0.13175689820E+04  0.00000000000E+00 0.  1.
          1    1    6    6  503    0 -0.33139749797E+03  0.63613656951E+02 -0.12659060009E+04  0.13101103015E+04  0.00000000000E+00 0. -1.
         -1    1    6    6    0  503 -0.45706791007E+03  0.68329359498E+01 -0.14616519337E+04  0.15314647037E+04  0.00000000000E+00 0.  1.
<mgrwt>
<rscale>  0 0.18396290E+04</rscale>
<asrwt>0</asrwt>
<pdfrwt beam="1">  1        1 0.78076429E+00 0.18396290E+04</pdfrwt>
<pdfrwt beam="2">  1       -2 0.25648021E-01 0.18396290E+04</pdfrwt>
<totfact> 0.80295255E-02</totfact>
</mgrwt>
</event>
<event>
12    4  0.4280696E-008  0.2103154E+04  0.7818608E-02  0.8559855E-01
          1   -1    0    0  501    0  0.00000000000E+00  0.00000000000E+00  0.20348995217E+04  0.20348995217E+04  0.00000000000E+00 0. -1.
         -2   -1    0    0    0  501 -0.00000000000E+00 -0.00000000000E+00 -0.54342424395E+03  0.54342424395E+03  0.00000000000E+00 0.  1.
        -24    2    1    2    0    0 -0.78064631426E+03  0.26005249904E+03  0.92901836339E+03  0.12435118518E+04  0.78807587669E+02 0.  0.
        254    2    1    2    0    0  0.78064631426E+03 -0.26005249904E+03  0.56245691440E+03  0.13348119139E+04  0.88787898648E+03 0.  0.
         23    2    4    4    0    0  0.86435843730E+03 -0.15879602857E+03  0.15470316426E+03  0.89687081762E+03  0.90069460068E+02 0.  0.
         23    2    4    4    0    0 -0.83712123043E+02 -0.10125647046E+03  0.40775375014E+03  0.43794109625E+03  0.90932341226E+02 0.  0.
          1    1    3    3  502    0 -0.77781599369E+03  0.25348982309E+03  0.92637784122E+03  0.12358926795E+04  0.00000000000E+00 0. -1.
         -2    1    3    3    0  502 -0.28303205731E+01  0.65626759411E+01  0.26405221717E+01  0.76191723562E+01  0.00000000000E+00 0.  1.
         11    1    5    5    0    0  0.73968936157E+02 -0.36733318191E+02  0.16869809625E+01  0.82605000371E+02  0.00000000000E+00 0. -1.
        -11    1    5    5    0    0  0.79038950115E+03 -0.12206271038E+03  0.15301618330E+03  0.81426581725E+03  0.00000000000E+00 0.  1.
          1    1    6    6  503    0 -0.33220754231E+02 -0.10403265511E+03  0.27742925024E+03  0.29814996349E+03  0.00000000000E+00 0. -1.
         -1    1    6    6    0  503 -0.50491368812E+02  0.27761846439E+01  0.13032449990E+03  0.13979113277E+03  0.00000000000E+00 0.  1.
<mgrwt>
<rscale>  0 0.21031536E+04</rscale>
<asrwt>0</asrwt>
<pdfrwt beam="1">  1        1 0.31306146E+00 0.21031536E+04</pdfrwt>
<pdfrwt beam="2">  1       -2 0.83603731E-01 0.21031536E+04</pdfrwt>
<totfact> 0.28510686E+00</totfact>
</mgrwt>
</event>
<event>
12    4  0.4280696E-008  0.1485340E+04  0.7818608E-02  0.8894261E-01
          1   -1    0    0  501    0  0.00000000000E+00  0.00000000000E+00  0.51866190502E+03  0.51866190502E+03  0.00000000000E+00 0. -1.
         -2   -1    0    0    0  501 -0.00000000000E+00 -0.00000000000E+00 -0.10634260738E+04  0.10634260738E+04  0.00000000000E+00 0.  1.
        -24    2    1    2    0    0 -0.30881121785E+03  0.26298596310E+03  0.64092334122E+02  0.41801290402E+03  0.78108741980E+02 0.  0.
        254    2    1    2    0    0  0.30881121785E+03 -0.26298596310E+03 -0.60885650295E+03  0.11640750748E+04  0.90544936559E+03 0.  0.
         23    2    4    4    0    0  0.45746531536E+03 -0.25844793762E+03 -0.76348160344E+03  0.93114215807E+03  0.89731313037E+02 0.  0.
         23    2    4    4    0    0 -0.14865409751E+03 -0.45380254821E+01  0.15462510049E+03  0.23293291677E+03  0.90720381567E+02 0.  0.
          1    1    3    3  502    0 -0.25932447743E+03  0.19235996657E+03  0.73870163044E+02  0.33122249670E+03  0.00000000000E+00 0. -1.
         -2    1    3    3    0  502 -0.49486740419E+02  0.70625996536E+02 -0.97778289216E+01  0.86790407318E+02  0.00000000000E+00 0.  1.
         11    1    5    5    0    0  0.25325978811E+03 -0.19355070276E+03 -0.45928233351E+03  0.55905514637E+03  0.00000000000E+00 0.  1.
        -11    1    5    5    0    0  0.20420552725E+03 -0.64897234858E+02 -0.30419926993E+03  0.37208701170E+03  0.00000000000E+00 0. -1.
          3    1    6    6  503    0 -0.44709465966E+02 -0.36222697775E+02  0.89020408784E+02  0.10599836490E+03  0.00000000000E+00 0. -1.
         -3    1    6    6    0  503 -0.10394463155E+03  0.31684672293E+02  0.65604691708E+02  0.12693455187E+03  0.00000000000E+00 0.  1.
<mgrwt>
<rscale>  0 0.14853398E+04</rscale>
<asrwt>0</asrwt>
<pdfrwt beam="1">  1        1 0.79794140E-01 0.14853398E+04</pdfrwt>
<pdfrwt beam="2">  1       -2 0.16360401E+00 0.14853398E+04</pdfrwt>
<totfact> 0.84489218E+00</totfact>
</mgrwt>
</event>
<event>
12    4  0.4280696E-008  0.2383412E+04  0.7818608E-02  0.8445740E-01
         -2   -1    0    0    0  501 -0.00000000000E+00  0.00000000000E+00  0.16469907766E+04  0.16469907766E+04  0.00000000000E+00 0.  1.
          1   -1    0    0  501    0  0.00000000000E+00 -0.00000000000E+00 -0.86227771137E+03  0.86227771137E+03  0.00000000000E+00 0. -1.
        -24    2    1    2    0    0 -0.54928707059E+03 -0.49492470843E+03  0.10755185849E+04  0.13076976604E+04  0.81646748828E+02 0.  0.
        254    2    1    2    0    0  0.54928707059E+03  0.49492470843E+03 -0.29080551974E+03  0.12015708275E+04  0.90140881418E+03 0.  0.
         23    2    4    4    0    0 -0.19905531273E+00  0.59269088785E+03 -0.12746830189E+03  0.61300644696E+03  0.90808633191E+02 0.  0.
         23    2    4    4    0    0  0.54948612591E+03 -0.97766179418E+02 -0.16333721785E+03  0.58856438055E+03  0.90751060152E+02 0.  0.
          1    1    3    3  502    0 -0.10642926497E+03 -0.78088904010E+02  0.24517380073E+03  0.27845153607E+03  0.00000000000E+00 0. -1.
         -2    1    3    3    0  502 -0.44285780562E+03 -0.41683580442E+03  0.83034478419E+03  0.10292461243E+04  0.00000000000E+00 0.  1.
         11    1    5    5    0    0 -0.32372882582E+02  0.44794346597E+03 -0.11836278948E+03  0.46444709296E+03  0.00000000000E+00 0.  1.
        -11    1    5    5    0    0  0.32173827269E+02  0.14474742188E+03 -0.91055124101E+01  0.14855935399E+03  0.00000000000E+00 0. -1.
          2    1    6    6  503    0  0.14272378662E+03 -0.66562991652E+02 -0.46709016909E+02  0.16426333549E+03  0.00000000000E+00 0. -1.
         -2    1    6    6    0  503  0.40676233929E+03 -0.31203187765E+02 -0.11662820094E+03  0.42430104507E+03  0.00000000000E+00 0.  1.
<mgrwt>
<rscale>  0 0.23834122E+04</rscale>
<asrwt>0</asrwt>
<pdfrwt beam="1">  1        1 0.13265811E+00 0.23834122E+04</pdfrwt>
<pdfrwt beam="2">  1       -2 0.25338320E+00 0.23834122E+04</pdfrwt>
<totfact> 0.94243722E-01</totfact>
</mgrwt>
</event>
<event>
12    4  0.4280696E-008  0.2404558E+04  0.7818608E-02  0.8437799E-01
          1   -1    0    0  501    0  0.00000000000E+00  0.00000000000E+00  0.10942810004E+04  0.10942810004E+04  0.00000000000E+00 0. -1.
         -2   -1    0    0    0  501 -0.00000000000E+00 -0.00000000000E+00 -0.13209358133E+04  0.13209358133E+04  0.00000000000E+00 0.  1.
        -24    2    1    2    0    0 -0.40453748524E+03  0.28057624902E+03  0.81109273131E+03  0.95193770282E+03  0.77073749005E+02 0.  0.
        254    2    1    2    0    0  0.40453748524E+03 -0.28057624902E+03 -0.10377475442E+04  0.14632791108E+04  0.90658269459E+03 0.  0.
         23    2    4    4    0    0  0.63900531634E+02  0.25418239846E+03 -0.66917530594E+03  0.72443374233E+03  0.91195873370E+02 0.  0.
         23    2    4    4    0    0  0.34063695361E+03 -0.53475864748E+03 -0.36857223830E+03  0.73884536850E+03  0.89703057302E+02 0.  0.
          1    1    3    3  502    0 -0.32082324784E+03  0.24988288662E+03  0.62600319335E+03  0.74649113288E+03  0.00000000000E+00 0. -1.
         -2    1    3    3    0  502 -0.83714237404E+02  0.30693362406E+02  0.18508953796E+03  0.20544656995E+03  0.00000000000E+00 0.  1.
         11    1    5    5    0    0  0.74388996028E+02  0.16043942050E+03 -0.35836422244E+03  0.39962413129E+03  0.00000000000E+00 0. -1.
        -11    1    5    5    0    0 -0.10488464394E+02  0.93742977955E+02 -0.31081108349E+03  0.32480961104E+03  0.00000000000E+00 0.  1.
          3    1    6    6  503    0  0.93273513441E+02 -0.22258327332E+03 -0.15606842925E+03  0.28740322976E+03  0.00000000000E+00 0. -1.
         -3    1    6    6    0  503  0.24736344017E+03 -0.31217537416E+03 -0.21250380905E+03  0.45144213874E+03  0.00000000000E+00 0.  1.
<mgrwt>
<rscale>  0 0.24045581E+04</rscale>
<asrwt>0</asrwt>
<pdfrwt beam="1">  1        1 0.16835092E+00 0.24045581E+04</pdfrwt>
<pdfrwt beam="2">  1       -2 0.20322089E+00 0.24045581E+04</pdfrwt>
<totfact> 0.12746427E+00</totfact>
</mgrwt>
</event>
<event>
12    4  0.4280696E-008  0.1977998E+04  0.7818608E-02  0.8616977E-01
          1   -1    0    0  501    0  0.00000000000E+00  0.00000000000E+00  0.12845374780E+04  0.12845374780E+04  0.00000000000E+00 0. -1.
         -2   -1    0    0    0  501 -0.00000000000E+00 -0.00000000000E+00 -0.76145620854E+03  0.76145620854E+03  0.00000000000E+00 0.  1.
        -24    2    1    2    0    0  0.75182362464E+03  0.17592875623E+03  0.31286113643E+03  0.83670904234E+03  0.77525744174E+02 0.  0.
        254    2    1    2    0    0 -0.75182362464E+03 -0.17592875623E+03  0.21022013304E+03  0.12092846442E+04  0.90663507352E+03 0.  0.
         23    2    4    4    0    0 -0.86469327271E+03 -0.19608488222E+03 -0.68908807753E+02  0.89405291749E+03  0.91861083068E+02 0.  0.
         23    2    4    4    0    0  0.11286964807E+03  0.20156125983E+02  0.27912894079E+03  0.31523172672E+03  0.91171536524E+02 0.  0.
          3    1    3    3  502    0  0.10828785071E+03  0.48768165732E+02  0.31023831604E+02  0.12274799684E+03  0.00000000000E+00 0. -1.
         -4    1    3    3    0  502  0.64353577393E+03  0.12716059050E+03  0.28183730483E+03  0.71396104550E+03  0.00000000000E+00 0.  1.
         11    1    5    5    0    0 -0.27844019663E+03 -0.77345252490E+02  0.18348564158E+02  0.28956502031E+03  0.00000000000E+00 0.  1.
        -11    1    5    5    0    0 -0.58625307608E+03 -0.11873962973E+03 -0.87257371911E+02  0.60448789718E+03  0.00000000000E+00 0. -1.
          3    1    6    6  503    0  0.20357423279E+02 -0.22715246370E+02  0.13673586652E+03  0.14009676761E+03  0.00000000000E+00 0. -1.
         -3    1    6    6    0  503  0.92512224789E+02  0.42871372353E+02  0.14239307427E+03  0.17513495911E+03  0.00000000000E+00 0.  1.
<mgrwt>
<rscale>  0 0.19779980E+04</rscale>
<asrwt>0</asrwt>
<pdfrwt beam="1">  1        1 0.19762115E+00 0.19779980E+04</pdfrwt>
<pdfrwt beam="2">  1       -2 0.11714711E+00 0.19779980E+04</pdfrwt>
<totfact> 0.42642386E+00</totfact>
</mgrwt>
</event>
<event>
12    4  0.4280696E-008  0.1406038E+04  0.7818608E-02  0.8949459E-01
          1   -1    0    0  501    0  0.00000000000E+00  0.00000000000E+00  0.44454932745E+04  0.44454932745E+04  0.00000000000E+00 0. -1.
         -2   -1    0    0    0  501 -0.00000000000E+00 -0.00000000000E+00 -0.11117680843E+03  0.11117680843E+03  0.00000000000E+00 0.  1.
        -24    2    1    2    0    0  0.21309026019E+03  0.95955457876E+02  0.19135641475E+03  0.31253800688E+03  0.80298314984E+02 0.  0.
        254    2    1    2    0    0 -0.21309026019E+03 -0.95955457876E+02  0.41429600513E+04  0.42441320761E+04  0.89102423269E+03 0.  0.
         23    2    4    4    0    0 -0.44627092763E+03  0.17975984862E+03  0.15770030139E+04  0.16512175262E+04  0.90052590435E+02 0.  0.
         23    2    4    4    0    0  0.23318066744E+03 -0.27571530650E+03  0.25659570374E+04  0.25929145498E+04  0.93156808120E+02 0.  0.
          1    1    3    3  502    0  0.59853125136E+02  0.66733266871E+02  0.53754928154E+02  0.10452424502E+03  0.00000000000E+00 0. -1.
         -2    1    3    3    0  502  0.15323713506E+03  0.29222191005E+02  0.13760148660E+03  0.20801376186E+03  0.00000000000E+00 0.  1.
         11    1    5    5    0    0 -0.31448199480E+03  0.10716042074E+03  0.95023486190E+03  0.10066422272E+04  0.00000000000E+00 0.  1.
        -11    1    5    5    0    0 -0.13178893284E+03  0.72599427877E+02  0.62676815200E+03  0.64457529902E+03  0.00000000000E+00 0. -1.
          2    1    6    6  503    0  0.11558151262E+03 -0.14697323502E+03  0.16453576274E+04  0.16559474448E+04  0.00000000000E+00 0.  1.
         -2    1    6    6    0  503  0.11759915482E+03 -0.12874207147E+03  0.92059941007E+03  0.93696710508E+03  0.00000000000E+00 0. -1.
<mgrwt>
<rscale>  0 0.14060381E+04</rscale>
<asrwt>0</asrwt>
<pdfrwt beam="1">  1        1 0.68392191E+00 0.14060381E+04</pdfrwt>
<pdfrwt beam="2">  1       -2 0.17104128E-01 0.14060381E+04</pdfrwt>
<totfact> 0.90916356E-01</totfact>
</mgrwt>
</event>
<event>
12    4  0.4280696E-008  0.3116437E+04  0.7818608E-02  0.8211241E-01
         -2   -1    0    0    0  501 -0.00000000000E+00  0.00000000000E+00  0.78897990837E+03  0.78897990837E+03  0.00000000000E+00 0.  1.
          1   -1    0    0  501    0  0.00000000000E+00 -0.00000000000E+00 -0.30774483564E+04  0.30774483564E+04  0.00000000000E+00 0. -1.
        -24    2    1    2    0    0  0.56238414487E+03  0.48813118666E+03 -0.25761409507E+04  0.26828055937E+04  0.79972958607E+02 0.  0.
        254    2    1    2    0    0 -0.56238414487E+03 -0.48813118666E+03  0.28767250266E+03  0.11836226710E+04  0.87387595047E+03 0.  0.
         23    2    4    4    0    0 -0.47892808338E+03 -0.64771015963E+03  0.44664974231E+03  0.92571997628E+03  0.92525251946E+02 0.  0.
         23    2    4    4    0    0 -0.83456061491E+02  0.15957897296E+03 -0.15897723965E+03  0.25790269476E+03  0.93859865878E+02 0.  0.
          3    1    3    3  502    0  0.33929489916E+03  0.34413925490E+03 -0.16894647037E+04  0.17572261780E+04  0.00000000000E+00 0. -1.
         -4    1    3    3    0  502  0.22308924572E+03  0.14399193176E+03 -0.88667624697E+03  0.92557941578E+03  0.00000000000E+00 0.  1.
         11    1    5    5    0    0 -0.50801281160E+02 -0.10571223395E+03  0.38473645366E+02  0.12343446829E+03  0.00000000000E+00 0.  1.
        -11    1    5    5    0    0 -0.42812680222E+03 -0.54199792567E+03  0.40817609694E+03  0.80228550799E+03  0.00000000000E+00 0. -1.
          4    1    6    6  503    0 -0.47315255354E+02  0.25874351986E+02 -0.85579018307E+02  0.10115326912E+03  0.00000000000E+00 0.  1.
         -4    1    6    6    0  503 -0.36140806136E+02  0.13370462098E+03 -0.73398221345E+02  0.15674942563E+03  0.00000000000E+00 0. -1.
<mgrwt>
<rscale>  0 0.31164370E+04</rscale>
<asrwt>0</asrwt>
<pdfrwt beam="1">  1        1 0.47345361E+00 0.31164370E+04</pdfrwt>
<pdfrwt beam="2">  1       -2 0.12138152E+00 0.31164370E+04</pdfrwt>
<totfact> 0.20057784E-01</totfact>
</mgrwt>
</event>
<event>
12    4  0.4280696E-008  0.1166013E+04  0.7818608E-02  0.9143137E-01
         -2   -1    0    0    0  501 -0.00000000000E+00  0.00000000000E+00  0.41875350789E+03  0.41875350789E+03  0.00000000000E+00 0.  1.
          1   -1    0    0  501    0  0.00000000000E+00 -0.00000000000E+00 -0.81168631992E+03  0.81168631992E+03  0.00000000000E+00 0. -1.
        -24    2    1    2    0    0 -0.51692447778E+02  0.36098968884E+02  0.10564769105E+03  0.14687232569E+03  0.80217209610E+02 0.  0.
        254    2    1    2    0    0  0.51692447778E+02 -0.36098968884E+02 -0.49858050307E+03  0.10835675021E+04  0.95997956692E+03 0.  0.
         23    2    4    4    0    0  0.17529792547E+03  0.37127715344E+03 -0.49321807730E+03  0.64816246267E+03  0.90963832913E+02 0.  0.
         23    2    4    4    0    0 -0.12360547769E+03 -0.40737612232E+03 -0.53624257712E+01  0.43540503946E+03  0.91187573851E+02 0.  0.
          3    1    3    3  502    0  0.11276263092E+02  0.37127937077E+02  0.35347593468E+02  0.52488952979E+02  0.00000000000E+00 0. -1.
         -4    1    3    3    0  502 -0.62968710871E+02 -0.10289681925E+01  0.70300097578E+02  0.94383372708E+02  0.00000000000E+00 0.  1.
         11    1    5    5    0    0 -0.56789122564E+01  0.54845247030E+02 -0.79647170366E+02  0.96870650423E+02  0.00000000000E+00 0.  1.
        -11    1    5    5    0    0  0.18097683772E+03  0.31643190641E+03 -0.41357090694E+03  0.55129181224E+03  0.00000000000E+00 0. -1.
          3    1    6    6  503    0 -0.50709307478E+02 -0.19546750832E+03  0.42240634390E+02  0.20630863255E+03  0.00000000000E+00 0. -1.
         -3    1    6    6    0  503 -0.72896170211E+02 -0.21190861400E+03 -0.47603060161E+02  0.22909640690E+03  0.00000000000E+00 0.  1.
<mgrwt>
<rscale>  0 0.11660129E+04</rscale>
<asrwt>0</asrwt>
<pdfrwt beam="1">  1        1 0.12487482E+00 0.11660129E+04</pdfrwt>
<pdfrwt beam="2">  1       -2 0.64423617E-01 0.11660129E+04</pdfrwt>
<totfact> 0.41787136E+01</totfact>
</mgrwt>
</event>
<event>
12    4  0.4280696E-008  0.1195929E+04  0.7818608E-02  0.9116427E-01
          1   -1    0    0  501    0  0.00000000000E+00  0.00000000000E+00  0.18717487546E+04  0.18717487546E+04  0.00000000000E+00 0. -1.
         -2   -1    0    0    0  501 -0.00000000000E+00 -0.00000000000E+00 -0.19103080060E+03  0.19103080060E+03  0.00000000000E+00 0.  1.
        -24    2    1    2    0    0 -0.26062764880E+02  0.19854651401E+03  0.81593574075E+02  0.23005962637E+03  0.78548930092E+02 0.  0.
        254    2    1    2    0    0  0.26062764880E+02 -0.19854651401E+03  0.15991243799E+04  0.18327199288E+04  0.87267609635E+03 0.  0.
         23    2    4    4    0    0  0.17915580845E+03  0.26758378221E+03  0.33427104809E+03  0.47288882785E+03  0.90492130683E+02 0.  0.
         23    2    4    4    0    0 -0.15309304357E+03 -0.46613029622E+03  0.12648533318E+04  0.13598311010E+04  0.92583686994E+02 0.  0.
          1    1    3    3  502    0 -0.50514497488E+02  0.16470694882E+03  0.74563024652E+02  0.18772250289E+03  0.00000000000E+00 0. -1.
         -2    1    3    3    0  502  0.24451732608E+02  0.33839565194E+02  0.70305494228E+01  0.42337123488E+02  0.00000000000E+00 0.  1.
         11    1    5    5    0    0  0.18416672016E+03  0.26507247645E+03  0.33701560310E+03  0.46664795651E+03  0.00000000000E+00 0. -1.
        -11    1    5    5    0    0 -0.50109117119E+01  0.25113057576E+01 -0.27445550151E+01  0.62408713352E+01  0.00000000000E+00 0.  1.
          1    1    6    6  503    0 -0.67925229450E+02 -0.26624529996E+03  0.81880242094E+03  0.86367690781E+03  0.00000000000E+00 0. -1.
         -1    1    6    6    0  503 -0.85167814118E+02 -0.19988499625E+03  0.44605091089E+03  0.49615419317E+03  0.00000000000E+00 0.  1.
<mgrwt>
<rscale>  0 0.11959292E+04</rscale>
<asrwt>0</asrwt>
<pdfrwt beam="1">  1        1 0.28796134E+00 0.11959292E+04</pdfrwt>
<pdfrwt beam="2">  1       -2 0.29389355E-01 0.11959292E+04</pdfrwt>
<totfact> 0.33758093E+01</totfact>
</mgrwt>
</event>
<event>
12    4  0.4280696E-008  0.1755205E+04  0.7818608E-02  0.8730491E-01
         -2   -1    0    0    0  501 -0.00000000000E+00  0.00000000000E+00  0.12666010383E+04  0.12666010383E+04  0.00000000000E+00 0.  1.
          1   -1    0    0  501    0  0.00000000000E+00 -0.00000000000E+00 -0.60807304597E+03  0.60807304597E+03  0.00000000000E+00 0. -1.
        -24    2    1    2    0    0  0.11811482550E+03 -0.74564682049E+02 -0.42489484371E+03  0.45457215074E+03  0.81173937984E+02 0.  0.
        254    2    1    2    0    0 -0.11811482550E+03  0.74564682049E+02  0.10834228361E+04  0.14201019336E+04  0.90739928156E+03 0.  0.
         23    2    4    4    0    0  0.47419594777E+01 -0.34137004057E+03  0.14292884768E+03  0.38038347693E+03  0.87789197770E+02 0.  0.
         23    2    4    4    0    0 -0.12285678498E+03  0.41593472262E+03  0.94049398838E+03  0.10397184566E+04  0.91597182073E+02 0.  0.
          3    1    3    3  502    0  0.10188622701E+03 -0.54131630607E+02 -0.40673393348E+03  0.42278071069E+03  0.00000000000E+00 0. -1.
         -4    1    3    3    0  502  0.16228598493E+02 -0.20433051443E+02 -0.18160910227E+02  0.31791440052E+02  0.00000000000E+00 0.  1.
         11    1    5    5    0    0  0.13667078979E+02 -0.29397523610E+03  0.87744988595E+02  0.30709511802E+03  0.00000000000E+00 0. -1.
        -11    1    5    5    0    0 -0.89251195016E+01 -0.47394804476E+02  0.55183859084E+02  0.73288358918E+02  0.00000000000E+00 0.  1.
          2    1    6    6  503    0 -0.13428329827E+02  0.14893541046E+03  0.39969227984E+03  0.42675050685E+03  0.00000000000E+00 0. -1.
         -2    1    6    6    0  503 -0.10942845515E+03  0.26699931216E+03  0.54080170854E+03  0.61296794978E+03  0.00000000000E+00 0.  1.
<mgrwt>
<rscale>  0 0.17552048E+04</rscale>
<asrwt>0</asrwt>
<pdfrwt beam="1">  1        1 0.93549700E-01 0.17552048E+04</pdfrwt>
<pdfrwt beam="2">  1       -2 0.19486170E+00 0.17552048E+04</pdfrwt>
<totfact> 0.40024693E+00</totfact>
</mgrwt>
</event>
<event>
12    4  0.4280696E-008  0.2256258E+04  0.7818608E-02  0.8495371E-01
          1   -1    0    0  501    0  0.00000000000E+00  0.00000000000E+00  0.16290111602E+04  0.16290111602E+04  0.00000000000E+00 0. -1.
         -2   -1    0    0    0  501 -0.00000000000E+00 -0.00000000000E+00 -0.78125602592E+03  0.78125602592E+03  0.00000000000E+00 0.  1.
        -24    2    1    2    0    0  0.96405655510E+02 -0.25806335751E+02 -0.64718613494E+03  0.65975129590E+03  0.80385706487E+02 0.  0.
        254    2    1    2    0    0 -0.96405655510E+02  0.25806335751E+02  0.14949412693E+04  0.17505158903E+04  0.90526044106E+03 0.  0.
         23    2    4    4    0    0  0.22953200864E+02  0.41511222629E+03  0.42968644864E+03  0.60673328990E+03  0.10319801880E+03 0.  0.
         23    2    4    4    0    0 -0.11935885637E+03 -0.38930589054E+03  0.10652548206E+04  0.11437826004E+04  0.87551076760E+02 0.  0.
          1    1    3    3  502    0 -0.23316420045E+01  0.11587051410E+02 -0.19683133733E+03  0.19718588101E+03  0.00000000000E+00 0. -1.
         -2    1    3    3    0  502  0.98737297515E+02 -0.37393387162E+02 -0.45035479761E+03  0.46256541489E+03  0.00000000000E+00 0.  1.
         11    1    5    5    0    0  0.54748847762E+02  0.24996371792E+03  0.21646108688E+03  0.33516368947E+03  0.00000000000E+00 0. -1.
        -11    1    5    5    0    0 -0.31795646898E+02  0.16514850836E+03  0.21322536176E+03  0.27156960042E+03  0.00000000000E+00 0.  1.
          4    1    6    6  503    0 -0.11169910591E+02  0.11289866868E+01  0.33560070930E+02  0.35388131829E+02  0.00000000000E+00 0. -1.
         -4    1    6    6    0  503 -0.10818894578E+03 -0.39043487722E+03  0.10316947497E+04  0.11083944685E+04  0.00000000000E+00 0.  1.
<mgrwt>
<rscale>  0 0.22562578E+04</rscale>
<asrwt>0</asrwt>
<pdfrwt beam="1">  1        1 0.25061710E+00 0.22562578E+04</pdfrwt>
<pdfrwt beam="2">  1       -2 0.12019324E+00 0.22562578E+04</pdfrwt>
<totfact> 0.22459185E+00</totfact>
</mgrwt>
</event>
<event>
12    4  0.4280696E-008  0.1546770E+04  0.7818608E-02  0.8853934E-01
          1   -1    0    0  501    0  0.00000000000E+00  0.00000000000E+00  0.35171890817E+04  0.35171890817E+04  0.00000000000E+00 0. -1.
         -2   -1    0    0    0  501 -0.00000000000E+00 -0.00000000000E+00 -0.17005747352E+03  0.17005747352E+03  0.00000000000E+00 0.  1.
        -24    2    1    2    0    0  0.17096546384E+03  0.10854638331E+03  0.24778010233E+04  0.24873588172E+04  0.80277441542E+02 0.  0.
        254    2    1    2    0    0 -0.17096546384E+03 -0.10854638331E+03  0.86933058487E+03  0.11998877379E+04  0.80186246371E+03 0.  0.
         23    2    4    4    0    0 -0.11722777231E+03 -0.44190598779E+03  0.59928538769E+03  0.75837168716E+03  0.83434928761E+02 0.  0.
         23    2    4    4    0    0 -0.53737691532E+02  0.33335960448E+03  0.27004519717E+03  0.44151605078E+03  0.89418394024E+02 0.  0.
          3    1    3    3  502    0  0.16687395141E+03  0.10142656177E+03  0.20051880475E+04  0.20146745069E+04  0.00000000000E+00 0. -1.
         -4    1    3    3    0  502  0.40915124303E+01  0.71198215398E+01  0.47261297577E+03  0.47268431030E+03  0.00000000000E+00 0.  1.
         11    1    5    5    0    0 -0.30235484226E+02 -0.28334466090E+02  0.42480195074E+02  0.59343015162E+02  0.00000000000E+00 0. -1.
        -11    1    5    5    0    0 -0.86992288084E+02 -0.41357152170E+03  0.55680519262E+03  0.69902867200E+03  0.00000000000E+00 0.  1.
          2    1    6    6  503    0 -0.41559208105E+02  0.29650898619E+03  0.19582210530E+03  0.35775835922E+03  0.00000000000E+00 0.  1.
         -2    1    6    6    0  503 -0.12178483427E+02  0.36850618281E+02  0.74223091878E+02  0.83757691552E+02  0.00000000000E+00 0. -1.
<mgrwt>
<rscale>  0 0.15467699E+04</rscale>
<asrwt>0</asrwt>
<pdfrwt beam="1">  1        1 0.54110596E+00 0.15467699E+04</pdfrwt>
<pdfrwt beam="2">  1       -2 0.26162691E-01 0.15467699E+04</pdfrwt>
<totfact> 0.27366006E+00</totfact>
</mgrwt>
</event>
<event>
12    4  0.4280696E-008  0.1382166E+04  0.7818608E-02  0.8966830E-01
         -2   -1    0    0    0  501 -0.00000000000E+00  0.00000000000E+00  0.39310549511E+03  0.39310549511E+03  0.00000000000E+00 0.  1.
          1   -1    0    0  501    0  0.00000000000E+00 -0.00000000000E+00 -0.12149301940E+04  0.12149301940E+04  0.00000000000E+00 0. -1.
        -24    2    1    2    0    0  0.42842481652E+02 -0.38629645175E+03 -0.32416201640E+03  0.51230861412E+03  0.79490102214E+02 0.  0.
        254    2    1    2    0    0 -0.42842481652E+02  0.38629645175E+03 -0.49766268247E+03  0.10957270750E+04  0.89548269132E+03 0.  0.
         23    2    4    4    0    0 -0.25621682569E+03  0.24921562846E+03  0.14708384273E+03  0.39705756814E+03  0.90915149406E+02 0.  0.
         23    2    4    4    0    0  0.21337434404E+03  0.13708082329E+03 -0.64474652520E+03  0.69866950684E+03  0.90117896219E+02 0.  0.
          1    1    3    3  502    0  0.33112819457E+02 -0.34834082735E+03 -0.31765083857E+03  0.47258845315E+03  0.00000000000E+00 0. -1.
         -2    1    3    3    0  502  0.97296621951E+01 -0.37955624399E+02 -0.65111778339E+01  0.39720160961E+02  0.00000000000E+00 0.  1.
         11    1    5    5    0    0 -0.26353137457E+03  0.24328588315E+03  0.14706810277E+03  0.38764137185E+03  0.00000000000E+00 0.  1.
        -11    1    5    5    0    0  0.73145488798E+01  0.59297453160E+01  0.15739962236E-01  0.94161962902E+01  0.00000000000E+00 0. -1.
          2    1    6    6  503    0  0.19163756952E+03  0.90584398196E+02 -0.45245651945E+03  0.49964726882E+03  0.00000000000E+00 0. -1.
         -2    1    6    6    0  503  0.21736774515E+02  0.46496425095E+02 -0.19229000575E+03  0.19902223802E+03  0.00000000000E+00 0.  1.
<mgrwt>
<rscale>  0 0.13821660E+04</rscale>
<asrwt>0</asrwt>
<pdfrwt beam="1">  1        1 0.18691234E+00 0.13821660E+04</pdfrwt>
<pdfrwt beam="2">  1       -2 0.60477768E-01 0.13821660E+04</pdfrwt>
<totfact> 0.22726862E+01</totfact>
</mgrwt>
</event>
<event>
12    4  0.4280696E-008  0.2511203E+04  0.7818608E-02  0.8399005E-01
         -2   -1    0    0    0  501 -0.00000000000E+00  0.00000000000E+00  0.17557270035E+04  0.17557270035E+04  0.00000000000E+00 0.  1.
          1   -1    0    0  501    0  0.00000000000E+00 -0.00000000000E+00 -0.89793869675E+03  0.89793869675E+03  0.00000000000E+00 0. -1.
        -24    2    1    2    0    0  0.87948353280E+03  0.63638640364E+03  0.49568049033E+03  0.11968849778E+04  0.91408764779E+02 0.  0.
        254    2    1    2    0    0 -0.87948353280E+03 -0.63638640364E+03  0.36210781638E+03  0.14567807224E+04  0.90144831432E+03 0.  0.
         23    2    4    4    0    0  0.16563788432E+03 -0.19182674833E+03  0.47871074420E+02  0.27388918092E+03  0.92142463387E+02 0.  0.
         23    2    4    4    0    0 -0.10451214171E+04 -0.44455965531E+03  0.31423674196E+03  0.11828915415E+04  0.10283776226E+03 0.  0.
          1    1    3    3  502    0  0.16097499214E+03  0.14067278979E+03  0.64605795564E+02  0.22332866072E+03  0.00000000000E+00 0. -1.
         -2    1    3    3    0  502  0.71850854066E+03  0.49571361385E+03  0.43107469477E+03  0.97355631703E+03  0.00000000000E+00 0.  1.
         11    1    5    5    0    0  0.14525727354E+03 -0.11860879520E+03  0.71520364155E+01  0.18766692153E+03  0.00000000000E+00 0. -1.
        -11    1    5    5    0    0  0.20380610789E+02 -0.73217953134E+02  0.40719038005E+02  0.86222259384E+02  0.00000000000E+00 0.  1.
          1    1    6    6  503    0 -0.10469231456E+04 -0.44283686582E+03  0.31045323341E+03  0.11783606293E+04  0.00000000000E+00 0. -1.
         -1    1    6    6    0  503  0.18017284420E+01 -0.17227894952E+01  0.37835085480E+01  0.45309122653E+01  0.00000000000E+00 0.  1.
<mgrwt>
<rscale>  0 0.25112031E+04</rscale>
<asrwt>0</asrwt>
<pdfrwt beam="1">  1        1 0.13814441E+00 0.25112031E+04</pdfrwt>
<pdfrwt beam="2">  1       -2 0.27011185E+00 0.25112031E+04</pdfrwt>
<totfact> 0.68800585E-01</totfact>
</mgrwt>
</event>
<event>
12    4  0.4280696E-008  0.1850079E+04  0.7818608E-02  0.8680112E-01
         -2   -1    0    0    0  501 -0.00000000000E+00  0.00000000000E+00  0.49494829977E+03  0.49494829977E+03  0.00000000000E+00 0.  1.
          1   -1    0    0  501    0  0.00000000000E+00 -0.00000000000E+00 -0.17288637493E+04  0.17288637493E+04  0.00000000000E+00 0. -1.
        -24    2    1    2    0    0  0.23358100517E+03 -0.62559477024E+03 -0.20298851732E+03  0.70216483758E+03  0.76825896941E+02 0.  0.
        254    2    1    2    0    0 -0.23358100517E+03  0.62559477024E+03 -0.10309269322E+04  0.15216472115E+04  0.89814864815E+03 0.  0.
         23    2    4    4    0    0 -0.11645141976E+03  0.80288112533E+03 -0.54015859902E+03  0.97924746508E+03  0.94737802328E+02 0.  0.
         23    2    4    4    0    0 -0.11712958540E+03 -0.17728635509E+03 -0.49076833321E+03  0.54239974643E+03  0.90521470190E+02 0.  0.
          3    1    3    3  502    0  0.96579989574E+02 -0.17415818378E+03 -0.80138142560E+02  0.21466459712E+03  0.00000000000E+00 0. -1.
         -4    1    3    3    0  502  0.13700101559E+03 -0.45143658646E+03 -0.12285037476E+03  0.48750024046E+03  0.00000000000E+00 0.  1.
         11    1    5    5    0    0 -0.72427436586E+02  0.20878254119E+03 -0.15224021054E+03  0.26835231465E+03  0.00000000000E+00 0. -1.
        -11    1    5    5    0    0 -0.44023983177E+02  0.59409858414E+03 -0.38791838849E+03  0.71089515043E+03  0.00000000000E+00 0.  1.
          3    1    6    6  503    0 -0.13451888381E+02 -0.38178872587E+02 -0.30998379025E+02  0.50985087185E+02  0.00000000000E+00 0. -1.
         -3    1    6    6    0  503 -0.10367769702E+03 -0.13910748251E+03 -0.45976995419E+03  0.49141465925E+03  0.00000000000E+00 0.  1.
<mgrwt>
<rscale>  0 0.18500791E+04</rscale>
<asrwt>0</asrwt>
<pdfrwt beam="1">  1        1 0.26597903E+00 0.18500791E+04</pdfrwt>
<pdfrwt beam="2">  1       -2 0.76145894E-01 0.18500791E+04</pdfrwt>
<totfact> 0.57999476E+00</totfact>
</mgrwt>
</event>
<event>
12    4  0.4280696E-008  0.2065282E+04  0.7818608E-02  0.8576693E-01
          1   -1    0    0  501    0  0.00000000000E+00  0.00000000000E+00  0.98471993387E+03  0.98471993387E+03  0.00000000000E+00 0. -1.
         -2   -1    0    0    0  501 -0.00000000000E+00 -0.00000000000E+00 -0.10828942626E+04  0.10828942626E+04  0.00000000000E+00 0.  1.
        -24    2    1    2    0    0  0.47627647465E+03  0.13291526830E+03  0.65687457764E+03  0.82596630602E+03  0.78932750363E+02 0.  0.
        254    2    1    2    0    0 -0.47627647465E+03 -0.13291526830E+03 -0.75504890642E+03  0.12416478905E+04  0.85269272546E+03 0.  0.
         23    2    4    4    0    0  0.40366229792E+02  0.28948683601E+03 -0.17623663952E+03  0.35349970613E+03  0.92036016830E+02 0.  0.
         23    2    4    4    0    0 -0.51664270444E+03 -0.42240210431E+03 -0.57881226690E+03  0.88814818437E+03  0.91871297518E+02 0.  0.
          1    1    3    3  502    0  0.31048153451E+03  0.81172641561E+02  0.48543682654E+03  0.58192498964E+03  0.00000000000E+00 0. -1.
         -2    1    3    3    0  502  0.16579494013E+03  0.51742626738E+02  0.17143775110E+03  0.24404131638E+03  0.00000000000E+00 0.  1.
         11    1    5    5    0    0 -0.23830049684E+02  0.13117863574E+03 -0.56052029627E+02  0.14462895895E+03  0.00000000000E+00 0. -1.
        -11    1    5    5    0    0  0.64196279476E+02  0.15830820027E+03 -0.12018460989E+03  0.20887074718E+03  0.00000000000E+00 0.  1.
          2    1    6    6  503    0 -0.42700083377E+03 -0.38755651847E+03 -0.51078761395E+03  0.77034651529E+03  0.00000000000E+00 0.  1.
         -2    1    6    6    0  503 -0.89641870671E+02 -0.34845585843E+02 -0.68024652945E+02  0.11780166908E+03  0.00000000000E+00 0. -1.
<mgrwt>
<rscale>  0 0.20652821E+04</rscale>
<asrwt>0</asrwt>
<pdfrwt beam="1">  1        1 0.15149537E+00 0.20652821E+04</pdfrwt>
<pdfrwt beam="2">  1       -2 0.16659912E+00 0.20652821E+04</pdfrwt>
<totfact> 0.28352542E+00</totfact>
</mgrwt>
</event>
<event>
12    4  0.4280696E-008  0.2117180E+04  0.7818608E-02  0.8553713E-01
         -2   -1    0    0    0  501 -0.00000000000E+00  0.00000000000E+00  0.38044703374E+03  0.38044703374E+03  0.00000000000E+00 0.  1.
          1   -1    0    0  501    0  0.00000000000E+00 -0.00000000000E+00 -0.29455150255E+04  0.29455150255E+04  0.00000000000E+00 0. -1.
        -24    2    1    2    0    0 -0.29474654038E+02  0.27091394596E+03  0.23777954617E+03  0.37035893294E+03  0.79771581943E+02 0.  0.
        254    2    1    2    0    0  0.29474654038E+02 -0.27091394596E+03 -0.28028475380E+04  0.29556031263E+04  0.89742542755E+03 0.  0.
         23    2    4    4    0    0  0.90922462781E+02 -0.77412664667E+02 -0.39252690140E+01  0.14788106781E+03  0.87142340980E+02 0.  0.
         23    2    4    4    0    0 -0.61447808743E+02 -0.19350128129E+03 -0.27989222689E+04  0.28077220585E+04  0.90103891507E+02 0.  0.
          3    1    3    3  502    0  0.27500162355E+02  0.88261878920E+02  0.83508296970E+02  0.12457950820E+03  0.00000000000E+00 0. -1.
         -4    1    3    3    0  502 -0.56974816393E+02  0.18265206704E+03  0.15427124920E+03  0.24577942474E+03  0.00000000000E+00 0.  1.
         11    1    5    5    0    0  0.37687299674E+02 -0.79251053689E+02 -0.23965216328E+02  0.90969190725E+02  0.00000000000E+00 0.  1.
        -11    1    5    5    0    0  0.53235163107E+02  0.18383890221E+01  0.20039947315E+02  0.56911877087E+02  0.00000000000E+00 0. -1.
          3    1    6    6  503    0  0.22530778069E+02 -0.24167826842E+02 -0.39286950482E+03  0.39425647443E+03  0.00000000000E+00 0. -1.
         -3    1    6    6    0  503 -0.83978586812E+02 -0.16933345445E+03 -0.24060527641E+04  0.24134655841E+04  0.00000000000E+00 0.  1.
<mgrwt>
<rscale>  0 0.21171797E+04</rscale>
<asrwt>0</asrwt>
<pdfrwt beam="1">  1        1 0.45315616E+00 0.21171797E+04</pdfrwt>
<pdfrwt beam="2">  1       -2 0.58530312E-01 0.21171797E+04</pdfrwt>
<totfact> 0.14439083E+00</totfact>
</mgrwt>
</event>
<event>
12    4  0.4280696E-008  0.2497695E+04  0.7818608E-02  0.8403807E-01
          1   -1    0    0  501    0  0.00000000000E+00  0.00000000000E+00  0.15658964293E+04  0.15658964293E+04  0.00000000000E+00 0. -1.
         -2   -1    0    0    0  501 -0.00000000000E+00 -0.00000000000E+00 -0.99599201746E+03  0.99599201746E+03  0.00000000000E+00 0.  1.
        -24    2    1    2    0    0 -0.68404441901E+03 -0.80672976279E+03  0.61546829750E+01  0.10607013632E+04  0.79497323380E+02 0.  0.
        254    2    1    2    0    0  0.68404441901E+03  0.80672976279E+03  0.56374972883E+03  0.15011870835E+04  0.90389115808E+03 0.  0.
         23    2    4    4    0    0  0.31616931699E+03 -0.14945268655E+03  0.12431192685E+03  0.38271452197E+03  0.93369200752E+02 0.  0.
         23    2    4    4    0    0  0.36787510202E+03  0.95618244934E+03  0.43943780198E+03  0.11184725616E+04  0.90875310377E+02 0.  0.
          1    1    3    3  502    0 -0.84333020739E+02 -0.76819592688E+02  0.20541596417E+02  0.11591059223E+03  0.00000000000E+00 0. -1.
         -2    1    3    3    0  502 -0.59971139827E+03 -0.72991017010E+03 -0.14386913442E+02  0.94479077097E+03  0.00000000000E+00 0.  1.
         11    1    5    5    0    0  0.14546987797E+02  0.92729010229E+01 -0.53281925885E+01  0.18055225936E+02  0.00000000000E+00 0. -1.
        -11    1    5    5    0    0  0.30162232919E+03 -0.15872558757E+03  0.12964011944E+03  0.36465929603E+03  0.00000000000E+00 0.  1.
          1    1    6    6  503    0  0.12930414261E+02  0.61093283208E+01  0.68984671642E+01  0.15877920352E+02  0.00000000000E+00 0. -1.
         -1    1    6    6    0  503  0.35494468776E+03  0.95007312102E+03  0.43253933481E+03  0.11025946412E+04  0.00000000000E+00 0.  1.
<mgrwt>
<rscale>  0 0.24976952E+04</rscale>
<asrwt>0</asrwt>
<pdfrwt beam="1">  1        1 0.24090714E+00 0.24976952E+04</pdfrwt>
<pdfrwt beam="2">  1       -2 0.15322954E+00 0.24976952E+04</pdfrwt>
<totfact> 0.13012408E+00</totfact>
</mgrwt>
</event>
<event>
12    4  0.4280696E-008  0.2394635E+04  0.7818608E-02  0.8441515E-01
         -2   -1    0    0    0  501 -0.00000000000E+00  0.00000000000E+00  0.99516689825E+03  0.99516689825E+03  0.00000000000E+00 0.  1.
          1   -1    0    0  501    0  0.00000000000E+00 -0.00000000000E+00 -0.14405310876E+04  0.14405310876E+04  0.00000000000E+00 0. -1.
        -24    2    1    2    0    0  0.89204029873E+03 -0.37186452250E+03 -0.54202001167E+03  0.11111400319E+04  0.82627839074E+02 0.  0.
        254    2    1    2    0    0 -0.89204029873E+03  0.37186452250E+03  0.96655822354E+02  0.13245579539E+04  0.90060663313E+03 0.  0.
         23    2    4    4    0    0 -0.75540291776E+02  0.46162582809E+03  0.13835581023E+03  0.49656516229E+03  0.92897197659E+02 0.  0.
         23    2    4    4    0    0 -0.81650000695E+03 -0.89761305594E+02 -0.41699987881E+02  0.82799279162E+03  0.95413943719E+02 0.  0.
          1    1    3    3  502    0  0.74532074277E+03 -0.27702115456E+03 -0.43735202412E+03  0.90748031532E+03  0.00000000000E+00 0. -1.
         -2    1    3    3    0  502  0.14671955596E+03 -0.94843367940E+02 -0.10466798755E+03  0.20365971659E+03  0.00000000000E+00 0.  1.
         11    1    5    5    0    0 -0.47570864737E+01  0.36141388645E+02  0.40082521486E+02  0.54179685986E+02  0.00000000000E+00 0. -1.
        -11    1    5    5    0    0 -0.70783205303E+02  0.42548443945E+03  0.98273288749E+02  0.44238547631E+03  0.00000000000E+00 0.  1.
          2    1    6    6  503    0 -0.16130481186E+02  0.11111334763E+02 -0.60666440549E+01  0.20505081165E+02  0.00000000000E+00 0. -1.
         -2    1    6    6    0  503 -0.80036952577E+03 -0.10087264036E+03 -0.35633343826E+02  0.80748771046E+03  0.00000000000E+00 0.  1.
<mgrwt>
<rscale>  0 0.23946347E+04</rscale>
<asrwt>0</asrwt>
<pdfrwt beam="1">  1        1 0.22162017E+00 0.23946347E+04</pdfrwt>
<pdfrwt beam="2">  1       -2 0.15310260E+00 0.23946347E+04</pdfrwt>
<totfact> 0.16070663E+00</totfact>
</mgrwt>
</event>
<event>
12    4  0.4280696E-008  0.1332017E+04  0.7818608E-02  0.9004554E-01
         -2   -1    0    0    0  501 -0.00000000000E+00  0.00000000000E+00  0.38242493520E+03  0.38242493520E+03  0.00000000000E+00 0.  1.
          1   -1    0    0  501    0  0.00000000000E+00 -0.00000000000E+00 -0.11598800856E+04  0.11598800856E+04  0.00000000000E+00 0. -1.
        -24    2    1    2    0    0  0.29585471728E+03  0.53010753592E+02 -0.42740487512E+03  0.52849898643E+03  0.79347952981E+02 0.  0.
        254    2    1    2    0    0 -0.29585471728E+03 -0.53010753592E+02 -0.35005027528E+03  0.10138060344E+04  0.90273325318E+03 0.  0.
         23    2    4    4    0    0 -0.33908726060E+03  0.18624166920E+03  0.16954010309E+03  0.43226292018E+03  0.91876307933E+02 0.  0.
         23    2    4    4    0    0  0.43232543321E+02 -0.23925242279E+03 -0.51959037837E+03  0.58154311421E+03  0.95433001478E+02 0.  0.
          1    1    3    3  502    0  0.27363820930E+03  0.38201868984E+02 -0.41616389288E+03  0.49952941667E+03  0.00000000000E+00 0. -1.
         -2    1    3    3    0  502  0.22216507978E+02  0.14808884608E+02 -0.11240982246E+02  0.28969569758E+02  0.00000000000E+00 0.  1.
         11    1    5    5    0    0 -0.65786099219E+02  0.85471225360E+01  0.56787631050E+02  0.87325249467E+02  0.00000000000E+00 0. -1.
        -11    1    5    5    0    0 -0.27330116138E+03  0.17769454666E+03  0.11275247204E+03  0.34493767071E+03  0.00000000000E+00 0.  1.
          1    1    6    6  503    0  0.10628690126E+02 -0.52365284227E+02 -0.22420515263E+03  0.23048436501E+03  0.00000000000E+00 0. -1.
         -1    1    6    6    0  503  0.32603853195E+02 -0.18688713856E+03 -0.29538522574E+03  0.35105874920E+03  0.00000000000E+00 0.  1.
<mgrwt>
<rscale>  0 0.13320166E+04</rscale>
<asrwt>0</asrwt>
<pdfrwt beam="1">  1        1 0.17844309E+00 0.13320166E+04</pdfrwt>
<pdfrwt beam="2">  1       -2 0.58834606E-01 0.13320166E+04</pdfrwt>
<totfact> 0.26540596E+01</totfact>
</mgrwt>
</event>
<event>
12    4  0.4280696E-008  0.1413625E+04  0.7818608E-02  0.8944015E-01
          1   -1    0    0  501    0  0.00000000000E+00  0.00000000000E+00  0.23086082062E+04  0.23086082062E+04  0.00000000000E+00 0. -1.
         -2   -1    0    0    0  501 -0.00000000000E+00 -0.00000000000E+00 -0.21640045107E+03  0.21640045107E+03  0.00000000000E+00 0.  1.
        -24    2    1    2    0    0  0.18609899912E+02  0.24792412148E+03 -0.91543371740E+01  0.26133672018E+03  0.80002381458E+02 0.  0.
        254    2    1    2    0    0 -0.18609899912E+02 -0.24792412148E+03  0.21013620923E+04  0.22636719371E+04  0.80416123844E+03 0.  0.
         23    2    4    4    0    0  0.35603127503E+03 -0.26834723438E+03  0.11770681567E+04  0.12618293138E+04  0.89192290148E+02 0.  0.
         23    2    4    4    0    0 -0.37464117494E+03  0.20423112895E+02  0.92429393560E+03  0.10018426233E+04  0.92715958548E+02 0.  0.
          3    1    3    3  502    0  0.16595016501E+02  0.30332294579E+02  0.22779713841E+02  0.41404806844E+02  0.00000000000E+00 0. -1.
         -4    1    3    3    0  502  0.20148834106E+01  0.21759182690E+03 -0.31934051015E+02  0.21993191334E+03  0.00000000000E+00 0.  1.
         11    1    5    5    0    0  0.29054299737E+02 -0.50905091849E+02  0.10724615661E+03  0.12221791528E+03  0.00000000000E+00 0.  1.
        -11    1    5    5    0    0  0.32697697529E+03 -0.21744214253E+03  0.10698220001E+04  0.11396113985E+04  0.00000000000E+00 0. -1.
          4    1    6    6  503    0 -0.25676710010E+02 -0.11156143964E+02  0.14096565973E+03  0.14371871906E+03  0.00000000000E+00 0.  1.
         -4    1    6    6    0  503 -0.34896446493E+03  0.31579256859E+02  0.78332827587E+03  0.85812390424E+03  0.00000000000E+00 0. -1.
<mgrwt>
<rscale>  0 0.14136249E+04</rscale>
<asrwt>0</asrwt>
<pdfrwt beam="1">  1        1 0.35517048E+00 0.14136249E+04</pdfrwt>
<pdfrwt beam="2">  1       -2 0.33292379E-01 0.14136249E+04</pdfrwt>
<totfact> 0.13262513E+01</totfact>
</mgrwt>
</event>
<event>
12    4  0.4280696E-008  0.1550746E+04  0.7818608E-02  0.8851391E-01
          1   -1    0    0  501    0  0.00000000000E+00  0.00000000000E+00  0.17954930409E+04  0.17954930409E+04  0.00000000000E+00 0. -1.
         -2   -1    0    0    0  501 -0.00000000000E+00 -0.00000000000E+00 -0.33484032212E+03  0.33484032212E+03  0.00000000000E+00 0.  1.
        -24    2    1    2    0    0 -0.25080648853E+02  0.35924554242E+03  0.13500821075E+02  0.36897490680E+03  0.79207392257E+02 0.  0.
        254    2    1    2    0    0  0.25080648853E+02 -0.35924554242E+03  0.14471518977E+04  0.17613584562E+04  0.93725588690E+03 0.  0.
         23    2    4    4    0    0  0.11123277511E+03 -0.11729921135E+03  0.14758978514E+04  0.14875717218E+04  0.91996328144E+02 0.  0.
         23    2    4    4    0    0 -0.86152126256E+02 -0.24194633107E+03 -0.28745953756E+02  0.27378673439E+03  0.90402600034E+02 0.  0.
          3    1    3    3  502    0  0.21022106121E+02  0.35205167034E+02  0.70637328848E+01  0.41608040736E+02  0.00000000000E+00 0. -1.
         -4    1    3    3    0  502 -0.46102754974E+02  0.32404037538E+03  0.64370881902E+01  0.32736686607E+03  0.00000000000E+00 0.  1.
         11    1    5    5    0    0  0.34800232518E+02  0.97695581056E+01  0.37365590695E+03  0.37540010288E+03  0.00000000000E+00 0.  1.
        -11    1    5    5    0    0  0.76432542591E+02 -0.12706876945E+03  0.11022419445E+04  0.11121716189E+04  0.00000000000E+00 0. -1.
          4    1    6    6  503    0 -0.78911473180E+02 -0.24756489796E+03 -0.35705321522E+02  0.26227899132E+03  0.00000000000E+00 0. -1.
         -4    1    6    6    0  503 -0.72406530755E+01  0.56185668906E+01  0.69593677663E+01  0.11507743070E+02  0.00000000000E+00 0.  1.
<mgrwt>
<rscale>  0 0.15507462E+04</rscale>
<asrwt>0</asrwt>
<pdfrwt beam="1">  1        1 0.27622969E+00 0.15507462E+04</pdfrwt>
<pdfrwt beam="2">  1       -2 0.51513897E-01 0.15507462E+04</pdfrwt>
<totfact> 0.12353170E+01</totfact>
</mgrwt>
</event>
<event>
12    4  0.4280696E-008  0.1402007E+04  0.7818608E-02  0.8952367E-01
         -2   -1    0    0    0  501 -0.00000000000E+00  0.00000000000E+00  0.53787679385E+03  0.53787679385E+03  0.00000000000E+00 0.  1.
          1   -1    0    0  501    0  0.00000000000E+00 -0.00000000000E+00 -0.91360312206E+03  0.91360312206E+03  0.00000000000E+00 0. -1.
        -24    2    1    2    0    0  0.27026609154E+03 -0.20843828153E+02  0.20687786298E+03  0.35060153927E+03  0.81515420279E+02 0.  0.
        254    2    1    2    0    0 -0.27026609154E+03  0.20843828153E+02 -0.58260419119E+03  0.11008783766E+04  0.89388328722E+03 0.  0.
         23    2    4    4    0    0 -0.41880593344E+03 -0.17935822399E+03 -0.67523474082E+03  0.81951851975E+03  0.90004814350E+02 0.  0.
         23    2    4    4    0    0  0.14853984191E+03  0.20020205214E+03  0.92630549635E+02  0.28135985689E+03  0.91858608903E+02 0.  0.
          1    1    3    3  502    0 -0.85171170840E+00  0.20855534814E+01 -0.51736905851E+01  0.56428734195E+01  0.00000000000E+00 0. -1.
         -2    1    3    3    0  502  0.27111780324E+03 -0.22929381635E+02  0.21205155356E+03  0.34495866585E+03  0.00000000000E+00 0.  1.
         11    1    5    5    0    0 -0.28356257058E+03 -0.16517246360E+03 -0.46489048843E+03  0.56904555213E+03  0.00000000000E+00 0. -1.
        -11    1    5    5    0    0 -0.13524336287E+03 -0.14185760392E+02 -0.21034425239E+03  0.25047296762E+03  0.00000000000E+00 0.  1.
          3    1    6    6  503    0  0.22576528083E+02  0.10489426353E+03  0.45273002059E+02  0.11645664797E+03  0.00000000000E+00 0. -1.
         -3    1    6    6    0  503  0.12596331382E+03  0.95307788612E+02  0.47357547575E+02  0.16490320892E+03  0.00000000000E+00 0.  1.
<mgrwt>
<rscale>  0 0.14020070E+04</rscale>
<asrwt>0</asrwt>
<pdfrwt beam="1">  1        1 0.14055433E+00 0.14020070E+04</pdfrwt>
<pdfrwt beam="2">  1       -2 0.82750276E-01 0.14020070E+04</pdfrwt>
<totfact> 0.19409469E+01</totfact>
</mgrwt>
</event>
<event>
12    4  0.4280696E-008  0.1819772E+04  0.7818608E-02  0.8695855E-01
          1   -1    0    0  501    0  0.00000000000E+00  0.00000000000E+00  0.66971470873E+03  0.66971470873E+03  0.00000000000E+00 0. -1.
         -2   -1    0    0    0  501 -0.00000000000E+00 -0.00000000000E+00 -0.12361863577E+04  0.12361863577E+04  0.00000000000E+00 0.  1.
        -24    2    1    2    0    0 -0.26131085597E+03  0.19059334643E+03 -0.84045514711E+03  0.90406707122E+03  0.79769842733E+02 0.  0.
        254    2    1    2    0    0  0.26131085597E+03 -0.19059334643E+03  0.27398349809E+03  0.10018339953E+04  0.90774181884E+03 0.  0.
         23    2    4    4    0    0  0.11969237603E+02 -0.52703067594E+03  0.15144789628E+03  0.55594934886E+03  0.90766828617E+02 0.  0.
         23    2    4    4    0    0  0.24934161837E+03  0.33643732951E+03  0.12253560181E+03  0.44588464639E+03  0.91852190186E+02 0.  0.
          3    1    3    3  502    0 -0.15400898222E+02  0.15412220255E+02 -0.13454918177E+03  0.13630189476E+03  0.00000000000E+00 0. -1.
         -4    1    3    3    0  502 -0.24590995775E+03  0.17518112617E+03 -0.70590596534E+03  0.76776517647E+03  0.00000000000E+00 0.  1.
         11    1    5    5    0    0  0.24223846907E+02 -0.34294737075E+03  0.56343680203E+02  0.34838815158E+03  0.00000000000E+00 0.  1.
        -11    1    5    5    0    0 -0.12254609304E+02 -0.18408330518E+03  0.95104216080E+02  0.20756119727E+03  0.00000000000E+00 0. -1.
          2    1    6    6  503    0  0.82675237260E+02  0.85775561271E+02 -0.43711882776E+01  0.11921304062E+03  0.00000000000E+00 0. -1.
         -2    1    6    6    0  503  0.16666638111E+03  0.25066176824E+03  0.12690679009E+03  0.32667160577E+03  0.00000000000E+00 0.  1.
<mgrwt>
<rscale>  0 0.18197716E+04</rscale>
<asrwt>0</asrwt>
<pdfrwt beam="1">  1        1 0.10303303E+00 0.18197716E+04</pdfrwt>
<pdfrwt beam="2">  1       -2 0.19018251E+00 0.18197716E+04</pdfrwt>
<totfact> 0.37110629E+00</totfact>
</mgrwt>
</event>
<event>
12    4  0.4280696E-008  0.1444951E+04  0.7818608E-02  0.8921908E-01
          1   -1    0    0  501    0  0.00000000000E+00  0.00000000000E+00  0.16166399802E+04  0.16166399802E+04  0.00000000000E+00 0. -1.
         -2   -1    0    0    0  501 -0.00000000000E+00 -0.00000000000E+00 -0.32287401544E+03  0.32287401544E+03  0.00000000000E+00 0.  1.
        -24    2    1    2    0    0  0.25202620008E+03 -0.16277397085E+03  0.81967048605E+03  0.87657228143E+03  0.80664042512E+02 0.  0.
        254    2    1    2    0    0 -0.25202620008E+03  0.16277397085E+03  0.47409547873E+03  0.10629417142E+04  0.90281005409E+03 0.  0.
         23    2    4    4    0    0  0.19172174441E+03  0.14719009732E+03 -0.14526056458E+03  0.29522153167E+03  0.87366865081E+02 0.  0.
         23    2    4    4    0    0 -0.44374794449E+03  0.15583873539E+02  0.61935604331E+03  0.76772018255E+03  0.92936940765E+02 0.  0.
          3    1    3    3  502    0  0.14279425688E+03 -0.11841579675E+03  0.58896577287E+03  0.61748941880E+03  0.00000000000E+00 0. -1.
         -4    1    3    3    0  502  0.10923194320E+03 -0.44358174105E+02  0.23070471318E+03  0.25908286263E+03  0.00000000000E+00 0.  1.
         11    1    5    5    0    0  0.18414299451E+03  0.15450043502E+03 -0.15035539718E+03  0.28352384786E+03  0.00000000000E+00 0.  1.
        -11    1    5    5    0    0  0.75787499006E+01 -0.73103377003E+01  0.50948325960E+01  0.11697683810E+02  0.00000000000E+00 0. -1.
          3    1    6    6  503    0 -0.36940610277E+02 -0.22149745947E+02  0.82715419687E+02  0.93258032293E+02  0.00000000000E+00 0. -1.
         -3    1    6    6    0  503 -0.40680733421E+03  0.37733619486E+02  0.53664062362E+03  0.67446215025E+03  0.00000000000E+00 0.  1.
<mgrwt>
<rscale>  0 0.14449513E+04</rscale>
<asrwt>0</asrwt>
<pdfrwt beam="1">  1        1 0.24871384E+00 0.14449513E+04</pdfrwt>
<pdfrwt beam="2">  1       -2 0.49672926E-01 0.14449513E+04</pdfrwt>
<totfact> 0.17775465E+01</totfact>
</mgrwt>
</event>
<event>
12    4  0.4280696E-008  0.2092393E+04  0.7818608E-02  0.8564602E-01
         -2   -1    0    0    0  501 -0.00000000000E+00  0.00000000000E+00  0.46378650796E+03  0.46378650796E+03  0.00000000000E+00 0.  1.
          1   -1    0    0  501    0  0.00000000000E+00 -0.00000000000E+00 -0.23599806699E+04  0.23599806699E+04  0.00000000000E+00 0. -1.
        -24    2    1    2    0    0 -0.22467613240E+03  0.13906304102E+03  0.31664260230E+03  0.42031054608E+03  0.81120427192E+02 0.  0.
        254    2    1    2    0    0  0.22467613240E+03 -0.13906304102E+03 -0.22128367642E+04  0.24034566317E+04  0.90007740878E+03 0.  0.
         23    2    4    4    0    0  0.16167091694E+03 -0.48896614824E+03 -0.90553716489E+03  0.10456711311E+04  0.90582437547E+02 0.  0.
         23    2    4    4    0    0  0.63005215456E+02  0.34990310721E+03 -0.13072995993E+04  0.13577855006E+04  0.90262847667E+02 0.  0.
          3    1    3    3  502    0 -0.17762529146E+02 -0.78710557215E+01  0.87415070794E+01  0.21304340071E+02  0.00000000000E+00 0. -1.
         -4    1    3    3    0  502 -0.20691360325E+03  0.14693409674E+03  0.30790109522E+03  0.39900620601E+03  0.00000000000E+00 0.  1.
         11    1    5    5    0    0  0.48788227560E+02 -0.64240600766E+02 -0.10465083022E+03  0.13213229053E+03  0.00000000000E+00 0.  1.
        -11    1    5    5    0    0  0.11288268938E+03 -0.42472554747E+03 -0.80088633467E+03  0.91353884061E+03  0.00000000000E+00 0. -1.
          1    1    6    6  503    0  0.81716984716E+02  0.30925636973E+03 -0.11900013735E+04  0.12322420366E+04  0.00000000000E+00 0. -1.
         -1    1    6    6    0  503 -0.18711769259E+02  0.40646737487E+02 -0.11729822580E+03  0.12554346400E+03  0.00000000000E+00 0.  1.
<mgrwt>
<rscale>  0 0.20923931E+04</rscale>
<asrwt>0</asrwt>
<pdfrwt beam="1">  1        1 0.36307395E+00 0.20923931E+04</pdfrwt>
<pdfrwt beam="2">  1       -2 0.71351769E-01 0.20923931E+04</pdfrwt>
<totfact> 0.24399985E+00</totfact>
</mgrwt>
</event>
<event>
12    4  0.4280696E-008  0.1946036E+04  0.7818608E-02  0.8632275E-01
         -2   -1    0    0    0  501 -0.00000000000E+00  0.00000000000E+00  0.10656328544E+04  0.10656328544E+04  0.00000000000E+00 0.  1.
          1   -1    0    0  501    0  0.00000000000E+00 -0.00000000000E+00 -0.88845214701E+03  0.88845214701E+03  0.00000000000E+00 0. -1.
        -24    2    1    2    0    0 -0.48129291024E+03 -0.75703489657E+02 -0.51593666619E+03  0.71403723199E+03  0.79275729909E+02 0.  0.
        254    2    1    2    0    0  0.48129291024E+03  0.75703489657E+02  0.69311737353E+03  0.12400477694E+04  0.90550145943E+03 0.  0.
         23    2    4    4    0    0  0.39881251051E+03  0.40627064286E+03  0.15599254852E+03  0.59732749736E+03  0.91428716009E+02 0.  0.
         23    2    4    4    0    0  0.82480399731E+02 -0.33056715321E+03  0.53712482501E+03  0.64272027201E+03  0.92242134056E+02 0.  0.
          3    1    3    3  502    0 -0.34803362859E+03 -0.68659763225E+02 -0.41955619427E+03  0.54942603676E+03  0.00000000000E+00 0. -1.
         -4    1    3    3    0  502 -0.13325928165E+03 -0.70437264326E+01 -0.96380471917E+02  0.16461119523E+03  0.00000000000E+00 0.  1.
         11    1    5    5    0    0  0.18635161548E+03  0.20219677107E+03  0.28901995314E+02  0.27648830744E+03  0.00000000000E+00 0.  1.
        -11    1    5    5    0    0  0.21246089504E+03  0.20407387180E+03  0.12709055320E+03  0.32083918991E+03  0.00000000000E+00 0. -1.
          3    1    6    6  503    0  0.12493984801E+02 -0.22609958857E+03  0.32455853974E+03  0.39574659736E+03  0.00000000000E+00 0. -1.
         -3    1    6    6    0  503  0.69986414929E+02 -0.10446756464E+03  0.21256628527E+03  0.24697367465E+03  0.00000000000E+00 0.  1.
<mgrwt>
<rscale>  0 0.19460358E+04</rscale>
<asrwt>0</asrwt>
<pdfrwt beam="1">  1        1 0.13668495E+00 0.19460358E+04</pdfrwt>
<pdfrwt beam="2">  1       -2 0.16394352E+00 0.19460358E+04</pdfrwt>
<totfact> 0.35786411E+00</totfact>
</mgrwt>
</event>
<event>
12    4  0.4280696E-008  0.1544417E+04  0.7818608E-02  0.8855441E-01
          1   -1    0    0  501    0  0.00000000000E+00  0.00000000000E+00  0.63401546842E+03  0.63401546842E+03  0.00000000000E+00 0. -1.
         -2   -1    0    0    0  501 -0.00000000000E+00 -0.00000000000E+00 -0.94052322749E+03  0.94052322749E+03  0.00000000000E+00 0.  1.
        -24    2    1    2    0    0 -0.28214557120E+03 -0.42309844698E+03 -0.14079431323E+03  0.53406204017E+03  0.82345643014E+02 0.  0.
        254    2    1    2    0    0  0.28214557120E+03  0.42309844698E+03 -0.16571344584E+03  0.10404766557E+04  0.89247538108E+03 0.  0.
         23    2    4    4    0    0  0.23841841631E+03  0.48773944801E+03  0.25191418771E+03  0.60477725918E+03  0.86957833850E+02 0.  0.
         23    2    4    4    0    0  0.43727154897E+02 -0.64641001032E+02 -0.41762763355E+03  0.43569939657E+03  0.96595034934E+02 0.  0.
          1    1    3    3  502    0 -0.24560070855E+03 -0.38433126829E+03 -0.99940194878E+02  0.46692427050E+03  0.00000000000E+00 0. -1.
         -2    1    3    3    0  502 -0.36544862654E+02 -0.38767178686E+02 -0.40854118355E+02  0.67137769670E+02  0.00000000000E+00 0.  1.
         11    1    5    5    0    0  0.18962318108E+03  0.40360593463E+03  0.24105210115E+03  0.50691302680E+03  0.00000000000E+00 0.  1.
        -11    1    5    5    0    0  0.48795235222E+02  0.84133513379E+02  0.10862086565E+02  0.97864232376E+02  0.00000000000E+00 0. -1.
          2    1    6    6  503    0 -0.83478418452E+01 -0.64464754359E+02 -0.15707940520E+03  0.16999803104E+03  0.00000000000E+00 0. -1.
         -2    1    6    6    0  503  0.52074996743E+02 -0.17624667296E+00 -0.26054822835E+03  0.26570136553E+03  0.00000000000E+00 0.  1.
<mgrwt>
<rscale>  0 0.15444174E+04</rscale>
<asrwt>0</asrwt>
<pdfrwt beam="1">  1        1 0.97540842E-01 0.15444174E+04</pdfrwt>
<pdfrwt beam="2">  1       -2 0.14469588E+00 0.15444174E+04</pdfrwt>
<totfact> 0.87788786E+00</totfact>
</mgrwt>
</event>
<event>
12    4  0.4280696E-008  0.1030618E+04  0.7818608E-02  0.9275586E-01
          1   -1    0    0  501    0  0.00000000000E+00  0.00000000000E+00  0.18001036145E+04  0.18001036145E+04  0.00000000000E+00 0. -1.
         -2   -1    0    0    0  501 -0.00000000000E+00 -0.00000000000E+00 -0.14751571807E+03  0.14751571807E+03  0.00000000000E+00 0.  1.
        -24    2    1    2    0    0 -0.46051002772E+02 -0.63761660315E+02  0.31549021461E+03  0.33449454254E+03  0.78525660100E+02 0.  0.
        254    2    1    2    0    0  0.46051002772E+02  0.63761660315E+02  0.13370976819E+04  0.16131247901E+04  0.89897448981E+03 0.  0.
         23    2    4    4    0    0  0.14898740246E+03 -0.17969399713E+03  0.13096249698E+04  0.13334069039E+04  0.91483501465E+02 0.  0.
         23    2    4    4    0    0 -0.10293639969E+03  0.24345565744E+03  0.27472712025E+02  0.27971788618E+03  0.87297115763E+02 0.  0.
          3    1    3    3  502    0 -0.47929039272E+02 -0.79193677297E+02  0.23613195354E+03  0.25362793776E+03  0.00000000000E+00 0. -1.
         -4    1    3    3    0  502  0.18780365000E+01  0.15432016982E+02  0.79358261074E+02  0.80866604788E+02  0.00000000000E+00 0.  1.
         11    1    5    5    0    0  0.11767302636E+03 -0.14935816249E+03  0.81602594060E+03  0.83788611253E+03  0.00000000000E+00 0. -1.
        -11    1    5    5    0    0  0.31314376101E+02 -0.30335834636E+02  0.49359902924E+03  0.49552079137E+03  0.00000000000E+00 0.  1.
          4    1    6    6  503    0 -0.11320465767E+03  0.24147059660E+03  0.21219059772E+02  0.26753241306E+03  0.00000000000E+00 0. -1.
         -4    1    6    6    0  503  0.10268257984E+02  0.19850608429E+01  0.62536522525E+01  0.12185473117E+02  0.00000000000E+00 0.  1.
<mgrwt>
<rscale>  0 0.10306184E+04</rscale>
<asrwt>0</asrwt>
<pdfrwt beam="1">  1        1 0.27693900E+00 0.10306184E+04</pdfrwt>
<pdfrwt beam="2">  1       -2 0.22694727E-01 0.10306184E+04</pdfrwt>
<totfact> 0.61241256E+01</totfact>
</mgrwt>
</event>
<event>
12    4  0.4280696E-008  0.1975604E+04  0.7818608E-02  0.8618112E-01
          1   -1    0    0  501    0  0.00000000000E+00  0.00000000000E+00  0.17367037949E+04  0.17367037949E+04  0.00000000000E+00 0. -1.
         -2   -1    0    0    0  501 -0.00000000000E+00 -0.00000000000E+00 -0.56184156896E+03  0.56184156896E+03  0.00000000000E+00 0.  1.
        -24    2    1    2    0    0  0.74942641615E+02  0.73591291467E+03  0.75348572506E+03  0.10589014399E+04  0.79669970007E+02 0.  0.
        254    2    1    2    0    0 -0.74942641615E+02 -0.73591291467E+03  0.42137650092E+03  0.12396439240E+04  0.90109637951E+03 0.  0.
         23    2    4    4    0    0  0.29615252617E+03 -0.38556994013E+03 -0.97794293334E+02  0.50623669498E+03  0.10169252701E+03 0.  0.
         23    2    4    4    0    0 -0.37109516778E+03 -0.35034297454E+03  0.51917079426E+03  0.73340722898E+03  0.88859588961E+02 0.  0.
          3    1    3    3  502    0  0.77428960709E+02  0.68547949987E+03  0.67205987549E+03  0.96308974917E+03  0.00000000000E+00 0. -1.
         -4    1    3    3    0  502 -0.24863190940E+01  0.50433414803E+02  0.81425849567E+02  0.95811690774E+02  0.00000000000E+00 0.  1.
         11    1    5    5    0    0  0.44713373895E+02 -0.92793033738E+02 -0.58133995066E+02  0.11827676990E+03  0.00000000000E+00 0.  1.
        -11    1    5    5    0    0  0.25143915227E+03 -0.29277690640E+03 -0.39660298268E+02  0.38795992508E+03  0.00000000000E+00 0. -1.
          4    1    6    6  503    0 -0.28647899344E+03 -0.22266986720E+03  0.39380255414E+03  0.53547412177E+03  0.00000000000E+00 0. -1.
         -4    1    6    6    0  503 -0.84616174337E+02 -0.12767310734E+03  0.12536824012E+03  0.19793310720E+03  0.00000000000E+00 0.  1.
<mgrwt>
<rscale>  0 0.19756036E+04</rscale>
<asrwt>0</asrwt>
<pdfrwt beam="1">  1        1 0.26718520E+00 0.19756036E+04</pdfrwt>
<pdfrwt beam="2">  1       -2 0.86437165E-01 0.19756036E+04</pdfrwt>
<totfact> 0.42579435E+00</totfact>
</mgrwt>
</event>
<event>
12    4  0.4280696E-008  0.2154563E+04  0.7818608E-02  0.8537582E-01
          1   -1    0    0  501    0  0.00000000000E+00  0.00000000000E+00  0.25775264334E+04  0.25775264334E+04  0.00000000000E+00 0. -1.
         -2   -1    0    0    0  501 -0.00000000000E+00 -0.00000000000E+00 -0.45025164397E+03  0.45025164397E+03  0.00000000000E+00 0.  1.
        -24    2    1    2    0    0 -0.85952317634E+03 -0.18151968400E+03  0.10480741990E+04  0.13698818674E+04  0.79920697197E+02 0.  0.
        254    2    1    2    0    0  0.85952317634E+03  0.18151968400E+03  0.10792005905E+04  0.16578962100E+04  0.90123051554E+03 0.  0.
         23    2    4    4    0    0  0.10380941616E+04  0.12661125132E+03  0.89812611906E+03  0.13814611043E+04  0.90190684783E+02 0.  0.
         23    2    4    4    0    0 -0.17857098531E+03  0.54908432674E+02  0.18107447143E+03  0.27643510563E+03  0.93412368827E+02 0.  0.
          1    1    3    3  502    0 -0.76442559715E+03 -0.14992456390E+03  0.89043938737E+03  0.11830917847E+04  0.00000000000E+00 0. -1.
         -2    1    3    3    0  502 -0.95097579184E+02 -0.31595120097E+02  0.15763481158E+03  0.18679008272E+03  0.00000000000E+00 0.  1.
         11    1    5    5    0    0  0.20657660380E+03  0.55453067541E+02  0.21071223261E+03  0.30024753272E+03  0.00000000000E+00 0. -1.
        -11    1    5    5    0    0  0.83151755784E+03  0.71158183781E+02  0.68741388646E+03  0.10812135716E+04  0.00000000000E+00 0.  1.
          3    1    6    6  503    0 -0.71422584946E+02 -0.22641580335E+02  0.49055090045E+02  0.89555729351E+02  0.00000000000E+00 0. -1.
         -3    1    6    6    0  503 -0.10714840036E+03  0.77550013009E+02  0.13201938139E+03  0.18687937628E+03  0.00000000000E+00 0.  1.
<mgrwt>
<rscale>  0 0.21545631E+04</rscale>
<asrwt>0</asrwt>
<pdfrwt beam="1">  1        1 0.39654252E+00 0.21545631E+04</pdfrwt>
<pdfrwt beam="2">  1       -2 0.69269485E-01 0.21545631E+04</pdfrwt>
<totfact> 0.18306180E+00</totfact>
</mgrwt>
</event>
<event>
12    4  0.4280696E-008  0.1470253E+04  0.7818608E-02  0.8904479E-01
          1   -1    0    0  501    0  0.00000000000E+00  0.00000000000E+00  0.75693584077E+03  0.75693584077E+03  0.00000000000E+00 0. -1.
         -2   -1    0    0    0  501 -0.00000000000E+00 -0.00000000000E+00 -0.71394520500E+03  0.71394520500E+03  0.00000000000E+00 0.  1.
        -24    2    1    2    0    0 -0.40417238454E+03  0.53180471090E+02 -0.30016800559E+03  0.51279381329E+03  0.81689561360E+02 0.  0.
        254    2    1    2    0    0  0.40417238454E+03 -0.53180471090E+02  0.34315864136E+03  0.95808723247E+03  0.79623477251E+03 0.  0.
         23    2    4    4    0    0  0.42341824259E+03  0.18747467991E+03  0.47400051714E+03  0.66864012476E+03  0.89293686327E+02 0.  0.
         23    2    4    4    0    0 -0.19245858050E+02 -0.24065515100E+03 -0.13084187578E+03  0.28944710772E+03  0.91513534246E+02 0.  0.
          1    1    3    3  502    0 -0.13957839871E+02  0.96368480320E+01 -0.35322122046E+02  0.39183445991E+02  0.00000000000E+00 0. -1.
         -2    1    3    3    0  502 -0.39021454467E+03  0.43543623058E+02 -0.26484588355E+03  0.47361036730E+03  0.00000000000E+00 0.  1.
         11    1    5    5    0    0  0.37346717279E+03  0.17314886282E+03  0.37509872608E+03  0.55691768885E+03  0.00000000000E+00 0.  1.
        -11    1    5    5    0    0  0.49951069796E+02  0.14325817098E+02  0.98901791065E+02  0.11172243591E+03  0.00000000000E+00 0. -1.
          2    1    6    6  503    0 -0.45286399225E+02 -0.63049263898E+02 -0.51712920889E+02  0.93275365556E+02  0.00000000000E+00 0. -1.
         -2    1    6    6    0  503  0.26040541175E+02 -0.17760588711E+03 -0.79128954891E+02  0.19617174216E+03  0.00000000000E+00 0.  1.
<mgrwt>
<rscale>  0 0.14702527E+04</rscale>
<asrwt>0</asrwt>
<pdfrwt beam="1">  1        1 0.11645167E+00 0.14702527E+04</pdfrwt>
<pdfrwt beam="2">  1       -2 0.10983772E+00 0.14702527E+04</pdfrwt>
<totfact> 0.13518583E+01</totfact>
</mgrwt>
</event>
<event>
12    4  0.4280696E-008  0.1464598E+04  0.7818608E-02  0.8908342E-01
          1   -1    0    0  501    0  0.00000000000E+00  0.00000000000E+00  0.10203039919E+04  0.10203039919E+04  0.00000000000E+00 0. -1.
         -2   -1    0    0    0  501 -0.00000000000E+00 -0.00000000000E+00 -0.52559007222E+03  0.52559007222E+03  0.00000000000E+00 0.  1.
        -24    2    1    2    0    0  0.30865512096E+03  0.72023724647E+01  0.50728816711E+03  0.59903904002E+03  0.78655127716E+02 0.  0.
        254    2    1    2    0    0 -0.30865512096E+03 -0.72023724647E+01 -0.12574247460E+02  0.94685502407E+03  0.89501757919E+03 0.  0.
         23    2    4    4    0    0 -0.48180812881E+03 -0.26922458653E+03  0.15191535948E+03  0.58027889659E+03  0.94996686255E+02 0.  0.
         23    2    4    4    0    0  0.17315300785E+03  0.26202221407E+03 -0.16448960694E+03  0.36657612749E+03  0.93185952059E+02 0.  0.
          3    1    3    3  502    0  0.30482841244E+03  0.12748707102E+02  0.46458580038E+03  0.55580829112E+03  0.00000000000E+00 0. -1.
         -4    1    3    3    0  502  0.38267085160E+01 -0.55463346372E+01  0.42702366733E+02  0.43230748901E+02  0.00000000000E+00 0.  1.
         11    1    5    5    0    0 -0.33910901264E+03 -0.15330601646E+03  0.13407293288E+03  0.39556694562E+03  0.00000000000E+00 0. -1.
        -11    1    5    5    0    0 -0.14269911617E+03 -0.11591857007E+03  0.17842426602E+02  0.18471195097E+03  0.00000000000E+00 0.  1.
          1    1    6    6  503    0  0.11765099056E+03  0.20660600086E+03 -0.78947149394E+02  0.25052035360E+03  0.00000000000E+00 0. -1.
         -1    1    6    6    0  503  0.55502017286E+02  0.55416213208E+02 -0.85542457549E+02  0.11605577389E+03  0.00000000000E+00 0.  1.
<mgrwt>
<rscale>  0 0.14645978E+04</rscale>
<asrwt>0</asrwt>
<pdfrwt beam="1">  1        1 0.15696984E+00 0.14645978E+04</pdfrwt>
<pdfrwt beam="2">  1       -2 0.80860011E-01 0.14645978E+04</pdfrwt>
<totfact> 0.16744381E+01</totfact>
</mgrwt>
</event>
<event>
12    4  0.4280696E-008  0.1892458E+04  0.7818608E-02  0.8658620E-01
          1   -1    0    0  501    0  0.00000000000E+00  0.00000000000E+00  0.21600003767E+04  0.21600003767E+04  0.00000000000E+00 0. -1.
         -2   -1    0    0    0  501 -0.00000000000E+00 -0.00000000000E+00 -0.41451353402E+03  0.41451353402E+03  0.00000000000E+00 0.  1.
        -24    2    1    2    0    0  0.18177579783E+03 -0.64091281261E+03  0.29065520500E+03  0.73106470453E+03  0.78507833809E+02 0.  0.
        254    2    1    2    0    0 -0.18177579783E+03  0.64091281261E+03  0.14548316377E+04  0.18434492062E+04  0.91540057229E+03 0.  0.
         23    2    4    4    0    0  0.21158413486E+03  0.68547567713E+03  0.99119016895E+03  0.12269262971E+04  0.90804391052E+02 0.  0.
         23    2    4    4    0    0 -0.39335993269E+03 -0.44562864523E+02  0.46364146871E+03  0.61652290907E+03  0.91756200638E+02 0.  0.
          1    1    3    3  502    0  0.30421153500E+02 -0.53258446819E+02  0.87744610496E+01  0.61958856547E+02  0.00000000000E+00 0. -1.
         -2    1    3    3    0  502  0.15135464433E+03 -0.58765436579E+03  0.28188074395E+03  0.66910584798E+03  0.00000000000E+00 0.  1.
         11    1    5    5    0    0  0.89850776585E+02  0.43326259094E+03  0.58297564004E+03  0.73188129614E+03  0.00000000000E+00 0. -1.
        -11    1    5    5    0    0  0.12173335828E+03  0.25221308619E+03  0.40821452891E+03  0.49504500096E+03  0.00000000000E+00 0.  1.
          3    1    6    6  503    0 -0.32601693725E+03 -0.36462288873E+02  0.32297889836E+03  0.46036063110E+03  0.00000000000E+00 0. -1.
         -3    1    6    6    0  503 -0.67342995439E+02 -0.81005756500E+01  0.14066257036E+03  0.15616227797E+03  0.00000000000E+00 0.  1.
<mgrwt>
<rscale>  0 0.18924581E+04</rscale>
<asrwt>0</asrwt>
<pdfrwt beam="1">  1        1 0.33230774E+00 0.18924581E+04</pdfrwt>
<pdfrwt beam="2">  1       -2 0.63771314E-01 0.18924581E+04</pdfrwt>
<totfact> 0.43389859E+00</totfact>
</mgrwt>
</event>
<event>
12    4  0.4280696E-008  0.1153258E+04  0.7818608E-02  0.9154783E-01
         -2   -1    0    0    0  501 -0.00000000000E+00  0.00000000000E+00  0.12720189197E+04  0.12720189197E+04  0.00000000000E+00 0.  1.
          1   -1    0    0  501    0  0.00000000000E+00 -0.00000000000E+00 -0.26139617748E+03  0.26139617748E+03  0.00000000000E+00 0. -1.
        -24    2    1    2    0    0  0.82232472425E+02  0.47028407128E+02 -0.55572433744E+02  0.13725175210E+03  0.82315839686E+02 0.  0.
        254    2    1    2    0    0 -0.82232472425E+02 -0.47028407128E+02  0.10661951760E+04  0.13961633451E+04  0.89639616370E+03 0.  0.
         23    2    4    4    0    0 -0.13501894007E+03 -0.28890849526E+03  0.37313372774E+02  0.33391596768E+03  0.91702523781E+02 0.  0.
         23    2    4    4    0    0  0.52786467645E+02  0.24188008814E+03  0.10288818032E+04  0.10622473774E+04  0.92083319074E+02 0.  0.
          1    1    3    3  502    0  0.33795042426E+02  0.65102175762E+02 -0.38264631326E+02  0.82731978050E+02  0.00000000000E+00 0. -1.
         -2    1    3    3    0  502  0.48437430000E+02 -0.18073768634E+02 -0.17307802418E+02  0.54519774047E+02  0.00000000000E+00 0.  1.
         11    1    5    5    0    0 -0.13906748364E+02 -0.27916504552E+02  0.34048152375E+02  0.46173645693E+02  0.00000000000E+00 0.  1.
        -11    1    5    5    0    0 -0.12111219171E+03 -0.26099199071E+03  0.32652203990E+01  0.28774232198E+03  0.00000000000E+00 0. -1.
          3    1    6    6  503    0 -0.37242432151E+01  0.16973681584E+03  0.59236643952E+03  0.61621624070E+03  0.00000000000E+00 0. -1.
         -3    1    6    6    0  503  0.56510710861E+02  0.72143272293E+02  0.43651536371E+03  0.44603113673E+03  0.00000000000E+00 0.  1.
<mgrwt>
<rscale>  0 0.11532578E+04</rscale>
<asrwt>0</asrwt>
<pdfrwt beam="1">  1        1 0.40214797E-01 0.11532578E+04</pdfrwt>
<pdfrwt beam="2">  1       -2 0.19569521E+00 0.11532578E+04</pdfrwt>
<totfact> 0.12898030E+01</totfact>
</mgrwt>
</event>
<event>
12    4  0.4280696E-008  0.1373502E+04  0.7818608E-02  0.8973226E-01
          1   -1    0    0  501    0  0.00000000000E+00  0.00000000000E+00  0.64059306328E+03  0.64059306328E+03  0.00000000000E+00 0. -1.
         -2   -1    0    0    0  501 -0.00000000000E+00 -0.00000000000E+00 -0.73623504709E+03  0.73623504709E+03  0.00000000000E+00 0.  1.
        -24    2    1    2    0    0  0.11609836332E+03 -0.35664430458E+02 -0.39330142243E+03  0.41906236949E+03  0.78590578769E+02 0.  0.
        254    2    1    2    0    0 -0.11609836332E+03  0.35664430458E+02  0.29765943862E+03  0.95776574089E+03  0.90219914179E+03 0.  0.
         23    2    4    4    0    0 -0.21146679724E+03 -0.27476486933E+02  0.58844211092E+03  0.63237549682E+03  0.90340950868E+02 0.  0.
         23    2    4    4    0    0  0.95368433920E+02  0.63140917392E+02 -0.29078267230E+03  0.32539024406E+03  0.90787305194E+02 0.  0.
          1    1    3    3  502    0  0.89404177519E+02 -0.24889536566E+00 -0.17742591230E+03  0.19867844187E+03  0.00000000000E+00 0. -1.
         -2    1    3    3    0  502  0.26694185806E+02 -0.35415535093E+02 -0.21587551013E+03  0.22038392762E+03  0.00000000000E+00 0.  1.
         11    1    5    5    0    0 -0.71641252757E+02 -0.52242959080E+02  0.25417271784E+03  0.26919429111E+03  0.00000000000E+00 0. -1.
        -11    1    5    5    0    0 -0.13982554449E+03  0.24766472146E+02  0.33426939308E+03  0.36318120571E+03  0.00000000000E+00 0.  1.
          1    1    6    6  503    0  0.67783128455E+02  0.82330283336E+02 -0.17598478769E+03  0.20577529870E+03  0.00000000000E+00 0. -1.
         -1    1    6    6    0  503  0.27585305465E+02 -0.19189365945E+02 -0.11479788461E+03  0.11961494536E+03  0.00000000000E+00 0.  1.
<mgrwt>
<rscale>  0 0.13735022E+04</rscale>
<asrwt>0</asrwt>
<pdfrwt beam="1">  1        1 0.98552779E-01 0.13735022E+04</pdfrwt>
<pdfrwt beam="2">  1       -2 0.11326693E+00 0.13735022E+04</pdfrwt>
<totfact> 0.16284731E+01</totfact>
</mgrwt>
</event>
<event>
12    4  0.4280696E-008  0.1702089E+04  0.7818608E-02  0.8760174E-01
          1   -1    0    0  501    0  0.00000000000E+00  0.00000000000E+00  0.95781075214E+03  0.95781075214E+03  0.00000000000E+00 0. -1.
         -2   -1    0    0    0  501 -0.00000000000E+00 -0.00000000000E+00 -0.75617979229E+03  0.75617979229E+03  0.00000000000E+00 0.  1.
        -24    2    1    2    0    0 -0.21286709632E+03  0.14277916084E+01 -0.49636681128E+03  0.54603058703E+03  0.80342711865E+02 0.  0.
        254    2    1    2    0    0  0.21286709632E+03 -0.14277916084E+01  0.69799777113E+03  0.11679599574E+04  0.91192934721E+03 0.  0.
         23    2    4    4    0    0 -0.32744974043E+03 -0.38977433013E+02  0.99241775648E+02  0.35593592960E+03  0.89993795085E+02 0.  0.
         23    2    4    4    0    0  0.54031683675E+03  0.37549641404E+02  0.59875599548E+03  0.81202402780E+03  0.86729579509E+02 0.  0.
          3    1    3    3  502    0 -0.24911725516E+01  0.13717678863E+01 -0.75111817572E+02  0.75165635943E+02  0.00000000000E+00 0. -1.
         -4    1    3    3    0  502 -0.21037592377E+03  0.56023722076E-01 -0.42125499371E+03  0.47086495109E+03  0.00000000000E+00 0.  1.
         11    1    5    5    0    0 -0.30170576617E+03 -0.83655198298E+01  0.87344358438E+02  0.31420596464E+03  0.00000000000E+00 0. -1.
        -11    1    5    5    0    0 -0.25743974257E+02 -0.30611913183E+02  0.11897417210E+02  0.41729964960E+02  0.00000000000E+00 0.  1.
          3    1    6    6  503    0  0.40757514515E+03  0.32734808662E+02  0.50326680211E+03  0.64843391394E+03  0.00000000000E+00 0. -1.
         -3    1    6    6    0  503  0.13274169160E+03  0.48148327421E+01  0.95489193371E+02  0.16359011386E+03  0.00000000000E+00 0.  1.
<mgrwt>
<rscale>  0 0.17020895E+04</rscale>
<asrwt>0</asrwt>
<pdfrwt beam="1">  1        1 0.14735550E+00 0.17020895E+04</pdfrwt>
<pdfrwt beam="2">  1       -2 0.11633535E+00 0.17020895E+04</pdfrwt>
<totfact> 0.78100366E+00</totfact>
</mgrwt>
</event>
<event>
12    4  0.4280696E-008  0.1165030E+04  0.7818608E-02  0.9144028E-01
         -2   -1    0    0    0  501 -0.00000000000E+00  0.00000000000E+00  0.59396958682E+03  0.59396958682E+03  0.00000000000E+00 0.  1.
          1   -1    0    0  501    0  0.00000000000E+00 -0.00000000000E+00 -0.57128152769E+03  0.57128152769E+03  0.00000000000E+00 0. -1.
        -24    2    1    2    0    0  0.87345592827E+02  0.15998937355E+03 -0.13300955479E+03  0.23964093280E+03  0.80686943005E+02 0.  0.
        254    2    1    2    0    0 -0.87345592827E+02 -0.15998937355E+03  0.15569761393E+03  0.92561018171E+03  0.89402830451E+03 0.  0.
         23    2    4    4    0    0 -0.40457816381E+03 -0.30996236934E+03  0.21005046296E+03  0.55886053798E+03  0.91889841011E+02 0.  0.
         23    2    4    4    0    0  0.31723257098E+03  0.14997299579E+03 -0.54352849030E+02  0.36674964373E+03  0.91775080632E+02 0.  0.
          1    1    3    3  502    0  0.57915552394E+02  0.15598055946E+03 -0.12705218018E+03  0.20934756417E+03  0.00000000000E+00 0. -1.
         -2    1    3    3    0  502  0.29430040433E+02  0.40088140930E+01 -0.59573746132E+01  0.30293368624E+02  0.00000000000E+00 0.  1.
         11    1    5    5    0    0 -0.36273489958E+03 -0.27961774407E+03  0.21682490422E+03  0.50673043057E+03  0.00000000000E+00 0. -1.
        -11    1    5    5    0    0 -0.41843264229E+02 -0.30344625269E+02 -0.67744412635E+01  0.52130107409E+02  0.00000000000E+00 0.  1.
          3    1    6    6  503    0  0.18207994234E+03  0.45212510754E+02 -0.55840157553E+02  0.19574319841E+03  0.00000000000E+00 0. -1.
         -3    1    6    6    0  503  0.13515262864E+03  0.10476048504E+03  0.14873085231E+01  0.17100644532E+03  0.00000000000E+00 0.  1.
<mgrwt>
<rscale>  0 0.11650302E+04</rscale>
<asrwt>0</asrwt>
<pdfrwt beam="1">  1        1 0.87889466E-01 0.11650302E+04</pdfrwt>
<pdfrwt beam="2">  1       -2 0.91379937E-01 0.11650302E+04</pdfrwt>
<totfact> 0.32560360E+01</totfact>
</mgrwt>
</event>
<event>
12    4  0.4280696E-008  0.1331697E+04  0.7818608E-02  0.9004800E-01
         -2   -1    0    0    0  501 -0.00000000000E+00  0.00000000000E+00  0.25453059466E+03  0.25453059466E+03  0.00000000000E+00 0.  1.
          1   -1    0    0  501    0  0.00000000000E+00 -0.00000000000E+00 -0.17418510684E+04  0.17418510684E+04  0.00000000000E+00 0. -1.
        -24    2    1    2    0    0  0.18677588447E+03  0.19291270545E+03 -0.71109333913E+03  0.76422008164E+03  0.79234167321E+02 0.  0.
        254    2    1    2    0    0 -0.18677588447E+03 -0.19291270545E+03 -0.77622713463E+03  0.12321615814E+04  0.91847321970E+03 0.  0.
         23    2    4    4    0    0  0.30359146586E+03  0.13799229209E+03 -0.18974684585E+03  0.39428322457E+03  0.90806083776E+02 0.  0.
         23    2    4    4    0    0 -0.49036735032E+03 -0.33090499755E+03 -0.58648028879E+03  0.83787835687E+03  0.90126334206E+02 0.  0.
          3    1    3    3  502    0  0.18396797158E+03  0.17409361157E+03 -0.59633815707E+03  0.64789813839E+03  0.00000000000E+00 0. -1.
         -4    1    3    3    0  502  0.28079128925E+01  0.18819093885E+02 -0.11475518207E+03  0.11632194325E+03  0.00000000000E+00 0.  1.
         11    1    5    5    0    0  0.22746258490E+02  0.43837609964E+02 -0.25378294542E+02  0.55526445559E+02  0.00000000000E+00 0. -1.
        -11    1    5    5    0    0  0.28084520737E+03  0.94154682128E+02 -0.16436855130E+03  0.33875677901E+03  0.00000000000E+00 0.  1.
          2    1    6    6  503    0 -0.54118660881E+02 -0.65581319420E+02 -0.11398364270E+03  0.14220411286E+03  0.00000000000E+00 0. -1.
         -2    1    6    6    0  503 -0.43624868944E+03 -0.26532367813E+03 -0.47249664609E+03  0.69567424401E+03  0.00000000000E+00 0.  1.
<mgrwt>
<rscale>  0 0.13316972E+04</rscale>
<asrwt>0</asrwt>
<pdfrwt beam="1">  1        1 0.26797708E+00 0.13316972E+04</pdfrwt>
<pdfrwt beam="2">  1       -2 0.39158553E-01 0.13316972E+04</pdfrwt>
<totfact> 0.23678937E+01</totfact>
</mgrwt>
</event>
<event>
12    4  0.4280696E-008  0.2438257E+04  0.7818608E-02  0.8425318E-01
         -2   -1    0    0    0  501 -0.00000000000E+00  0.00000000000E+00  0.61792719074E+03  0.61792719074E+03  0.00000000000E+00 0.  1.
          1   -1    0    0  501    0  0.00000000000E+00 -0.00000000000E+00 -0.24052586021E+04  0.24052586021E+04  0.00000000000E+00 0. -1.
        -24    2    1    2    0    0 -0.18615453925E+03  0.48650796937E+03 -0.18968946455E+04  0.19687770268E+04  0.80809456900E+02 0.  0.
        254    2    1    2    0    0  0.18615453925E+03 -0.48650796937E+03  0.10956323414E+03  0.10544087661E+04  0.91018142527E+03 0.  0.
         23    2    4    4    0    0 -0.26425851058E+03 -0.14667021922E+03 -0.22857376867E+03  0.38969912504E+03  0.90965524819E+02 0.  0.
         23    2    4    4    0    0  0.45041304983E+03 -0.33983775015E+03  0.33813700281E+03  0.66470964102E+03  0.95606810991E+02 0.  0.
          1    1    3    3  502    0 -0.10949628147E+03  0.38252260623E+03 -0.14450364786E+04  0.14988139993E+04  0.00000000000E+00 0. -1.
         -2    1    3    3    0  502 -0.76658257779E+02  0.10398536314E+03 -0.45185816684E+03  0.46996302745E+03  0.00000000000E+00 0.  1.
         11    1    5    5    0    0 -0.27170896076E+03 -0.14500081284E+03 -0.22252735772E+03  0.37995976105E+03  0.00000000000E+00 0.  1.
        -11    1    5    5    0    0  0.74504501758E+01 -0.16694063833E+01 -0.60464109545E+01  0.97393639898E+01  0.00000000000E+00 0. -1.
          2    1    6    6  503    0  0.42823379632E+03 -0.31005019587E+03  0.28717599838E+03  0.60165219381E+03  0.00000000000E+00 0.  1.
         -2    1    6    6    0  503  0.22179253513E+02 -0.29787554283E+02  0.50961004426E+02  0.63057447211E+02  0.00000000000E+00 0. -1.
<mgrwt>
<rscale>  0 0.24382573E+04</rscale>
<asrwt>0</asrwt>
<pdfrwt beam="1">  1        1 0.37003978E+00 0.24382573E+04</pdfrwt>
<pdfrwt beam="2">  1       -2 0.95065722E-01 0.24382573E+04</pdfrwt>
<totfact> 0.11507366E+00</totfact>
</mgrwt>
</event>
<event>
12    4  0.4280696E-008  0.1602752E+04  0.7818608E-02  0.8818859E-01
         -2   -1    0    0    0  501 -0.00000000000E+00  0.00000000000E+00  0.31378189711E+03  0.31378189711E+03  0.00000000000E+00 0.  1.
          1   -1    0    0  501    0  0.00000000000E+00 -0.00000000000E+00 -0.20466550153E+04  0.20466550153E+04  0.00000000000E+00 0. -1.
        -24    2    1    2    0    0  0.56194149399E+02  0.29040403485E+03 -0.12707332796E+04  0.13071309172E+04  0.79598247883E+02 0.  0.
        254    2    1    2    0    0 -0.56194149399E+02 -0.29040403485E+03 -0.46213983862E+03  0.10533059952E+04  0.89910400020E+03 0.  0.
         23    2    4    4    0    0  0.56684759721E+02  0.30470811436E+03 -0.82102714275E+02  0.33273959393E+03  0.88963951890E+02 0.  0.
         23    2    4    4    0    0 -0.11287890912E+03 -0.59511214920E+03 -0.38003712434E+03  0.72056640126E+03  0.88812186644E+02 0.  0.
          3    1    3    3  502    0  0.65842301104E+02  0.28711116224E+03 -0.11977743671E+04  0.12334631987E+04  0.00000000000E+00 0. -1.
         -4    1    3    3    0  502 -0.96481517049E+01  0.32928726104E+01 -0.72958912516E+02  0.73667718553E+02  0.00000000000E+00 0.  1.
         11    1    5    5    0    0  0.10608683067E+02  0.20122897056E+03 -0.17325288782E+02  0.20225184395E+03  0.00000000000E+00 0. -1.
        -11    1    5    5    0    0  0.46076076654E+02  0.10347914379E+03 -0.64777425493E+02  0.13048774997E+03  0.00000000000E+00 0.  1.
          1    1    6    6  503    0 -0.85021535941E+01 -0.12063704517E+03 -0.11626076187E+03  0.16775621608E+03  0.00000000000E+00 0. -1.
         -1    1    6    6    0  503 -0.10437675553E+03 -0.47447510403E+03 -0.26377636247E+03  0.55281018518E+03  0.00000000000E+00 0.  1.
<mgrwt>
<rscale>  0 0.16027518E+04</rscale>
<asrwt>0</asrwt>
<pdfrwt beam="1">  1        1 0.31487001E+00 0.16027518E+04</pdfrwt>
<pdfrwt beam="2">  1       -2 0.48274137E-01 0.16027518E+04</pdfrwt>
<totfact> 0.94894930E+00</totfact>
</mgrwt>
</event>
<event>
12    4  0.4280696E-008  0.2052727E+04  0.7818608E-02  0.8582358E-01
          1   -1    0    0  501    0  0.00000000000E+00  0.00000000000E+00  0.78193082734E+03  0.78193082734E+03  0.00000000000E+00 0. -1.
         -2   -1    0    0    0  501 -0.00000000000E+00 -0.00000000000E+00 -0.13472062620E+04  0.13472062620E+04  0.00000000000E+00 0.  1.
        -24    2    1    2    0    0  0.23788311480E+03 -0.17639301004E+03  0.58063295355E+03  0.65659718906E+03  0.79261413302E+02 0.  0.
        254    2    1    2    0    0 -0.23788311480E+03  0.17639301004E+03 -0.11459083882E+04  0.14725399002E+04  0.87610778643E+03 0.  0.
         23    2    4    4    0    0 -0.22935553074E+03 -0.12100475510E+03  0.10446909368E+02  0.27499051720E+03  0.90909495636E+02 0.  0.
         23    2    4    4    0    0 -0.85275840687E+01  0.29739776514E+03 -0.11563552975E+04  0.11975493830E+04  0.91917355845E+02 0.  0.
          3    1    3    3  502    0  0.22329388668E+03 -0.16139754278E+03  0.47681520417E+03  0.55069235111E+03  0.00000000000E+00 0. -1.
         -4    1    3    3    0  502  0.14589228124E+02 -0.14995467255E+02  0.10381774937E+03  0.10590483795E+03  0.00000000000E+00 0.  1.
         11    1    5    5    0    0 -0.10377218182E+03 -0.44676886124E+02  0.48860213794E+02  0.12309350253E+03  0.00000000000E+00 0. -1.
        -11    1    5    5    0    0 -0.12558334892E+03 -0.76327868975E+02 -0.38413304426E+02  0.15189701467E+03  0.00000000000E+00 0.  1.
          3    1    6    6  503    0 -0.44256609564E+02  0.23624533317E+03 -0.91140119461E+03  0.94256174464E+03  0.00000000000E+00 0. -1.
         -3    1    6    6    0  503  0.35729025495E+02  0.61152431969E+02 -0.24495410292E+03  0.25498763839E+03  0.00000000000E+00 0.  1.
<mgrwt>
<rscale>  0 0.20527271E+04</rscale>
<asrwt>0</asrwt>
<pdfrwt beam="1">  1        1 0.12029705E+00 0.20527271E+04</pdfrwt>
<pdfrwt beam="2">  1       -2 0.20726250E+00 0.20527271E+04</pdfrwt>
<totfact> 0.22119536E+00</totfact>
</mgrwt>
</event>
<event>
12    4  0.4280696E-008  0.1142675E+04  0.7818608E-02  0.9164568E-01
         -2   -1    0    0    0  501 -0.00000000000E+00  0.00000000000E+00  0.97213709459E+02  0.97213709459E+02  0.00000000000E+00 0.  1.
          1   -1    0    0  501    0  0.00000000000E+00 -0.00000000000E+00 -0.33578220856E+04  0.33578220856E+04  0.00000000000E+00 0. -1.
        -24    2    1    2    0    0  0.17087113147E+03 -0.22540097666E+02 -0.98173050499E+03  0.10000096763E+04  0.80743846631E+02 0.  0.
        254    2    1    2    0    0 -0.17087113147E+03  0.22540097666E+02 -0.22788778712E+04  0.24550261188E+04  0.89675185666E+03 0.  0.
         23    2    4    4    0    0 -0.73109125956E+01 -0.21229110216E+03 -0.90446074093E+02  0.24609279308E+03  0.85206859979E+02 0.  0.
         23    2    4    4    0    0 -0.16356021887E+03  0.23483119983E+03 -0.21884317971E+04  0.22089333257E+04  0.90857411062E+02 0.  0.
          3    1    3    3  502    0  0.14022701269E+03 -0.30751015531E+02 -0.91414267359E+03  0.92534645821E+03  0.00000000000E+00 0. -1.
         -4    1    3    3    0  502  0.30644118777E+02  0.82109178653E+01 -0.67587831406E+02  0.74663218133E+02  0.00000000000E+00 0.  1.
         11    1    5    5    0    0  0.27875496160E+02 -0.99367217768E+02 -0.11397721327E+02  0.10383060871E+03  0.00000000000E+00 0.  1.
        -11    1    5    5    0    0 -0.35186408756E+02 -0.11292388439E+03 -0.79048352766E+02  0.14226218437E+03  0.00000000000E+00 0. -1.
          4    1    6    6  503    0  0.21061986597E-01  0.43767696822E+02 -0.20522498899E+03  0.20984019595E+03  0.00000000000E+00 0. -1.
         -4    1    6    6    0  503 -0.16358128086E+03  0.19106350300E+03 -0.19832068081E+04  0.19990931297E+04  0.00000000000E+00 0.  1.
<mgrwt>
<rscale>  0 0.11426747E+04</rscale>
<asrwt>0</asrwt>
<pdfrwt beam="1">  1        1 0.51658803E+00 0.11426747E+04</pdfrwt>
<pdfrwt beam="2">  1       -2 0.14955955E-01 0.11426747E+04</pdfrwt>
<totfact> 0.10155022E+01</totfact>
</mgrwt>
</event>
<event>
12    4  0.4280696E-008  0.1570959E+04  0.7818608E-02  0.8838590E-01
         -2   -1    0    0    0  501 -0.00000000000E+00  0.00000000000E+00  0.78875445086E+03  0.78875445086E+03  0.00000000000E+00 0.  1.
          1   -1    0    0  501    0  0.00000000000E+00 -0.00000000000E+00 -0.78221815932E+03  0.78221815932E+03  0.00000000000E+00 0. -1.
        -24    2    1    2    0    0  0.19033503176E+03  0.46988876710E+03 -0.12236737068E+02  0.51671457473E+03  0.99102655091E+02 0.  0.
        254    2    1    2    0    0 -0.19033503176E+03 -0.46988876710E+03  0.18773028614E+02  0.10542580354E+04  0.92416703087E+03 0.  0.
         23    2    4    4    0    0 -0.44800925508E+03 -0.28617773151E+03  0.30336869833E+03  0.61896750091E+03  0.92077214349E+02 0.  0.
         23    2    4    4    0    0  0.25767422332E+03 -0.18371103558E+03 -0.28459566971E+03  0.43529053454E+03  0.91309387704E+02 0.  0.
          1    1    3    3  502    0  0.13789059175E+03  0.38011105974E+03  0.27789418483E+02  0.40530295435E+03  0.00000000000E+00 0. -1.
         -2    1    3    3    0  502  0.52444440012E+02  0.89777707356E+02 -0.40026155552E+02  0.11141162037E+03  0.00000000000E+00 0.  1.
         11    1    5    5    0    0 -0.25329246304E+03 -0.10961162490E+03  0.13980745915E+03  0.30938310519E+03  0.00000000000E+00 0. -1.
        -11    1    5    5    0    0 -0.19471679204E+03 -0.17656610662E+03  0.16356123918E+03  0.30958439571E+03  0.00000000000E+00 0.  1.
          3    1    6    6  503    0  0.11188568311E+03 -0.11947949121E+03 -0.10156243879E+03  0.19263614374E+03  0.00000000000E+00 0. -1.
         -3    1    6    6    0  503  0.14578854021E+03 -0.64231544373E+02 -0.18303323093E+03  0.24265439080E+03  0.00000000000E+00 0.  1.
<mgrwt>
<rscale>  0 0.15709590E+04</rscale>
<asrwt>0</asrwt>
<pdfrwt beam="1">  1        1 0.12034125E+00 0.15709590E+04</pdfrwt>
<pdfrwt beam="2">  1       -2 0.12134684E+00 0.15709590E+04</pdfrwt>
<totfact> 0.99703791E+00</totfact>
</mgrwt>
</event>
<event>
12    4  0.4280696E-008  0.2099527E+04  0.7818608E-02  0.8561452E-01
          1   -1    0    0  501    0  0.00000000000E+00  0.00000000000E+00  0.14823311182E+04  0.14823311182E+04  0.00000000000E+00 0. -1.
         -2   -1    0    0    0  501 -0.00000000000E+00 -0.00000000000E+00 -0.74342603836E+03  0.74342603836E+03  0.00000000000E+00 0.  1.
        -24    2    1    2    0    0  0.89608913699E+02 -0.76442496102E+02  0.11871427919E+04  0.11958639395E+04  0.83122445709E+02 0.  0.
        254    2    1    2    0    0 -0.89608913699E+02  0.76442496102E+02 -0.44823771199E+03  0.10298932171E+04  0.91972266443E+03 0.  0.
         23    2    4    4    0    0  0.24801640433E+03  0.36346822924E+03 -0.10481731291E+03  0.46183089034E+03  0.93165507048E+02 0.  0.
         23    2    4    4    0    0 -0.33762531803E+03 -0.28702573314E+03 -0.34342039907E+03  0.56806232671E+03  0.91556592740E+02 0.  0.
          1    1    3    3  502    0  0.28142524594E+02 -0.31239179608E+02  0.80946678561E+03  0.81055805778E+03  0.00000000000E+00 0. -1.
         -2    1    3    3    0  502  0.61466389105E+02 -0.45203316494E+02  0.37767600625E+03  0.38530588174E+03  0.00000000000E+00 0.  1.
         11    1    5    5    0    0  0.83033305705E+02  0.11644024582E+03 -0.79681993735E+02  0.16371341066E+03  0.00000000000E+00 0.  1.
        -11    1    5    5    0    0  0.16498309863E+03  0.24702798341E+03 -0.25135319180E+02  0.29811747968E+03  0.00000000000E+00 0. -1.
          3    1    6    6  503    0 -0.15387885669E+03 -0.14946634608E+03 -0.22071733472E+03  0.30779056677E+03  0.00000000000E+00 0. -1.
         -3    1    6    6    0  503 -0.18374646134E+03 -0.13755938706E+03 -0.12270306435E+03  0.26027175995E+03  0.00000000000E+00 0.  1.
<mgrwt>
<rscale>  0 0.20995271E+04</rscale>
<asrwt>0</asrwt>
<pdfrwt beam="1">  1        1 0.22805094E+00 0.20995271E+04</pdfrwt>
<pdfrwt beam="2">  1       -2 0.11437324E+00 0.20995271E+04</pdfrwt>
<totfact> 0.32464021E+00</totfact>
</mgrwt>
</event>
<event>
12    4  0.4280696E-008  0.1831070E+04  0.7818608E-02  0.8689949E-01
         -2   -1    0    0    0  501 -0.00000000000E+00  0.00000000000E+00  0.49729944788E+03  0.49729944788E+03  0.00000000000E+00 0.  1.
          1   -1    0    0  501    0  0.00000000000E+00 -0.00000000000E+00 -0.16855119978E+04  0.16855119978E+04  0.00000000000E+00 0. -1.
        -24    2    1    2    0    0 -0.53011025337E+02  0.55961043859E+03 -0.92029251478E+03  0.10814220230E+04  0.81001649756E+02 0.  0.
        254    2    1    2    0    0  0.53011025337E+02 -0.55961043859E+03 -0.26792003515E+03  0.11013894227E+04  0.90846216399E+03 0.  0.
         23    2    4    4    0    0 -0.37832222110E+03 -0.54499942441E+02 -0.47558585734E+02  0.39589344895E+03  0.91497853209E+02 0.  0.
         23    2    4    4    0    0  0.43133324644E+03 -0.50511049615E+03 -0.22036144941E+03  0.70549597374E+03  0.89333184107E+02 0.  0.
          1    1    3    3  502    0 -0.22383387442E+02  0.60141441725E+02 -0.14628666626E+03  0.15974291149E+03  0.00000000000E+00 0. -1.
         -2    1    3    3    0  502 -0.30627637896E+02  0.49946899686E+03 -0.77400584852E+03  0.92167911150E+03  0.00000000000E+00 0.  1.
         11    1    5    5    0    0 -0.34355292075E+03 -0.39467325144E+02 -0.15319435344E+02  0.34615164915E+03  0.00000000000E+00 0. -1.
        -11    1    5    5    0    0 -0.34769300349E+02 -0.15032617298E+02 -0.32239150390E+02  0.49741799802E+02  0.00000000000E+00 0.  1.
          3    1    6    6  503    0  0.37183424598E+03 -0.47176471247E+03 -0.18417960427E+03  0.62828717721E+03  0.00000000000E+00 0. -1.
         -3    1    6    6    0  503  0.59499000459E+02 -0.33345783676E+02 -0.36181845147E+02  0.77208796538E+02  0.00000000000E+00 0.  1.
<mgrwt>
<rscale>  0 0.18310698E+04</rscale>
<asrwt>0</asrwt>
<pdfrwt beam="1">  1        1 0.25930954E+00 0.18310698E+04</pdfrwt>
<pdfrwt beam="2">  1       -2 0.76507608E-01 0.18310698E+04</pdfrwt>
<totfact> 0.61532517E+00</totfact>
</mgrwt>
</event>
<event>
12    4  0.4280696E-008  0.1523300E+04  0.7818608E-02  0.8869105E-01
         -2   -1    0    0    0  501 -0.00000000000E+00  0.00000000000E+00  0.37954844481E+03  0.37954844481E+03  0.00000000000E+00 0.  1.
          1   -1    0    0  501    0  0.00000000000E+00 -0.00000000000E+00 -0.15284242406E+04  0.15284242406E+04  0.00000000000E+00 0. -1.
        -24    2    1    2    0    0  0.42123372306E+03 -0.23781721267E+03 -0.27155930359E+03  0.56059446885E+03  0.80788780505E+02 0.  0.
        254    2    1    2    0    0 -0.42123372306E+03  0.23781721267E+03 -0.87731649217E+03  0.13473782165E+04  0.90097111768E+03 0.  0.
         23    2    4    4    0    0 -0.47041186964E+03  0.51513124568E+03 -0.73462347731E+03  0.10172378535E+04  0.91943840487E+02 0.  0.
         23    2    4    4    0    0  0.49178146583E+02 -0.27731403301E+03 -0.14269301487E+03  0.33014036304E+03  0.96487303884E+02 0.  0.
          3    1    3    3  502    0  0.27534538489E+03 -0.18741960702E+03 -0.21380409880E+03  0.39579462192E+03  0.00000000000E+00 0. -1.
         -4    1    3    3    0  502  0.14588833817E+03 -0.50397605648E+02 -0.57755204796E+02  0.16479984693E+03  0.00000000000E+00 0.  1.
         11    1    5    5    0    0 -0.22713780903E+03  0.30491987966E+03 -0.36065392523E+03  0.52406008347E+03  0.00000000000E+00 0.  1.
        -11    1    5    5    0    0 -0.24327406061E+03  0.21021136603E+03 -0.37396955207E+03  0.49317777003E+03  0.00000000000E+00 0. -1.
          2    1    6    6  503    0 -0.26782055605E+02 -0.12075884852E+03 -0.58162683812E+02  0.13668531665E+03  0.00000000000E+00 0.  1.
         -2    1    6    6    0  503  0.75960202189E+02 -0.15655518449E+03 -0.84530331057E+02  0.19345504640E+03  0.00000000000E+00 0. -1.
<mgrwt>
<rscale>  0 0.15233004E+04</rscale>
<asrwt>0</asrwt>
<pdfrwt beam="1">  1        1 0.23514219E+00 0.15233004E+04</pdfrwt>
<pdfrwt beam="2">  1       -2 0.58392069E-01 0.15233004E+04</pdfrwt>
<totfact> 0.14527724E+01</totfact>
</mgrwt>
</event>
<event>
12    4  0.4280696E-008  0.1447723E+04  0.7818608E-02  0.8919980E-01
         -2   -1    0    0    0  501 -0.00000000000E+00  0.00000000000E+00  0.65848831594E+03  0.65848831594E+03  0.00000000000E+00 0.  1.
          1   -1    0    0  501    0  0.00000000000E+00 -0.00000000000E+00 -0.79572498422E+03  0.79572498422E+03  0.00000000000E+00 0. -1.
        -24    2    1    2    0    0 -0.79366391312E+01 -0.17923222836E+03  0.31973211184E+03  0.37519428772E+03  0.79717929436E+02 0.  0.
        254    2    1    2    0    0  0.79366391312E+01  0.17923222836E+03 -0.45696878012E+03  0.10790190124E+04  0.96087167783E+03 0.  0.
         23    2    4    4    0    0  0.11026764986E+03 -0.72324339069E+02 -0.69084261969E+03  0.70942457979E+03  0.92897495090E+02 0.  0.
         23    2    4    4    0    0 -0.10233101073E+03  0.25155656743E+03  0.23387383957E+03  0.36959443264E+03  0.90281390284E+02 0.  0.
          3    1    3    3  502    0  0.12623006332E+01 -0.21702944196E+02  0.38311787714E+01  0.22074626168E+02  0.00000000000E+00 0. -1.
         -4    1    3    3    0  502 -0.91989397644E+01 -0.15752928416E+03  0.31590093307E+03  0.35311966156E+03  0.00000000000E+00 0.  1.
         11    1    5    5    0    0  0.10458843107E+03 -0.19513254146E+02 -0.40839552406E+03  0.42202655257E+03  0.00000000000E+00 0. -1.
        -11    1    5    5    0    0  0.56792187877E+01 -0.52811084923E+02 -0.28244709564E+03  0.28739802722E+03  0.00000000000E+00 0.  1.
          2    1    6    6  503    0 -0.72911588193E+02  0.70884558055E+02  0.66071004067E+02  0.12126870100E+03  0.00000000000E+00 0. -1.
         -2    1    6    6    0  503 -0.29419422535E+02  0.18067200937E+03  0.16780283551E+03  0.24832573164E+03  0.00000000000E+00 0.  1.
<mgrwt>
<rscale>  0 0.14477232E+04</rscale>
<asrwt>0</asrwt>
<pdfrwt beam="1">  1        1 0.12241923E+00 0.14477232E+04</pdfrwt>
<pdfrwt beam="2">  1       -2 0.10130589E+00 0.14477232E+04</pdfrwt>
<totfact> 0.15199004E+01</totfact>
</mgrwt>
</event>
<event>
12    4  0.4280696E-008  0.1388834E+04  0.7818608E-02  0.8961941E-01
          1   -1    0    0  501    0  0.00000000000E+00  0.00000000000E+00  0.17432721963E+04  0.17432721963E+04  0.00000000000E+00 0. -1.
         -2   -1    0    0    0  501 -0.00000000000E+00 -0.00000000000E+00 -0.27661500301E+03  0.27661500301E+03  0.00000000000E+00 0.  1.
        -24    2    1    2    0    0  0.14530059646E+03  0.33437264841E+03  0.68370000224E+03  0.77902213397E+03  0.80699819165E+02 0.  0.
        254    2    1    2    0    0 -0.14530059646E+03 -0.33437264841E+03  0.78295719104E+03  0.12408650653E+04  0.89095836940E+03 0.  0.
         23    2    4    4    0    0  0.26384680365E+03 -0.36899894503E+03  0.65190269325E+03  0.79942073571E+03  0.91219701689E+02 0.  0.
         23    2    4    4    0    0 -0.40914740012E+03  0.34626296623E+02  0.13105449778E+03  0.44144432961E+03  0.95379449135E+02 0.  0.
          3    1    3    3  502    0  0.28422283739E+02  0.11256626496E+03  0.28872737309E+03  0.31119525412E+03  0.00000000000E+00 0. -1.
         -4    1    3    3    0  502  0.11687831273E+03  0.22180638345E+03  0.39497262915E+03  0.46782687984E+03  0.00000000000E+00 0.  1.
         11    1    5    5    0    0  0.49522354088E+02 -0.14060906517E+03  0.19440095432E+03  0.24497980285E+03  0.00000000000E+00 0. -1.
        -11    1    5    5    0    0  0.21432444957E+03 -0.22838987986E+03  0.45750173893E+03  0.55444093286E+03  0.00000000000E+00 0.  1.
          2    1    6    6  503    0 -0.15114949050E+03  0.56105258306E+02  0.68038859659E+02  0.17499501396E+03  0.00000000000E+00 0. -1.
         -2    1    6    6    0  503 -0.25799790962E+03 -0.21478961683E+02  0.63015638122E+02  0.26644931565E+03  0.00000000000E+00 0.  1.
<mgrwt>
<rscale>  0 0.13888344E+04</rscale>
<asrwt>0</asrwt>
<pdfrwt beam="1">  1        1 0.26819572E+00 0.13888344E+04</pdfrwt>
<pdfrwt beam="2">  1       -2 0.42556155E-01 0.13888344E+04</pdfrwt>
<totfact> 0.19969328E+01</totfact>
</mgrwt>
</event>
<event>
12    4  0.4280696E-008  0.1544342E+04  0.7818608E-02  0.8855490E-01
          1   -1    0    0  501    0  0.00000000000E+00  0.00000000000E+00  0.12191951186E+04  0.12191951186E+04  0.00000000000E+00 0. -1.
         -2   -1    0    0    0  501 -0.00000000000E+00 -0.00000000000E+00 -0.48905026872E+03  0.48905026872E+03  0.00000000000E+00 0.  1.
        -24    2    1    2    0    0 -0.19317192364E+03  0.16070448184E+03  0.74248585297E+03  0.78779320828E+03  0.78686559084E+02 0.  0.
        254    2    1    2    0    0  0.19317192364E+03 -0.16070448184E+03 -0.12341003136E+02  0.92045217899E+03  0.88540306690E+03 0.  0.
         23    2    4    4    0    0  0.32708250056E+01 -0.25871754253E+03 -0.38966889578E+03  0.47712715302E+03  0.94143543028E+02 0.  0.
         23    2    4    4    0    0  0.18990109864E+03  0.98013060689E+02  0.37732789265E+03  0.44332502597E+03  0.92150706757E+02 0.  0.
          1    1    3    3  502    0 -0.17904964673E+03  0.13786917445E+03  0.71281316461E+03  0.74777623184E+03  0.00000000000E+00 0. -1.
         -2    1    3    3    0  502 -0.14122276909E+02  0.22835307398E+02  0.29672688360E+02  0.40016976442E+02  0.00000000000E+00 0.  1.
         11    1    5    5    0    0 -0.17087761363E+02 -0.27814287591E+02 -0.13608702120E+02  0.35366975499E+02  0.00000000000E+00 0. -1.
        -11    1    5    5    0    0  0.20358586368E+02 -0.23090325494E+03 -0.37606019366E+03  0.44176017752E+03  0.00000000000E+00 0.  1.
          2    1    6    6  503    0  0.17178189797E+01  0.20172987976E+02  0.83930524679E+01  0.21916744184E+02  0.00000000000E+00 0. -1.
         -2    1    6    6    0  503  0.18818327966E+03  0.77840072714E+02  0.36893484018E+03  0.42140828179E+03  0.00000000000E+00 0.  1.
<mgrwt>
<rscale>  0 0.15443415E+04</rscale>
<asrwt>0</asrwt>
<pdfrwt beam="1">  1        1 0.18756848E+00 0.15443415E+04</pdfrwt>
<pdfrwt beam="2">  1       -2 0.75238503E-01 0.15443415E+04</pdfrwt>
<totfact> 0.13869069E+01</totfact>
</mgrwt>
</event>
<event>
12    4  0.4280696E-008  0.1459605E+04  0.7818608E-02  0.8911768E-01
         -2   -1    0    0    0  501 -0.00000000000E+00  0.00000000000E+00  0.43497989905E+03  0.43497989905E+03  0.00000000000E+00 0.  1.
          1   -1    0    0  501    0  0.00000000000E+00 -0.00000000000E+00 -0.12244516166E+04  0.12244516166E+04  0.00000000000E+00 0. -1.
        -24    2    1    2    0    0  0.44635491845E+03  0.48611832607E+02 -0.15334694847E+03  0.48107775758E+03  0.79527974548E+02 0.  0.
        254    2    1    2    0    0 -0.44635491845E+03 -0.48611832607E+02 -0.63612476909E+03  0.11783537581E+04  0.88445861057E+03 0.  0.
         23    2    4    4    0    0 -0.11119022113E+03  0.30811135357E+03  0.35564002749E+02  0.34171720778E+03  0.90608941768E+02 0.  0.
         23    2    4    4    0    0 -0.33516469733E+03 -0.35672318618E+03 -0.67168877184E+03  0.83663655029E+03  0.95958872363E+02 0.  0.
          3    1    3    3  502    0  0.34623966801E+03  0.38322133910E+02 -0.15290403005E+03  0.38043414155E+03  0.00000000000E+00 0. -1.
         -4    1    3    3    0  502  0.10011525045E+03  0.10289698697E+02 -0.44291841806E+00  0.10064361603E+03  0.00000000000E+00 0.  1.
         11    1    5    5    0    0 -0.12106590095E+03  0.26134341425E+03  0.48779728768E+02  0.29212462149E+03  0.00000000000E+00 0. -1.
        -11    1    5    5    0    0  0.98756798238E+01  0.46767939319E+02 -0.13215726019E+02  0.49592586284E+02  0.00000000000E+00 0.  1.
          4    1    6    6  503    0 -0.37664269860E+02 -0.70235387937E+02 -0.16259874357E+03  0.18107997778E+03  0.00000000000E+00 0. -1.
         -4    1    6    6    0  503 -0.29750042747E+03 -0.28648779824E+03 -0.50909002827E+03  0.65555657251E+03  0.00000000000E+00 0.  1.
<mgrwt>
<rscale>  0 0.14596052E+04</rscale>
<asrwt>0</asrwt>
<pdfrwt beam="1">  1        1 0.18837717E+00 0.14596052E+04</pdfrwt>
<pdfrwt beam="2">  1       -2 0.66919985E-01 0.14596052E+04</pdfrwt>
<totfact> 0.17896724E+01</totfact>
</mgrwt>
</event>
<event>
12    4  0.4280696E-008  0.2087508E+04  0.7818608E-02  0.8566766E-01
         -2   -1    0    0    0  501 -0.00000000000E+00  0.00000000000E+00  0.64248651849E+03  0.64248651849E+03  0.00000000000E+00 0.  1.
          1   -1    0    0  501    0  0.00000000000E+00 -0.00000000000E+00 -0.16956338932E+04  0.16956338932E+04  0.00000000000E+00 0. -1.
        -24    2    1    2    0    0 -0.78976366996E+03 -0.20275736630E+03 -0.16519298896E+03  0.83562848425E+03  0.78415789907E+02 0.  0.
        254    2    1    2    0    0  0.78976366996E+03  0.20275736630E+03 -0.88795438575E+03  0.15024919274E+04  0.89676183952E+03 0.  0.
         23    2    4    4    0    0  0.37765067943E+03  0.18304133628E+03  0.88475604260E+02  0.43886638981E+03  0.93014026337E+02 0.  0.
         23    2    4    4    0    0  0.41211299053E+03  0.19716030026E+02 -0.97642999001E+03  0.10636255376E+04  0.87509542738E+02 0.  0.
          3    1    3    3  502    0 -0.12511279010E+01 -0.64120328430E+01 -0.17538398126E+01  0.67642767753E+01  0.00000000000E+00 0. -1.
         -4    1    3    3    0  502 -0.78851254206E+03 -0.19634533346E+03 -0.16343914915E+03  0.82886420748E+03  0.00000000000E+00 0.  1.
         11    1    5    5    0    0  0.16813526683E+03  0.13119576153E+03  0.30964764404E+02  0.21550084090E+03  0.00000000000E+00 0. -1.
        -11    1    5    5    0    0  0.20951541260E+03  0.51845574752E+02  0.57510839856E+02  0.22336554891E+03  0.00000000000E+00 0.  1.
          1    1    6    6  503    0  0.33135536689E+03 -0.90668176597E+01 -0.70629826095E+03  0.78021523938E+03  0.00000000000E+00 0. -1.
         -1    1    6    6    0  503  0.80757623644E+02  0.28782847686E+02 -0.27013172907E+03  0.28341029823E+03  0.00000000000E+00 0.  1.
<mgrwt>
<rscale>  0 0.20875075E+04</rscale>
<asrwt>0</asrwt>
<pdfrwt beam="1">  1        1 0.26086675E+00 0.20875075E+04</pdfrwt>
<pdfrwt beam="2">  1       -2 0.98844079E-01 0.20875075E+04</pdfrwt>
<totfact> 0.32936585E+00</totfact>
</mgrwt>
</event>
<event>
12    4  0.4280696E-008  0.1672509E+04  0.7818608E-02  0.8777201E-01
          1   -1    0    0  501    0  0.00000000000E+00  0.00000000000E+00  0.64560781542E+03  0.64560781542E+03  0.00000000000E+00 0. -1.
         -2   -1    0    0    0  501 -0.00000000000E+00 -0.00000000000E+00 -0.10831985463E+04  0.10831985463E+04  0.00000000000E+00 0.  1.
        -24    2    1    2    0    0 -0.39560678571E+03 -0.95835808598E+02  0.28713319075E+03  0.50465710785E+03  0.80895588026E+02 0.  0.
        254    2    1    2    0    0  0.39560678571E+03  0.95835808598E+02 -0.72472392161E+03  0.12241492539E+04  0.89868092339E+03 0.  0.
         23    2    4    4    0    0 -0.19303564036E+03 -0.97592654108E+02  0.37586174663E+02  0.23761758964E+03  0.90897270558E+02 0.  0.
         23    2    4    4    0    0  0.58864242607E+03  0.19342846271E+03 -0.76231009627E+03  0.98653166422E+03  0.90628724327E+02 0.  0.
          1    1    3    3  502    0 -0.23076872676E+03 -0.95498009625E+02  0.18406655071E+03  0.31024920658E+03  0.00000000000E+00 0. -1.
         -2    1    3    3    0  502 -0.16483805895E+03 -0.33779897339E+00  0.10306664003E+03  0.19440790127E+03  0.00000000000E+00 0.  1.
         11    1    5    5    0    0  0.55993660137E+01  0.54727500953E+01  0.91397692902E+01  0.12034919029E+02  0.00000000000E+00 0. -1.
        -11    1    5    5    0    0 -0.19863500638E+03 -0.10306540420E+03  0.28446405372E+02  0.22558267061E+03  0.00000000000E+00 0.  1.
          1    1    6    6  503    0  0.50056609031E+03  0.17326595030E+03 -0.69506072509E+03  0.87389754083E+03  0.00000000000E+00 0.  1.
         -1    1    6    6    0  503  0.88076335761E+02  0.20162512404E+02 -0.67249371176E+02  0.11263412339E+03  0.00000000000E+00 0. -1.
<mgrwt>
<rscale>  0 0.16725088E+04</rscale>
<asrwt>0</asrwt>
<pdfrwt beam="1">  1        1 0.99324279E-01 0.16725088E+04</pdfrwt>
<pdfrwt beam="2">  1       -2 0.16664593E+00 0.16725088E+04</pdfrwt>
<totfact> 0.57820867E+00</totfact>
</mgrwt>
</event>
<event>
12    4  0.4280696E-008  0.1563250E+04  0.7818608E-02  0.8843448E-01
         -2   -1    0    0    0  501 -0.00000000000E+00  0.00000000000E+00  0.52330557405E+03  0.52330557405E+03  0.00000000000E+00 0.  1.
          1   -1    0    0  501    0  0.00000000000E+00 -0.00000000000E+00 -0.11674591718E+04  0.11674591718E+04  0.00000000000E+00 0. -1.
        -24    2    1    2    0    0 -0.16984905074E+03 -0.49402509380E+03 -0.21216964112E+03  0.56943375999E+03  0.79557256535E+02 0.  0.
        254    2    1    2    0    0  0.16984905074E+03  0.49402509380E+03 -0.43198395664E+03  0.11213309859E+04  0.89323207944E+03 0.  0.
         23    2    4    4    0    0  0.33624014016E+03  0.45740905748E+03  0.73787498330E+02  0.57984802482E+03  0.92188173068E+02 0.  0.
         23    2    4    4    0    0 -0.16639108942E+03  0.36616036317E+02 -0.50577145498E+03  0.54148296105E+03  0.91500293381E+02 0.  0.
          3    1    3    3  502    0 -0.77478094321E+02 -0.14749986660E+03 -0.96893483892E+02  0.19273664148E+03  0.00000000000E+00 0. -1.
         -4    1    3    3    0  502 -0.92370956421E+02 -0.34652522720E+03 -0.11527615723E+03  0.37669711852E+03  0.00000000000E+00 0.  1.
         11    1    5    5    0    0  0.22080243580E+03  0.24243200977E+03  0.11981256407E+02  0.32813190262E+03  0.00000000000E+00 0. -1.
        -11    1    5    5    0    0  0.11543770437E+03  0.21497704771E+03  0.61806241923E+02  0.25171612220E+03  0.00000000000E+00 0.  1.
          1    1    6    6  503    0 -0.17692627958E+03  0.41442331746E+02 -0.47143630542E+03  0.50524505474E+03  0.00000000000E+00 0. -1.
         -1    1    6    6    0  503  0.10535190160E+02 -0.48262954292E+01 -0.34335149556E+02  0.36237906318E+02  0.00000000000E+00 0.  1.
<mgrwt>
<rscale>  0 0.15632503E+04</rscale>
<asrwt>0</asrwt>
<pdfrwt beam="1">  1        1 0.17960910E+00 0.15632503E+04</pdfrwt>
<pdfrwt beam="2">  1       -2 0.80508551E-01 0.15632503E+04</pdfrwt>
<totfact> 0.12987091E+01</totfact>
</mgrwt>
</event>
<event>
12    4  0.4280696E-008  0.2109615E+04  0.7818608E-02  0.8557019E-01
          1   -1    0    0  501    0  0.00000000000E+00  0.00000000000E+00  0.55962438613E+03  0.55962438613E+03  0.00000000000E+00 0. -1.
         -2   -1    0    0    0  501 -0.00000000000E+00 -0.00000000000E+00 -0.19881537305E+04  0.19881537305E+04  0.00000000000E+00 0.  1.
        -24    2    1    2    0    0 -0.78828589943E+03 -0.13991502755E+03 -0.97050274011E+03  0.12605758937E+04  0.78772717310E+02 0.  0.
        254    2    1    2    0    0  0.78828589943E+03  0.13991502755E+03 -0.45802660429E+03  0.12872022230E+04  0.89784760311E+03 0.  0.
         23    2    4    4    0    0  0.50412941835E+03 -0.27671069168E+03  0.24403904426E+02  0.58252727742E+03  0.89594648537E+02 0.  0.
         23    2    4    4    0    0  0.28415648108E+03  0.41662571923E+03 -0.48243050872E+03  0.70467494556E+03  0.97497115294E+02 0.  0.
          3    1    3    3  502    0 -0.20233520541E+03 -0.40602645483E+02 -0.30593332921E+03  0.36903023195E+03  0.00000000000E+00 0. -1.
         -4    1    3    3    0  502 -0.58595069402E+03 -0.99312382063E+02 -0.66456941090E+03  0.89154566173E+03  0.00000000000E+00 0.  1.
         11    1    5    5    0    0  0.14279318301E+03 -0.81792081773E+02 -0.33417932108E+02  0.16791842050E+03  0.00000000000E+00 0.  1.
        -11    1    5    5    0    0  0.36133623534E+03 -0.19491860991E+03  0.57821836535E+02  0.41460885692E+03  0.00000000000E+00 0. -1.
          1    1    6    6  503    0  0.96238313236E+02  0.10955616337E+03 -0.86521803878E+02  0.16955939494E+03  0.00000000000E+00 0.  1.
         -1    1    6    6    0  503  0.18791816785E+03  0.30706955586E+03 -0.39590870484E+03  0.53511555061E+03  0.00000000000E+00 0. -1.
<mgrwt>
<rscale>  0 0.21096154E+04</rscale>
<asrwt>0</asrwt>
<pdfrwt beam="1">  1        1 0.86096061E-01 0.21096154E+04</pdfrwt>
<pdfrwt beam="2">  1       -2 0.30586980E+00 0.21096154E+04</pdfrwt>
<totfact> 0.89184430E-01</totfact>
</mgrwt>
</event>
<event>
12    4  0.4280696E-008  0.2402707E+04  0.7818608E-02  0.8438491E-01
         -2   -1    0    0    0  501 -0.00000000000E+00  0.00000000000E+00  0.89716787645E+03  0.89716787645E+03  0.00000000000E+00 0.  1.
          1   -1    0    0  501    0  0.00000000000E+00 -0.00000000000E+00 -0.16086730964E+04  0.16086730964E+04  0.00000000000E+00 0. -1.
        -24    2    1    2    0    0  0.19733872058E+03 -0.10344886601E+02  0.76900725542E+03  0.79810403887E+03  0.80921632816E+02 0.  0.
        254    2    1    2    0    0 -0.19733872058E+03  0.10344886601E+02 -0.14805124754E+04  0.17077369340E+04  0.82788807134E+03 0.  0.
         23    2    4    4    0    0 -0.42748937093E+03 -0.13889210038E+03 -0.12703728378E+04  0.13502980250E+04  0.86136121779E+02 0.  0.
         23    2    4    4    0    0  0.23015065035E+03  0.14923698698E+03 -0.21013963754E+03  0.35743890898E+03  0.91448926969E+02 0.  0.
          3    1    3    3  502    0  0.24009323162E+02  0.66594681179E+01  0.30726885956E+02  0.39559292649E+02  0.00000000000E+00 0. -1.
         -4    1    3    3    0  502  0.17332939742E+03 -0.17004354719E+02  0.73828036946E+03  0.75854474622E+03  0.00000000000E+00 0.  1.
         11    1    5    5    0    0 -0.29892092470E+02  0.11574689374E+02 -0.74182630632E+02  0.80811962690E+02  0.00000000000E+00 0. -1.
        -11    1    5    5    0    0 -0.39759727846E+03 -0.15046678976E+03 -0.11961902072E+04  0.12694860623E+04  0.00000000000E+00 0.  1.
          3    1    6    6  503    0  0.11212552235E+02 -0.10568745457E+02 -0.24370056426E+02  0.28832609288E+02  0.00000000000E+00 0. -1.
         -3    1    6    6    0  503  0.21893809811E+03  0.15980573244E+03 -0.18576958112E+03  0.32860629969E+03  0.00000000000E+00 0.  1.
<mgrwt>
<rscale>  0 0.24027067E+04</rscale>
<asrwt>0</asrwt>
<pdfrwt beam="1">  1        1 0.24748817E+00 0.24027067E+04</pdfrwt>
<pdfrwt beam="2">  1       -2 0.13802583E+00 0.24027067E+04</pdfrwt>
<totfact> 0.16138231E+00</totfact>
</mgrwt>
</event>
<event>
12    4  0.4280696E-008  0.2236169E+04  0.7818608E-02  0.8503523E-01
          1   -1    0    0  501    0  0.00000000000E+00  0.00000000000E+00  0.13853162548E+04  0.13853162548E+04  0.00000000000E+00 0. -1.
         -2   -1    0    0    0  501 -0.00000000000E+00 -0.00000000000E+00 -0.90240257828E+03  0.90240257828E+03  0.00000000000E+00 0.  1.
        -24    2    1    2    0    0 -0.87138400014E+03 -0.27726864819E+03  0.15268037870E+02  0.91804353198E+03  0.79892644563E+02 0.  0.
        254    2    1    2    0    0  0.87138400014E+03  0.27726864819E+03  0.46764563864E+03  0.13696753011E+04  0.90616224161E+03 0.  0.
         23    2    4    4    0    0  0.28787206475E+03  0.30089306592E+03 -0.20575299700E+03  0.47381857196E+03  0.93609724818E+02 0.  0.
         23    2    4    4    0    0  0.58351193540E+03 -0.23624417732E+02  0.67339863564E+03  0.89585672913E+03  0.89717694942E+02 0.  0.
          1    1    3    3  502    0 -0.56026062374E+03 -0.17805999472E+03  0.48097216987E+02  0.58983952946E+03  0.00000000000E+00 0. -1.
         -4    1    3    3    0  502 -0.31112337641E+03 -0.99208653471E+02 -0.32829179116E+02  0.32820400252E+03  0.00000000000E+00 0.  1.
         11    1    5    5    0    0  0.28474263685E+03  0.25995727390E+03 -0.18160789809E+03  0.42618960821E+03  0.00000000000E+00 0. -1.
        -11    1    5    5    0    0  0.31294279000E+01  0.40935792020E+02 -0.24145098909E+02  0.47628963757E+02  0.00000000000E+00 0.  1.
          3    1    6    6  503    0  0.54281034531E+03 -0.32791307224E+02  0.58862282364E+03  0.80137080638E+03  0.00000000000E+00 0. -1.
         -3    1    6    6    0  503  0.40701590088E+02  0.91668894923E+01  0.84775811998E+02  0.94485922754E+02  0.00000000000E+00 0.  1.
<mgrwt>
<rscale>  0 0.22361690E+04</rscale>
<asrwt>0</asrwt>
<pdfrwt beam="1">  1        1 0.21312558E+00 0.22361690E+04</pdfrwt>
<pdfrwt beam="2">  1       -2 0.13883117E+00 0.22361690E+04</pdfrwt>
<totfact> 0.23039688E+00</totfact>
</mgrwt>
</event>
<event>
12    4  0.4280696E-008  0.2093453E+04  0.7818608E-02  0.8564133E-01
          1   -1    0    0  501    0  0.00000000000E+00  0.00000000000E+00  0.19391777492E+04  0.19391777492E+04  0.00000000000E+00 0. -1.
         -2   -1    0    0    0  501 -0.00000000000E+00 -0.00000000000E+00 -0.56500047228E+03  0.56500047228E+03  0.00000000000E+00 0.  1.
        -24    2    1    2    0    0 -0.19770994148E+03  0.35918493501E+03 -0.33247676189E+03  0.53304074466E+03  0.74085084701E+02 0.  0.
        254    2    1    2    0    0  0.19770994148E+03 -0.35918493501E+03  0.17066540388E+04  0.19711374768E+04  0.89700161975E+03 0.  0.
         23    2    4    4    0    0  0.37311090248E+03 -0.19290277482E+02  0.24056024378E+03  0.45320111959E+03  0.89096372334E+02 0.  0.
         23    2    4    4    0    0 -0.17540096100E+03 -0.33989465753E+03  0.14660937950E+04  0.15179363572E+04  0.91683659447E+02 0.  0.
          1    1    3    3  502    0 -0.67077809305E+02  0.11274964761E+03 -0.15217404099E+03  0.20092001963E+03  0.00000000000E+00 0. -1.
         -2    1    3    3    0  502 -0.13063213217E+03  0.24643528739E+03 -0.18030272091E+03  0.33212072503E+03  0.00000000000E+00 0.  1.
         11    1    5    5    0    0  0.25654442978E+03  0.23873999746E+02  0.13945219549E+03  0.29297086398E+03  0.00000000000E+00 0.  1.
        -11    1    5    5    0    0  0.11656647270E+03 -0.43164277229E+02  0.10110804828E+03  0.16023025561E+03  0.00000000000E+00 0. -1.
          3    1    6    6  503    0  0.19763168925E+00 -0.66475877458E+02  0.19758355221E+03  0.20846664348E+03  0.00000000000E+00 0. -1.
         -3    1    6    6    0  503 -0.17559859269E+03 -0.27341878007E+03  0.12685102428E+04  0.13094697137E+04  0.00000000000E+00 0.  1.
<mgrwt>
<rscale>  0 0.20934530E+04</rscale>
<asrwt>0</asrwt>
<pdfrwt beam="1">  1        1 0.29833504E+00 0.20934530E+04</pdfrwt>
<pdfrwt beam="2">  1       -2 0.86923150E-01 0.20934530E+04</pdfrwt>
<totfact> 0.30320641E+00</totfact>
</mgrwt>
</event>
<event>
12    4  0.4280696E-008  0.1216855E+04  0.7818608E-02  0.9098230E-01
         -2   -1    0    0    0  501 -0.00000000000E+00  0.00000000000E+00  0.25376678429E+03  0.25376678429E+03  0.00000000000E+00 0.  1.
          1   -1    0    0  501    0  0.00000000000E+00 -0.00000000000E+00 -0.14587565244E+04  0.14587565244E+04  0.00000000000E+00 0. -1.
        -24    2    1    2    0    0 -0.12901191195E+02  0.75396750328E+02  0.86256689035E+02  0.14021298084E+03  0.79801960490E+02 0.  0.
        254    2    1    2    0    0  0.12901191195E+02 -0.75396750328E+02 -0.12912464292E+04  0.15723103279E+04  0.89386314142E+03 0.  0.
         23    2    4    4    0    0 -0.20405140748E+03  0.75156475881E+02  0.15034570212E+02  0.23660280778E+03  0.92029221377E+02 0.  0.
         23    2    4    4    0    0  0.21695259867E+03 -0.15055322621E+03 -0.13062809994E+04  0.13357075201E+04  0.89497630589E+02 0.  0.
          1    1    3    3  502    0 -0.48197288659E+01  0.28256090041E+02 -0.11890283931E+02  0.31032487214E+02  0.00000000000E+00 0. -1.
         -2    1    3    3    0  502 -0.80814623287E+01  0.47140660288E+02  0.98146972966E+02  0.10918049362E+03  0.00000000000E+00 0.  1.
         11    1    5    5    0    0 -0.21080027786E+03  0.80990725861E+02  0.93348142076E+01  0.22601635688E+03  0.00000000000E+00 0. -1.
        -11    1    5    5    0    0  0.67488703783E+01 -0.58342499800E+01  0.56997560041E+01  0.10586450903E+02  0.00000000000E+00 0.  1.
          3    1    6    6  503    0  0.83067987501E+02 -0.89814301750E+02 -0.76919291540E+03  0.77886111756E+03  0.00000000000E+00 0. -1.
         -3    1    6    6    0  503  0.13388461117E+03 -0.60738924460E+02 -0.53708808401E+03  0.55684640256E+03  0.00000000000E+00 0.  1.
<mgrwt>
<rscale>  0 0.12168549E+04</rscale>
<asrwt>0</asrwt>
<pdfrwt beam="1">  1        1 0.22442408E+00 0.12168549E+04</pdfrwt>
<pdfrwt beam="2">  1       -2 0.39041044E-01 0.12168549E+04</pdfrwt>
<totfact> 0.37585944E+01</totfact>
</mgrwt>
</event>
<event>
12    4  0.4280696E-008  0.1072134E+04  0.7818608E-02  0.9232786E-01
         -2   -1    0    0    0  501 -0.00000000000E+00  0.00000000000E+00  0.33311423163E+03  0.33311423163E+03  0.00000000000E+00 0.  1.
          1   -1    0    0  501    0  0.00000000000E+00 -0.00000000000E+00 -0.86267060494E+03  0.86267060494E+03  0.00000000000E+00 0. -1.
        -24    2    1    2    0    0  0.27291552933E+02  0.39328486098E+02  0.62328608306E+02  0.11171796420E+03  0.79400815060E+02 0.  0.
        254    2    1    2    0    0 -0.27291552933E+02 -0.39328486098E+02 -0.59188498162E+03  0.10840668724E+04  0.90696284025E+03 0.  0.
         23    2    4    4    0    0  0.28704202765E+03 -0.14199579017E+03 -0.65417099075E+03  0.73394247904E+03  0.90420945246E+02 0.  0.
         23    2    4    4    0    0 -0.31433358058E+03  0.10266730407E+03  0.62286009130E+02  0.35012439332E+03  0.96754166110E+02 0.  0.
          3    1    3    3  502    0 -0.28212713375E+02  0.11222342263E+02  0.17619650402E+02  0.35104846420E+02  0.00000000000E+00 0. -1.
         -4    1    3    3    0  502  0.55504266309E+02  0.28106143835E+02  0.44708957905E+02  0.76613117784E+02  0.00000000000E+00 0.  1.
         11    1    5    5    0    0  0.12819771712E+03 -0.40819703484E+02 -0.18813050836E+03  0.23128768027E+03  0.00000000000E+00 0. -1.
        -11    1    5    5    0    0  0.15884431053E+03 -0.10117608668E+03 -0.46604048239E+03  0.50265479877E+03  0.00000000000E+00 0.  1.
          3    1    6    6  503    0 -0.22377931734E+02 -0.61854676242E+01  0.28425502097E+02  0.36702057271E+02  0.00000000000E+00 0. -1.
         -3    1    6    6    0  503 -0.29195564885E+03  0.10885277169E+03  0.33860507033E+02  0.31342233605E+03  0.00000000000E+00 0.  1.
<mgrwt>
<rscale>  0 0.10721341E+04</rscale>
<asrwt>0</asrwt>
<pdfrwt beam="1">  1        1 0.13271856E+00 0.10721341E+04</pdfrwt>
<pdfrwt beam="2">  1       -2 0.51248343E-01 0.10721341E+04</pdfrwt>
<totfact> 0.61507628E+01</totfact>
</mgrwt>
</event>
<event>
12    4  0.4280696E-008  0.1423014E+04  0.7818608E-02  0.8937326E-01
         -2   -1    0    0    0  501 -0.00000000000E+00  0.00000000000E+00  0.17885538620E+04  0.17885538620E+04  0.00000000000E+00 0.  1.
          1   -1    0    0  501    0  0.00000000000E+00 -0.00000000000E+00 -0.28304572081E+03  0.28304572081E+03  0.00000000000E+00 0. -1.
        -24    2    1    2    0    0 -0.77700593801E+02 -0.13221017180E+03  0.10215756094E+04  0.10358611596E+04  0.76646619471E+02 0.  0.
        254    2    1    2    0    0  0.77700593801E+02  0.13221017180E+03  0.48393253177E+03  0.10357384233E+04  0.90279924365E+03 0.  0.
         23    2    4    4    0    0 -0.44554610597E+02 -0.10367582711E+03 -0.22826791385E+03  0.26993505118E+03  0.89581811286E+02 0.  0.
         23    2    4    4    0    0  0.12225520440E+03  0.23588599891E+03  0.71220044562E+03  0.76580337209E+03  0.92934334232E+02 0.  0.
          3    1    3    3  502    0 -0.22182237256E+02  0.26362250391E+01  0.80017806491E+02  0.83077377713E+02  0.00000000000E+00 0. -1.
         -4    1    3    3    0  502 -0.55518356545E+02 -0.13484639684E+03  0.94155780294E+03  0.95278378184E+03  0.00000000000E+00 0.  1.
         11    1    5    5    0    0 -0.56596758187E+02 -0.10985054991E+03 -0.22386016557E+03  0.25570238576E+03  0.00000000000E+00 0. -1.
        -11    1    5    5    0    0  0.12042147590E+02  0.61747228035E+01 -0.44077482797E+01  0.14232665428E+02  0.00000000000E+00 0.  1.
          3    1    6    6  503    0  0.12144676150E+03  0.22243851974E+03  0.70752237440E+03  0.75154249462E+03  0.00000000000E+00 0. -1.
         -3    1    6    6    0  503  0.80844289519E+00  0.13447479168E+02  0.46780712225E+01  0.14260877472E+02  0.00000000000E+00 0.  1.
<mgrwt>
<rscale>  0 0.14230144E+04</rscale>
<asrwt>0</asrwt>
<pdfrwt beam="1">  1        1 0.43545497E-01 0.14230144E+04</pdfrwt>
<pdfrwt beam="2">  1       -2 0.27516213E+00 0.14230144E+04</pdfrwt>
<totfact> 0.36325055E+00</totfact>
</mgrwt>
</event>
<event>
12    4  0.4280696E-008  0.2286112E+04  0.7818608E-02  0.8483417E-01
          1   -1    0    0  501    0  0.00000000000E+00  0.00000000000E+00  0.10879833869E+04  0.10879833869E+04  0.00000000000E+00 0. -1.
         -2   -1    0    0    0  501 -0.00000000000E+00 -0.00000000000E+00 -0.12009163980E+04  0.12009163980E+04  0.00000000000E+00 0.  1.
        -24    2    1    2    0    0  0.85292758756E+03  0.43566109353E+03  0.72774419194E+02  0.96375496313E+03  0.79002878576E+02 0.  0.
        254    2    1    2    0    0 -0.85292758756E+03 -0.43566109353E+03 -0.18570743035E+03  0.13251448218E+04  0.89679177685E+03 0.  0.
         23    2    4    4    0    0 -0.61076169159E+03 -0.69544084156E+03 -0.22377699264E+03  0.95642397736E+03  0.89458783951E+02 0.  0.
         23    2    4    4    0    0 -0.24216589598E+03  0.25977974803E+03  0.38069562293E+02  0.36872084444E+03  0.91520111945E+02 0.  0.
          3    1    3    3  502    0  0.61901975957E+03  0.34292143694E+03  0.79012620566E+02  0.71205587482E+03  0.00000000000E+00 0. -1.
         -4    1    3    3    0  502  0.23390782799E+03  0.92739656587E+02 -0.62382013719E+01  0.25169908831E+03  0.00000000000E+00 0.  1.
         11    1    5    5    0    0 -0.11499203861E+03 -0.14950460782E+03 -0.11197047722E+02  0.18894488768E+03  0.00000000000E+00 0.  1.
        -11    1    5    5    0    0 -0.49576965297E+03 -0.54593623374E+03 -0.21257994492E+03  0.76747908969E+03  0.00000000000E+00 0. -1.
          1    1    6    6  503    0 -0.20781597743E+03  0.22536073356E+03  0.64660210591E+02  0.31329839377E+03  0.00000000000E+00 0. -1.
         -1    1    6    6    0  503 -0.34349918553E+02  0.34419014471E+02 -0.26590648298E+02  0.55422450673E+02  0.00000000000E+00 0.  1.
<mgrwt>
<rscale>  0 0.22861121E+04</rscale>
<asrwt>0</asrwt>
<pdfrwt beam="1">  1        1 0.16738206E+00 0.22861121E+04</pdfrwt>
<pdfrwt beam="2">  1       -2 0.18475637E+00 0.22861121E+04</pdfrwt>
<totfact> 0.17281977E+00</totfact>
</mgrwt>
</event>
<event>
12    4  0.4280696E-008  0.1851146E+04  0.7818608E-02  0.8679563E-01
          1   -1    0    0  501    0  0.00000000000E+00  0.00000000000E+00  0.21948462297E+04  0.21948462297E+04  0.00000000000E+00 0. -1.
         -2   -1    0    0    0  501 -0.00000000000E+00 -0.00000000000E+00 -0.39031697037E+03  0.39031697037E+03  0.00000000000E+00 0.  1.
        -24    2    1    2    0    0 -0.28435574622E+03  0.63832019450E+03  0.62280315510E+03  0.93946339219E+03  0.79980210945E+02 0.  0.
        254    2    1    2    0    0  0.28435574622E+03 -0.63832019450E+03  0.11817261043E+04  0.16456998079E+04  0.90749127332E+03 0.  0.
         23    2    4    4    0    0 -0.27629451578E+03 -0.46920524202E+03  0.55866806145E+03  0.78565420193E+03  0.93007008023E+02 0.  0.
         23    2    4    4    0    0  0.56065026200E+03 -0.16911495248E+03  0.62305804281E+03  0.86004560598E+03  0.92458294436E+02 0.  0.
          3    1    3    3  502    0 -0.12744382977E+03  0.19531792003E+03  0.19702173229E+03  0.30530080679E+03  0.00000000000E+00 0. -1.
         -4    1    3    3    0  502 -0.15691191645E+03  0.44300227448E+03  0.42578142281E+03  0.63416258540E+03  0.00000000000E+00 0.  1.
         11    1    5    5    0    0 -0.31376030030E+02 -0.11554340902E+03  0.92285269407E+02  0.15116648298E+03  0.00000000000E+00 0. -1.
        -11    1    5    5    0    0 -0.24491848575E+03 -0.35366183300E+03  0.46638279204E+03  0.63448771895E+03  0.00000000000E+00 0.  1.
          3    1    6    6  503    0 -0.35486932666E+01  0.59832101708E+00  0.27343552295E+01  0.45197246001E+01  0.00000000000E+00 0. -1.
         -3    1    6    6    0  503  0.56419895527E+03 -0.16971327350E+03  0.62032368759E+03  0.85552588138E+03  0.00000000000E+00 0.  1.
<mgrwt>
<rscale>  0 0.18511464E+04</rscale>
<asrwt>0</asrwt>
<pdfrwt beam="1">  1        1 0.33766865E+00 0.18511464E+04</pdfrwt>
<pdfrwt beam="2">  1       -2 0.60048766E-01 0.18511464E+04</pdfrwt>
<totfact> 0.46864620E+00</totfact>
</mgrwt>
</event>
<event>
12    4  0.4280696E-008  0.1327275E+04  0.7818608E-02  0.9008211E-01
          1   -1    0    0  501    0  0.00000000000E+00  0.00000000000E+00  0.17170468466E+04  0.17170468466E+04  0.00000000000E+00 0. -1.
         -2   -1    0    0    0  501 -0.00000000000E+00 -0.00000000000E+00 -0.25649561670E+03  0.25649561670E+03  0.00000000000E+00 0.  1.
        -24    2    1    2    0    0  0.33505584744E+03  0.11741673312E+03  0.54490610547E+03  0.65531896926E+03  0.80443629787E+02 0.  0.
        254    2    1    2    0    0 -0.33505584744E+03 -0.11741673312E+03  0.91564512445E+03  0.13182234941E+04  0.87935094032E+03 0.  0.
         23    2    4    4    0    0 -0.38285044662E+03  0.21162295825E+03  0.86002408008E+03  0.96915188819E+03  0.90858258420E+02 0.  0.
         23    2    4    4    0    0  0.47794599180E+02 -0.32903969137E+03  0.55621044369E+02  0.34907160587E+03  0.90586109538E+02 0.  0.
          3    1    3    3  502    0  0.28065595597E+03  0.11132143917E+03  0.50185416044E+03  0.58567723773E+03  0.00000000000E+00 0. -1.
         -4    1    3    3    0  502  0.54399891464E+02  0.60952939553E+01  0.43051945026E+02  0.69641731528E+02  0.00000000000E+00 0.  1.
         11    1    5    5    0    0 -0.88372848009E+02  0.10468373677E+02  0.14506315430E+03  0.17018421152E+03  0.00000000000E+00 0.  1.
        -11    1    5    5    0    0 -0.29447759861E+03  0.20115458457E+03  0.71496092578E+03  0.79896767667E+03  0.00000000000E+00 0. -1.
          2    1    6    6  503    0  0.18344188110E+02 -0.28818620878E+03  0.69130754470E+02  0.29692905110E+03  0.00000000000E+00 0. -1.
         -2    1    6    6    0  503  0.29450411070E+02 -0.40853482589E+02 -0.13509710101E+02  0.52142554779E+02  0.00000000000E+00 0.  1.
<mgrwt>
<rscale>  0 0.13272754E+04</rscale>
<asrwt>0</asrwt>
<pdfrwt beam="1">  1        1 0.26416105E+00 0.13272754E+04</pdfrwt>
<pdfrwt beam="2">  1       -2 0.39460865E-01 0.13272754E+04</pdfrwt>
<totfact> 0.24258255E+01</totfact>
</mgrwt>
</event>
<event>
12    4  0.4280696E-008  0.1472608E+04  0.7818608E-02  0.8902876E-01
         -4   -1    0    0    0  501 -0.00000000000E+00  0.00000000000E+00  0.26102184453E+03  0.26102184453E+03  0.00000000000E+00 0.  1.
          3   -1    0    0  501    0  0.00000000000E+00 -0.00000000000E+00 -0.20770037016E+04  0.20770037016E+04  0.00000000000E+00 0. -1.
        -24    2    1    2    0    0 -0.20743968507E+03  0.34302096697E+03 -0.15838309602E+03  0.43835959069E+03  0.79870638625E+02 0.  0.
        254    2    1    2    0    0  0.20743968507E+03 -0.34302096697E+03 -0.16575987611E+04  0.18996659555E+04  0.83690052151E+03 0.  0.
         23    2    4    4    0    0 -0.26781288867E+03 -0.26516293406E+03 -0.10490531459E+04  0.11184184554E+04  0.91171340763E+02 0.  0.
         23    2    4    4    0    0  0.47525257375E+03 -0.77858032910E+02 -0.60854561514E+03  0.78124750009E+03  0.89961150265E+02 0.  0.
          3    1    3    3  502    0 -0.18749115509E+02  0.21110326365E+02  0.86697064642E+01  0.29535385926E+02  0.00000000000E+00 0. -1.
         -4    1    3    3    0  502 -0.18869056957E+03  0.32191064061E+03 -0.16705280249E+03  0.40882420476E+03  0.00000000000E+00 0.  1.
         11    1    5    5    0    0 -0.74857658985E+02 -0.27833680453E+02 -0.26659960659E+03  0.27830510795E+03  0.00000000000E+00 0.  1.
        -11    1    5    5    0    0 -0.19295522969E+03 -0.23732925361E+03 -0.78245353933E+03  0.84011334741E+03  0.00000000000E+00 0. -1.
          3    1    6    6  503    0  0.44393488333E+03 -0.59167102805E+02 -0.58880304605E+03  0.73977561039E+03  0.00000000000E+00 0. -1.
         -3    1    6    6    0  503  0.31317690416E+02 -0.18690930105E+02 -0.19742569085E+02  0.41471889700E+02  0.00000000000E+00 0.  1.
<mgrwt>
<rscale>  0 0.14726077E+04</rscale>
<asrwt>0</asrwt>
<pdfrwt beam="1">  1        3 0.31953904E+00 0.14726077E+04</pdfrwt>
<pdfrwt beam="2">  1       -4 0.40157205E-01 0.14726077E+04</pdfrwt>
<totfact> 0.40846533E-01</totfact>
</mgrwt>
</event>
<event>
12    4  0.4280696E-008  0.1078986E+04  0.7818608E-02  0.9225919E-01
         -2   -1    0    0    0  501 -0.00000000000E+00  0.00000000000E+00  0.16780967230E+03  0.16780967230E+03  0.00000000000E+00 0.  1.
          1   -1    0    0  501    0  0.00000000000E+00 -0.00000000000E+00 -0.17344230254E+04  0.17344230254E+04  0.00000000000E+00 0. -1.
        -24    2    1    2    0    0  0.55187601755E+02 -0.12822490663E+03 -0.19898311014E+03  0.25983807656E+03  0.91838172042E+02 0.  0.
        254    2    1    2    0    0 -0.55187601755E+02  0.12822490663E+03 -0.13676302430E+04  0.16423946211E+04  0.89864359565E+03 0.  0.
         23    2    4    4    0    0 -0.33875710010E+03  0.14527850110E+03 -0.12772146469E+04  0.13324214967E+04  0.90595667770E+02 0.  0.
         23    2    4    4    0    0  0.28356949834E+03 -0.17053594472E+02 -0.90415596088E+02  0.30997312440E+03  0.84887409905E+02 0.  0.
          1    1    3    3  502    0  0.12371463325E+02 -0.33232805279E+02 -0.13030667109E+03  0.13504555151E+03  0.00000000000E+00 0. -1.
         -2    1    3    3    0  502  0.42816138430E+02 -0.94992101348E+02 -0.68676439044E+02  0.12479252505E+03  0.00000000000E+00 0.  1.
         11    1    5    5    0    0 -0.29027370619E+02  0.43607034098E+02 -0.21625863495E+03  0.22251282853E+03  0.00000000000E+00 0. -1.
        -11    1    5    5    0    0 -0.30972972948E+03  0.10167146700E+03 -0.10609560119E+04  0.11099086682E+04  0.00000000000E+00 0.  1.
          4    1    6    6  503    0  0.91118393470E+00 -0.41592817185E+01  0.90870799581E+01  0.10035183244E+02  0.00000000000E+00 0. -1.
         -4    1    6    6    0  503  0.28265831441E+03 -0.12894312753E+02 -0.99502676046E+02  0.29993794116E+03  0.00000000000E+00 0.  1.
<mgrwt>
<rscale>  0 0.10789865E+04</rscale>
<asrwt>0</asrwt>
<pdfrwt beam="1">  1        1 0.26683432E+00 0.10789865E+04</pdfrwt>
<pdfrwt beam="2">  1       -2 0.25816872E-01 0.10789865E+04</pdfrwt>
<totfact> 0.53561258E+01</totfact>
</mgrwt>
</event>
<event>
12    4  0.4280696E-008  0.1516568E+04  0.7818608E-02  0.8873510E-01
          1   -1    0    0  501    0  0.00000000000E+00  0.00000000000E+00  0.69042041183E+03  0.69042041183E+03  0.00000000000E+00 0. -1.
         -2   -1    0    0    0  501 -0.00000000000E+00 -0.00000000000E+00 -0.83281807522E+03  0.83281807522E+03  0.00000000000E+00 0.  1.
        -24    2    1    2    0    0 -0.34446720195E+02 -0.28480723128E+03 -0.33556306876E+03  0.44879022664E+03  0.80674400482E+02 0.  0.
        254    2    1    2    0    0  0.34446720195E+02  0.28480723128E+03  0.19316540537E+03  0.10744482604E+04  0.10172632181E+04 0.  0.
         23    2    4    4    0    0  0.34542373420E+03  0.51007963382E+03  0.25833071629E+03  0.67405830565E+03  0.90116876549E+02 0.  0.
         23    2    4    4    0    0 -0.31097701401E+03 -0.22527240254E+03 -0.65165310921E+02  0.40038995476E+03  0.92796764660E+02 0.  0.
          3    1    3    3  502    0 -0.84732846990E+01 -0.19790537817E+02 -0.14972584757E+01  0.21580169685E+02  0.00000000000E+00 0. -1.
         -4    1    3    3    0  502 -0.25973435496E+02 -0.26501669346E+03 -0.33406581028E+03  0.42721005696E+03  0.00000000000E+00 0.  1.
         11    1    5    5    0    0  0.10987733346E+03  0.94618158681E+02  0.59647825095E+02  0.15679122233E+03  0.00000000000E+00 0.  1.
        -11    1    5    5    0    0  0.23554640074E+03  0.41546147514E+03  0.19868289119E+03  0.51726708332E+03  0.00000000000E+00 0. -1.
          3    1    6    6  503    0 -0.29100471961E+03 -0.23300925997E+03 -0.55550354065E+02  0.37691232920E+03  0.00000000000E+00 0. -1.
         -3    1    6    6    0  503 -0.19972294401E+02  0.77368574240E+01 -0.96149568555E+01  0.23477625557E+02  0.00000000000E+00 0.  1.
<mgrwt>
<rscale>  0 0.15165680E+04</rscale>
<asrwt>0</asrwt>
<pdfrwt beam="1">  1        1 0.10621852E+00 0.15165680E+04</pdfrwt>
<pdfrwt beam="2">  1       -2 0.12812586E+00 0.15165680E+04</pdfrwt>
<totfact> 0.10599003E+01</totfact>
</mgrwt>
</event>
<event>
12    4  0.4280696E-008  0.1485516E+04  0.7818608E-02  0.8894142E-01
          1   -1    0    0  501    0  0.00000000000E+00  0.00000000000E+00  0.50985030016E+03  0.50985030016E+03  0.00000000000E+00 0. -1.
         -2   -1    0    0    0  501 -0.00000000000E+00 -0.00000000000E+00 -0.10820612434E+04  0.10820612434E+04  0.00000000000E+00 0.  1.
        -24    2    1    2    0    0 -0.17404013047E+03  0.24924753180E+03  0.18069873841E+03  0.36317014087E+03  0.82620929718E+02 0.  0.
        254    2    1    2    0    0  0.17404013047E+03 -0.24924753180E+03 -0.75290968165E+03  0.12287414027E+04  0.92223540751E+03 0.  0.
         23    2    4    4    0    0  0.21225410555E+03  0.58075351991E+02  0.14234268095E+03  0.27713032604E+03  0.90084554519E+02 0.  0.
         23    2    4    4    0    0 -0.38213975079E+02 -0.30732288380E+03 -0.89525236260E+03  0.95161107665E+03  0.90438850510E+02 0.  0.
          3    1    3    3  502    0 -0.15560471411E+02  0.59003171329E+02  0.67260672807E+02  0.90815750858E+02  0.00000000000E+00 0. -1.
         -4    1    3    3    0  502 -0.15847965906E+03  0.19024436048E+03  0.11343806561E+03  0.27235439001E+03  0.00000000000E+00 0.  1.
         11    1    5    5    0    0  0.20253639066E+03  0.33724172325E+02  0.10263580102E+03  0.22954828902E+03  0.00000000000E+00 0. -1.
        -11    1    5    5    0    0  0.97177148894E+01  0.24351179666E+02  0.39706879932E+02  0.47582037028E+02  0.00000000000E+00 0.  1.
          4    1    6    6  503    0 -0.31321704117E+02 -0.14510248347E+03 -0.30155816575E+03  0.33611472325E+03  0.00000000000E+00 0. -1.
         -4    1    6    6    0  503 -0.68922709621E+01 -0.16222040033E+03 -0.59369419685E+03  0.61549635340E+03  0.00000000000E+00 0.  1.
<mgrwt>
<rscale>  0 0.14855157E+04</rscale>
<asrwt>0</asrwt>
<pdfrwt beam="1">  1        1 0.78438509E-01 0.14855157E+04</pdfrwt>
<pdfrwt beam="2">  1       -2 0.16647096E+00 0.14855157E+04</pdfrwt>
<totfact> 0.82474878E+00</totfact>
</mgrwt>
</event>
<event>
12    4  0.4280696E-008  0.2436983E+04  0.7818608E-02  0.8425786E-01
          1   -1    0    0  501    0  0.00000000000E+00  0.00000000000E+00  0.27549002247E+04  0.27549002247E+04  0.00000000000E+00 0. -1.
         -2   -1    0    0    0  501 -0.00000000000E+00 -0.00000000000E+00 -0.53893839544E+03  0.53893839544E+03  0.00000000000E+00 0.  1.
        -24    2    1    2    0    0 -0.54064875356E+03  0.21758232354E+03 -0.22318989394E+03  0.62903288675E+03  0.78901847958E+02 0.  0.
        254    2    1    2    0    0  0.54064875356E+03 -0.21758232354E+03  0.24391517232E+04  0.26648057334E+04  0.90115776957E+03 0.  0.
         23    2    4    4    0    0  0.45953192654E+03  0.24682513947E+03  0.81944550241E+03  0.97546055731E+03  0.89107387257E+02 0.  0.
         23    2    4    4    0    0  0.81116827020E+02 -0.46440746301E+03  0.16197062208E+04  0.16893451761E+04  0.90469060735E+02 0.  0.
          1    1    3    3  502    0 -0.50613984645E+03  0.22142389015E+03 -0.20129741029E+03  0.58798531502E+03  0.00000000000E+00 0. -1.
         -2    1    3    3    0  502 -0.34508907108E+02 -0.38415666144E+01 -0.21892483654E+02  0.41047571723E+02  0.00000000000E+00 0.  1.
         11    1    5    5    0    0  0.29725131991E+03  0.13363398163E+03  0.44032243210E+03  0.54781404915E+03  0.00000000000E+00 0.  1.
        -11    1    5    5    0    0  0.16228060663E+03  0.11319115784E+03  0.37912307031E+03  0.42764650816E+03  0.00000000000E+00 0. -1.
          1    1    6    6  503    0  0.64035399483E+02 -0.45594344996E+03  0.15375498868E+04  0.16050061110E+04  0.00000000000E+00 0. -1.
         -1    1    6    6    0  503  0.17081427537E+02 -0.84640130480E+01  0.82156334009E+02  0.84339065097E+02  0.00000000000E+00 0.  1.
<mgrwt>
<rscale>  0 0.24369830E+04</rscale>
<asrwt>0</asrwt>
<pdfrwt beam="1">  1        1 0.42383080E+00 0.24369830E+04</pdfrwt>
<pdfrwt beam="2">  1       -2 0.82913601E-01 0.24369830E+04</pdfrwt>
<totfact> 0.89835933E-01</totfact>
</mgrwt>
</event>
<event>
12    4  0.4280696E-008  0.1908615E+04  0.7818608E-02  0.8650580E-01
          1   -1    0    0  501    0  0.00000000000E+00  0.00000000000E+00  0.13030146498E+04  0.13030146498E+04  0.00000000000E+00 0. -1.
         -2   -1    0    0    0  501 -0.00000000000E+00 -0.00000000000E+00 -0.69891982057E+03  0.69891982057E+03  0.00000000000E+00 0.  1.
        -24    2    1    2    0    0 -0.46168581756E+03  0.46166064023E+03 -0.11694200969E+03  0.66798237871E+03  0.78997998512E+02 0.  0.
        254    2    1    2    0    0  0.46168581756E+03 -0.46166064023E+03  0.72103683887E+03  0.13339520916E+04  0.91282513048E+03 0.  0.
         23    2    4    4    0    0 -0.23439753227E+03  0.84586850604E+01  0.54491669374E+02  0.25813426658E+03  0.93006478625E+02 0.  0.
         23    2    4    4    0    0  0.69608334983E+03 -0.47011932529E+03  0.66654516950E+03  0.10758178250E+04  0.86932846233E+02 0.  0.
          3    1    3    3  502    0 -0.98901094442E+02  0.98749602626E+02  0.75107621482E+01  0.13996185926E+03  0.00000000000E+00 0. -1.
         -4    1    3    3    0  502 -0.36278472312E+03  0.36291103760E+03 -0.12445277183E+03  0.52802051945E+03  0.00000000000E+00 0.  1.
         11    1    5    5    0    0 -0.82575282795E+02 -0.41369398240E+02  0.24515837131E+02  0.95556950086E+02  0.00000000000E+00 0.  1.
        -11    1    5    5    0    0 -0.15182224947E+03  0.49828083300E+02  0.29975832243E+02  0.16257731650E+03  0.00000000000E+00 0. -1.
          1    1    6    6  503    0  0.69108304254E+03 -0.46726019632E+03  0.64779738623E+03  0.10562051488E+04  0.00000000000E+00 0. -1.
         -1    1    6    6    0  503  0.50003072925E+01 -0.28591289716E+01  0.18747783269E+02  0.19612676232E+02  0.00000000000E+00 0.  1.
<mgrwt>
<rscale>  0 0.19086150E+04</rscale>
<asrwt>0</asrwt>
<pdfrwt beam="1">  1        1 0.20046379E+00 0.19086150E+04</pdfrwt>
<pdfrwt beam="2">  1       -2 0.10752613E+00 0.19086150E+04</pdfrwt>
<totfact> 0.51253723E+00</totfact>
</mgrwt>
</event>
<event>
12    4  0.4280696E-008  0.1618060E+04  0.7818608E-02  0.8809529E-01
          1   -1    0    0  501    0  0.00000000000E+00  0.00000000000E+00  0.65662869121E+03  0.65662869121E+03  0.00000000000E+00 0. -1.
         -4   -1    0    0    0  501 -0.00000000000E+00 -0.00000000000E+00 -0.99680337606E+03  0.99680337606E+03  0.00000000000E+00 0.  1.
        -24    2    1    2    0    0 -0.46531213790E+03  0.18231594228E+03  0.13669048835E+03  0.52389949050E+03  0.77665295088E+02 0.  0.
        254    2    1    2    0    0  0.46531213790E+03 -0.18231594228E+03 -0.47686517320E+03  0.11295325768E+04  0.89369399689E+03 0.  0.
         23    2    4    4    0    0  0.10831514790E+03  0.10026877950E+03 -0.62002928910E+03  0.64373992405E+03  0.90436558203E+02 0.  0.
         23    2    4    4    0    0  0.35699699000E+03 -0.28258472178E+03  0.14316411590E+03  0.48579265272E+03  0.90540386055E+02 0.  0.
          1    1    3    3  502    0 -0.41543710853E+03  0.17143202638E+03  0.98344340098E+02  0.46005275789E+03  0.00000000000E+00 0. -1.
         -2    1    3    3    0  502 -0.49875029367E+02  0.10883915893E+02  0.38346148249E+02  0.63846732611E+02  0.00000000000E+00 0.  1.
         11    1    5    5    0    0  0.73182270293E+02  0.11389043664E+03 -0.47879662087E+03  0.49756696072E+03  0.00000000000E+00 0.  1.
        -11    1    5    5    0    0  0.35132877608E+02 -0.13621657134E+02 -0.14123266823E+03  0.14617296332E+03  0.00000000000E+00 0. -1.
          3    1    6    6  503    0  0.76959553073E+02 -0.73455929449E+02  0.73769103909E+02  0.12946206808E+03  0.00000000000E+00 0. -1.
         -3    1    6    6    0  503  0.28003743693E+03 -0.20912879233E+03  0.69395011989E+02  0.35633058464E+03  0.00000000000E+00 0.  1.
<mgrwt>
<rscale>  0 0.16180602E+04</rscale>
<asrwt>0</asrwt>
<pdfrwt beam="1">  1        1 0.10101980E+00 0.16180602E+04</pdfrwt>
<pdfrwt beam="2">  1       -4 0.15335437E+00 0.16180602E+04</pdfrwt>
<totfact> 0.38832457E+00</totfact>
</mgrwt>
</event>
<event>
12    4  0.4280696E-008  0.1480684E+04  0.7818608E-02  0.8897400E-01
         -2   -1    0    0    0  501 -0.00000000000E+00  0.00000000000E+00  0.69794301619E+03  0.69794301619E+03  0.00000000000E+00 0.  1.
          1   -1    0    0  501    0  0.00000000000E+00 -0.00000000000E+00 -0.78531692720E+03  0.78531692720E+03  0.00000000000E+00 0. -1.
        -24    2    1    2    0    0 -0.18492951634E+03 -0.40354168562E+03  0.11024549497E+03  0.46431821678E+03  0.79953231529E+02 0.  0.
        254    2    1    2    0    0  0.18492951634E+03  0.40354168562E+03 -0.19761940598E+03  0.10189417266E+04  0.89562491846E+03 0.  0.
         23    2    4    4    0    0  0.65708513180E+02  0.49793537494E+03  0.22826155445E+03  0.55782171917E+03  0.82489313341E+02 0.  0.
         23    2    4    4    0    0  0.11922100316E+03 -0.94393689326E+02 -0.42588096043E+03  0.46112000744E+03  0.90184547612E+02 0.  0.
          1    1    3    3  502    0 -0.95972756675E+02 -0.29675999841E+03  0.70420478201E+02  0.31974413275E+03  0.00000000000E+00 0. -1.
         -2    1    3    3    0  502 -0.88956759663E+02 -0.10678168721E+03  0.39825016766E+02  0.14457408403E+03  0.00000000000E+00 0.  1.
         11    1    5    5    0    0  0.35728784941E+02  0.98506857143E+02  0.75393459749E+02  0.12909035886E+03  0.00000000000E+00 0. -1.
        -11    1    5    5    0    0  0.29979728239E+02  0.39942851780E+03  0.15286809470E+03  0.42873136031E+03  0.00000000000E+00 0.  1.
          1    1    6    6  503    0  0.37387090188E+02  0.39271004222E+01 -0.41419378229E+02  0.55935512184E+02  0.00000000000E+00 0. -1.
         -1    1    6    6    0  503  0.81833912970E+02 -0.98320789748E+02 -0.38446158220E+03  0.40518449526E+03  0.00000000000E+00 0.  1.
<mgrwt>
<rscale>  0 0.14806843E+04</rscale>
<asrwt>0</asrwt>
<pdfrwt beam="1">  1        1 0.12081799E+00 0.14806843E+04</pdfrwt>
<pdfrwt beam="2">  1       -2 0.10737585E+00 0.14806843E+04</pdfrwt>
<totfact> 0.13463043E+01</totfact>
</mgrwt>
</event>
<event>
12    4  0.4280696E-008  0.4182529E+04  0.7818608E-02  0.7968704E-01
          1   -1    0    0  501    0  0.00000000000E+00  0.00000000000E+00  0.13489690841E+04  0.13489690841E+04  0.00000000000E+00 0. -1.
         -2   -1    0    0    0  501 -0.00000000000E+00 -0.00000000000E+00 -0.32420217669E+04  0.32420217669E+04  0.00000000000E+00 0.  1.
        -24    2    1    2    0    0 -0.79308577966E+03  0.69029233770E+03 -0.27615118103E+04  0.29558494339E+04  0.74898810464E+02 0.  0.
        254    2    1    2    0    0  0.79308577966E+03 -0.69029233770E+03  0.86845912756E+03  0.16351414172E+04  0.90220708959E+03 0.  0.
         23    2    4    4    0    0  0.58417319109E+03 -0.48926545589E+03  0.10349400357E+04  0.12884149794E+04  0.90957561192E+02 0.  0.
         23    2    4    4    0    0  0.20891258856E+03 -0.20102688181E+03 -0.16648090818E+03  0.34672643781E+03  0.91907850665E+02 0.  0.
          3    1    3    3  502    0 -0.25136958277E+02  0.36624383221E+02 -0.90987107030E+02  0.10125149759E+03  0.00000000000E+00 0. -1.
         -4    1    3    3    0  502 -0.76794882138E+03  0.65366795448E+03 -0.26705247033E+04  0.28545979363E+04  0.00000000000E+00 0.  1.
         11    1    5    5    0    0  0.30652607400E+03 -0.19751180987E+03  0.48919777495E+03  0.61015048315E+03  0.00000000000E+00 0. -1.
        -11    1    5    5    0    0  0.27764711709E+03 -0.29175364602E+03  0.54574226079E+03  0.67826449620E+03  0.00000000000E+00 0.  1.
          3    1    6    6  503    0  0.84091672827E+02 -0.13831052604E+03 -0.11175148104E+03  0.19669673247E+03  0.00000000000E+00 0. -1.
         -3    1    6    6    0  503  0.12482091574E+03 -0.62716355779E+02 -0.54729427139E+02  0.15002970533E+03  0.00000000000E+00 0.  1.
<mgrwt>
<rscale>  0 0.41825290E+04</rscale>
<asrwt>0</asrwt>
<pdfrwt beam="1">  1        1 0.20753371E+00 0.41825290E+04</pdfrwt>
<pdfrwt beam="2">  1       -2 0.49877257E+00 0.41825290E+04</pdfrwt>
<totfact> 0.95028952E-03</totfact>
</mgrwt>
</event>
<event>
12    4  0.4280696E-008  0.2632025E+04  0.7818608E-02  0.8357404E-01
          3   -1    0    0  501    0  0.00000000000E+00  0.00000000000E+00  0.16631106882E+04  0.16631106882E+04  0.00000000000E+00 0. -1.
         -4   -1    0    0    0  501 -0.00000000000E+00 -0.00000000000E+00 -0.10413551882E+04  0.10413551882E+04  0.00000000000E+00 0.  1.
        -24    2    1    2    0    0  0.31307618865E+03  0.47051801752E+03  0.12865162507E+04  0.14074516142E+04  0.79950473369E+02 0.  0.
        254    2    1    2    0    0 -0.31307618865E+03 -0.47051801752E+03 -0.66476075074E+03  0.12970142622E+04  0.95965370628E+03 0.  0.
         23    2    4    4    0    0  0.85855847974E+02  0.24088722490E+03 -0.61306771266E+02  0.27819597691E+03  0.90755713967E+02 0.  0.
         23    2    4    4    0    0 -0.39893203662E+03 -0.71140524242E+03 -0.60345397947E+03  0.10188182853E+04  0.92681197442E+02 0.  0.
          3    1    3    3  502    0  0.17517860038E+03  0.24352261772E+03  0.58703579864E+03  0.65924338165E+03  0.00000000000E+00 0. -1.
         -4    1    3    3    0  502  0.13789758827E+03  0.22699539981E+03  0.69948045209E+03  0.74820823254E+03  0.00000000000E+00 0.  1.
         11    1    5    5    0    0  0.85663965158E+02  0.21457377799E+03 -0.23639863026E+02  0.23224785090E+03  0.00000000000E+00 0. -1.
        -11    1    5    5    0    0  0.19188281630E+00  0.26313446912E+02 -0.37666908240E+02  0.45948126009E+02  0.00000000000E+00 0.  1.
          3    1    6    6  503    0 -0.22008702273E+03 -0.47630524432E+03 -0.40731501074E+03  0.66423678107E+03  0.00000000000E+00 0. -1.
         -3    1    6    6    0  503 -0.17884501390E+03 -0.23509999810E+03 -0.19613896873E+03  0.35458150425E+03  0.00000000000E+00 0.  1.
<mgrwt>
<rscale>  0 0.26320250E+04</rscale>
<asrwt>0</asrwt>
<pdfrwt beam="1">  1        3 0.25586318E+00 0.26320250E+04</pdfrwt>
<pdfrwt beam="2">  1       -4 0.16020849E+00 0.26320250E+04</pdfrwt>
<totfact> 0.34305299E-02</totfact>
</mgrwt>
</event>
<event>
12    4  0.4280696E-008  0.1745781E+04  0.7818608E-02  0.8735676E-01
          1   -1    0    0  501    0  0.00000000000E+00  0.00000000000E+00  0.18024225474E+04  0.18024225474E+04  0.00000000000E+00 0. -1.
         -2   -1    0    0    0  501 -0.00000000000E+00 -0.00000000000E+00 -0.42273000999E+03  0.42273000999E+03  0.00000000000E+00 0.  1.
        -24    2    1    2    0    0 -0.59854826552E+03  0.50169806623E+02  0.22393229978E+03  0.64576702053E+03  0.78053406438E+02 0.  0.
        254    2    1    2    0    0  0.59854826552E+03 -0.50169806623E+02  0.11557602377E+04  0.15793855369E+04  0.89325243438E+03 0.  0.
         23    2    4    4    0    0  0.45224033890E+03  0.28331612275E+03  0.10612974489E+04  0.11916001709E+04  0.93644769505E+02 0.  0.
         23    2    4    4    0    0  0.14630792663E+03 -0.33348592937E+03  0.94462788800E+02  0.38778536597E+03  0.93996793080E+02 0.  0.
          3    1    3    3  502    0 -0.56552116108E+03  0.41831574239E+02  0.19095087100E+03  0.59835298893E+03  0.00000000000E+00 0. -1.
         -4    1    3    3    0  502 -0.33027104446E+02  0.83382323838E+01  0.32981428784E+02  0.47414031594E+02  0.00000000000E+00 0.  1.
         11    1    5    5    0    0  0.45087672472E+03  0.28806402577E+03  0.10581900203E+04  0.11857642358E+04  0.00000000000E+00 0.  1.
        -11    1    5    5    0    0  0.13636141771E+01 -0.47479030189E+01  0.31074285975E+01  0.58359351598E+01  0.00000000000E+00 0. -1.
          4    1    6    6  503    0  0.92718953502E+02 -0.10311898634E+03  0.48008881514E+02  0.14674870489E+03  0.00000000000E+00 0. -1.
         -4    1    6    6    0  503  0.53588973123E+02 -0.23036694303E+03  0.46453907286E+02  0.24103666108E+03  0.00000000000E+00 0.  1.
<mgrwt>
<rscale>  0 0.17457813E+04</rscale>
<asrwt>0</asrwt>
<pdfrwt beam="1">  1        1 0.27729577E+00 0.17457813E+04</pdfrwt>
<pdfrwt beam="2">  1       -2 0.65035387E-01 0.17457813E+04</pdfrwt>
<totfact> 0.73651485E+00</totfact>
</mgrwt>
</event>
<event>
12    4  0.4280696E-008  0.1812008E+04  0.7818608E-02  0.8699940E-01
          1   -1    0    0  501    0  0.00000000000E+00  0.00000000000E+00  0.12014701158E+04  0.12014701158E+04  0.00000000000E+00 0. -1.
         -2   -1    0    0    0  501 -0.00000000000E+00 -0.00000000000E+00 -0.68319892296E+03  0.68319892296E+03  0.00000000000E+00 0.  1.
        -24    2    1    2    0    0 -0.32515499871E+03  0.48661990754E+03  0.56533437150E+03  0.81750092618E+03  0.78613644527E+02 0.  0.
        254    2    1    2    0    0  0.32515499871E+03 -0.48661990754E+03 -0.47063178707E+02  0.10671681125E+04  0.89112744880E+03 0.  0.
         23    2    4    4    0    0  0.44364214521E+03 -0.31808562448E+03  0.31752193720E+03  0.63825039376E+03  0.92447644746E+02 0.  0.
         23    2    4    4    0    0 -0.11848714649E+03 -0.16853428306E+03 -0.36458511591E+03  0.42891771877E+03  0.92763647428E+02 0.  0.
          3    1    3    3  502    0 -0.29494680738E+03  0.41753929033E+03  0.52158218095E+03  0.73032913788E+03  0.00000000000E+00 0. -1.
         -4    1    3    3    0  502 -0.30208191337E+02  0.69080617208E+02  0.43752190550E+02  0.87171788301E+02  0.00000000000E+00 0.  1.
         11    1    5    5    0    0  0.30167429178E+03 -0.20734045941E+03  0.16188913155E+03  0.40025683672E+03  0.00000000000E+00 0. -1.
        -11    1    5    5    0    0  0.14196785342E+03 -0.11074516507E+03  0.15563280566E+03  0.23799355703E+03  0.00000000000E+00 0.  1.
          3    1    6    6  503    0 -0.47912260574E+02 -0.41394883287E+02 -0.44621922283E+02  0.77461196892E+02  0.00000000000E+00 0. -1.
         -3    1    6    6    0  503 -0.70574885918E+02 -0.12713939977E+03 -0.31996319363E+03  0.35145652188E+03  0.00000000000E+00 0.  1.
<mgrwt>
<rscale>  0 0.18120078E+04</rscale>
<asrwt>0</asrwt>
<pdfrwt beam="1">  1        1 0.18484156E+00 0.18120078E+04</pdfrwt>
<pdfrwt beam="2">  1       -2 0.10510753E+00 0.18120078E+04</pdfrwt>
<totfact> 0.64627809E+00</totfact>
</mgrwt>
</event>
<event>
12    4  0.4280696E-008  0.2272971E+04  0.7818608E-02  0.8488655E-01
          1   -1    0    0  501    0  0.00000000000E+00  0.00000000000E+00  0.96225110208E+03  0.96225110208E+03  0.00000000000E+00 0. -1.
         -2   -1    0    0    0  501 -0.00000000000E+00 -0.00000000000E+00 -0.13422690143E+04  0.13422690143E+04  0.00000000000E+00 0.  1.
        -24    2    1    2    0    0 -0.36047361544E+01 -0.28981934972E+03 -0.10761539815E+04  0.11173003499E+04  0.79021708479E+02 0.  0.
        254    2    1    2    0    0  0.36047361544E+01  0.28981934972E+03  0.69613606932E+03  0.11872197664E+04  0.91699350989E+03 0.  0.
         23    2    4    4    0    0  0.18789109784E+03  0.64127452490E+02  0.82652072719E+03  0.85515516943E+03  0.93479711785E+02 0.  0.
         23    2    4    4    0    0 -0.18428636168E+03  0.22569189723E+03 -0.13038465787E+03  0.33206459699E+03  0.91479188849E+02 0.  0.
          3    1    3    3  502    0 -0.11070996473E+02 -0.66855386651E+02 -0.14902920899E+03  0.16371290364E+03  0.00000000000E+00 0. -1.
         -4    1    3    3    0  502  0.74662603183E+01 -0.22296396307E+03 -0.92712477255E+03  0.95358744630E+03  0.00000000000E+00 0.  1.
         11    1    5    5    0    0  0.21989541045E+02  0.30792353496E+01  0.27726174922E+03  0.27814941881E+03  0.00000000000E+00 0.  1.
        -11    1    5    5    0    0  0.16590155679E+03  0.61048217140E+02  0.54925897798E+03  0.57700575062E+03  0.00000000000E+00 0. -1.
          2    1    6    6  503    0  0.99257137940E+01  0.21017502708E+02 -0.10049428608E+02  0.25322840081E+02  0.00000000000E+00 0. -1.
         -2    1    6    6    0  503 -0.19421207547E+03  0.20467439452E+03 -0.12033522926E+03  0.30674175691E+03  0.00000000000E+00 0.  1.
<mgrwt>
<rscale>  0 0.22729715E+04</rscale>
<asrwt>0</asrwt>
<pdfrwt beam="1">  1        1 0.14803863E+00 0.22729715E+04</pdfrwt>
<pdfrwt beam="2">  1       -2 0.20650292E+00 0.22729715E+04</pdfrwt>
<totfact> 0.15524491E+00</totfact>
</mgrwt>
</event>
<event>
12    4  0.4280696E-008  0.1492855E+04  0.7818608E-02  0.8889218E-01
          1   -1    0    0  501    0  0.00000000000E+00  0.00000000000E+00  0.10804751481E+04  0.10804751481E+04  0.00000000000E+00 0. -1.
         -2   -1    0    0    0  501 -0.00000000000E+00 -0.00000000000E+00 -0.51565675727E+03  0.51565675727E+03  0.00000000000E+00 0.  1.
        -24    2    1    2    0    0 -0.61562159425E+02  0.20047446658E+03  0.61182922702E+03  0.65168933876E+03  0.79900438081E+02 0.  0.
        254    2    1    2    0    0  0.61562159425E+02 -0.20047446658E+03 -0.47010836162E+02  0.94444256662E+03  0.91966397761E+03 0.  0.
         23    2    4    4    0    0  0.22520410591E+03  0.11158361467E+03 -0.37110282926E+03  0.45686578275E+03  0.88550783044E+02 0.  0.
         23    2    4    4    0    0 -0.16364194649E+03 -0.31205808125E+03  0.32409199310E+03  0.48757678388E+03  0.92393546654E+02 0.  0.
          1    1    3    3  502    0 -0.77333257519E+02  0.18876553022E+03  0.57185403734E+03  0.60714899172E+03  0.00000000000E+00 0. -1.
         -2    1    3    3    0  502  0.15771098093E+02  0.11708936358E+02  0.39975189672E+02  0.44540347047E+02  0.00000000000E+00 0.  1.
         11    1    5    5    0    0  0.64507134866E+02  0.14669272135E+02 -0.16689040911E+03  0.17952372168E+03  0.00000000000E+00 0. -1.
        -11    1    5    5    0    0  0.16069697105E+03  0.96914342532E+02 -0.20421242015E+03  0.27734206106E+03  0.00000000000E+00 0.  1.
          1    1    6    6  503    0 -0.13807679889E+03 -0.24616401444E+03  0.20407392485E+03  0.34829311104E+03  0.00000000000E+00 0.  1.
         -1    1    6    6    0  503 -0.25565147599E+02 -0.65894066811E+02  0.12001806825E+03  0.13928367284E+03  0.00000000000E+00 0. -1.
<mgrwt>
<rscale>  0 0.14928554E+04</rscale>
<asrwt>0</asrwt>
<pdfrwt beam="1">  1        1 0.16622695E+00 0.14928554E+04</pdfrwt>
<pdfrwt beam="2">  1       -2 0.79331809E-01 0.14928554E+04</pdfrwt>
<totfact> 0.15682453E+01</totfact>
</mgrwt>
</event>
<event>
12    4  0.4280696E-008  0.1075346E+04  0.7818608E-02  0.9229560E-01
          3   -1    0    0  501    0  0.00000000000E+00  0.00000000000E+00  0.19379264583E+04  0.19379264583E+04  0.00000000000E+00 0. -1.
         -4   -1    0    0    0  501 -0.00000000000E+00 -0.00000000000E+00 -0.14917606118E+03  0.14917606118E+03  0.00000000000E+00 0.  1.
        -24    2    1    2    0    0  0.14219204854E+03 -0.50368973853E+02  0.23751533576E+03  0.29268103994E+03  0.80579428028E+02 0.  0.
        254    2    1    2    0    0 -0.14219204854E+03  0.50368973853E+02  0.15512350613E+04  0.17944214795E+04  0.88930457011E+03 0.  0.
         23    2    4    4    0    0 -0.14430596878E+03 -0.22942511221E+03  0.84175322788E+02  0.29800183242E+03  0.90881859680E+02 0.  0.
         23    2    4    4    0    0  0.21139202412E+01  0.27979408606E+03  0.14670597385E+04  0.14964196471E+04  0.93371754219E+02 0.  0.
          3    1    3    3  502    0  0.71732071843E+01 -0.24009824384E+02  0.78576039234E+02  0.82474968990E+02  0.00000000000E+00 0. -1.
         -4    1    3    3    0  502  0.13501884136E+03 -0.26359149469E+02  0.15893929653E+03  0.21020607095E+03  0.00000000000E+00 0.  1.
         11    1    5    5    0    0 -0.15646354508E+03 -0.21942117595E+03  0.74814980816E+02  0.27968513501E+03  0.00000000000E+00 0. -1.
        -11    1    5    5    0    0  0.12157576292E+02 -0.10003936263E+02  0.93603419727E+01  0.18316697407E+02  0.00000000000E+00 0.  1.
          3    1    6    6  503    0 -0.15195432512E+02  0.25180687749E+03  0.13887623833E+04  0.14114880665E+04  0.00000000000E+00 0. -1.
         -3    1    6    6    0  503  0.17309352753E+02  0.27987208570E+02  0.78297355253E+02  0.84931580557E+02  0.00000000000E+00 0.  1.
<mgrwt>
<rscale>  0 0.10753460E+04</rscale>
<asrwt>0</asrwt>
<pdfrwt beam="1">  1        3 0.29814251E+00 0.10753460E+04</pdfrwt>
<pdfrwt beam="2">  1       -4 0.22950165E-01 0.10753460E+04</pdfrwt>
<totfact> 0.16351711E+00</totfact>
</mgrwt>
</event>
<event>
12    4  0.4280696E-008  0.1576770E+04  0.7818608E-02  0.8834948E-01
         -2   -1    0    0    0  501 -0.00000000000E+00  0.00000000000E+00  0.74311974911E+03  0.74311974911E+03  0.00000000000E+00 0.  1.
          1   -1    0    0  501    0  0.00000000000E+00 -0.00000000000E+00 -0.83640736373E+03  0.83640736373E+03  0.00000000000E+00 0. -1.
        -24    2    1    2    0    0  0.43969688543E+03 -0.27130109407E+03  0.88882375222E+02  0.53017986135E+03  0.79075748855E+02 0.  0.
        254    2    1    2    0    0 -0.43969688543E+03  0.27130109407E+03 -0.18216998984E+03  0.10493472515E+04  0.89498944926E+03 0.  0.
         23    2    4    4    0    0 -0.69878191140E+03  0.10935875927E+03 -0.13410869390E+03  0.72585958624E+03  0.92905862161E+02 0.  0.
         23    2    4    4    0    0  0.25908502597E+03  0.16194233480E+03 -0.48061295941E+02  0.32348766525E+03  0.94784022475E+02 0.  0.
          3    1    3    3  502    0  0.74263936325E+02 -0.40604992177E+02  0.44834774311E+02  0.95781285310E+02  0.00000000000E+00 0. -1.
         -4    1    3    3    0  502  0.36543294911E+03 -0.23069610190E+03  0.44047600910E+02  0.43439857604E+03  0.00000000000E+00 0.  1.
         11    1    5    5    0    0 -0.42356529762E+01 -0.46088319766E+01  0.54765631272E+01  0.83171408555E+01  0.00000000000E+00 0. -1.
        -11    1    5    5    0    0 -0.69454625842E+03  0.11396759125E+03 -0.13958525703E+03  0.71754244538E+03  0.00000000000E+00 0.  1.
          3    1    6    6  503    0  0.64330990880E+02  0.40643459188E+02 -0.55085864479E+02  0.93940511111E+02  0.00000000000E+00 0. -1.
         -3    1    6    6    0  503  0.19475403509E+03  0.12129887561E+03  0.70245685380E+01  0.22954715413E+03  0.00000000000E+00 0.  1.
<mgrwt>
<rscale>  0 0.15767699E+04</rscale>
<asrwt>0</asrwt>
<pdfrwt beam="1">  1        1 0.12867805E+00 0.15767699E+04</pdfrwt>
<pdfrwt beam="2">  1       -2 0.11432612E+00 0.15767699E+04</pdfrwt>
<totfact> 0.10361375E+01</totfact>
</mgrwt>
</event>
<event>
12    4  0.4280696E-008  0.1791901E+04  0.7818608E-02  0.8710618E-01
          1   -1    0    0  501    0  0.00000000000E+00  0.00000000000E+00  0.12011950596E+04  0.12011950596E+04  0.00000000000E+00 0. -1.
         -2   -1    0    0    0  501 -0.00000000000E+00 -0.00000000000E+00 -0.66827383299E+03  0.66827383299E+03  0.00000000000E+00 0.  1.
        -24    2    1    2    0    0  0.18865489686E+03  0.32972822205E+03  0.76630571122E+03  0.85902988612E+03  0.79978320045E+02 0.  0.
        254    2    1    2    0    0 -0.18865489686E+03 -0.32972822205E+03 -0.23338448457E+03  0.10104390065E+04  0.90675647100E+03 0.  0.
         23    2    4    4    0    0  0.19786727720E+03 -0.10868869386E+03  0.24818286169E+03  0.34831897398E+03  0.93630567887E+02 0.  0.
         23    2    4    4    0    0 -0.38652217406E+03 -0.22103952820E+03 -0.48156734626E+03  0.66212003252E+03  0.90763232717E+02 0.  0.
          3    1    3    3  502    0  0.17178653045E+03  0.27161508415E+03  0.69358926075E+03  0.76442882507E+03  0.00000000000E+00 0. -1.
         -4    1    3    3    0  502  0.16868366409E+02  0.58113137899E+02  0.72716450473E+02  0.94601061047E+02  0.00000000000E+00 0.  1.
         11    1    5    5    0    0  0.12446956753E+03 -0.15720119981E+02  0.13868103210E+03  0.18700862033E+03  0.00000000000E+00 0. -1.
        -11    1    5    5    0    0  0.73397709675E+02 -0.92968573875E+02  0.10950182959E+03  0.16131035366E+03  0.00000000000E+00 0.  1.
          3    1    6    6  503    0 -0.58874092355E+02 -0.72941529087E+02 -0.81459895637E+02  0.12418671432E+03  0.00000000000E+00 0. -1.
         -3    1    6    6    0  503 -0.32764808171E+03 -0.14809799911E+03 -0.40010745062E+03  0.53793331820E+03  0.00000000000E+00 0.  1.
<mgrwt>
<rscale>  0 0.17919009E+04</rscale>
<asrwt>0</asrwt>
<pdfrwt beam="1">  1        1 0.18479924E+00 0.17919009E+04</pdfrwt>
<pdfrwt beam="2">  1       -2 0.10281136E+00 0.17919009E+04</pdfrwt>
<totfact> 0.68290753E+00</totfact>
</mgrwt>
</event>
<event>
12    4  0.4280696E-008  0.1668145E+04  0.7818608E-02  0.8779744E-01
          1   -1    0    0  501    0  0.00000000000E+00  0.00000000000E+00  0.12958405407E+04  0.12958405407E+04  0.00000000000E+00 0. -1.
         -2   -1    0    0    0  501 -0.00000000000E+00 -0.00000000000E+00 -0.53685375186E+03  0.53685375186E+03  0.00000000000E+00 0.  1.
        -24    2    1    2    0    0  0.35014342396E+03 -0.46480255187E+03  0.39454712616E+03  0.70779415246E+03  0.81629026244E+02 0.  0.
        254    2    1    2    0    0 -0.35014342396E+03  0.46480255187E+03  0.36443966270E+03  0.11249001401E+04  0.89103435844E+03 0.  0.
         23    2    4    4    0    0 -0.54177410836E+02 -0.21230895287E+03  0.29239674467E+03  0.37671166701E+03  0.91681734577E+02 0.  0.
         23    2    4    4    0    0 -0.29596601313E+03  0.67711150473E+03  0.72042918031E+02  0.74818847311E+03  0.92303512815E+02 0.  0.
          1    1    3    3  502    0  0.20646449422E+01 -0.41471585912E+01 -0.40835846685E+01  0.61755442564E+01  0.00000000000E+00 0. -1.
         -2    1    3    3    0  502  0.34807877902E+03 -0.46065539327E+03  0.39863071083E+03  0.70161860820E+03  0.00000000000E+00 0.  1.
         11    1    5    5    0    0 -0.48334038012E+02 -0.16252443235E+03  0.15229462680E+03  0.22791231580E+03  0.00000000000E+00 0. -1.
        -11    1    5    5    0    0 -0.58433728239E+01 -0.49784520522E+02  0.14010211787E+03  0.14879935121E+03  0.00000000000E+00 0.  1.
          3    1    6    6  503    0 -0.22082607236E+03  0.58496385523E+03  0.71079207778E+02  0.62928460964E+03  0.00000000000E+00 0. -1.
         -3    1    6    6    0  503 -0.75139940771E+02  0.92147649507E+02  0.96371025335E+00  0.11890386346E+03  0.00000000000E+00 0.  1.
<mgrwt>
<rscale>  0 0.16681449E+04</rscale>
<asrwt>0</asrwt>
<pdfrwt beam="1">  1        1 0.19936008E+00 0.16681449E+04</pdfrwt>
<pdfrwt beam="2">  1       -2 0.82592885E-01 0.16681449E+04</pdfrwt>
<totfact> 0.98053152E+00</totfact>
</mgrwt>
</event>
<event>
12    4  0.4280696E-008  0.1486733E+04  0.7818608E-02  0.8893324E-01
          1   -1    0    0  501    0  0.00000000000E+00  0.00000000000E+00  0.61608108549E+03  0.61608108549E+03  0.00000000000E+00 0. -1.
         -2   -1    0    0    0  501 -0.00000000000E+00 -0.00000000000E+00 -0.89694946968E+03  0.89694946968E+03  0.00000000000E+00 0.  1.
        -24    2    1    2    0    0 -0.19998013279E+03  0.35821116854E+03 -0.32232893346E+03  0.52756217966E+03  0.78221590902E+02 0.  0.
        254    2    1    2    0    0  0.19998013279E+03 -0.35821116854E+03  0.41460549265E+02  0.98546837552E+03  0.89505399124E+03 0.  0.
         23    2    4    4    0    0  0.19312386282E+03  0.26906354010E+03 -0.41999772806E+02  0.34591132281E+03  0.90546382206E+02 0.  0.
         23    2    4    4    0    0  0.68562699699E+01 -0.62727470864E+03  0.83460322072E+02  0.63955705271E+03  0.92450147481E+02 0.  0.
          3    1    3    3  502    0 -0.14304289136E+03  0.27654804369E+03 -0.20090225102E+03  0.37054258015E+03  0.00000000000E+00 0. -1.
         -4    1    3    3    0  502 -0.56937241433E+02  0.81663124845E+02 -0.12142668244E+03  0.15701959951E+03  0.00000000000E+00 0.  1.
         11    1    5    5    0    0 -0.68208188764E+01 -0.95175594230E+00 -0.35063350090E+01  0.77281171519E+01  0.00000000000E+00 0. -1.
        -11    1    5    5    0    0  0.19994468170E+03  0.27001529604E+03 -0.38493437797E+02  0.33818320566E+03  0.00000000000E+00 0.  1.
          1    1    6    6  503    0  0.41923389203E+02 -0.22672057685E+03  0.51187277350E+02  0.23617774639E+03  0.00000000000E+00 0. -1.
         -1    1    6    6    0  503 -0.35067119233E+02 -0.40055413179E+03  0.32273044722E+02  0.40337930631E+03  0.00000000000E+00 0.  1.
<mgrwt>
<rscale>  0 0.14867328E+04</rscale>
<asrwt>0</asrwt>
<pdfrwt beam="1">  1        1 0.94781705E-01 0.14867328E+04</pdfrwt>
<pdfrwt beam="2">  1       -2 0.13799223E+00 0.14867328E+04</pdfrwt>
<totfact> 0.10409605E+01</totfact>
</mgrwt>
</event>
<event>
12    4  0.4280696E-008  0.1892951E+04  0.7818608E-02  0.8658373E-01
          1   -1    0    0  501    0  0.00000000000E+00  0.00000000000E+00  0.14420630325E+04  0.14420630325E+04  0.00000000000E+00 0. -1.
         -2   -1    0    0    0  501 -0.00000000000E+00 -0.00000000000E+00 -0.62120461619E+03  0.62120461619E+03  0.00000000000E+00 0.  1.
        -24    2    1    2    0    0 -0.35486143094E+03  0.63041772797E+03  0.43526122941E+03  0.84794912065E+03  0.78817678626E+02 0.  0.
        254    2    1    2    0    0  0.35486143094E+03 -0.63041772797E+03  0.38559718692E+03  0.12153185281E+04  0.89719606954E+03 0.  0.
         23    2    4    4    0    0  0.20928046897E+03 -0.21426950416E+03  0.63032967826E+03  0.70319782958E+03  0.86382574191E+02 0.  0.
         23    2    4    4    0    0  0.14558096197E+03 -0.41614822381E+03 -0.24473249134E+03  0.51212069849E+03  0.89445272871E+02 0.  0.
          1    1    3    3  502    0 -0.22219175017E+02  0.89260350751E+02  0.65843761091E+02  0.11312162848E+03  0.00000000000E+00 0. -1.
         -2    1    3    3    0  502 -0.33264225592E+03  0.54115737722E+03  0.36941746832E+03  0.73482749217E+03  0.00000000000E+00 0.  1.
         11    1    5    5    0    0  0.38180655679E+02 -0.52450151640E+02  0.70264349507E+02  0.95633988136E+02  0.00000000000E+00 0. -1.
        -11    1    5    5    0    0  0.17109981329E+03 -0.16181935252E+03  0.56006532875E+03  0.60756384145E+03  0.00000000000E+00 0.  1.
          3    1    6    6  503    0  0.93953626905E+02 -0.18479638749E+03 -0.74516838323E+02  0.22029468453E+03  0.00000000000E+00 0. -1.
         -3    1    6    6    0  503  0.51627335065E+02 -0.23135183632E+03 -0.17021565301E+03  0.29182601396E+03  0.00000000000E+00 0.  1.
<mgrwt>
<rscale>  0 0.18929514E+04</rscale>
<asrwt>0</asrwt>
<pdfrwt beam="1">  1        1 0.22185585E+00 0.18929514E+04</pdfrwt>
<pdfrwt beam="2">  1       -2 0.95569941E-01 0.18929514E+04</pdfrwt>
<totfact> 0.54202308E+00</totfact>
</mgrwt>
</event>
<event>
12    4  0.4280696E-008  0.1490259E+04  0.7818608E-02  0.8890956E-01
          1   -1    0    0  501    0  0.00000000000E+00  0.00000000000E+00  0.28572261862E+04  0.28572261862E+04  0.00000000000E+00 0. -1.
         -2   -1    0    0    0  501 -0.00000000000E+00 -0.00000000000E+00 -0.19432067174E+03  0.19432067174E+03  0.00000000000E+00 0.  1.
        -24    2    1    2    0    0  0.18907729969E+03  0.20223269802E+03  0.13162206959E+03  0.31580428418E+03  0.75892603689E+02 0.  0.
        254    2    1    2    0    0 -0.18907729969E+03 -0.20223269802E+03  0.25312834448E+04  0.27357425737E+04  0.10001216237E+04 0.  0.
         23    2    4    4    0    0  0.11834480281E+03 -0.13295312260E+03  0.23564133520E+04  0.23649541764E+04  0.92964216938E+02 0.  0.
         23    2    4    4    0    0 -0.30742210251E+03 -0.69279575422E+02  0.17487009285E+03  0.37078839738E+03  0.87157774061E+02 0.  0.
          3    1    3    3  502    0  0.26981563940E+02  0.12664037869E+02  0.40441639562E+02  0.50238519666E+02  0.00000000000E+00 0. -1.
         -2    1    3    3    0  502  0.16209573575E+03  0.18956866015E+03  0.91180430029E+02  0.26556576451E+03  0.00000000000E+00 0.  1.
         11    1    5    5    0    0  0.10307269612E+03 -0.14678548976E+03  0.21720815563E+04  0.21794743054E+04  0.00000000000E+00 0.  1.
        -11    1    5    5    0    0  0.15272106690E+02  0.13832367160E+02  0.18433179565E+03  0.18547987090E+03  0.00000000000E+00 0. -1.
          2    1    6    6  503    0 -0.13278345596E+03  0.85626974556E+01  0.48611000341E+02  0.14166084610E+03  0.00000000000E+00 0. -1.
         -2    1    6    6    0  503 -0.17463864655E+03 -0.77842272878E+02  0.12625909251E+03  0.22912755128E+03  0.00000000000E+00 0.  1.
<mgrwt>
<rscale>  0 0.14902592E+04</rscale>
<asrwt>0</asrwt>
<pdfrwt beam="1">  1        1 0.43957323E+00 0.14902592E+04</pdfrwt>
<pdfrwt beam="2">  1       -2 0.29895490E-01 0.14902592E+04</pdfrwt>
<totfact> 0.66889563E+00</totfact>
</mgrwt>
</event>
<event>
12    4  0.4280696E-008  0.3207078E+04  0.7818608E-02  0.8186950E-01
          1   -1    0    0  501    0  0.00000000000E+00  0.00000000000E+00  0.33161149554E+04  0.33161149554E+04  0.00000000000E+00 0. -1.
         -2   -1    0    0    0  501 -0.00000000000E+00 -0.00000000000E+00 -0.77540678812E+03  0.77540678812E+03  0.00000000000E+00 0.  1.
        -24    2    1    2    0    0 -0.74777095305E+03  0.55368169511E+03  0.26329455832E+04  0.27936747131E+04  0.80567617071E+02 0.  0.
        254    2    1    2    0    0  0.74777095305E+03 -0.55368169511E+03 -0.92237415866E+02  0.12978470305E+04  0.90009685915E+03 0.  0.
         23    2    4    4    0    0 -0.17685562852E+03 -0.59075688779E+02 -0.12972853800E+03  0.24467626893E+03  0.90934771470E+02 0.  0.
         23    2    4    4    0    0  0.92462658157E+03 -0.49460600633E+03  0.37491122129E+02  0.10531707615E+04  0.90518792896E+02 0.  0.
          3    1    3    3  502    0 -0.59150380962E+03  0.40730506860E+03  0.19562022232E+04  0.20838669136E+04  0.00000000000E+00 0. -1.
         -4    1    3    3    0  502 -0.15626714343E+03  0.14637662650E+03  0.67674336000E+03  0.70980779948E+03  0.00000000000E+00 0.  1.
         11    1    5    5    0    0 -0.98113759849E+02 -0.40560737948E+01 -0.22556071823E+02  0.10075484099E+03  0.00000000000E+00 0. -1.
        -11    1    5    5    0    0 -0.78741868668E+02 -0.55019614984E+02 -0.10717246617E+03  0.14392142794E+03  0.00000000000E+00 0.  1.
          4    1    6    6  503    0  0.50954723506E+03 -0.25883854515E+03 -0.23032159399E+02  0.57198449067E+03  0.00000000000E+00 0.  1.
         -4    1    6    6    0  503  0.41507934651E+03 -0.23576746118E+03  0.60523281528E+02  0.48118627086E+03  0.00000000000E+00 0. -1.
<mgrwt>
<rscale>  0 0.32070785E+04</rscale>
<asrwt>0</asrwt>
<pdfrwt beam="1">  1        1 0.51017153E+00 0.32070785E+04</pdfrwt>
<pdfrwt beam="2">  1       -2 0.11929335E+00 0.32070785E+04</pdfrwt>
<totfact> 0.13757365E-01</totfact>
</mgrwt>
</event>
<event>
12    4  0.4280696E-008  0.1809105E+04  0.7818608E-02  0.8701473E-01
          1   -1    0    0  501    0  0.00000000000E+00  0.00000000000E+00  0.13100773412E+04  0.13100773412E+04  0.00000000000E+00 0. -1.
         -2   -1    0    0    0  501 -0.00000000000E+00 -0.00000000000E+00 -0.62455472589E+03  0.62455472589E+03  0.00000000000E+00 0.  1.
        -24    2    1    2    0    0  0.66729181304E+03  0.88145080660E+01  0.40284050683E+03  0.78367589650E+03  0.80693106933E+02 0.  0.
        254    2    1    2    0    0 -0.66729181304E+03 -0.88145080660E+01  0.28268210851E+03  0.11509561706E+04  0.89411121955E+03 0.  0.
         23    2    4    4    0    0 -0.15515216707E+02 -0.35853341063E+03  0.99796668817E+02  0.38353678403E+03  0.91401100120E+02 0.  0.
         23    2    4    4    0    0 -0.65177659633E+03  0.34971890257E+03  0.18288543969E+03  0.76741938660E+03  0.91484362263E+02 0.  0.
          1    1    3    3  502    0  0.33132080355E+03  0.19300579399E+02  0.15645392568E+03  0.36691118557E+03  0.00000000000E+00 0. -1.
         -2    1    3    3    0  502  0.33597100948E+03 -0.10486071333E+02  0.24638658115E+03  0.41676471093E+03  0.00000000000E+00 0.  1.
         11    1    5    5    0    0 -0.50181519413E+02 -0.15109814168E+03  0.30546660903E+02  0.16211703119E+03  0.00000000000E+00 0. -1.
        -11    1    5    5    0    0  0.34666302706E+02 -0.20743526896E+03  0.69250007914E+02  0.22141975284E+03  0.00000000000E+00 0.  1.
          4    1    6    6  503    0 -0.11813937287E+03  0.48726555594E+02  0.65512343620E+02  0.14360729720E+03  0.00000000000E+00 0. -1.
         -4    1    6    6    0  503 -0.53363722346E+03  0.30099234697E+03  0.11737309607E+03  0.62381208940E+03  0.00000000000E+00 0.  1.
<mgrwt>
<rscale>  0 0.18091047E+04</rscale>
<asrwt>0</asrwt>
<pdfrwt beam="1">  1        1 0.20155036E+00 0.18091047E+04</pdfrwt>
<pdfrwt beam="2">  1       -2 0.96085343E-01 0.18091047E+04</pdfrwt>
<totfact> 0.66791773E+00</totfact>
</mgrwt>
</event>
<event>
12    4  0.4280696E-008  0.1458066E+04  0.7818608E-02  0.8912828E-01
         -4   -1    0    0    0  501 -0.00000000000E+00  0.00000000000E+00  0.49048937795E+03  0.49048937795E+03  0.00000000000E+00 0.  1.
          3   -1    0    0  501    0  0.00000000000E+00 -0.00000000000E+00 -0.10835892663E+04  0.10835892663E+04  0.00000000000E+00 0. -1.
        -24    2    1    2    0    0 -0.20880871816E+02  0.33699087859E+02  0.29042809977E+03  0.30718381667E+03  0.91879142131E+02 0.  0.
        254    2    1    2    0    0  0.20880871816E+02 -0.33699087859E+02 -0.88352798815E+03  0.12668948276E+04  0.90709931048E+03 0.  0.
         23    2    4    4    0    0 -0.40064712334E+03 -0.15821527467E+03 -0.31084689218E+03  0.53919463661E+03  0.92492568327E+02 0.  0.
         23    2    4    4    0    0  0.42152799515E+03  0.12451618681E+03 -0.57268109597E+03  0.72770019101E+03  0.91617677558E+02 0.  0.
          3    1    3    3  502    0  0.31466076225E+02  0.22542520107E+02  0.66470782741E+02  0.76919725194E+02  0.00000000000E+00 0. -1.
         -4    1    3    3    0  502 -0.52346948041E+02  0.11156567753E+02  0.22395731703E+03  0.23026409148E+03  0.00000000000E+00 0.  1.
         11    1    5    5    0    0 -0.35930387198E+03 -0.14938910640E+03 -0.30898570910E+03  0.49687880410E+03  0.00000000000E+00 0.  1.
        -11    1    5    5    0    0 -0.41343251356E+02 -0.88261682731E+01 -0.18611830786E+01  0.42315832516E+02  0.00000000000E+00 0. -1.
          1    1    6    6  503    0  0.16136016668E+03  0.27679223103E+02 -0.15021725718E+03  0.22219015986E+03  0.00000000000E+00 0. -1.
         -1    1    6    6    0  503  0.26016782847E+03  0.96836963708E+02 -0.42246383879E+03  0.50551003115E+03  0.00000000000E+00 0.  1.
<mgrwt>
<rscale>  0 0.14580659E+04</rscale>
<asrwt>0</asrwt>
<pdfrwt beam="1">  1        3 0.16670604E+00 0.14580659E+04</pdfrwt>
<pdfrwt beam="2">  1       -4 0.75459905E-01 0.14580659E+04</pdfrwt>
<totfact> 0.86091077E-01</totfact>
</mgrwt>
</event>
<event>
12    4  0.4280696E-008  0.1491255E+04  0.7818608E-02  0.8890289E-01
          1   -1    0    0  501    0  0.00000000000E+00  0.00000000000E+00  0.20482195166E+04  0.20482195166E+04  0.00000000000E+00 0. -1.
         -2   -1    0    0    0  501 -0.00000000000E+00 -0.00000000000E+00 -0.27143605469E+03  0.27143605469E+03  0.00000000000E+00 0.  1.
        -24    2    1    2    0    0 -0.18916120276E+03 -0.41674684867E+03  0.73291464018E+03  0.86775824509E+03  0.79878693215E+02 0.  0.
        254    2    1    2    0    0  0.18916120276E+03  0.41674684867E+03  0.10438688217E+04  0.14518973262E+04  0.89937969311E+03 0.  0.
         23    2    4    4    0    0 -0.22972665503E+03 -0.68244633625E+02  0.63995381543E+03  0.68885046100E+03  0.86847024634E+02 0.  0.
         23    2    4    4    0    0  0.41888785779E+03  0.48499148229E+03  0.40391500631E+03  0.76304686522E+03  0.91702840185E+02 0.  0.
          3    1    3    3  502    0 -0.11951843006E+03 -0.34238560147E+03  0.56640011904E+03  0.67254862282E+03  0.00000000000E+00 0. -1.
         -4    1    3    3    0  502 -0.69642772699E+02 -0.74361247198E+02  0.16651452114E+03  0.19520962227E+03  0.00000000000E+00 0.  1.
         11    1    5    5    0    0 -0.30358367918E+02 -0.12279878951E+02  0.19923131338E+03  0.20190478489E+03  0.00000000000E+00 0.  1.
        -11    1    5    5    0    0 -0.19936828711E+03 -0.55964754674E+02  0.44072250205E+03  0.48694567611E+03  0.00000000000E+00 0. -1.
          4    1    6    6  503    0  0.26955557327E+03  0.28832254603E+03  0.19832266428E+03  0.44172613325E+03  0.00000000000E+00 0. -1.
         -4    1    6    6    0  503  0.14933228452E+03  0.19666893626E+03  0.20559234203E+03  0.32132073196E+03  0.00000000000E+00 0.  1.
<mgrwt>
<rscale>  0 0.14912553E+04</rscale>
<asrwt>0</asrwt>
<pdfrwt beam="1">  1        1 0.31511069E+00 0.14912553E+04</pdfrwt>
<pdfrwt beam="2">  1       -2 0.41759394E-01 0.14912553E+04</pdfrwt>
<totfact> 0.12772194E+01</totfact>
</mgrwt>
</event>
<event>
12    4  0.4280696E-008  0.1608882E+04  0.7818608E-02  0.8815110E-01
         -2   -1    0    0    0  501 -0.00000000000E+00  0.00000000000E+00  0.46407414429E+03  0.46407414429E+03  0.00000000000E+00 0.  1.
          1   -1    0    0  501    0  0.00000000000E+00 -0.00000000000E+00 -0.13944440102E+04  0.13944440102E+04  0.00000000000E+00 0. -1.
        -24    2    1    2    0    0 -0.40890788016E+03  0.33706719577E+03 -0.30037485486E+03  0.61447300169E+03  0.80821206716E+02 0.  0.
        254    2    1    2    0    0  0.40890788016E+03 -0.33706719577E+03 -0.62999501101E+03  0.12440451528E+04  0.93270288908E+03 0.  0.
         23    2    4    4    0    0  0.71602856146E+02  0.30123972421E+03 -0.30676653798E+03  0.44770120586E+03  0.10226593008E+03 0.  0.
         23    2    4    4    0    0  0.33730502401E+03 -0.63830691998E+03 -0.32322847303E+03  0.79634394690E+03  0.92068630167E+02 0.  0.
          1    1    3    3  502    0 -0.24462042290E+03  0.24753460904E+03 -0.17784465210E+03  0.39082125614E+03  0.00000000000E+00 0. -1.
         -2    1    3    3    0  502 -0.16428745726E+03  0.89532586736E+02 -0.12253020276E+03  0.22365174555E+03  0.00000000000E+00 0.  1.
         11    1    5    5    0    0  0.94009100014E+02  0.18302316919E+03 -0.19210931524E+03  0.28149810008E+03  0.00000000000E+00 0.  1.
        -11    1    5    5    0    0 -0.22406243868E+02  0.11821655502E+03 -0.11465722274E+03  0.16620310578E+03  0.00000000000E+00 0. -1.
          4    1    6    6  503    0  0.56858051644E+01 -0.20458543540E+02 -0.28892877757E+02  0.35856363023E+02  0.00000000000E+00 0. -1.
         -4    1    6    6    0  503  0.33161921885E+03 -0.61784837644E+03 -0.29433559527E+03  0.76048758387E+03  0.00000000000E+00 0.  1.
<mgrwt>
<rscale>  0 0.16088821E+04</rscale>
<asrwt>0</asrwt>
<pdfrwt beam="1">  1        1 0.21452985E+00 0.16088821E+04</pdfrwt>
<pdfrwt beam="2">  1       -2 0.71396022E-01 0.16088821E+04</pdfrwt>
<totfact> 0.11609519E+01</totfact>
</mgrwt>
</event>
<event>
12    4  0.4280696E-008  0.9887077E+03  0.7818608E-02  0.9321017E-01
         -2   -1    0    0    0  501 -0.00000000000E+00  0.00000000000E+00  0.15174740378E+03  0.15174740378E+03  0.00000000000E+00 0.  1.
          1   -1    0    0  501    0  0.00000000000E+00 -0.00000000000E+00 -0.16104773123E+04  0.16104773123E+04  0.00000000000E+00 0. -1.
        -24    2    1    2    0    0 -0.12520389650E+02 -0.63035902421E+01 -0.18182495728E+03  0.20144547446E+03  0.85577267324E+02 0.  0.
        254    2    1    2    0    0  0.12520389650E+02  0.63035902421E+01 -0.12769049512E+04  0.15607792416E+04  0.89741244204E+03 0.  0.
         23    2    4    4    0    0  0.17256675153E+03 -0.27636684131E+03 -0.11539491996E+04  0.12024234320E+04  0.89807794058E+02 0.  0.
         23    2    4    4    0    0 -0.16004636188E+03  0.28267043156E+03 -0.12295575159E+03  0.35835580956E+03  0.88223344794E+02 0.  0.
          1    1    3    3  502    0 -0.46393075695E+02 -0.14859238016E+02 -0.13105782926E+03  0.13981870060E+03  0.00000000000E+00 0. -1.
         -2    1    3    3    0  502  0.33872686045E+02  0.85556477742E+01 -0.50767128018E+02  0.61626773856E+02  0.00000000000E+00 0.  1.
         11    1    5    5    0    0  0.40730234817E+02 -0.11328067504E+03 -0.55250635678E+03  0.56546860005E+03  0.00000000000E+00 0.  1.
        -11    1    5    5    0    0  0.13183651672E+03 -0.16308616627E+03 -0.60144284282E+03  0.63695483196E+03  0.00000000000E+00 0. -1.
          3    1    6    6  503    0 -0.82127498027E+02  0.68669236244E+02 -0.56843643402E+02  0.12120886821E+03  0.00000000000E+00 0. -1.
         -3    1    6    6    0  503 -0.77918863858E+02  0.21400119531E+03 -0.66112108187E+02  0.23714694134E+03  0.00000000000E+00 0.  1.
<mgrwt>
<rscale>  0 0.98870774E+03</rscale>
<asrwt>0</asrwt>
<pdfrwt beam="1">  1        1 0.24776575E+00 0.98870774E+03</pdfrwt>
<pdfrwt beam="2">  1       -2 0.23345754E-01 0.98870774E+03</pdfrwt>
<totfact> 0.78528554E+01</totfact>
</mgrwt>
</event>
<event>
12    4  0.4280696E-008  0.1210976E+04  0.7818608E-02  0.9103303E-01
         -2   -1    0    0    0  501 -0.00000000000E+00  0.00000000000E+00  0.63581073554E+03  0.63581073554E+03  0.00000000000E+00 0.  1.
          1   -1    0    0  501    0  0.00000000000E+00 -0.00000000000E+00 -0.57661147317E+03  0.57661147317E+03  0.00000000000E+00 0. -1.
        -24    2    1    2    0    0 -0.17216531001E+03  0.12913711425E+03 -0.12594429313E+03  0.26489791852E+03  0.89396051460E+02 0.  0.
        254    2    1    2    0    0  0.17216531001E+03 -0.12913711425E+03  0.18514355550E+03  0.94752429019E+03  0.90399494253E+03 0.  0.
         23    2    4    4    0    0  0.44391790149E+03 -0.22703993558E+03  0.33682392373E+03  0.60864521671E+03  0.91588255836E+02 0.  0.
         23    2    4    4    0    0 -0.27175259148E+03  0.97902821334E+02 -0.15168036823E+03  0.33887907349E+03  0.91638741472E+02 0.  0.
          3    1    3    3  502    0 -0.67503103364E+02  0.66715342486E+02 -0.10449330369E+03  0.14116110089E+03  0.00000000000E+00 0. -1.
         -4    1    3    3    0  502 -0.10466220665E+03  0.62421771761E+02 -0.21450989436E+02  0.12373681763E+03  0.00000000000E+00 0.  1.
         11    1    5    5    0    0  0.36414968993E+03 -0.19008719411E+03  0.23173845116E+03  0.47163635121E+03  0.00000000000E+00 0.  1.
        -11    1    5    5    0    0  0.79768211567E+02 -0.36952741471E+02  0.10508547257E+03  0.13700886549E+03  0.00000000000E+00 0. -1.
          3    1    6    6  503    0 -0.50048708519E+02  0.59963280959E+02 -0.38170881753E+02  0.86933793783E+02  0.00000000000E+00 0. -1.
         -3    1    6    6    0  503 -0.22170388296E+03  0.37939540375E+02 -0.11350948648E+03  0.25194527970E+03  0.00000000000E+00 0.  1.
<mgrwt>
<rscale>  0 0.12109761E+04</rscale>
<asrwt>0</asrwt>
<pdfrwt beam="1">  1        1 0.88709458E-01 0.12109761E+04</pdfrwt>
<pdfrwt beam="2">  1       -2 0.97817036E-01 0.12109761E+04</pdfrwt>
<totfact> 0.27314551E+01</totfact>
</mgrwt>
</event>
<event>
12    4  0.4280696E-008  0.1487443E+04  0.7818608E-02  0.8892846E-01
         -2   -1    0    0    0  501 -0.00000000000E+00  0.00000000000E+00  0.20296440822E+03  0.20296440822E+03  0.00000000000E+00 0.  1.
          1   -1    0    0  501    0  0.00000000000E+00 -0.00000000000E+00 -0.27252150476E+04  0.27252150476E+04  0.00000000000E+00 0. -1.
        -24    2    1    2    0    0 -0.37598695589E+03 -0.17773236808E+03 -0.40089085872E+03  0.58319445693E+03  0.80295132607E+02 0.  0.
        254    2    1    2    0    0  0.37598695589E+03  0.17773236808E+03 -0.21213597806E+04  0.23449849989E+04  0.90875317903E+03 0.  0.
         23    2    4    4    0    0  0.59025048318E+03  0.33635343443E+03 -0.17515270162E+04  0.18805938926E+04  0.85189405439E+02 0.  0.
         23    2    4    4    0    0 -0.21426352729E+03 -0.15862106634E+03 -0.36983276444E+03  0.46439110624E+03  0.88393009268E+02 0.  0.
          3    1    3    3  502    0 -0.46065576874E+02  0.34493556021E+01 -0.56871705836E+02  0.73268863452E+02  0.00000000000E+00 0. -1.
         -4    1    3    3    0  502 -0.32992137901E+03 -0.18118172369E+03 -0.34401915289E+03  0.50992559347E+03  0.00000000000E+00 0.  1.
         11    1    5    5    0    0  0.14369611360E+03  0.88185157388E+02 -0.54147984118E+03  0.56712045762E+03  0.00000000000E+00 0.  1.
        -11    1    5    5    0    0  0.44655436958E+03  0.24816827704E+03 -0.12100471750E+04  0.13134734350E+04  0.00000000000E+00 0. -1.
          4    1    6    6  503    0 -0.20389671960E+03 -0.14790636560E+03 -0.37206768041E+03  0.44931561742E+03  0.00000000000E+00 0. -1.
         -4    1    6    6    0  503 -0.10366807690E+02 -0.10714700741E+02  0.22349159774E+01  0.15075488818E+02  0.00000000000E+00 0.  1.
<mgrwt>
<rscale>  0 0.14874430E+04</rscale>
<asrwt>0</asrwt>
<pdfrwt beam="1">  1        1 0.41926389E+00 0.14874430E+04</pdfrwt>
<pdfrwt beam="2">  1       -2 0.31225291E-01 0.14874430E+04</pdfrwt>
<totfact> 0.76511696E+00</totfact>
</mgrwt>
</event>
<event>
12    4  0.4280696E-008  0.2203424E+04  0.7818608E-02  0.8517004E-01
         -2   -1    0    0    0  501 -0.00000000000E+00  0.00000000000E+00  0.14887234778E+04  0.14887234778E+04  0.00000000000E+00 0.  1.
          1   -1    0    0  501    0  0.00000000000E+00 -0.00000000000E+00 -0.81530890497E+03  0.81530890497E+03  0.00000000000E+00 0. -1.
        -24    2    1    2    0    0  0.56400165084E+03  0.61147331852E+03  0.69107033346E+03  0.10848960582E+04  0.86161301330E+02 0.  0.
        254    2    1    2    0    0 -0.56400165084E+03 -0.61147331852E+03 -0.17655760590E+02  0.12191363246E+04  0.89105789416E+03 0.  0.
         23    2    4    4    0    0 -0.58371861722E+01 -0.29972907473E+03  0.35404449587E+03  0.47274422248E+03  0.90928564515E+02 0.  0.
         23    2    4    4    0    0 -0.55816446467E+03 -0.31174424379E+03 -0.37170025646E+03  0.74639210216E+03  0.10103487693E+03 0.  0.
          1    1    3    3  502    0  0.56266950138E+03  0.59433407710E+03  0.68262642772E+03  0.10657433100E+04  0.00000000000E+00 0. -1.
         -2    1    3    3    0  502  0.13321494627E+01  0.17139241422E+02  0.84439057402E+01  0.19152748181E+02  0.00000000000E+00 0.  1.
         11    1    5    5    0    0  0.88694542289E+01 -0.17389339849E+01 -0.87715897045E+00  0.90807773666E+01  0.00000000000E+00 0. -1.
        -11    1    5    5    0    0 -0.14706640401E+02 -0.29799014075E+03  0.35492165484E+03  0.46366344511E+03  0.00000000000E+00 0.  1.
          2    1    6    6  503    0 -0.44344406941E+03 -0.26815338364E+03 -0.33947188718E+03  0.61950790312E+03  0.00000000000E+00 0.  1.
         -2    1    6    6    0  503 -0.11472039526E+03 -0.43590860145E+02 -0.32228369283E+02  0.12688419903E+03  0.00000000000E+00 0. -1.
<mgrwt>
<rscale>  0 0.22034242E+04</rscale>
<asrwt>0</asrwt>
<pdfrwt beam="1">  1        1 0.12543214E+00 0.22034242E+04</pdfrwt>
<pdfrwt beam="2">  1       -2 0.22903438E+00 0.22034242E+04</pdfrwt>
<totfact> 0.14846312E+00</totfact>
</mgrwt>
</event>
<event>
12    4  0.4280696E-008  0.1532363E+04  0.7818608E-02  0.8863212E-01
         -2   -1    0    0    0  501 -0.00000000000E+00  0.00000000000E+00  0.15048898487E+03  0.15048898487E+03  0.00000000000E+00 0.  1.
          1   -1    0    0  501    0  0.00000000000E+00 -0.00000000000E+00 -0.39008455353E+04  0.39008455353E+04  0.00000000000E+00 0. -1.
        -24    2    1    2    0    0  0.77205367557E+00  0.13801532791E+03 -0.25230025557E+04  0.25280608209E+04  0.80627483474E+02 0.  0.
        254    2    1    2    0    0 -0.77205367557E+00 -0.13801532791E+03 -0.12273539947E+04  0.15232736993E+04  0.89158067936E+03 0.  0.
         23    2    4    4    0    0  0.10366694235E+03 -0.39941843064E+03 -0.11379609080E+04  0.12140466595E+04  0.93125429610E+02 0.  0.
         23    2    4    4    0    0 -0.10443899603E+03  0.26140310273E+03 -0.89393086763E+02  0.30922703984E+03  0.91603232466E+02 0.  0.
          3    1    3    3  502    0  0.20637758763E+02  0.40686323405E+02 -0.13787460002E+04  0.13795005716E+04  0.00000000000E+00 0. -1.
         -4    1    3    3    0  502 -0.19865705088E+02  0.97329004507E+02 -0.11442565556E+04  0.11485602493E+04  0.00000000000E+00 0.  1.
         11    1    5    5    0    0  0.93632931990E+02 -0.38523818795E+03 -0.10118607670E+04  0.10867556299E+04  0.00000000000E+00 0. -1.
        -11    1    5    5    0    0  0.10034010364E+02 -0.14180242684E+02 -0.12610014101E+03  0.12729102957E+03  0.00000000000E+00 0.  1.
          1    1    6    6  503    0 -0.11933750559E+03  0.25031208058E+03 -0.81380549687E+02  0.28899891314E+03  0.00000000000E+00 0. -1.
         -1    1    6    6    0  503  0.14898509563E+02  0.11091022145E+02 -0.80125370763E+01  0.20228126701E+02  0.00000000000E+00 0.  1.
<mgrwt>
<rscale>  0 0.15323633E+04</rscale>
<asrwt>0</asrwt>
<pdfrwt beam="1">  1        1 0.60013017E+00 0.15323633E+04</pdfrwt>
<pdfrwt beam="2">  1       -2 0.23152148E-01 0.15323633E+04</pdfrwt>
<totfact> 0.16616218E+00</totfact>
</mgrwt>
</event>
<event>
12    4  0.4280696E-008  0.1653644E+04  0.7818608E-02  0.8788253E-01
         -4   -1    0    0    0  501 -0.00000000000E+00  0.00000000000E+00  0.18419192124E+04  0.18419192124E+04  0.00000000000E+00 0.  1.
          3   -1    0    0  501    0  0.00000000000E+00 -0.00000000000E+00 -0.37115363029E+03  0.37115363029E+03  0.00000000000E+00 0. -1.
        -24    2    1    2    0    0  0.22258056333E+03  0.13810919228E+02  0.12389931225E+04  0.12614646540E+04  0.80350899238E+02 0.  0.
        254    2    1    2    0    0 -0.22258056333E+03 -0.13810919228E+02  0.23177245962E+03  0.95160818870E+03  0.89560416653E+03 0.  0.
         23    2    4    4    0    0  0.61380336942E+02 -0.24091273921E+03 -0.23467348673E+03  0.35375797235E+03  0.90920646439E+02 0.  0.
         23    2    4    4    0    0 -0.28396090027E+03  0.22710181999E+03  0.46644594636E+03  0.59785021635E+03  0.87430148087E+02 0.  0.
          1    1    3    3  502    0  0.27868692576E+01 -0.28164381095E+01  0.11164320505E+01  0.41164771841E+01  0.00000000000E+00 0. -1.
         -2    1    3    3    0  502  0.21979369407E+03  0.16627357337E+02  0.12378766904E+04  0.12573481768E+04  0.00000000000E+00 0.  1.
         11    1    5    5    0    0 -0.10435574281E+02 -0.75192637616E+02 -0.32270918375E+02  0.82487854469E+02  0.00000000000E+00 0.  1.
        -11    1    5    5    0    0  0.71815911223E+02 -0.16572010160E+03 -0.20240256836E+03  0.27127011788E+03  0.00000000000E+00 0. -1.
          4    1    6    6  503    0 -0.58595870241E+02  0.73257241449E+01  0.79545808451E+02  0.99069056147E+02  0.00000000000E+00 0. -1.
         -4    1    6    6    0  503 -0.22536503003E+03  0.21977609584E+03  0.38690013790E+03  0.49878116020E+03  0.00000000000E+00 0.  1.
<mgrwt>
<rscale>  0 0.16536445E+04</rscale>
<asrwt>0</asrwt>
<pdfrwt beam="1">  1        3 0.57100560E-01 0.16536445E+04</pdfrwt>
<pdfrwt beam="2">  1       -4 0.28337218E+00 0.16536445E+04</pdfrwt>
<totfact> 0.25872035E-01</totfact>
</mgrwt>
</event>
<event>
12    4  0.4280696E-008  0.2021841E+04  0.7818608E-02  0.8596477E-01
         -2   -1    0    0    0  501 -0.00000000000E+00  0.00000000000E+00  0.45113968254E+03  0.45113968254E+03  0.00000000000E+00 0.  1.
          1   -1    0    0  501    0  0.00000000000E+00 -0.00000000000E+00 -0.22652852641E+04  0.22652852641E+04  0.00000000000E+00 0. -1.
        -24    2    1    2    0    0  0.67588693912E+03  0.45801589972E+02 -0.13607624530E+03  0.69551284846E+03  0.79375296636E+02 0.  0.
        254    2    1    2    0    0 -0.67588693912E+03 -0.45801589972E+02 -0.16780693362E+04  0.20209120982E+04  0.89958216476E+03 0.  0.
         23    2    4    4    0    0  0.15699643358E+03 -0.12836957643E+03 -0.67522037425E+03  0.71157598892E+03  0.96390901468E+02 0.  0.
         23    2    4    4    0    0 -0.83288337270E+03  0.82567986458E+02 -0.10028489620E+04  0.13093361092E+04  0.90237583657E+02 0.  0.
          1    1    3    3  502    0  0.27258520442E+03  0.48456840224E+02 -0.80963146296E+02  0.28845413863E+03  0.00000000000E+00 0. -1.
         -2    1    3    3    0  502  0.40330173470E+03 -0.26552502524E+01 -0.55113099007E+02  0.40705870983E+03  0.00000000000E+00 0.  1.
         11    1    5    5    0    0  0.15179423503E+03 -0.76611162513E+02 -0.46814637819E+03  0.49806805902E+03  0.00000000000E+00 0.  1.
        -11    1    5    5    0    0  0.52021985568E+01 -0.51758413917E+02 -0.20707399606E+03  0.21350792989E+03  0.00000000000E+00 0. -1.
          3    1    6    6  503    0 -0.19333697756E+03  0.53430690907E+02 -0.21237246709E+03  0.29212341638E+03  0.00000000000E+00 0. -1.
         -3    1    6    6    0  503 -0.63954639515E+03  0.29137295551E+02 -0.79047649488E+03  0.10172126929E+04  0.00000000000E+00 0.  1.
<mgrwt>
<rscale>  0 0.20218408E+04</rscale>
<asrwt>0</asrwt>
<pdfrwt beam="1">  1        1 0.34850542E+00 0.20218408E+04</pdfrwt>
<pdfrwt beam="2">  1       -2 0.69406105E-01 0.20218408E+04</pdfrwt>
<totfact> 0.30284581E+00</totfact>
</mgrwt>
</event>
<event>
12    4  0.4280696E-008  0.1902059E+04  0.7818608E-02  0.8653832E-01
         -2   -1    0    0    0  501 -0.00000000000E+00  0.00000000000E+00  0.39640325378E+03  0.39640325378E+03  0.00000000000E+00 0.  1.
          1   -1    0    0  501    0  0.00000000000E+00 -0.00000000000E+00 -0.22816596431E+04  0.22816596431E+04  0.00000000000E+00 0. -1.
        -24    2    1    2    0    0 -0.73324214251E+03  0.44425463993E+02 -0.69380991226E+03  0.10138260816E+04  0.82785674566E+02 0.  0.
        254    2    1    2    0    0  0.73324214251E+03 -0.44425463993E+02 -0.11914464771E+04  0.16642368153E+04  0.90028984686E+03 0.  0.
         23    2    4    4    0    0 -0.11713846063E+03  0.18151112522E+03 -0.46159643179E+03  0.51728693261E+03  0.88582149855E+02 0.  0.
         23    2    4    4    0    0  0.85038060314E+03 -0.22593658922E+03 -0.72985004530E+03  0.11469498827E+04  0.92835512175E+02 0.  0.
          1    1    3    3  502    0 -0.13304367236E+03 -0.17907545493E+02 -0.10170462042E+03  0.16841950230E+03  0.00000000000E+00 0. -1.
         -2    1    3    3    0  502 -0.60019847014E+03  0.62333009486E+02 -0.59210529184E+03  0.84540657926E+03  0.00000000000E+00 0.  1.
         11    1    5    5    0    0 -0.82239097519E+02  0.61738171550E+02 -0.15217844547E+03  0.18366586578E+03  0.00000000000E+00 0. -1.
        -11    1    5    5    0    0 -0.34899363112E+02  0.11977295367E+03 -0.30941798631E+03  0.33362106683E+03  0.00000000000E+00 0.  1.
          1    1    6    6  503    0  0.10070747533E+03 -0.12268144485E+01 -0.10485681558E+03  0.14539068895E+03  0.00000000000E+00 0. -1.
         -1    1    6    6    0  503  0.74967312781E+03 -0.22470977477E+03 -0.62499322973E+03  0.10015591938E+04  0.00000000000E+00 0.  1.
<mgrwt>
<rscale>  0 0.19020592E+04</rscale>
<asrwt>0</asrwt>
<pdfrwt beam="1">  1        1 0.35102455E+00 0.19020592E+04</pdfrwt>
<pdfrwt beam="2">  1       -2 0.60985118E-01 0.19020592E+04</pdfrwt>
<totfact> 0.39395483E+00</totfact>
</mgrwt>
</event>
<event>
12    4  0.4280696E-008  0.2383072E+04  0.7818608E-02  0.8445868E-01
          1   -1    0    0  501    0  0.00000000000E+00  0.00000000000E+00  0.16449698121E+04  0.16449698121E+04  0.00000000000E+00 0. -1.
         -2   -1    0    0    0  501 -0.00000000000E+00 -0.00000000000E+00 -0.86309076822E+03  0.86309076822E+03  0.00000000000E+00 0.  1.
        -24    2    1    2    0    0 -0.96113290135E+03 -0.34000799466E+03  0.33512082647E+03  0.10765011206E+04  0.84656977061E+02 0.  0.
        254    2    1    2    0    0  0.96113290135E+03  0.34000799466E+03  0.44675821744E+03  0.14315594598E+04  0.90021535844E+03 0.  0.
         23    2    4    4    0    0  0.41480261552E+03 -0.27509849664E+03  0.36081979353E+02  0.50747664598E+03  0.92142521611E+02 0.  0.
         23    2    4    4    0    0  0.54633028583E+03  0.61510649131E+03  0.41067623809E+03  0.92408281381E+03  0.91876533320E+02 0.  0.
          1    1    3    3  502    0 -0.84767840614E+03 -0.31069338934E+03  0.32227367199E+03  0.95861847576E+03  0.00000000000E+00 0. -1.
         -2    1    3    3    0  502 -0.11345449521E+03 -0.29314605320E+02  0.12847154477E+02  0.11788264481E+03  0.00000000000E+00 0.  1.
         11    1    5    5    0    0  0.16615100868E+03 -0.77699709987E+02  0.48595290443E+02  0.18974958464E+03  0.00000000000E+00 0.  1.
        -11    1    5    5    0    0  0.24865160684E+03 -0.19739878666E+03 -0.12513311090E+02  0.31772706135E+03  0.00000000000E+00 0. -1.
          3    1    6    6  503    0  0.54368401875E+03  0.59053284845E+03  0.39330936931E+03  0.89387561625E+03  0.00000000000E+00 0. -1.
         -3    1    6    6    0  503  0.26462670782E+01  0.24573642856E+02  0.17366868783E+02  0.30207197553E+02  0.00000000000E+00 0.  1.
<mgrwt>
<rscale>  0 0.23830722E+04</rscale>
<asrwt>0</asrwt>
<pdfrwt beam="1">  1        1 0.25307228E+00 0.23830722E+04</pdfrwt>
<pdfrwt beam="2">  1       -2 0.13278320E+00 0.23830722E+04</pdfrwt>
<totfact> 0.16858942E+00</totfact>
</mgrwt>
</event>
<event>
12    4  0.4280696E-008  0.1724564E+04  0.7818608E-02  0.8747477E-01
         -2   -1    0    0    0  501 -0.00000000000E+00  0.00000000000E+00  0.11064763907E+04  0.11064763907E+04  0.00000000000E+00 0.  1.
          1   -1    0    0  501    0  0.00000000000E+00 -0.00000000000E+00 -0.67198042102E+03  0.67198042102E+03  0.00000000000E+00 0. -1.
        -24    2    1    2    0    0 -0.32842554169E+03  0.20851953243E+03  0.66215380901E+03  0.77214513377E+03  0.80104363066E+02 0.  0.
        254    2    1    2    0    0  0.32842554169E+03 -0.20851953243E+03 -0.22765783936E+03  0.10063116779E+04  0.89971738309E+03 0.  0.
         23    2    4    4    0    0  0.10598736115E+02  0.62626741499E+02 -0.49121510880E+03  0.50400209048E+03  0.93227582452E+02 0.  0.
         23    2    4    4    0    0  0.31782680557E+03 -0.27114627393E+03  0.26355726944E+03  0.50230958744E+03  0.91204753989E+02 0.  0.
          3    1    3    3  502    0 -0.19138422420E+03  0.79620998211E+02  0.31061527013E+03  0.37342907046E+03  0.00000000000E+00 0. -1.
         -4    1    3    3    0  502 -0.13704131749E+03  0.12889853422E+03  0.35153853888E+03  0.39871606331E+03  0.00000000000E+00 0.  1.
         11    1    5    5    0    0 -0.15621751645E+02  0.22230053643E+02 -0.30784963109E+02  0.41060058002E+02  0.00000000000E+00 0.  1.
        -11    1    5    5    0    0  0.26220487761E+02  0.40396687856E+02 -0.46043014569E+03  0.46294203247E+03  0.00000000000E+00 0. -1.
          4    1    6    6  503    0  0.23009295524E+03 -0.20704330246E+03  0.14602720006E+03  0.34224792228E+03  0.00000000000E+00 0. -1.
         -4    1    6    6    0  503  0.87733850332E+02 -0.64102971470E+02  0.11753006938E+03  0.16006166516E+03  0.00000000000E+00 0.  1.
<mgrwt>
<rscale>  0 0.17245643E+04</rscale>
<asrwt>0</asrwt>
<pdfrwt beam="1">  1        1 0.10338160E+00 0.17245643E+04</pdfrwt>
<pdfrwt beam="2">  1       -2 0.17022714E+00 0.17245643E+04</pdfrwt>
<totfact> 0.51131756E+00</totfact>
</mgrwt>
</event>
<event>
12    4  0.4280696E-008  0.3660292E+04  0.7818608E-02  0.8076819E-01
         -2   -1    0    0    0  501 -0.00000000000E+00  0.00000000000E+00  0.14937116811E+04  0.14937116811E+04  0.00000000000E+00 0.  1.
          1   -1    0    0  501    0  0.00000000000E+00 -0.00000000000E+00 -0.22423562316E+04  0.22423562316E+04  0.00000000000E+00 0. -1.
        -24    2    1    2    0    0  0.58151620639E+03 -0.13270881372E+04 -0.12910108037E+04  0.19424223718E+04  0.83497023903E+02 0.  0.
        254    2    1    2    0    0 -0.58151620639E+03  0.13270881372E+04  0.54236625320E+03  0.17936455409E+04  0.90756771196E+03 0.  0.
         23    2    4    4    0    0 -0.22133113287E+02 -0.11512717543E+03  0.11561083576E+03  0.18629722027E+03  0.87158750034E+02 0.  0.
         23    2    4    4    0    0 -0.55938309310E+03  0.14422153126E+04  0.42675541744E+03  0.16073483207E+04  0.92487755248E+02 0.  0.
          3    1    3    3  502    0  0.57708893996E+03 -0.12963889313E+04 -0.12741344635E+04  0.19071115691E+04  0.00000000000E+00 0. -1.
         -4    1    3    3    0  502  0.44272664272E+01 -0.30699205843E+02 -0.16876340184E+02  0.35310802673E+02  0.00000000000E+00 0.  1.
         11    1    5    5    0    0  0.18844401313E+02 -0.10041306313E+03  0.87090666508E+02  0.13424857131E+03  0.00000000000E+00 0.  1.
        -11    1    5    5    0    0 -0.40977514599E+02 -0.14714112307E+02  0.28520169254E+02  0.52048648955E+02  0.00000000000E+00 0. -1.
          3    1    6    6  503    0 -0.53945308699E+03  0.14225410626E+04  0.41501038269E+03  0.15769801284E+04  0.00000000000E+00 0. -1.
         -3    1    6    6    0  503 -0.19930006110E+02  0.19674250058E+02  0.11745034743E+02  0.30368192241E+02  0.00000000000E+00 0.  1.
<mgrwt>
<rscale>  0 0.36602916E+04</rscale>
<asrwt>0</asrwt>
<pdfrwt beam="1">  1        1 0.34497788E+00 0.36602916E+04</pdfrwt>
<pdfrwt beam="2">  1       -2 0.22980180E+00 0.36602916E+04</pdfrwt>
<totfact> 0.12374074E-01</totfact>
</mgrwt>
</event>
<event>
12    4  0.4280696E-008  0.1476656E+04  0.7818608E-02  0.8900127E-01
          3   -1    0    0  501    0  0.00000000000E+00  0.00000000000E+00  0.21161223962E+04  0.21161223962E+04  0.00000000000E+00 0. -1.
         -4   -1    0    0    0  501 -0.00000000000E+00 -0.00000000000E+00 -0.25760705755E+03  0.25760705755E+03  0.00000000000E+00 0.  1.
        -24    2    1    2    0    0  0.18939000804E+03 -0.29578881255E+03  0.10023693776E+04  0.10652814152E+04  0.81978824419E+02 0.  0.
        254    2    1    2    0    0 -0.18939000804E+03  0.29578881255E+03  0.85614596101E+03  0.13084480385E+04  0.92503554858E+03 0.  0.
         23    2    4    4    0    0 -0.20323588934E+03 -0.21493952869E+02 -0.13637270397E+03  0.26235070862E+03  0.91997626046E+02 0.  0.
         23    2    4    4    0    0  0.13845881295E+02  0.31728276542E+03  0.99251866499E+03  0.10460973299E+04  0.91467270683E+02 0.  0.
          1    1    3    3  502    0  0.14935660125E+03 -0.21544688373E+03  0.83735129213E+03  0.87742916551E+03  0.00000000000E+00 0. -1.
         -2    1    3    3    0  502  0.40033406791E+02 -0.80341928814E+02  0.16501808549E+03  0.18785224972E+03  0.00000000000E+00 0.  1.
         11    1    5    5    0    0 -0.19285093315E+03  0.63347715511E+01 -0.12778223328E+03  0.23143014257E+03  0.00000000000E+00 0.  1.
        -11    1    5    5    0    0 -0.10384956186E+02 -0.27828724420E+02 -0.85904706882E+01  0.30920566044E+02  0.00000000000E+00 0. -1.
          2    1    6    6  503    0 -0.23074762010E+02  0.19900800727E+03  0.51037554880E+03  0.54828809253E+03  0.00000000000E+00 0. -1.
         -2    1    6    6    0  503  0.36920643306E+02  0.11827475814E+03  0.48214311619E+03  0.49780923736E+03  0.00000000000E+00 0.  1.
<mgrwt>
<rscale>  0 0.14766558E+04</rscale>
<asrwt>0</asrwt>
<pdfrwt beam="1">  1        3 0.32555728E+00 0.14766558E+04</pdfrwt>
<pdfrwt beam="2">  1       -4 0.39631856E-01 0.14766558E+04</pdfrwt>
<totfact> 0.38887583E-01</totfact>
</mgrwt>
</event>
<event>
12    4  0.4280696E-008  0.1268624E+04  0.7818608E-02  0.9054824E-01
          1   -1    0    0  501    0  0.00000000000E+00  0.00000000000E+00  0.10128318165E+04  0.10128318165E+04  0.00000000000E+00 0. -1.
         -2   -1    0    0    0  501 -0.00000000000E+00 -0.00000000000E+00 -0.39725393907E+03  0.39725393907E+03  0.00000000000E+00 0.  1.
        -24    2    1    2    0    0  0.13612057460E+03 -0.70849317718E+02 -0.14354906659E+03  0.22493722713E+03  0.80261977160E+02 0.  0.
        254    2    1    2    0    0 -0.13612057460E+03  0.70849317718E+02  0.75912694402E+03  0.11851485284E+04  0.89708131220E+03 0.  0.
         23    2    4    4    0    0  0.26101313028E+03  0.95361536930E+02  0.71684349560E+03  0.77494555376E+03  0.97233416148E+02 0.  0.
         23    2    4    4    0    0 -0.39713370488E+03 -0.24512219213E+02  0.42283448424E+02  0.41020297468E+03  0.90346898024E+02 0.  0.
          1    1    3    3  502    0  0.49560179356E+02 -0.20630361866E+02 -0.10456280308E+03  0.11753809168E+03  0.00000000000E+00 0. -1.
         -2    1    3    3    0  502  0.86560395244E+02 -0.50218955852E+02 -0.38986263512E+02  0.10739913544E+03  0.00000000000E+00 0.  1.
         11    1    5    5    0    0  0.13228478262E+03  0.44296317449E+02  0.23201141181E+03  0.27072259356E+03  0.00000000000E+00 0.  1.
        -11    1    5    5    0    0  0.12872834766E+03  0.51065219482E+02  0.48483208378E+03  0.50422296021E+03  0.00000000000E+00 0. -1.
          1    1    6    6  503    0 -0.10722807272E+03 -0.31518342494E+02 -0.20154619072E+02  0.11356704699E+03  0.00000000000E+00 0. -1.
         -1    1    6    6    0  503 -0.28990563216E+03  0.70061232810E+01  0.62438067496E+02  0.29663592769E+03  0.00000000000E+00 0.  1.
<mgrwt>
<rscale>  0 0.12686236E+04</rscale>
<asrwt>0</asrwt>
<pdfrwt beam="1">  1        1 0.15582028E+00 0.12686236E+04</pdfrwt>
<pdfrwt beam="2">  1       -2 0.61115991E-01 0.12686236E+04</pdfrwt>
<totfact> 0.31796908E+01</totfact>
</mgrwt>
</event>
<event>
12    4  0.4280696E-008  0.1760038E+04  0.7818608E-02  0.8727844E-01
          1   -1    0    0  501    0  0.00000000000E+00  0.00000000000E+00  0.65888832631E+03  0.65888832631E+03  0.00000000000E+00 0. -1.
         -2   -1    0    0    0  501 -0.00000000000E+00 -0.00000000000E+00 -0.11753634616E+04  0.11753634616E+04  0.00000000000E+00 0.  1.
        -24    2    1    2    0    0 -0.25170520248E+03  0.65440257286E+02 -0.80856957759E+03  0.85297339771E+03  0.78364017069E+02 0.  0.
        254    2    1    2    0    0  0.25170520248E+03 -0.65440257286E+02  0.29209444233E+03  0.98127839016E+03  0.89997232153E+03 0.  0.
         23    2    4    4    0    0 -0.21864540884E+03  0.26136686501E+03  0.15882826241E+03  0.38682849403E+03  0.91057201350E+02 0.  0.
         23    2    4    4    0    0  0.47035061133E+03 -0.32680712230E+03  0.13326617993E+03  0.59444989614E+03  0.87052923816E+02 0.  0.
          3    1    3    3  502    0 -0.12632750350E+03  0.12712738293E+01 -0.30631774794E+03  0.33134697370E+03  0.00000000000E+00 0. -1.
         -4    1    3    3    0  502 -0.12537769898E+03  0.64168983457E+02 -0.50225182965E+03  0.52162642401E+03  0.00000000000E+00 0.  1.
         11    1    5    5    0    0 -0.14987844002E+03  0.23133559828E+03  0.14138482044E+03  0.30978924007E+03  0.00000000000E+00 0.  1.
        -11    1    5    5    0    0 -0.68766968817E+02  0.30031266733E+02  0.17443441970E+02  0.77039253954E+02  0.00000000000E+00 0. -1.
          1    1    6    6  503    0  0.30714900521E+02 -0.15589949914E+01  0.17764921008E+02  0.35516587643E+02  0.00000000000E+00 0. -1.
         -1    1    6    6    0  503  0.43963571080E+03 -0.32524812731E+03  0.11550125892E+03  0.55893330849E+03  0.00000000000E+00 0.  1.
<mgrwt>
<rscale>  0 0.17600378E+04</rscale>
<asrwt>0</asrwt>
<pdfrwt beam="1">  1        1 0.10136744E+00 0.17600378E+04</pdfrwt>
<pdfrwt beam="2">  1       -2 0.18082515E+00 0.17600378E+04</pdfrwt>
<totfact> 0.44247488E+00</totfact>
</mgrwt>
</event>
<event>
12    4  0.4280696E-008  0.1119780E+04  0.7818608E-02  0.9186125E-01
          1   -1    0    0  501    0  0.00000000000E+00  0.00000000000E+00  0.19110614488E+04  0.19110614488E+04  0.00000000000E+00 0. -1.
         -2   -1    0    0    0  501 -0.00000000000E+00 -0.00000000000E+00 -0.16403278014E+03  0.16403278014E+03  0.00000000000E+00 0.  1.
        -24    2    1    2    0    0 -0.49165540767E+02 -0.12874718674E+03  0.85252887429E+02  0.18089683387E+03  0.80389807789E+02 0.  0.
        254    2    1    2    0    0  0.49165540767E+02  0.12874718674E+03  0.16617757812E+04  0.18941973950E+04  0.89860555080E+03 0.  0.
         23    2    4    4    0    0 -0.10003731117E+02 -0.33647236048E+03  0.33457483574E+03  0.48362013095E+03  0.92921398780E+02 0.  0.
         23    2    4    4    0    0  0.59169271885E+02  0.46521954722E+03  0.13272009454E+04  0.14105772641E+04  0.91299717926E+02 0.  0.
          3    1    3    3  502    0 -0.45960566637E+02 -0.32302134288E+02  0.57727114847E+02  0.80549496297E+02  0.00000000000E+00 0. -1.
         -4    1    3    3    0  502 -0.32049741301E+01 -0.96445052449E+02  0.27525772582E+02  0.10034733757E+03  0.00000000000E+00 0.  1.
         11    1    5    5    0    0  0.34789410935E+01 -0.27403132175E+03  0.31339773335E+03  0.41632127930E+03  0.00000000000E+00 0. -1.
        -11    1    5    5    0    0 -0.13482672211E+02 -0.62441038735E+02  0.21177102385E+02  0.67298851652E+02  0.00000000000E+00 0.  1.
          3    1    6    6  503    0 -0.17405275373E+02  0.57323161389E+02  0.22469206034E+03  0.23254120156E+03  0.00000000000E+00 0.  1.
         -3    1    6    6    0  503  0.76574547257E+02  0.40789638583E+03  0.11025088851E+04  0.11780360625E+04  0.00000000000E+00 0. -1.
<mgrwt>
<rscale>  0 0.11197798E+04</rscale>
<asrwt>0</asrwt>
<pdfrwt beam="1">  1        1 0.29400944E+00 0.11197798E+04</pdfrwt>
<pdfrwt beam="2">  1       -2 0.25235814E-01 0.11197798E+04</pdfrwt>
<totfact> 0.42273219E+01</totfact>
</mgrwt>
</event>
<event>
12    4  0.4280696E-008  0.2784744E+04  0.7818608E-02  0.8308020E-01
         -2   -1    0    0    0  501 -0.00000000000E+00  0.00000000000E+00  0.14960140015E+04  0.14960140015E+04  0.00000000000E+00 0.  1.
          1   -1    0    0  501    0  0.00000000000E+00 -0.00000000000E+00 -0.12959106359E+04  0.12959106359E+04  0.00000000000E+00 0. -1.
        -24    2    1    2    0    0  0.10246295144E+04  0.53648896359E+03  0.55756089251E+03  0.12863691296E+04  0.78646925484E+02 0.  0.
        254    2    1    2    0    0 -0.10246295144E+04 -0.53648896359E+03 -0.35745752695E+03  0.15055555079E+04  0.89511756428E+03 0.  0.
         23    2    4    4    0    0 -0.61317478544E+03 -0.11308509634E+03  0.22747987061E+03  0.67000238537E+03  0.91567179511E+02 0.  0.
         23    2    4    4    0    0 -0.41145472895E+03 -0.42340386726E+03 -0.58493739757E+03  0.83555312249E+03  0.86205757628E+02 0.  0.
          1    1    3    3  502    0  0.52200709335E+03  0.30267099071E+03  0.25788236939E+03  0.65620457981E+03  0.00000000000E+00 0. -1.
         -2    1    3    3    0  502  0.50262242104E+03  0.23381797288E+03  0.29967852312E+03  0.63016454978E+03  0.00000000000E+00 0.  1.
         11    1    5    5    0    0 -0.56198214237E+03 -0.84277720499E+02  0.22506106127E+03  0.61121121048E+03  0.00000000000E+00 0. -1.
        -11    1    5    5    0    0 -0.51192643068E+02 -0.28807375836E+02  0.24188093398E+01  0.58791174894E+02  0.00000000000E+00 0.  1.
          2    1    6    6  503    0 -0.11428051064E+03 -0.88512857163E+02 -0.10145955688E+03  0.17660295206E+03  0.00000000000E+00 0. -1.
         -2    1    6    6    0  503 -0.29717421831E+03 -0.33489101009E+03 -0.48347784069E+03  0.65895017043E+03  0.00000000000E+00 0.  1.
<mgrwt>
<rscale>  0 0.27847445E+04</rscale>
<asrwt>0</asrwt>
<pdfrwt beam="1">  1        1 0.19937087E+00 0.27847445E+04</pdfrwt>
<pdfrwt beam="2">  1       -2 0.23015600E+00 0.27847445E+04</pdfrwt>
<totfact> 0.59114764E-01</totfact>
</mgrwt>
</event>
<event>
12    4  0.4280696E-008  0.1375553E+04  0.7818608E-02  0.8971707E-01
         -2   -1    0    0    0  501 -0.00000000000E+00  0.00000000000E+00  0.46409199894E+03  0.46409199894E+03  0.00000000000E+00 0.  1.
          1   -1    0    0  501    0  0.00000000000E+00 -0.00000000000E+00 -0.10192735644E+04  0.10192735644E+04  0.00000000000E+00 0. -1.
        -24    2    1    2    0    0 -0.16784903934E+03  0.81747555436E+02  0.20724497369E+03  0.29030077536E+03  0.80424487747E+02 0.  0.
        254    2    1    2    0    0  0.16784903934E+03 -0.81747555436E+02 -0.76242653915E+03  0.11930647880E+04  0.89847281421E+03 0.  0.
         23    2    4    4    0    0 -0.35253633775E+03 -0.10119922507E+03 -0.22863174662E+03  0.44158676805E+03  0.90571770261E+02 0.  0.
         23    2    4    4    0    0  0.52038537709E+03  0.19451669631E+02 -0.53379479254E+03  0.75147801992E+03  0.92752497226E+02 0.  0.
          3    1    3    3  502    0  0.67270157508E+01 -0.49534777076E+01  0.90687761596E+01  0.12330141254E+02  0.00000000000E+00 0. -1.
         -2    1    3    3    0  502 -0.17457605509E+03  0.86701033144E+02  0.19817619753E+03  0.27797063411E+03  0.00000000000E+00 0.  1.
         11    1    5    5    0    0 -0.13910091420E+03 -0.23004427227E+02 -0.40969944815E+02  0.14682235654E+03  0.00000000000E+00 0. -1.
        -11    1    5    5    0    0 -0.21343542355E+03 -0.78194797840E+02 -0.18766180180E+03  0.29476441151E+03  0.00000000000E+00 0.  1.
          4    1    6    6  503    0  0.26228312934E+03  0.32930379820E+01 -0.20350010552E+03  0.33198731449E+03  0.00000000000E+00 0. -1.
         -4    1    6    6    0  503  0.25810224775E+03  0.16158631649E+02 -0.33029468702E+03  0.41949070543E+03  0.00000000000E+00 0.  1.
<mgrwt>
<rscale>  0 0.13755533E+04</rscale>
<asrwt>0</asrwt>
<pdfrwt beam="1">  1        1 0.15681132E+00 0.13755533E+04</pdfrwt>
<pdfrwt beam="2">  1       -2 0.71398769E-01 0.13755533E+04</pdfrwt>
<totfact> 0.22284805E+01</totfact>
</mgrwt>
</event>
<event>
12    4  0.4280696E-008  0.2532513E+04  0.7818608E-02  0.8391493E-01
         -2   -1    0    0    0  501 -0.00000000000E+00  0.00000000000E+00  0.13103170011E+04  0.13103170011E+04  0.00000000000E+00 0.  1.
          1   -1    0    0  501    0  0.00000000000E+00 -0.00000000000E+00 -0.12236778261E+04  0.12236778261E+04  0.00000000000E+00 0. -1.
        -24    2    1    2    0    0 -0.26339652848E+03  0.36191888434E+03  0.10521669598E+04  0.11463376710E+04  0.81680686628E+02 0.  0.
        254    2    1    2    0    0  0.26339652848E+03 -0.36191888434E+03 -0.96552778486E+03  0.13876571562E+04  0.89049731600E+03 0.  0.
         23    2    4    4    0    0 -0.10532764089E+03 -0.35531397416E+03 -0.35984347813E+02  0.38357065984E+03  0.92139273015E+02 0.  0.
         23    2    4    4    0    0  0.36872416937E+03 -0.66049101805E+01 -0.92954343705E+03  0.10040864964E+04  0.90208386204E+02 0.  0.
          3    1    3    3  502    0  0.28765037565E+01  0.57057592101E+01  0.35520637617E+01  0.73107536541E+01  0.00000000000E+00 0. -1.
         -4    1    3    3    0  502 -0.26627303224E+03  0.35621312513E+03  0.10486148961E+04  0.11390269174E+04  0.00000000000E+00 0.  1.
         11    1    5    5    0    0  0.96057822373E+00  0.54493060284E+01 -0.22242109198E+01  0.59636197843E+01  0.00000000000E+00 0.  1.
        -11    1    5    5    0    0 -0.10628821911E+03 -0.36076328019E+03 -0.33760136893E+02  0.37760704005E+03  0.00000000000E+00 0. -1.
          4    1    6    6  503    0  0.25429181937E+03  0.47521684396E+01 -0.73888685096E+03  0.78143502035E+03  0.00000000000E+00 0. -1.
         -4    1    6    6    0  503  0.11443235000E+03 -0.11357078620E+02 -0.19065658609E+03  0.22265147603E+03  0.00000000000E+00 0.  1.
<mgrwt>
<rscale>  0 0.25325133E+04</rscale>
<asrwt>0</asrwt>
<pdfrwt beam="1">  1        1 0.18825813E+00 0.25325133E+04</pdfrwt>
<pdfrwt beam="2">  1       -2 0.20158723E+00 0.25325133E+04</pdfrwt>
<totfact> 0.10365458E+00</totfact>
</mgrwt>
</event>
<event>
12    4  0.4280696E-008  0.1680881E+04  0.7818608E-02  0.8772344E-01
         -2   -1    0    0    0  501 -0.00000000000E+00  0.00000000000E+00  0.34053102945E+03  0.34053102945E+03  0.00000000000E+00 0.  1.
          1   -1    0    0  501    0  0.00000000000E+00 -0.00000000000E+00 -0.20742314122E+04  0.20742314122E+04  0.00000000000E+00 0. -1.
        -24    2    1    2    0    0  0.13504602477E+03  0.41141520432E+03 -0.38980019955E+02  0.44179885751E+03  0.78529544717E+02 0.  0.
        254    2    1    2    0    0 -0.13504602477E+03 -0.41141520432E+03 -0.16947203628E+04  0.19729635842E+04  0.91269288214E+03 0.  0.
         23    2    4    4    0    0 -0.37722971008E+03 -0.25142747086E+03 -0.15837666577E+04  0.16495901150E+04  0.85514291212E+02 0.  0.
         23    2    4    4    0    0  0.24218368532E+03 -0.15998773345E+03 -0.11095370510E+03  0.32337346920E+03  0.89502310685E+02 0.  0.
          3    1    3    3  502    0 -0.59183609849E+01  0.53612490746E+02 -0.17195386276E+02  0.56612785393E+02  0.00000000000E+00 0. -1.
         -4    1    3    3    0  502  0.14096438575E+03  0.35780271357E+03 -0.21784633680E+02  0.38518607212E+03  0.00000000000E+00 0.  1.
         11    1    5    5    0    0 -0.14241875182E+03 -0.13678809116E+03 -0.76894865841E+03  0.79389931479E+03  0.00000000000E+00 0. -1.
        -11    1    5    5    0    0 -0.23481095827E+03 -0.11463937970E+03 -0.81481799931E+03  0.85569080017E+03  0.00000000000E+00 0.  1.
          3    1    6    6  503    0  0.17372013368E+03 -0.10295629967E+03 -0.32269520418E+02  0.20449940448E+03  0.00000000000E+00 0. -1.
         -3    1    6    6    0  503  0.68463551638E+02 -0.57031433787E+02 -0.78684184686E+02  0.11887406472E+03  0.00000000000E+00 0.  1.
<mgrwt>
<rscale>  0 0.16808809E+04</rscale>
<asrwt>0</asrwt>
<pdfrwt beam="1">  1        1 0.31911253E+00 0.16808809E+04</pdfrwt>
<pdfrwt beam="2">  1       -2 0.52389388E-01 0.16808809E+04</pdfrwt>
<totfact> 0.76385349E+00</totfact>
</mgrwt>
</event>
<event>
12    4  0.4280696E-008  0.2458288E+04  0.7818608E-02  0.8417998E-01
         -2   -1    0    0    0  501 -0.00000000000E+00  0.00000000000E+00  0.11708416588E+04  0.11708416588E+04  0.00000000000E+00 0.  1.
          1   -1    0    0  501    0  0.00000000000E+00 -0.00000000000E+00 -0.12903490041E+04  0.12903490041E+04  0.00000000000E+00 0. -1.
        -24    2    1    2    0    0  0.72475884265E+03  0.76441252064E+03 -0.22074589309E+03  0.10794099202E+04  0.82432668913E+02 0.  0.
        254    2    1    2    0    0 -0.72475884265E+03 -0.76441252064E+03  0.10123854776E+03  0.13817807426E+04  0.88851949638E+03 0.  0.
         23    2    4    4    0    0 -0.63118670629E+03 -0.67796260475E+03  0.42465199874E+03  0.10232074904E+04  0.92705429966E+02 0.  0.
         23    2    4    4    0    0 -0.93572136361E+02 -0.86449915890E+02 -0.32341345097E+03  0.35857325224E+03  0.88029451258E+02 0.  0.
          3    1    3    3  502    0  0.26269122739E+03  0.29057636581E+03 -0.42654280745E+02  0.39403133503E+03  0.00000000000E+00 0. -1.
         -4    1    3    3    0  502  0.46206761525E+03  0.47383615483E+03 -0.17809161235E+03  0.68537858522E+03  0.00000000000E+00 0.  1.
         11    1    5    5    0    0 -0.24520741800E+03 -0.32490695183E+03  0.16510870578E+03  0.43926312150E+03  0.00000000000E+00 0. -1.
        -11    1    5    5    0    0 -0.38597928828E+03 -0.35305565292E+03  0.25954329296E+03  0.58394436890E+03  0.00000000000E+00 0.  1.
          3    1    6    6  503    0 -0.10559134297E+03 -0.53191586831E+02 -0.22830714177E+03  0.25710509058E+03  0.00000000000E+00 0. -1.
         -3    1    6    6    0  503  0.12019206611E+02 -0.33258329059E+02 -0.95106309199E+02  0.10146816165E+03  0.00000000000E+00 0.  1.
<mgrwt>
<rscale>  0 0.24582875E+04</rscale>
<asrwt>0</asrwt>
<pdfrwt beam="1">  1        1 0.19851523E+00 0.24582875E+04</pdfrwt>
<pdfrwt beam="2">  1       -2 0.18012949E+00 0.24582875E+04</pdfrwt>
<totfact> 0.13014011E+00</totfact>
</mgrwt>
</event>
<event>
12    4  0.4280696E-008  0.1245650E+04  0.7818608E-02  0.9073812E-01
         -2   -1    0    0    0  501 -0.00000000000E+00  0.00000000000E+00  0.13768409068E+03  0.13768409068E+03  0.00000000000E+00 0.  1.
          1   -1    0    0  501    0  0.00000000000E+00 -0.00000000000E+00 -0.28173986956E+04  0.28173986956E+04  0.00000000000E+00 0. -1.
        -24    2    1    2    0    0 -0.28473431566E+03 -0.38691851369E+02 -0.76804758368E+03  0.82411022685E+03  0.81791719172E+02 0.  0.
        254    2    1    2    0    0  0.28473431566E+03  0.38691851369E+02 -0.19116670212E+04  0.21309725594E+04  0.89666189784E+03 0.  0.
         23    2    4    4    0    0 -0.14538071924E+03  0.34150432079E+03 -0.56251480205E+03  0.68000885567E+03  0.90710454842E+02 0.  0.
         23    2    4    4    0    0  0.43011503490E+03 -0.30281246942E+03 -0.13491522191E+04  0.14509637037E+04  0.91594891624E+02 0.  0.
          1    1    3    3  502    0 -0.45391215028E+02  0.22123830338E+02 -0.16178178529E+03  0.16947912061E+03  0.00000000000E+00 0. -1.
         -2    1    3    3    0  502 -0.23934310063E+03 -0.60815681707E+02 -0.60626579839E+03  0.65463110625E+03  0.00000000000E+00 0.  1.
         11    1    5    5    0    0 -0.14425062621E+03  0.23792974385E+03 -0.42093984088E+03  0.50458810511E+03  0.00000000000E+00 0. -1.
        -11    1    5    5    0    0 -0.11300930277E+01  0.10357457695E+03 -0.14157496117E+03  0.17542075057E+03  0.00000000000E+00 0.  1.
          1    1    6    6  503    0  0.43452185374E+03 -0.30166995826E+03 -0.13419453288E+04  0.14424393473E+04  0.00000000000E+00 0. -1.
         -1    1    6    6    0  503 -0.44068188409E+01 -0.11425111673E+01 -0.72068903286E+01  0.85243564140E+01  0.00000000000E+00 0.  1.
<mgrwt>
<rscale>  0 0.12456500E+04</rscale>
<asrwt>0</asrwt>
<pdfrwt beam="1">  1        1 0.43344594E+00 0.12456500E+04</pdfrwt>
<pdfrwt beam="2">  1       -2 0.21182168E-01 0.12456500E+04</pdfrwt>
<totfact> 0.13671487E+01</totfact>
</mgrwt>
</event>
<event>
12    4  0.4280696E-008  0.5148080E+04  0.7818608E-02  0.7806062E-01
         -2   -1    0    0    0  501 -0.00000000000E+00  0.00000000000E+00  0.14699973968E+04  0.14699973968E+04  0.00000000000E+00 0.  1.
          1   -1    0    0  501    0  0.00000000000E+00 -0.00000000000E+00 -0.45072737396E+04  0.45072737396E+04  0.00000000000E+00 0. -1.
        -24    2    1    2    0    0 -0.16279022497E+04  0.42498062482E+03  0.66165163276E+03  0.18096342432E+04  0.79491791571E+02 0.  0.
        254    2    1    2    0    0  0.16279022497E+04 -0.42498062482E+03 -0.36989279756E+04  0.41676368932E+04  0.92544845293E+03 0.  0.
         23    2    4    4    0    0  0.50979021931E+03  0.14535051812E+02 -0.39678535259E+03  0.65267780985E+03  0.91936782653E+02 0.  0.
         23    2    4    4    0    0  0.11181120304E+04 -0.43951567664E+03 -0.33021426230E+04  0.35149590834E+04  0.86272316209E+02 0.  0.
          3    1    3    3  502    0 -0.37501709135E+03  0.79351737731E+02  0.12079049312E+03  0.40190155550E+03  0.00000000000E+00 0. -1.
         -4    1    3    3    0  502 -0.12528851583E+04  0.34562888709E+03  0.54086113965E+03  0.14077326877E+04  0.00000000000E+00 0.  1.
         11    1    5    5    0    0  0.22967815563E+02  0.21216237697E+02 -0.26769101299E+02  0.41161074792E+02  0.00000000000E+00 0. -1.
        -11    1    5    5    0    0  0.48682240375E+03 -0.66811858851E+01 -0.37001625129E+03  0.61151673506E+03  0.00000000000E+00 0.  1.
          2    1    6    6  503    0  0.17486405153E+03 -0.51726473371E+02 -0.42751388499E+03  0.46478079395E+03  0.00000000000E+00 0. -1.
         -2    1    6    6    0  503  0.94324797882E+03 -0.38778920326E+03 -0.28746287381E+04  0.30501782894E+04  0.00000000000E+00 0.  1.
<mgrwt>
<rscale>  0 0.51480795E+04</rscale>
<asrwt>0</asrwt>
<pdfrwt beam="1">  1        1 0.69342671E+00 0.51480795E+04</pdfrwt>
<pdfrwt beam="2">  1       -2 0.22615345E+00 0.51480795E+04</pdfrwt>
<totfact> 0.17863992E-03</totfact>
</mgrwt>
</event>
<event>
12    4  0.4280696E-008  0.1499057E+04  0.7818608E-02  0.8885080E-01
         -4   -1    0    0    0  501 -0.00000000000E+00  0.00000000000E+00  0.48819450568E+03  0.48819450568E+03  0.00000000000E+00 0.  1.
          3   -1    0    0  501    0  0.00000000000E+00 -0.00000000000E+00 -0.11507569233E+04  0.11507569233E+04  0.00000000000E+00 0. -1.
        -24    2    1    2    0    0 -0.23431968625E+03  0.26863683077E+03 -0.68250920227E+03  0.77411377050E+03  0.79761245550E+02 0.  0.
        254    2    1    2    0    0  0.23431968625E+03 -0.26863683077E+03  0.19946784689E+02  0.86483765844E+03  0.78770225277E+03 0.  0.
         23    2    4    4    0    0 -0.14314432967E+03 -0.36313474177E+03  0.16771738917E+03  0.43722987159E+03  0.10336197648E+03 0.  0.
         23    2    4    4    0    0  0.37746401592E+03  0.94497911008E+02 -0.14777060448E+03  0.42760778685E+03  0.97996578132E+02 0.  0.
          3    1    3    3  502    0 -0.23531258036E+03  0.24635272853E+03 -0.65807365611E+03  0.74102807922E+03  0.00000000000E+00 0. -1.
         -4    1    3    3    0  502  0.99289411582E+00  0.22284102239E+02 -0.24435546156E+02  0.33085691277E+02  0.00000000000E+00 0.  1.
         11    1    5    5    0    0 -0.14355926642E+03 -0.26595573575E+03  0.15363147308E+03  0.33903443169E+03  0.00000000000E+00 0.  1.
        -11    1    5    5    0    0  0.41493674856E+00 -0.97179006027E+02  0.14085916087E+02  0.98195439899E+02  0.00000000000E+00 0. -1.
          1    1    6    6  503    0  0.86568170030E+02  0.62779938787E+02 -0.57305179022E+02  0.12132292578E+03  0.00000000000E+00 0. -1.
         -1    1    6    6    0  503  0.29089584589E+03  0.31717972221E+02 -0.90465425456E+02  0.30628486107E+03  0.00000000000E+00 0.  1.
<mgrwt>
<rscale>  0 0.14990573E+04</rscale>
<asrwt>0</asrwt>
<pdfrwt beam="1">  1        3 0.17703952E+00 0.14990573E+04</pdfrwt>
<pdfrwt beam="2">  1       -4 0.75106848E-01 0.14990573E+04</pdfrwt>
<totfact> 0.73668364E-01</totfact>
</mgrwt>
</event>
<event>
12    4  0.4280696E-008  0.2108786E+04  0.7818608E-02  0.8557383E-01
          1   -1    0    0  501    0  0.00000000000E+00  0.00000000000E+00  0.12789249383E+04  0.12789249383E+04  0.00000000000E+00 0. -1.
         -2   -1    0    0    0  501 -0.00000000000E+00 -0.00000000000E+00 -0.86928040723E+03  0.86928040723E+03  0.00000000000E+00 0.  1.
        -24    2    1    2    0    0  0.41244919779E+03 -0.45465695769E+03 -0.44100144647E+03  0.76136774485E+03  0.91494683810E+02 0.  0.
        254    2    1    2    0    0 -0.41244919779E+03  0.45465695769E+03  0.85064597758E+03  0.13868376007E+04  0.90713431291E+03 0.  0.
         23    2    4    4    0    0 -0.65660685171E+03  0.12698130847E+03  0.48387508206E+03  0.83043131331E+03  0.90687709636E+02 0.  0.
         23    2    4    4    0    0  0.24415765391E+03  0.32767564922E+03  0.36677089552E+03  0.55640628742E+03  0.89904259145E+02 0.  0.
          3    1    3    3  502    0  0.76265605446E+02 -0.13409987575E+03 -0.13608925386E+03  0.20571704904E+03  0.00000000000E+00 0. -1.
         -4    1    3    3    0  502  0.33618359235E+03 -0.32055708195E+03 -0.30491219261E+03  0.55565069581E+03  0.00000000000E+00 0.  1.
         11    1    5    5    0    0 -0.91745857216E+01 -0.71999062008E+01  0.18558454636E+02  0.21918665811E+02  0.00000000000E+00 0.  1.
        -11    1    5    5    0    0 -0.64743226598E+03  0.13418121467E+03  0.46531662742E+03  0.80851264750E+03  0.00000000000E+00 0. -1.
          3    1    6    6  503    0  0.19470562239E+03  0.19609196815E+03  0.22039021089E+03  0.35346030105E+03  0.00000000000E+00 0. -1.
         -3    1    6    6    0  503  0.49452031522E+02  0.13158368108E+03  0.14638068463E+03  0.20294598636E+03  0.00000000000E+00 0.  1.
<mgrwt>
<rscale>  0 0.21087858E+04</rscale>
<asrwt>0</asrwt>
<pdfrwt beam="1">  1        1 0.19675768E+00 0.21087858E+04</pdfrwt>
<pdfrwt beam="2">  1       -2 0.13373545E+00 0.21087858E+04</pdfrwt>
<totfact> 0.30519825E+00</totfact>
</mgrwt>
</event>
<event>
12    4  0.4280696E-008  0.2223980E+04  0.7818608E-02  0.8508513E-01
          1   -1    0    0  501    0  0.00000000000E+00  0.00000000000E+00  0.13964769840E+04  0.13964769840E+04  0.00000000000E+00 0. -1.
         -2   -1    0    0    0  501 -0.00000000000E+00 -0.00000000000E+00 -0.88545808324E+03  0.88545808324E+03  0.00000000000E+00 0.  1.
        -24    2    1    2    0    0 -0.47189909540E+03 -0.73730333245E+03 -0.10532807014E+03  0.88529199830E+03  0.79642699655E+02 0.  0.
        254    2    1    2    0    0  0.47189909540E+03  0.73730333245E+03  0.61634697089E+03  0.13966430689E+04  0.89689648968E+03 0.  0.
         23    2    4    4    0    0  0.63199773449E+03  0.41087523627E+03  0.67619984625E+03  0.10168867591E+04  0.92589700291E+02 0.  0.
         23    2    4    4    0    0 -0.16009863910E+03  0.32642809618E+03 -0.59852875360E+02  0.37975630982E+03  0.91900010576E+02 0.  0.
          3    1    3    3  502    0 -0.12311904894E+02 -0.50220748037E+02  0.19128913509E+01  0.51743267087E+02  0.00000000000E+00 0. -1.
         -4    1    3    3    0  502 -0.45958719050E+03 -0.68708258442E+03 -0.10724096150E+03  0.83354873121E+03  0.00000000000E+00 0.  1.
         11    1    5    5    0    0  0.65516909162E+02  0.40994721317E+02  0.35275085263E+02  0.84955071670E+02  0.00000000000E+00 0.  1.
        -11    1    5    5    0    0  0.56648082533E+03  0.36988051495E+03  0.64092476099E+03  0.93193168744E+03  0.00000000000E+00 0. -1.
          1    1    6    6  503    0 -0.14786276659E+03  0.21124204048E+03 -0.55984260070E+02  0.26385760324E+03  0.00000000000E+00 0. -1.
         -1    1    6    6    0  503 -0.12235872505E+02  0.11518605570E+03 -0.38686152893E+01  0.11589870658E+03  0.00000000000E+00 0.  1.
<mgrwt>
<rscale>  0 0.22239801E+04</rscale>
<asrwt>0</asrwt>
<pdfrwt beam="1">  1        1 0.21484261E+00 0.22239801E+04</pdfrwt>
<pdfrwt beam="2">  1       -2 0.13622432E+00 0.22239801E+04</pdfrwt>
<totfact> 0.23787779E+00</totfact>
</mgrwt>
</event>
<event>
12    4  0.4280696E-008  0.2061026E+04  0.7818608E-02  0.8578609E-01
         -2   -1    0    0    0  501 -0.00000000000E+00  0.00000000000E+00  0.35241743967E+03  0.35241743967E+03  0.00000000000E+00 0.  1.
          1   -1    0    0  501    0  0.00000000000E+00 -0.00000000000E+00 -0.30133487999E+04  0.30133487999E+04  0.00000000000E+00 0. -1.
        -24    2    1    2    0    0  0.34743249681E+03  0.62606504682E+03 -0.17405182021E+04  0.18838363147E+04  0.82273119973E+02 0.  0.
        254    2    1    2    0    0 -0.34743249681E+03 -0.62606504682E+03 -0.92041315818E+03  0.14819299249E+04  0.91448845685E+03 0.  0.
         23    2    4    4    0    0 -0.32694010773E+03 -0.48926589654E+03 -0.52371804830E+02  0.59802259635E+03  0.92829242403E+02 0.  0.
         23    2    4    4    0    0 -0.20492389080E+02 -0.13679915028E+03 -0.86804135335E+03  0.88390732850E+03  0.93072169377E+02 0.  0.
          1    1    3    3  502    0  0.21187272000E+03  0.37501692719E+03 -0.93974994676E+03  0.10337590181E+04  0.00000000000E+00 0. -1.
         -2    1    3    3    0  502  0.13555977681E+03  0.25104811964E+03 -0.80076825533E+03  0.85007729661E+03  0.00000000000E+00 0.  1.
         11    1    5    5    0    0 -0.17952854883E+03 -0.34403033178E+03 -0.48240697565E+02  0.39104287991E+03  0.00000000000E+00 0. -1.
        -11    1    5    5    0    0 -0.14741155891E+03 -0.14523556476E+03 -0.41311072658E+01  0.20697971644E+03  0.00000000000E+00 0.  1.
          4    1    6    6  503    0 -0.18899357377E+02 -0.13016782107E+03 -0.86710369205E+03  0.87702318106E+03  0.00000000000E+00 0. -1.
         -4    1    6    6    0  503 -0.15930317026E+01 -0.66313292150E+01 -0.93766129847E+00  0.68841474326E+01  0.00000000000E+00 0.  1.
<mgrwt>
<rscale>  0 0.20610256E+04</rscale>
<asrwt>0</asrwt>
<pdfrwt beam="1">  1        1 0.46359212E+00 0.20610256E+04</pdfrwt>
<pdfrwt beam="2">  1       -2 0.54218069E-01 0.20610256E+04</pdfrwt>
<totfact> 0.15202684E+00</totfact>
</mgrwt>
</event>
<event>
12    4  0.4280696E-008  0.2642139E+04  0.7818608E-02  0.8354027E-01
         -2   -1    0    0    0  501 -0.00000000000E+00  0.00000000000E+00  0.80318356901E+03  0.80318356901E+03  0.00000000000E+00 0.  1.
          1   -1    0    0  501    0  0.00000000000E+00 -0.00000000000E+00 -0.21728831797E+04  0.21728831797E+04  0.00000000000E+00 0. -1.
        -24    2    1    2    0    0  0.43336479394E+03  0.10556610357E+04 -0.36257749257E+03  0.12003356990E+04  0.84368746239E+02 0.  0.
        254    2    1    2    0    0 -0.43336479394E+03 -0.10556610357E+04 -0.10071221181E+04  0.17757310497E+04  0.91471336115E+03 0.  0.
         23    2    4    4    0    0 -0.60648475573E+03 -0.36089732149E+03 -0.32351875568E+03  0.78164288494E+03  0.90722536951E+02 0.  0.
         23    2    4    4    0    0  0.17311996180E+03 -0.69476371420E+03 -0.68360336242E+03  0.99408816472E+03  0.90722557204E+02 0.  0.
          3    1    3    3  502    0  0.72547990338E+02  0.16699651699E+03 -0.26259255778E+02  0.18395813682E+03  0.00000000000E+00 0. -1.
         -4    1    3    3    0  502  0.36081680360E+03  0.88866451870E+03 -0.33631823679E+03  0.10163775622E+04  0.00000000000E+00 0.  1.
         11    1    5    5    0    0 -0.40108583000E+03 -0.25184023881E+03 -0.26134237509E+03  0.54091883488E+03  0.00000000000E+00 0.  1.
        -11    1    5    5    0    0 -0.20539892573E+03 -0.10905708268E+03 -0.62176380585E+02  0.24072405006E+03  0.00000000000E+00 0. -1.
          1    1    6    6  503    0  0.11762534925E+03 -0.45809517739E+03 -0.50884783535E+03  0.69470355828E+03  0.00000000000E+00 0. -1.
         -1    1    6    6    0  503  0.55494612545E+02 -0.23666853681E+03 -0.17475552706E+03  0.29938460644E+03  0.00000000000E+00 0.  1.
<mgrwt>
<rscale>  0 0.26421386E+04</rscale>
<asrwt>0</asrwt>
<pdfrwt beam="1">  1        1 0.33428972E+00 0.26421386E+04</pdfrwt>
<pdfrwt beam="2">  1       -2 0.12356670E+00 0.26421386E+04</pdfrwt>
<totfact> 0.86542710E-01</totfact>
</mgrwt>
</event>
<event>
12    4  0.4280696E-008  0.1619602E+04  0.7818608E-02  0.8808596E-01
          1   -1    0    0  501    0  0.00000000000E+00  0.00000000000E+00  0.99983901003E+03  0.99983901003E+03  0.00000000000E+00 0. -1.
         -2   -1    0    0    0  501 -0.00000000000E+00 -0.00000000000E+00 -0.65588291927E+03  0.65588291927E+03  0.00000000000E+00 0.  1.
        -24    2    1    2    0    0 -0.22423606995E+03 -0.41087324359E+03  0.42904355125E+03  0.64001443619E+03  0.80258783315E+02 0.  0.
        254    2    1    2    0    0  0.22423606995E+03  0.41087324359E+03 -0.85087460492E+02  0.10157074931E+04  0.89739801552E+03 0.  0.
         23    2    4    4    0    0 -0.19420598928E+03  0.45494040816E+03  0.14860665760E+03  0.52493620790E+03  0.93740825865E+02 0.  0.
         23    2    4    4    0    0  0.41844205923E+03 -0.44067164573E+02 -0.23369411809E+03  0.49077128521E+03  0.95957499070E+02 0.  0.
          3    1    3    3  502    0 -0.21384895993E+03 -0.35068499455E+03  0.34678983418E+03  0.53756351453E+03  0.00000000000E+00 0. -1.
         -2    1    3    3    0  502 -0.10387110021E+02 -0.60188249037E+02  0.82253717068E+02  0.10245092166E+03  0.00000000000E+00 0.  1.
         11    1    5    5    0    0 -0.82335262230E+02  0.16120945658E+03  0.96459071560E+01  0.18127500606E+03  0.00000000000E+00 0.  1.
        -11    1    5    5    0    0 -0.11187072705E+03  0.29373095158E+03  0.13896075044E+03  0.34366120184E+03  0.00000000000E+00 0. -1.
          2    1    6    6  503    0  0.39015289859E+03 -0.20222711155E+02 -0.19292055041E+03  0.43571387526E+03  0.00000000000E+00 0. -1.
         -2    1    6    6    0  503  0.28289160638E+02 -0.23844453418E+02 -0.40773567681E+02  0.55057409945E+02  0.00000000000E+00 0.  1.
<mgrwt>
<rscale>  0 0.16196016E+04</rscale>
<asrwt>0</asrwt>
<pdfrwt beam="1">  1        1 0.15382139E+00 0.16196016E+04</pdfrwt>
<pdfrwt beam="2">  1       -2 0.10090506E+00 0.16196016E+04</pdfrwt>
<totfact> 0.10276837E+01</totfact>
</mgrwt>
</event>
<event>
12    4  0.4280696E-008  0.2404096E+04  0.7818608E-02  0.8437972E-01
         -2   -1    0    0    0  501 -0.00000000000E+00  0.00000000000E+00  0.11230666447E+04  0.11230666447E+04  0.00000000000E+00 0.  1.
          1   -1    0    0  501    0  0.00000000000E+00 -0.00000000000E+00 -0.12865838749E+04  0.12865838749E+04  0.00000000000E+00 0. -1.
        -24    2    1    2    0    0  0.10220179818E+04  0.14448649806E+03 -0.73910131452E+02  0.10379154622E+04  0.80054330925E+02 0.  0.
        254    2    1    2    0    0 -0.10220179818E+04 -0.14448649806E+03 -0.89607098803E+02  0.13717350574E+04  0.89901642486E+03 0.  0.
         23    2    4    4    0    0 -0.67934433860E+03 -0.22378662515E+03  0.34936934000E+03  0.80119817167E+03  0.90941687713E+02 0.  0.
         23    2    4    4    0    0 -0.34267364322E+03  0.79300127092E+02 -0.43897643880E+03  0.57053688570E+03  0.95384947500E+02 0.  0.
          3    1    3    3  502    0  0.81389594080E+03  0.14342922570E+03 -0.74516143382E+02  0.82978985344E+03  0.00000000000E+00 0. -1.
         -4    1    3    3    0  502  0.20812204102E+03  0.10572723666E+01  0.60601193002E+00  0.20812560879E+03  0.00000000000E+00 0.  1.
         11    1    5    5    0    0 -0.17856829330E+03 -0.19262890957E+02  0.74588749097E+02  0.19447667169E+03  0.00000000000E+00 0. -1.
        -11    1    5    5    0    0 -0.50077604530E+03 -0.20452373420E+03  0.27478059090E+03  0.60672149998E+03  0.00000000000E+00 0.  1.
          1    1    6    6  503    0 -0.93822737185E+02 -0.13397022893E+02 -0.15550483029E+03  0.18210968804E+03  0.00000000000E+00 0. -1.
         -1    1    6    6    0  503 -0.24885090604E+03  0.92697149985E+02 -0.28347160851E+03  0.38842719766E+03  0.00000000000E+00 0.  1.
<mgrwt>
<rscale>  0 0.24040960E+04</rscale>
<asrwt>0</asrwt>
<pdfrwt beam="1">  1        1 0.19793598E+00 0.24040960E+04</pdfrwt>
<pdfrwt beam="2">  1       -2 0.17277948E+00 0.24040960E+04</pdfrwt>
<totfact> 0.14808707E+00</totfact>
</mgrwt>
</event>
<event>
12    4  0.4280696E-008  0.2207553E+04  0.7818608E-02  0.8515291E-01
          1   -1    0    0  501    0  0.00000000000E+00  0.00000000000E+00  0.15789462460E+04  0.15789462460E+04  0.00000000000E+00 0. -1.
         -2   -1    0    0    0  501 -0.00000000000E+00 -0.00000000000E+00 -0.77160517483E+03  0.77160517483E+03  0.00000000000E+00 0.  1.
        -24    2    1    2    0    0  0.35865557528E+03 -0.10888223847E+03 -0.55743147996E+03  0.67627585920E+03  0.78294440038E+02 0.  0.
        254    2    1    2    0    0 -0.35865557528E+03  0.10888223847E+03  0.13647725511E+04  0.16742755616E+04  0.89448609625E+03 0.  0.
         23    2    4    4    0    0 -0.57470591882E+03  0.97556359525E+02  0.13033316142E+04  0.14307430386E+04  0.92456527278E+02 0.  0.
         23    2    4    4    0    0  0.21605034354E+03  0.11325878949E+02  0.61440936848E+02  0.24353252298E+03  0.93418812627E+02 0.  0.
          1    1    3    3  502    0 -0.29854326973E+01 -0.61054469591E+01 -0.12628469326E+02  0.14341113223E+02  0.00000000000E+00 0. -1.
         -2    1    3    3    0  502  0.36164100798E+03 -0.10277679151E+03 -0.54480301064E+03  0.66193474597E+03  0.00000000000E+00 0.  1.
         11    1    5    5    0    0 -0.36186613935E+03  0.10641315659E+03  0.83458906435E+03  0.91586558459E+03  0.00000000000E+00 0. -1.
        -11    1    5    5    0    0 -0.21283977947E+03 -0.88567970609E+01  0.46874254990E+03  0.51487745402E+03  0.00000000000E+00 0.  1.
          2    1    6    6  503    0  0.18960369674E+03 -0.22809357997E+02  0.60556468198E+02  0.20034199378E+03  0.00000000000E+00 0. -1.
         -2    1    6    6    0  503  0.26446646794E+02  0.34135236946E+02  0.88446865023E+00  0.43190529203E+02  0.00000000000E+00 0.  1.
<mgrwt>
<rscale>  0 0.22075535E+04</rscale>
<asrwt>0</asrwt>
<pdfrwt beam="1">  1        1 0.24291481E+00 0.22075535E+04</pdfrwt>
<pdfrwt beam="2">  1       -2 0.11870849E+00 0.22075535E+04</pdfrwt>
<totfact> 0.25175917E+00</totfact>
</mgrwt>
</event>
<event>
12    4  0.4280696E-008  0.1625016E+04  0.7818608E-02  0.8805325E-01
         -2   -1    0    0    0  501 -0.00000000000E+00  0.00000000000E+00  0.47766542683E+03  0.47766542683E+03  0.00000000000E+00 0.  1.
          1   -1    0    0  501    0  0.00000000000E+00 -0.00000000000E+00 -0.13820753302E+04  0.13820753302E+04  0.00000000000E+00 0. -1.
        -24    2    1    2    0    0 -0.55029196285E+03 -0.14797183282E+03 -0.35311276312E+03  0.67514314313E+03  0.80079538903E+02 0.  0.
        254    2    1    2    0    0  0.55029196285E+03  0.14797183282E+03 -0.55129714020E+03  0.11845976139E+04  0.88012843509E+03 0.  0.
         23    2    4    4    0    0  0.32793023713E+03  0.18593406897E+03  0.16974782775E+03  0.42352563577E+03  0.91923450267E+02 0.  0.
         23    2    4    4    0    0  0.22236172572E+03 -0.37962236147E+02 -0.72104496795E+03  0.76107197808E+03  0.91863167650E+02 0.  0.
          1    1    3    3  502    0 -0.52346922904E+03 -0.14775889313E+03 -0.35279323308E+03  0.64831766100E+03  0.00000000000E+00 0. -1.
         -2    1    3    3    0  502 -0.26822733808E+02 -0.21293968785E+00 -0.31953004211E+00  0.26825482133E+02  0.00000000000E+00 0.  1.
         11    1    5    5    0    0 -0.46791308639E+01  0.94501642477E+01  0.99185431100E+01  0.14476787191E+02  0.00000000000E+00 0. -1.
        -11    1    5    5    0    0  0.33260936799E+03  0.17648390472E+03  0.15982928464E+03  0.40904884858E+03  0.00000000000E+00 0.  1.
          1    1    6    6  503    0  0.16210646691E+03 -0.56969030086E+02 -0.42618842376E+03  0.45952208821E+03  0.00000000000E+00 0. -1.
         -1    1    6    6    0  503  0.60255258819E+02  0.19006793939E+02 -0.29485654419E+03  0.30154988987E+03  0.00000000000E+00 0.  1.
<mgrwt>
<rscale>  0 0.16250164E+04</rscale>
<asrwt>0</asrwt>
<pdfrwt beam="1">  1        1 0.21262697E+00 0.16250164E+04</pdfrwt>
<pdfrwt beam="2">  1       -2 0.73486989E-01 0.16250164E+04</pdfrwt>
<totfact> 0.11100233E+01</totfact>
</mgrwt>
</event>
<event>
12    4  0.4280696E-008  0.2196377E+04  0.7818608E-02  0.8519937E-01
          1   -1    0    0  501    0  0.00000000000E+00  0.00000000000E+00  0.23835915243E+04  0.23835915243E+04  0.00000000000E+00 0. -1.
         -2   -1    0    0    0  501 -0.00000000000E+00 -0.00000000000E+00 -0.50596684058E+03  0.50596684058E+03  0.00000000000E+00 0.  1.
        -24    2    1    2    0    0 -0.21352836051E+03  0.61463947140E+03 -0.59561530083E+02  0.65871218013E+03  0.83535141342E+02 0.  0.
        254    2    1    2    0    0  0.21352836051E+03 -0.61463947140E+03  0.19371862138E+04  0.22308461848E+04  0.89476713873E+03 0.  0.
         23    2    4    4    0    0  0.80269856862E+02 -0.79593859675E+03  0.17436347205E+04  0.19205718297E+04  0.91501994759E+02 0.  0.
         23    2    4    4    0    0  0.13325850365E+03  0.18129912535E+03  0.19355149333E+03  0.31027435501E+03  0.90447737162E+02 0.  0.
          3    1    3    3  502    0 -0.34390375796E+02  0.18706771185E+03  0.72501064743E+01  0.19034072294E+03  0.00000000000E+00 0. -1.
         -2    1    3    3    0  502 -0.17913798472E+03  0.42757175954E+03 -0.66811636558E+02  0.46837145719E+03  0.00000000000E+00 0.  1.
         11    1    5    5    0    0  0.57937588219E+02 -0.24301831538E+03  0.60649120099E+03  0.65593158380E+03  0.00000000000E+00 0. -1.
        -11    1    5    5    0    0  0.22332268643E+02 -0.55292028137E+03  0.11371435195E+04  0.12646402460E+04  0.00000000000E+00 0.  1.
          3    1    6    6  503    0  0.12946625201E+02 -0.38508695029E+01  0.37587579692E+02  0.39940836836E+02  0.00000000000E+00 0. -1.
         -3    1    6    6    0  503  0.12031187845E+03  0.18514999486E+03  0.15596391364E+03  0.27033351817E+03  0.00000000000E+00 0.  1.
<mgrwt>
<rscale>  0 0.21963773E+04</rscale>
<asrwt>0</asrwt>
<pdfrwt beam="1">  1        1 0.36670638E+00 0.21963773E+04</pdfrwt>
<pdfrwt beam="2">  1       -2 0.77841054E-01 0.21963773E+04</pdfrwt>
<totfact> 0.19206091E+00</totfact>
</mgrwt>
</event>
<event>
12    4  0.4280696E-008  0.1693130E+04  0.7818608E-02  0.8765292E-01
         -2   -1    0    0    0  501 -0.00000000000E+00  0.00000000000E+00  0.33470002538E+03  0.33470002538E+03  0.00000000000E+00 0.  1.
          1   -1    0    0  501    0  0.00000000000E+00 -0.00000000000E+00 -0.21412380267E+04  0.21412380267E+04  0.00000000000E+00 0. -1.
        -24    2    1    2    0    0  0.13391461086E+03 -0.57545020825E+03 -0.88938544067E+03  0.10708236922E+04  0.81122453756E+02 0.  0.
        254    2    1    2    0    0 -0.13391461086E+03  0.57545020825E+03 -0.91715256061E+03  0.14051143598E+04  0.88549504776E+03 0.  0.
         23    2    4    4    0    0  0.16708759018E+03  0.41799324041E+02 -0.73405720567E+03  0.75933318789E+03  0.89896956300E+02 0.  0.
         23    2    4    4    0    0 -0.30100220103E+03  0.53365088421E+03 -0.18309535494E+03  0.64578117195E+03  0.90132246167E+02 0.  0.
          3    1    3    3  502    0  0.10999924726E+03 -0.34945218472E+03 -0.59791079816E+03  0.70122320723E+03  0.00000000000E+00 0. -1.
         -4    1    3    3    0  502  0.23915363598E+02 -0.22599802353E+03 -0.29147464251E+03  0.36960048496E+03  0.00000000000E+00 0.  1.
         11    1    5    5    0    0  0.46885300034E+02 -0.22134016347E+02 -0.29927491883E+03  0.30373281529E+03  0.00000000000E+00 0.  1.
        -11    1    5    5    0    0  0.12020229014E+03  0.63933340388E+02 -0.43478228684E+03  0.45560037260E+03  0.00000000000E+00 0. -1.
          2    1    6    6  503    0 -0.24438365298E+03  0.40274741866E+03 -0.10305508253E+03  0.48223355660E+03  0.00000000000E+00 0. -1.
         -2    1    6    6    0  503 -0.56618548053E+02  0.13090346556E+03 -0.80040272418E+02  0.16354761535E+03  0.00000000000E+00 0.  1.
<mgrwt>
<rscale>  0 0.16931301E+04</rscale>
<asrwt>0</asrwt>
<pdfrwt beam="1">  1        1 0.32942124E+00 0.16931301E+04</pdfrwt>
<pdfrwt beam="2">  1       -2 0.51492311E-01 0.16931301E+04</pdfrwt>
<totfact> 0.71201858E+00</totfact>
</mgrwt>
</event>
<event>
12    4  0.4280696E-008  0.1709366E+04  0.7818608E-02  0.8756040E-01
          1   -1    0    0  501    0  0.00000000000E+00  0.00000000000E+00  0.79640027808E+03  0.79640027808E+03  0.00000000000E+00 0. -1.
         -2   -1    0    0    0  501 -0.00000000000E+00 -0.00000000000E+00 -0.91723117410E+03  0.91723117410E+03  0.00000000000E+00 0.  1.
        -24    2    1    2    0    0  0.41326630955E+03 -0.44337682189E+03 -0.30220487254E+02  0.61218426028E+03  0.80524790490E+02 0.  0.
        254    2    1    2    0    0 -0.41326630955E+03  0.44337682189E+03 -0.90610408765E+02  0.11014471919E+04  0.91520687364E+03 0.  0.
         23    2    4    4    0    0 -0.15786023138E+02  0.36767663040E+02 -0.42456458224E+03  0.43575881264E+03  0.89608028263E+02 0.  0.
         23    2    4    4    0    0 -0.39748028641E+03  0.40660915885E+03  0.33395417347E+03  0.66568837926E+03  0.91071631999E+02 0.  0.
          3    1    3    3  502    0  0.34531873992E+03 -0.36638000468E+03 -0.55242661461E+02  0.50648898469E+03  0.00000000000E+00 0. -1.
         -4    1    3    3    0  502  0.67947569633E+02 -0.76996817214E+02  0.25022174207E+02  0.10569527559E+03  0.00000000000E+00 0.  1.
         11    1    5    5    0    0 -0.26423952013E+02 -0.23989297885E+02 -0.18268846904E+03  0.18614185014E+03  0.00000000000E+00 0. -1.
        -11    1    5    5    0    0  0.10637928875E+02  0.60756960925E+02 -0.24187611319E+03  0.24961696250E+03  0.00000000000E+00 0.  1.
          2    1    6    6  503    0 -0.20613388677E+03  0.27339412803E+03  0.20939950644E+03  0.40135231631E+03  0.00000000000E+00 0. -1.
         -2    1    6    6    0  503 -0.19134639964E+03  0.13321503082E+03  0.12455466704E+03  0.26433606295E+03  0.00000000000E+00 0.  1.
<mgrwt>
<rscale>  0 0.17093662E+04</rscale>
<asrwt>0</asrwt>
<pdfrwt beam="1">  1        1 0.12252312E+00 0.17093662E+04</pdfrwt>
<pdfrwt beam="2">  1       -2 0.14111249E+00 0.17093662E+04</pdfrwt>
<totfact> 0.65243741E+00</totfact>
</mgrwt>
</event>
<event>
12    4  0.4280696E-008  0.2347744E+04  0.7818608E-02  0.8459331E-01
         -2   -1    0    0    0  501 -0.00000000000E+00  0.00000000000E+00  0.82417332516E+03  0.82417332516E+03  0.00000000000E+00 0.  1.
          1   -1    0    0  501    0  0.00000000000E+00 -0.00000000000E+00 -0.16719491320E+04  0.16719491320E+04  0.00000000000E+00 0. -1.
        -24    2    1    2    0    0  0.16881239072E+03  0.73792355843E+02  0.68357279414E+03  0.71247812522E+03  0.80064842381E+02 0.  0.
        254    2    1    2    0    0 -0.16881239072E+03 -0.73792355843E+02 -0.15313486010E+04  0.17836443319E+04  0.89577655142E+03 0.  0.
         23    2    4    4    0    0 -0.34075683558E+03 -0.39916562324E+03 -0.95351499593E+03  0.10919733515E+04  0.88127958676E+02 0.  0.
         23    2    4    4    0    0  0.17194444486E+03  0.32537326740E+03 -0.57783360504E+03  0.69167098045E+03  0.95312196627E+02 0.  0.
          3    1    3    3  502    0  0.45946343844E+02  0.39936414315E+02  0.35258629709E+03  0.35780313106E+03  0.00000000000E+00 0. -1.
         -4    1    3    3    0  502  0.12286604688E+03  0.33855941528E+02  0.33098649705E+03  0.35467499416E+03  0.00000000000E+00 0.  1.
         11    1    5    5    0    0 -0.93145069530E+02 -0.15019663045E+03 -0.38728538505E+03  0.42570529859E+03  0.00000000000E+00 0.  1.
        -11    1    5    5    0    0 -0.24761176605E+03 -0.24896899279E+03 -0.56622961089E+03  0.66626805289E+03  0.00000000000E+00 0. -1.
          1    1    6    6  503    0  0.14770449040E+03  0.18137861809E+03 -0.36715561258E+03  0.43533672419E+03  0.00000000000E+00 0. -1.
         -1    1    6    6    0  503  0.24239954458E+02  0.14399464931E+03 -0.21067799246E+03  0.25633425625E+03  0.00000000000E+00 0.  1.
<mgrwt>
<rscale>  0 0.23477443E+04</rscale>
<asrwt>0</asrwt>
<pdfrwt beam="1">  1        1 0.25722294E+00 0.23477443E+04</pdfrwt>
<pdfrwt beam="2">  1       -2 0.12679590E+00 0.23477443E+04</pdfrwt>
<totfact> 0.18216183E+00</totfact>
</mgrwt>
</event>
<event>
12    4  0.4280696E-008  0.1859211E+04  0.7818608E-02  0.8675430E-01
          3   -1    0    0  501    0  0.00000000000E+00  0.00000000000E+00  0.12157659906E+04  0.12157659906E+04  0.00000000000E+00 0. -1.
         -2   -1    0    0    0  501 -0.00000000000E+00 -0.00000000000E+00 -0.71080008776E+03  0.71080008776E+03  0.00000000000E+00 0.  1.
        -24    2    1    2    0    0 -0.49434729302E+03 -0.38400289385E+03  0.54729353366E+03  0.83517915217E+03  0.78463594363E+02 0.  0.
        254    2    1    2    0    0  0.49434729302E+03  0.38400289385E+03 -0.42327630778E+02  0.10913869262E+04  0.89302649784E+03 0.  0.
         23    2    4    4    0    0 -0.14513188151E+03  0.37340723966E+03 -0.14950950141E+03  0.43620456408E+03  0.86169026073E+02 0.  0.
         23    2    4    4    0    0  0.63947917453E+03  0.10595654187E+02  0.10718187063E+03  0.65518236215E+03  0.93434959913E+02 0.  0.
          3    1    3    3  502    0 -0.42583883268E+03 -0.29537241526E+03  0.46357029769E+03  0.69532797730E+03  0.00000000000E+00 0. -1.
         -4    1    3    3    0  502 -0.68508460343E+02 -0.88630478585E+02  0.83723235975E+02  0.13985117488E+03  0.00000000000E+00 0.  1.
         11    1    5    5    0    0 -0.73533502167E+02  0.86064257629E+02 -0.32244496964E+02  0.11770276108E+03  0.00000000000E+00 0. -1.
        -11    1    5    5    0    0 -0.71598379346E+02  0.28734298203E+03 -0.11726500445E+03  0.31850180300E+03  0.00000000000E+00 0.  1.
          4    1    6    6  503    0  0.49637003410E+03  0.47270978469E+02  0.83886006782E+02  0.50562300016E+03  0.00000000000E+00 0. -1.
         -4    1    6    6    0  503  0.14310914043E+03 -0.36675324282E+02  0.23295863851E+02  0.14955936199E+03  0.00000000000E+00 0.  1.
<mgrwt>
<rscale>  0 0.18592112E+04</rscale>
<asrwt>0</asrwt>
<pdfrwt beam="1">  1        3 0.18704092E+00 0.18592112E+04</pdfrwt>
<pdfrwt beam="2">  1       -2 0.10935386E+00 0.18592112E+04</pdfrwt>
<totfact> 0.46047403E-01</totfact>
</mgrwt>
</event>
<event>
12    4  0.4280696E-008  0.1590402E+04  0.7818608E-02  0.8826466E-01
          1   -1    0    0  501    0  0.00000000000E+00  0.00000000000E+00  0.15662050232E+04  0.15662050232E+04  0.00000000000E+00 0. -1.
         -2   -1    0    0    0  501 -0.00000000000E+00 -0.00000000000E+00 -0.40374305879E+03  0.40374305879E+03  0.00000000000E+00 0.  1.
        -24    2    1    2    0    0 -0.39365014667E+03 -0.53172862181E+02 -0.50386165288E+02  0.40777800250E+03  0.77177343973E+02 0.  0.
        254    2    1    2    0    0  0.39365014667E+03  0.53172862181E+02  0.12128481297E+04  0.15621700795E+04  0.90088122429E+03 0.  0.
         23    2    4    4    0    0 -0.25763806804E+03  0.16157261283E+03  0.34297894037E+03  0.46634276013E+03  0.85778395141E+02 0.  0.
         23    2    4    4    0    0  0.65128821472E+03 -0.10839975065E+03  0.86986918934E+03  0.10958273194E+04  0.90764876032E+02 0.  0.
          1    1    3    3  502    0 -0.13202242277E+02  0.92467174564E+01 -0.12478968877E+02  0.20384446254E+02  0.00000000000E+00 0. -1.
         -2    1    3    3    0  502 -0.38044790440E+03 -0.62419579637E+02 -0.37907196411E+02  0.38739355625E+03  0.00000000000E+00 0.  1.
         11    1    5    5    0    0 -0.60393690275E+02  0.85250704355E+02  0.11211848353E+03  0.15325023578E+03  0.00000000000E+00 0. -1.
        -11    1    5    5    0    0 -0.19724437777E+03  0.76321908471E+02  0.23086045684E+03  0.31309252435E+03  0.00000000000E+00 0.  1.
          1    1    6    6  503    0  0.46520594261E+02 -0.68729663997E+01  0.10819683050E+03  0.11797439336E+03  0.00000000000E+00 0. -1.
         -1    1    6    6    0  503  0.60476762046E+03 -0.10152678425E+03  0.76167235884E+03  0.97785292600E+03  0.00000000000E+00 0.  1.
<mgrwt>
<rscale>  0 0.15904017E+04</rscale>
<asrwt>0</asrwt>
<pdfrwt beam="1">  1        1 0.24095462E+00 0.15904017E+04</pdfrwt>
<pdfrwt beam="2">  1       -2 0.62114318E-01 0.15904017E+04</pdfrwt>
<totfact> 0.11937470E+01</totfact>
</mgrwt>
</event>
<event>
12    4  0.4280696E-008  0.1126724E+04  0.7818608E-02  0.9179529E-01
          1   -1    0    0  501    0  0.00000000000E+00  0.00000000000E+00  0.38066339816E+03  0.38066339816E+03  0.00000000000E+00 0. -1.
         -2   -1    0    0    0  501 -0.00000000000E+00 -0.00000000000E+00 -0.83374615130E+03  0.83374615130E+03  0.00000000000E+00 0.  1.
        -24    2    1    2    0    0 -0.44950979560E+02 -0.26376728457E+02 -0.27823695893E+03  0.29373875949E+03  0.78424046975E+02 0.  0.
        254    2    1    2    0    0  0.44950979560E+02  0.26376728457E+02 -0.17484579420E+03  0.92067078997E+03  0.90241195104E+03 0.  0.
         23    2    4    4    0    0  0.48083885118E+02  0.41633380458E+03 -0.27356575645E+03  0.50831531600E+03  0.88883859781E+02 0.  0.
         23    2    4    4    0    0 -0.31329055584E+01 -0.38995707612E+03  0.98719962250E+02  0.41235547397E+03  0.90637021428E+02 0.  0.
          3    1    3    3  502    0 -0.14412088608E+02 -0.40999393544E+02 -0.67371528450E+02  0.80172198515E+02  0.00000000000E+00 0. -1.
         -4    1    3    3    0  502 -0.30538890951E+02  0.14622665086E+02 -0.21086543048E+03  0.21356656097E+03  0.00000000000E+00 0.  1.
         11    1    5    5    0    0  0.62887346623E+02  0.17047202062E+03 -0.10513115110E+03  0.20992400318E+03  0.00000000000E+00 0. -1.
        -11    1    5    5    0    0 -0.14803461505E+02  0.24586178396E+03 -0.16843460535E+03  0.29839131281E+03  0.00000000000E+00 0.  1.
          3    1    6    6  503    0 -0.87998523931E+01 -0.43921982493E+02  0.42479589577E+02  0.61734054450E+02  0.00000000000E+00 0. -1.
         -3    1    6    6    0  503  0.56669468347E+01 -0.34603509363E+03  0.56240372673E+02  0.35062141952E+03  0.00000000000E+00 0.  1.
<mgrwt>
<rscale>  0 0.11267238E+04</rscale>
<asrwt>0</asrwt>
<pdfrwt beam="1">  1        1 0.58563600E-01 0.11267238E+04</pdfrwt>
<pdfrwt beam="2">  1       -2 0.12826864E+00 0.11267238E+04</pdfrwt>
<totfact> 0.25002536E+01</totfact>
</mgrwt>
</event>
<event>
12    4  0.4280696E-008  0.1501273E+04  0.7818608E-02  0.8883607E-01
          1   -1    0    0  501    0  0.00000000000E+00  0.00000000000E+00  0.60174838049E+03  0.60174838049E+03  0.00000000000E+00 0. -1.
         -2   -1    0    0    0  501 -0.00000000000E+00 -0.00000000000E+00 -0.93636299545E+03  0.93636299545E+03  0.00000000000E+00 0.  1.
        -24    2    1    2    0    0 -0.30556312839E+03  0.79725466504E+02 -0.47553403696E+03  0.57628178982E+03  0.79013325023E+02 0.  0.
        254    2    1    2    0    0  0.30556312839E+03 -0.79725466504E+02  0.14091942199E+03  0.96182958612E+03  0.89751484322E+03 0.  0.
         23    2    4    4    0    0 -0.21255343735E+02  0.33021023223E+03  0.24274140071E+03  0.42003030970E+03  0.89506906665E+02 0.  0.
         23    2    4    4    0    0  0.32681847213E+03 -0.40993569874E+03 -0.10182197872E+03  0.54179927642E+03  0.91220336319E+02 0.  0.
          1    1    3    3  502    0 -0.10828411111E+03 -0.40643894810E+01 -0.12517992244E+03  0.16556563944E+03  0.00000000000E+00 0. -1.
         -2    1    3    3    0  502 -0.19727901729E+03  0.83789855985E+02 -0.35035411451E+03  0.41071615038E+03  0.00000000000E+00 0.  1.
         11    1    5    5    0    0 -0.28473579607E+02  0.26253594202E+02  0.28621085938E+02  0.48157683752E+02  0.00000000000E+00 0. -1.
        -11    1    5    5    0    0  0.72182358719E+01  0.30395663803E+03  0.21412031477E+03  0.37187262595E+03  0.00000000000E+00 0.  1.
          3    1    6    6  503    0  0.19298444265E+03 -0.17175434424E+03 -0.36711357469E+02  0.26094113060E+03  0.00000000000E+00 0. -1.
         -3    1    6    6    0  503  0.13383402948E+03 -0.23818135450E+03 -0.65110621249E+02  0.28085814582E+03  0.00000000000E+00 0.  1.
<mgrwt>
<rscale>  0 0.15012727E+04</rscale>
<asrwt>0</asrwt>
<pdfrwt beam="1">  1        1 0.92576674E-01 0.15012727E+04</pdfrwt>
<pdfrwt beam="2">  1       -2 0.14405585E+00 0.15012727E+04</pdfrwt>
<totfact> 0.96171530E+00</totfact>
</mgrwt>
</event>
<event>
12    4  0.4280696E-008  0.1182464E+04  0.7818608E-02  0.9128346E-01
         -4   -1    0    0    0  501 -0.00000000000E+00  0.00000000000E+00  0.23710526297E+03  0.23710526297E+03  0.00000000000E+00 0.  1.
          1   -1    0    0  501    0  0.00000000000E+00 -0.00000000000E+00 -0.14742626079E+04  0.14742626079E+04  0.00000000000E+00 0. -1.
        -24    2    1    2    0    0  0.19686552758E+03 -0.96523532347E+02 -0.42016061578E+03  0.48109054525E+03  0.82706356659E+02 0.  0.
        254    2    1    2    0    0 -0.19686552758E+03  0.96523532347E+02 -0.81699672919E+03  0.12302773257E+04  0.89332290595E+03 0.  0.
         23    2    4    4    0    0 -0.50265000301E+03  0.48425735810E+02 -0.23385596610E+03  0.56384058950E+03  0.90694652925E+02 0.  0.
         23    2    4    4    0    0  0.30578447544E+03  0.48097796537E+02 -0.58314076309E+03  0.66643673616E+03  0.90924310720E+02 0.  0.
          3    1    3    3  502    0  0.15486669076E+03 -0.66627056244E+02 -0.38007073232E+03  0.41578434085E+03  0.00000000000E+00 0. -1.
         -4    1    3    3    0  502  0.41998836812E+02 -0.29896476102E+02 -0.40089883458E+02  0.65306204395E+02  0.00000000000E+00 0.  1.
         11    1    5    5    0    0 -0.45585451120E+03  0.70079763968E+02 -0.20458430848E+03  0.50454855859E+03  0.00000000000E+00 0. -1.
        -11    1    5    5    0    0 -0.46795491815E+02 -0.21654028158E+02 -0.29271657627E+02  0.59292030914E+02  0.00000000000E+00 0.  1.
          3    1    6    6  503    0  0.27240044830E+03  0.71700087253E+02 -0.50493515157E+03  0.57818890860E+03  0.00000000000E+00 0. -1.
         -3    1    6    6    0  503  0.33384027140E+02 -0.23602290716E+02 -0.78205611526E+02  0.88247827561E+02  0.00000000000E+00 0.  1.
<mgrwt>
<rscale>  0 0.11824642E+04</rscale>
<asrwt>0</asrwt>
<pdfrwt beam="1">  1        1 0.22680964E+00 0.11824642E+04</pdfrwt>
<pdfrwt beam="2">  1       -4 0.36477732E-01 0.11824642E+04</pdfrwt>
<totfact> 0.24402170E+01</totfact>
</mgrwt>
</event>
<event>
12    4  0.4280696E-008  0.1204234E+04  0.7818608E-02  0.9109158E-01
         -2   -1    0    0    0  501 -0.00000000000E+00  0.00000000000E+00  0.80042289169E+03  0.80042289169E+03  0.00000000000E+00 0.  1.
          1   -1    0    0  501    0  0.00000000000E+00 -0.00000000000E+00 -0.45294177251E+03  0.45294177251E+03  0.00000000000E+00 0. -1.
        -24    2    1    2    0    0 -0.20774779084E+02 -0.87626491928E+02  0.33135741305E+03  0.35970636540E+03  0.10714915114E+03 0.  0.
        254    2    1    2    0    0  0.20774779084E+02  0.87626491928E+02  0.16123706124E+02  0.89365829879E+03  0.88896298436E+03 0.  0.
         23    2    4    4    0    0  0.30150624703E+03  0.13527779135E+03 -0.30219192183E+03  0.45713105131E+03  0.91884398138E+02 0.  0.
         23    2    4    4    0    0 -0.28073146795E+03 -0.47651299422E+02  0.31831562796E+03  0.43652724748E+03  0.90279540070E+02 0.  0.
          1    1    3    3  502    0  0.20803741810E+02  0.52593193209E+01  0.12128444392E+02  0.24648636400E+02  0.00000000000E+00 0. -1.
         -2    1    3    3    0  502 -0.41578520893E+02 -0.92885811248E+02  0.31922896866E+03  0.33505772900E+03  0.00000000000E+00 0.  1.
         11    1    5    5    0    0  0.20599880866E+03  0.13681735573E+03 -0.21117705391E+03  0.32519262922E+03  0.00000000000E+00 0. -1.
        -11    1    5    5    0    0  0.95507438370E+02 -0.15395643758E+01 -0.91014867924E+02  0.13193842210E+03  0.00000000000E+00 0.  1.
          1    1    6    6  503    0 -0.19703863466E+03 -0.74713886364E+02  0.22729676984E+03  0.30995194779E+03  0.00000000000E+00 0. -1.
         -1    1    6    6    0  503 -0.83692833292E+02  0.27062586942E+02  0.91018858120E+02  0.12657529968E+03  0.00000000000E+00 0.  1.
<mgrwt>
<rscale>  0 0.12042341E+04</rscale>
<asrwt>0</asrwt>
<pdfrwt beam="1">  1        1 0.69683350E-01 0.12042341E+04</pdfrwt>
<pdfrwt beam="2">  1       -2 0.12314198E+00 0.12042341E+04</pdfrwt>
<totfact> 0.21842739E+01</totfact>
</mgrwt>
</event>
<event>
12    4  0.4280696E-008  0.1137724E+04  0.7818608E-02  0.9169184E-01
         -2   -1    0    0    0  501 -0.00000000000E+00  0.00000000000E+00  0.52971837348E+03  0.52971837348E+03  0.00000000000E+00 0.  1.
          1   -1    0    0  501    0  0.00000000000E+00 -0.00000000000E+00 -0.61089784220E+03  0.61089784220E+03  0.00000000000E+00 0. -1.
        -24    2    1    2    0    0  0.15668889945E+03  0.94176336017E+02  0.70058813722E+02  0.20990383904E+03  0.75701986674E+02 0.  0.
        254    2    1    2    0    0 -0.15668889945E+03 -0.94176336017E+02 -0.15123828244E+03  0.93071237664E+03  0.89996217502E+03 0.  0.
         23    2    4    4    0    0 -0.38168534380E+03 -0.18667948767E+03 -0.38554614168E+03  0.58102295927E+03  0.91700158398E+02 0.  0.
         23    2    4    4    0    0  0.22499644434E+03  0.92503151650E+02  0.23430785924E+03  0.34968941737E+03  0.90566454545E+02 0.  0.
          3    1    3    3  502    0  0.15381028062E+03  0.84383875060E+02  0.42494474185E+02  0.18051044604E+03  0.00000000000E+00 0. -1.
         -4    1    3    3    0  502  0.28786188377E+01  0.97924609568E+01  0.27564339537E+02  0.29393393001E+02  0.00000000000E+00 0.  1.
         11    1    5    5    0    0 -0.61424121270E+02  0.35549130565E+01 -0.66139086389E+02  0.90332379737E+02  0.00000000000E+00 0.  1.
        -11    1    5    5    0    0 -0.32026122253E+03 -0.19023440072E+03 -0.31940705529E+03  0.49069057953E+03  0.00000000000E+00 0. -1.
          4    1    6    6  503    0  0.14108394702E+03  0.56439517366E+02  0.20207900412E+03  0.25283596092E+03  0.00000000000E+00 0. -1.
         -4    1    6    6    0  503  0.83912497322E+02  0.36063634283E+02  0.32228855117E+02  0.96853456452E+02  0.00000000000E+00 0.  1.
<mgrwt>
<rscale>  0 0.11377237E+04</rscale>
<asrwt>0</asrwt>
<pdfrwt beam="1">  1        1 0.93984284E-01 0.11377237E+04</pdfrwt>
<pdfrwt beam="2">  1       -2 0.81495134E-01 0.11377237E+04</pdfrwt>
<totfact> 0.38497816E+01</totfact>
</mgrwt>
</event>
<event>
12    4  0.4280696E-008  0.1974859E+04  0.7818608E-02  0.8618466E-01
         -2   -1    0    0    0  501 -0.00000000000E+00  0.00000000000E+00  0.81131947445E+03  0.81131947445E+03  0.00000000000E+00 0.  1.
          1   -1    0    0  501    0  0.00000000000E+00 -0.00000000000E+00 -0.12017673955E+04  0.12017673955E+04  0.00000000000E+00 0. -1.
        -24    2    1    2    0    0 -0.29683060552E+03  0.51201760448E+03 -0.66791458413E+03  0.89649179760E+03  0.85540725965E+02 0.  0.
        254    2    1    2    0    0  0.29683060552E+03 -0.51201760448E+03  0.27746666312E+03  0.11165950723E+04  0.90527695800E+03 0.  0.
         23    2    4    4    0    0  0.55731123437E+03 -0.10456899242E+03  0.55713323594E+02  0.57706859637E+03  0.91507946990E+02 0.  0.
         23    2    4    4    0    0 -0.26048062884E+03 -0.40744861206E+03  0.22175333952E+03  0.53952647594E+03  0.89720372162E+02 0.  0.
          1    1    3    3  502    0 -0.28568971952E+03  0.47140985430E+03 -0.64535191625E+03  0.84871960174E+03  0.00000000000E+00 0. -1.
         -2    1    3    3    0  502 -0.11140886002E+02  0.40607750175E+02 -0.22562667882E+02  0.47772195858E+02  0.00000000000E+00 0.  1.
         11    1    5    5    0    0  0.14117714172E+02 -0.52670678258E+01  0.18160046985E+02  0.23597439764E+02  0.00000000000E+00 0. -1.
        -11    1    5    5    0    0  0.54319352019E+03 -0.99301924595E+02  0.37553276609E+02  0.55347115660E+03  0.00000000000E+00 0.  1.
          1    1    6    6  503    0 -0.25850048230E+02 -0.10181757626E+03  0.30632630410E+02  0.10942304088E+03  0.00000000000E+00 0. -1.
         -1    1    6    6    0  503 -0.23463058061E+03 -0.30563103580E+03  0.19112070911E+03  0.43010343506E+03  0.00000000000E+00 0.  1.
<mgrwt>
<rscale>  0 0.19748593E+04</rscale>
<asrwt>0</asrwt>
<pdfrwt beam="1">  1        1 0.18488729E+00 0.19748593E+04</pdfrwt>
<pdfrwt beam="2">  1       -2 0.12481838E+00 0.19748593E+04</pdfrwt>
<totfact> 0.41810435E+00</totfact>
</mgrwt>
</event>
<event>
12    4  0.4280696E-008  0.1529654E+04  0.7818608E-02  0.8864969E-01
         -2   -1    0    0    0  501 -0.00000000000E+00  0.00000000000E+00  0.51573307555E+03  0.51573307555E+03  0.00000000000E+00 0.  1.
          1   -1    0    0  501    0  0.00000000000E+00 -0.00000000000E+00 -0.11342314493E+04  0.11342314493E+04  0.00000000000E+00 0. -1.
        -24    2    1    2    0    0  0.40822071383E+03  0.30866903989E+02  0.96838024902E+02  0.42820111338E+03  0.79885377103E+02 0.  0.
        254    2    1    2    0    0 -0.40822071383E+03 -0.30866903989E+02 -0.71533639864E+03  0.12217634115E+04  0.90188843733E+03 0.  0.
         23    2    4    4    0    0 -0.41499840458E+03 -0.87207570229E+02 -0.90689427316E+03  0.10050628191E+04  0.88686028152E+02 0.  0.
         23    2    4    4    0    0  0.67776907526E+01  0.56340666241E+02  0.19155787451E+03  0.21670059233E+03  0.83931636857E+02 0.  0.
          3    1    3    3  502    0  0.41317013476E+02 -0.21338640480E+02  0.11536421279E+02  0.47911608155E+02  0.00000000000E+00 0. -1.
         -4    1    3    3    0  502  0.36690370035E+03  0.52205544468E+02  0.85301603623E+02  0.38028950523E+03  0.00000000000E+00 0.  1.
         11    1    5    5    0    0 -0.21145194998E+03 -0.84860021634E+02 -0.43266225167E+03  0.48898852179E+03  0.00000000000E+00 0. -1.
        -11    1    5    5    0    0 -0.20354645460E+03 -0.23475485955E+01 -0.47423202148E+03  0.51607429733E+03  0.00000000000E+00 0.  1.
          1    1    6    6  503    0 -0.14631522665E+02  0.71457887916E+02  0.11924033520E+03  0.13978043046E+03  0.00000000000E+00 0. -1.
         -1    1    6    6    0  503  0.21409213418E+02 -0.15117221676E+02  0.72317539317E+02  0.76920161878E+02  0.00000000000E+00 0.  1.
<mgrwt>
<rscale>  0 0.15296544E+04</rscale>
<asrwt>0</asrwt>
<pdfrwt beam="1">  1        1 0.17449714E+00 0.15296544E+04</pdfrwt>
<pdfrwt beam="2">  1       -2 0.79343551E-01 0.15296544E+04</pdfrwt>
<totfact> 0.14242213E+01</totfact>
</mgrwt>
</event>
<event>
12    4  0.4280696E-008  0.1480496E+04  0.7818608E-02  0.8897527E-01
         -2   -1    0    0    0  501 -0.00000000000E+00  0.00000000000E+00  0.21853236049E+03  0.21853236049E+03  0.00000000000E+00 0.  1.
          1   -1    0    0  501    0  0.00000000000E+00 -0.00000000000E+00 -0.25074882175E+04  0.25074882175E+04  0.00000000000E+00 0. -1.
        -24    2    1    2    0    0  0.27572679665E+03  0.37333885037E+03 -0.68083898502E+03  0.82807453171E+03  0.82210357959E+02 0.  0.
        254    2    1    2    0    0 -0.27572679665E+03 -0.37333885037E+03 -0.16081168720E+04  0.18979460463E+04  0.89484756078E+03 0.  0.
         23    2    4    4    0    0  0.34993616545E+02 -0.26599823081E+02  0.89073987775E+02  0.13569838966E+03  0.92454171738E+02 0.  0.
         23    2    4    4    0    0 -0.31072041320E+03 -0.34673902729E+03 -0.16971908598E+04  0.17622476567E+04  0.91021209336E+02 0.  0.
          1    1    3    3  502    0  0.68376601857E+02  0.80224721997E+02 -0.21938756274E+03  0.24339734671E+03  0.00000000000E+00 0. -1.
         -2    1    3    3    0  502  0.20735019480E+03  0.29311412838E+03 -0.46145142228E+03  0.58467718500E+03  0.00000000000E+00 0.  1.
         11    1    5    5    0    0  0.46398219585E+02 -0.81281976902E+01  0.33003919200E+01  0.47220281290E+02  0.00000000000E+00 0. -1.
        -11    1    5    5    0    0 -0.11404603039E+02 -0.18471625391E+02  0.85773595855E+02  0.88478108371E+02  0.00000000000E+00 0.  1.
          1    1    6    6  503    0 -0.93586584838E+02 -0.10746685928E+03 -0.37538462547E+03  0.40152358803E+03  0.00000000000E+00 0. -1.
         -1    1    6    6    0  503 -0.21713382836E+03 -0.23927216801E+03 -0.13218062343E+04  0.13607240686E+04  0.00000000000E+00 0.  1.
<mgrwt>
<rscale>  0 0.14804963E+04</rscale>
<asrwt>0</asrwt>
<pdfrwt beam="1">  1        1 0.38576742E+00 0.14804963E+04</pdfrwt>
<pdfrwt beam="2">  1       -2 0.33620363E-01 0.14804963E+04</pdfrwt>
<totfact> 0.94472426E+00</totfact>
</mgrwt>
</event>
<event>
12    4  0.4280696E-008  0.1557438E+04  0.7818608E-02  0.8847131E-01
          1   -1    0    0  501    0  0.00000000000E+00  0.00000000000E+00  0.39070249728E+03  0.39070249728E+03  0.00000000000E+00 0. -1.
         -2   -1    0    0    0  501 -0.00000000000E+00 -0.00000000000E+00 -0.15520845780E+04  0.15520845780E+04  0.00000000000E+00 0.  1.
        -24    2    1    2    0    0 -0.29884981456E+03  0.35501502164E+03 -0.10633427652E+03  0.48294697207E+03  0.81141371797E+02 0.  0.
        254    2    1    2    0    0  0.29884981456E+03 -0.35501502164E+03 -0.10550478042E+04  0.14598401032E+04  0.89591315457E+03 0.  0.
         23    2    4    4    0    0  0.39532949804E+03 -0.59525361277E+03 -0.86712605231E+03  0.11274298518E+04  0.92618597431E+02 0.  0.
         23    2    4    4    0    0 -0.96479683480E+02  0.24023859113E+03 -0.18792175191E+03  0.33241025142E+03  0.90327628210E+02 0.  0.
          1    1    3    3  502    0 -0.21066030928E+03  0.24590485711E+03 -0.35371749983E+02  0.32572707188E+03  0.00000000000E+00 0. -1.
         -2    1    3    3    0  502 -0.88189505284E+02  0.10911016453E+03 -0.70962526532E+02  0.15721990020E+03  0.00000000000E+00 0.  1.
         11    1    5    5    0    0  0.29320701131E+03 -0.50642560047E+03 -0.70734849829E+03  0.91803003128E+03  0.00000000000E+00 0.  1.
        -11    1    5    5    0    0  0.10212248673E+03 -0.88828012301E+02 -0.15977755401E+03  0.20939982051E+03  0.00000000000E+00 0. -1.
          4    1    6    6  503    0 -0.11307827728E+03  0.18871916541E+03 -0.15361307648E+03  0.26832554379E+03  0.00000000000E+00 0. -1.
         -4    1    6    6    0  503  0.16598593797E+02  0.51519425720E+02 -0.34308675423E+02  0.64084707629E+02  0.00000000000E+00 0.  1.
<mgrwt>
<rscale>  0 0.15574381E+04</rscale>
<asrwt>0</asrwt>
<pdfrwt beam="1">  1        1 0.60108076E-01 0.15574381E+04</pdfrwt>
<pdfrwt beam="2">  1       -2 0.23878224E+00 0.15574381E+04</pdfrwt>
<totfact> 0.39271849E+00</totfact>
</mgrwt>
</event>
<event>
12    4  0.4280696E-008  0.2119477E+04  0.7818608E-02  0.8552712E-01
          1   -1    0    0  501    0  0.00000000000E+00  0.00000000000E+00  0.17191260916E+04  0.17191260916E+04  0.00000000000E+00 0. -1.
         -2   -1    0    0    0  501 -0.00000000000E+00 -0.00000000000E+00 -0.65326566092E+03  0.65326566092E+03  0.00000000000E+00 0.  1.
        -24    2    1    2    0    0  0.14743212849E+03  0.17448684023E+03 -0.49825826937E+03  0.55380827947E+03  0.79122800052E+02 0.  0.
        254    2    1    2    0    0 -0.14743212849E+03 -0.17448684023E+03  0.15641187001E+04  0.18185834731E+04  0.89922002353E+03 0.  0.
         23    2    4    4    0    0 -0.15308271641E+03  0.19252190566E+03  0.62219841189E+02  0.26978386282E+03  0.91722525983E+02 0.  0.
         23    2    4    4    0    0  0.56505879240E+01 -0.36700874589E+03  0.15018988589E+04  0.15487996103E+04  0.91393116443E+02 0.  0.
          1    1    3    3  502    0  0.57335376598E+02  0.90066299736E+02 -0.14850381251E+03  0.18290070007E+03  0.00000000000E+00 0. -1.
         -2    1    3    3    0  502  0.90096751891E+02  0.84420540494E+02 -0.34975445686E+03  0.37090757939E+03  0.00000000000E+00 0.  1.
         11    1    5    5    0    0 -0.16021609806E+03  0.16460459140E+03  0.39467849956E+02  0.23306990533E+03  0.00000000000E+00 0. -1.
        -11    1    5    5    0    0  0.71333816491E+01  0.27917314262E+02  0.22751991233E+02  0.36713957488E+02  0.00000000000E+00 0.  1.
          1    1    6    6  503    0  0.28361035306E+02 -0.34402746263E+03  0.13433868777E+04  0.13870283150E+04  0.00000000000E+00 0. -1.
         -1    1    6    6    0  503 -0.22710447382E+02 -0.22981283263E+02  0.15851198116E+03  0.16177129527E+03  0.00000000000E+00 0.  1.
<mgrwt>
<rscale>  0 0.21194773E+04</rscale>
<asrwt>0</asrwt>
<pdfrwt beam="1">  1        1 0.26448094E+00 0.21194773E+04</pdfrwt>
<pdfrwt beam="2">  1       -2 0.10050241E+00 0.21194773E+04</pdfrwt>
<totfact> 0.30433308E+00</totfact>
</mgrwt>
</event>
<event>
12    4  0.4280696E-008  0.1374884E+04  0.7818608E-02  0.8972202E-01
         -2   -1    0    0    0  501 -0.00000000000E+00  0.00000000000E+00  0.10155676377E+03  0.10155676377E+03  0.00000000000E+00 0.  1.
          1   -1    0    0  501    0  0.00000000000E+00 -0.00000000000E+00 -0.46533249622E+04  0.46533249622E+04  0.00000000000E+00 0. -1.
        -24    2    1    2    0    0 -0.11075354996E+03 -0.31927232715E+03 -0.19581871488E+04  0.19886457541E+04  0.77549067782E+02 0.  0.
        254    2    1    2    0    0  0.11075354996E+03  0.31927232715E+03 -0.25935810497E+04  0.27662359719E+04  0.90066510050E+03 0.  0.
         23    2    4    4    0    0 -0.25208703106E+03 -0.18934037636E+03 -0.82027853527E+03  0.88386456334E+03  0.94668059876E+02 0.  0.
         23    2    4    4    0    0  0.36284058101E+03  0.50861270351E+03 -0.17733025144E+04  0.18823714086E+04  0.91543119601E+02 0.  0.
          3    1    3    3  502    0 -0.11849291185E+03 -0.26354825962E+03 -0.15648596443E+04  0.15913151673E+04  0.00000000000E+00 0. -1.
         -4    1    3    3    0  502  0.77393618861E+01 -0.55724067525E+02 -0.39332750447E+03  0.39733058679E+03  0.00000000000E+00 0.  1.
         11    1    5    5    0    0 -0.18440308408E+02  0.68162973474E+01 -0.23258842797E+02  0.30454567013E+02  0.00000000000E+00 0. -1.
        -11    1    5    5    0    0 -0.23364672265E+03 -0.19615667371E+03 -0.79701969247E+03  0.85340999633E+03  0.00000000000E+00 0.  1.
          4    1    6    6  503    0  0.16769094996E+03  0.16045548171E+03 -0.62759818392E+03  0.66913802520E+03  0.00000000000E+00 0. -1.
         -4    1    6    6    0  503  0.19514963105E+03  0.34815722180E+03 -0.11457043305E+04  0.12132333834E+04  0.00000000000E+00 0.  1.
<mgrwt>
<rscale>  0 0.13748842E+04</rscale>
<asrwt>0</asrwt>
<pdfrwt beam="1">  1        1 0.71589616E+00 0.13748842E+04</pdfrwt>
<pdfrwt beam="2">  1       -2 0.15624117E-01 0.13748842E+04</pdfrwt>
<totfact> 0.64973174E-01</totfact>
</mgrwt>
</event>
<event>
12    4  0.4280696E-008  0.1703762E+04  0.7818608E-02  0.8759221E-01
         -2   -1    0    0    0  501 -0.00000000000E+00  0.00000000000E+00  0.68298124203E+03  0.68298124203E+03  0.00000000000E+00 0.  1.
          1   -1    0    0  501    0  0.00000000000E+00 -0.00000000000E+00 -0.10625498378E+04  0.10625498378E+04  0.00000000000E+00 0. -1.
        -24    2    1    2    0    0  0.82089892651E+02 -0.27520287076E+03  0.41716401207E+03  0.51282972984E+03  0.80580073750E+02 0.  0.
        254    2    1    2    0    0 -0.82089892651E+02  0.27520287076E+03 -0.79673260787E+03  0.12327013500E+04  0.89570888091E+03 0.  0.
         23    2    4    4    0    0 -0.41440452723E+03  0.21544831152E+03 -0.73853779854E+03  0.87847293449E+03  0.90152812676E+02 0.  0.
         23    2    4    4    0    0  0.33231463457E+03  0.59754559235E+02 -0.58194809323E+02  0.35422841552E+03  0.89930588951E+02 0.  0.
          3    1    3    3  502    0  0.25916593494E+02 -0.43738091145E+02  0.13094899395E+03  0.14047181017E+03  0.00000000000E+00 0. -1.
         -4    1    3    3    0  502  0.56173299158E+02 -0.23146477961E+03  0.28621501812E+03  0.37235791966E+03  0.00000000000E+00 0.  1.
         11    1    5    5    0    0 -0.81298349151E+02  0.81995965441E+02 -0.15222551795E+03  0.19106378055E+03  0.00000000000E+00 0.  1.
        -11    1    5    5    0    0 -0.33310617808E+03  0.13345234608E+03 -0.58631228060E+03  0.68740915394E+03  0.00000000000E+00 0. -1.
          3    1    6    6  503    0  0.30087536964E+03  0.24224655737E+02 -0.47043883830E+02  0.30549296065E+03  0.00000000000E+00 0. -1.
         -3    1    6    6    0  503  0.31439264938E+02  0.35529903498E+02 -0.11150925493E+02  0.48735454873E+02  0.00000000000E+00 0.  1.
<mgrwt>
<rscale>  0 0.17037624E+04</rscale>
<asrwt>0</asrwt>
<pdfrwt beam="1">  1        1 0.16346920E+00 0.17037624E+04</pdfrwt>
<pdfrwt beam="2">  1       -2 0.10507404E+00 0.17037624E+04</pdfrwt>
<totfact> 0.82857703E+00</totfact>
</mgrwt>
</event>
<event>
12    4  0.4280696E-008  0.2271499E+04  0.7818608E-02  0.8489244E-01
          1   -1    0    0  501    0  0.00000000000E+00  0.00000000000E+00  0.12939323023E+04  0.12939323023E+04  0.00000000000E+00 0. -1.
         -2   -1    0    0    0  501 -0.00000000000E+00 -0.00000000000E+00 -0.99690426036E+03  0.99690426036E+03  0.00000000000E+00 0.  1.
        -24    2    1    2    0    0 -0.16348324109E+03  0.28473188759E+03  0.10285139718E+04  0.10826442610E+04  0.80489673864E+02 0.  0.
        254    2    1    2    0    0  0.16348324109E+03 -0.28473188759E+03 -0.73148592992E+03  0.12081923017E+04  0.90380194414E+03 0.  0.
         23    2    4    4    0    0  0.37834867585E+03 -0.17511393637E+03  0.57541989252E+01  0.42683596950E+03  0.91341243855E+02 0.  0.
         23    2    4    4    0    0 -0.21486543476E+03 -0.10961795123E+03 -0.73724012884E+03  0.78135633218E+03  0.93869377170E+02 0.  0.
          1    1    3    3  502    0 -0.11161344211E+03  0.23149423731E+03  0.69621135727E+03  0.74213030955E+03  0.00000000000E+00 0. -1.
         -2    1    3    3    0  502 -0.51869798972E+02  0.53237650277E+02  0.33230261458E+03  0.34051395141E+03  0.00000000000E+00 0.  1.
         11    1    5    5    0    0  0.15528373138E+03 -0.84686536035E+02 -0.41179854017E+02  0.18160569097E+03  0.00000000000E+00 0. -1.
        -11    1    5    5    0    0  0.22306494447E+03 -0.90427400331E+02  0.46934052943E+02  0.24523027853E+03  0.00000000000E+00 0.  1.
          1    1    6    6  503    0 -0.22435710555E+02  0.10852308443E+01 -0.18461855661E+02  0.29075401090E+02  0.00000000000E+00 0. -1.
         -1    1    6    6    0  503 -0.19242972421E+03 -0.11070318207E+03 -0.71877827318E+03  0.75228093109E+03  0.00000000000E+00 0.  1.
<mgrwt>
<rscale>  0 0.22714987E+04</rscale>
<asrwt>0</asrwt>
<pdfrwt beam="1">  1        1 0.19906651E+00 0.22714987E+04</pdfrwt>
<pdfrwt beam="2">  1       -2 0.15336989E+00 0.22714987E+04</pdfrwt>
<totfact> 0.20516966E+00</totfact>
</mgrwt>
</event>
<event>
12    4  0.4280696E-008  0.3330262E+04  0.7818608E-02  0.8155238E-01
          1   -1    0    0  501    0  0.00000000000E+00  0.00000000000E+00  0.37462877880E+04  0.37462877880E+04  0.00000000000E+00 0. -1.
         -2   -1    0    0    0  501 -0.00000000000E+00 -0.00000000000E+00 -0.74010916743E+03  0.74010916743E+03  0.00000000000E+00 0.  1.
        -24    2    1    2    0    0 -0.11684376856E+04 -0.10017496626E+04  0.12575312769E+04  0.19891396980E+04  0.80887663164E+02 0.  0.
        254    2    1    2    0    0  0.11684376856E+04  0.10017496626E+04  0.17486473436E+04  0.24972572574E+04  0.89987625027E+03 0.  0.
         23    2    4    4    0    0  0.11357428491E+03 -0.15403125021E+03  0.13905960478E+03  0.25056631610E+03  0.82590319358E+02 0.  0.
         23    2    4    4    0    0  0.10548634007E+04  0.11557809128E+04  0.16095877389E+04  0.22466909413E+04  0.91001012621E+02 0.  0.
          1    1    3    3  502    0 -0.11165219067E+04 -0.94226041244E+03  0.12099060655E+04  0.18969313484E+04  0.00000000000E+00 0. -1.
         -2    1    3    3    0  502 -0.51915778894E+02 -0.59489250115E+02  0.47625211411E+02  0.92208349619E+02  0.00000000000E+00 0.  1.
         11    1    5    5    0    0  0.42651252953E+02 -0.97822693314E+02  0.11508450072E+03  0.15694856167E+03  0.00000000000E+00 0.  1.
        -11    1    5    5    0    0  0.70923031954E+02 -0.56208556895E+02  0.23975104057E+02  0.93617754429E+02  0.00000000000E+00 0. -1.
          1    1    6    6  503    0  0.48947959014E+03  0.55942351738E+03  0.82576978897E+03  0.11110538625E+04  0.00000000000E+00 0. -1.
         -1    1    6    6    0  503  0.56538381057E+03  0.59635739539E+03  0.78381794989E+03  0.11356370789E+04  0.00000000000E+00 0.  1.
<mgrwt>
<rscale>  0 0.33302624E+04</rscale>
<asrwt>0</asrwt>
<pdfrwt beam="1">  1        1 0.57635196E+00 0.33302624E+04</pdfrwt>
<pdfrwt beam="2">  1       -2 0.11386295E+00 0.33302624E+04</pdfrwt>
<totfact> 0.69459064E-02</totfact>
</mgrwt>
</event>
<event>
12    4  0.4280696E-008  0.1122585E+04  0.7818608E-02  0.9183455E-01
          3   -1    0    0  501    0  0.00000000000E+00  0.00000000000E+00  0.34147629307E+03  0.34147629307E+03  0.00000000000E+00 0. -1.
         -4   -1    0    0    0  501 -0.00000000000E+00 -0.00000000000E+00 -0.92260919206E+03  0.92260919206E+03  0.00000000000E+00 0.  1.
        -24    2    1    2    0    0 -0.12096958074E+03  0.99602366769E+02  0.14152910425E+02  0.18132718501E+03  0.90138627795E+02 0.  0.
        254    2    1    2    0    0  0.12096958074E+03 -0.99602366769E+02 -0.59528580941E+03  0.10827583001E+04  0.89075589847E+03 0.  0.
         23    2    4    4    0    0  0.32162331236E+03 -0.26764260736E+02  0.99829084792E+02  0.34985376828E+03  0.90961158200E+02 0.  0.
         23    2    4    4    0    0 -0.20065373162E+03 -0.72838106033E+02 -0.69511489420E+03  0.73290453184E+03  0.91635293141E+02 0.  0.
          3    1    3    3  502    0 -0.75207122261E+02  0.65958993740E+02  0.52326328648E+02  0.11289262493E+03  0.00000000000E+00 0. -1.
         -4    1    3    3    0  502 -0.45762458480E+02  0.33643373029E+02 -0.38173418223E+02  0.68434560083E+02  0.00000000000E+00 0.  1.
         11    1    5    5    0    0  0.17402873088E+03  0.10753275722E+02  0.92527805673E+02  0.19739054418E+03  0.00000000000E+00 0.  1.
        -11    1    5    5    0    0  0.14759458149E+03 -0.37517536458E+02  0.73012791194E+01  0.15246322410E+03  0.00000000000E+00 0. -1.
          2    1    6    6  503    0 -0.10987568079E+03 -0.26999234235E+02 -0.22417413005E+03  0.25110886974E+03  0.00000000000E+00 0. -1.
         -2    1    6    6    0  503 -0.90778050829E+02 -0.45838871798E+02 -0.47094076415E+03  0.48179566210E+03  0.00000000000E+00 0.  1.
<mgrwt>
<rscale>  0 0.11225848E+04</rscale>
<asrwt>0</asrwt>
<pdfrwt beam="1">  1        3 0.52534815E-01 0.11225848E+04</pdfrwt>
<pdfrwt beam="2">  1       -4 0.14193987E+00 0.11225848E+04</pdfrwt>
<totfact> 0.27982184E+00</totfact>
</mgrwt>
</event>
<event>
12    4  0.4280696E-008  0.2226091E+04  0.7818608E-02  0.8507646E-01
         -2   -1    0    0    0  501 -0.00000000000E+00  0.00000000000E+00  0.92557752738E+03  0.92557752738E+03  0.00000000000E+00 0.  1.
          1   -1    0    0  501    0  0.00000000000E+00 -0.00000000000E+00 -0.13384839112E+04  0.13384839112E+04  0.00000000000E+00 0. -1.
        -24    2    1    2    0    0 -0.15274772813E+03  0.47568055805E+03 -0.96729584853E+03  0.10916884514E+04  0.80737565680E+02 0.  0.
        254    2    1    2    0    0  0.15274772813E+03 -0.47568055805E+03  0.55438946470E+03  0.11723729872E+04  0.90416087112E+03 0.  0.
         23    2    4    4    0    0  0.49641287467E+03 -0.31875288360E+03  0.16012733208E+03  0.61840111884E+03  0.93541639662E+02 0.  0.
         23    2    4    4    0    0 -0.34366514654E+03 -0.15692767445E+03  0.39426213262E+03  0.55397186839E+03  0.93328311900E+02 0.  0.
          3    1    3    3  502    0 -0.89523729957E+02  0.18204791471E+03 -0.44780613665E+03  0.49161598580E+03  0.00000000000E+00 0. -1.
         -2    1    3    3    0  502 -0.63223998175E+02  0.29363264334E+03 -0.51948971188E+03  0.60007246557E+03  0.00000000000E+00 0.  1.
         11    1    5    5    0    0  0.63157031756E+02 -0.19578391275E+02  0.43433747216E+02  0.79111405388E+02  0.00000000000E+00 0. -1.
        -11    1    5    5    0    0  0.43325584292E+03 -0.29917449233E+03  0.11669358486E+03  0.53928971345E+03  0.00000000000E+00 0.  1.
          4    1    6    6  503    0 -0.78151313087E+02 -0.13871010003E+02  0.40543127619E+02  0.89127873602E+02  0.00000000000E+00 0. -1.
         -4    1    6    6    0  503 -0.26551383345E+03 -0.14305666444E+03  0.35371900500E+03  0.46484399479E+03  0.00000000000E+00 0.  1.
<mgrwt>
<rscale>  0 0.22260913E+04</rscale>
<asrwt>0</asrwt>
<pdfrwt beam="1">  1        1 0.20592060E+00 0.22260913E+04</pdfrwt>
<pdfrwt beam="2">  1       -2 0.14239654E+00 0.22260913E+04</pdfrwt>
<totfact> 0.23294848E+00</totfact>
</mgrwt>
</event>
<event>
12    4  0.4280696E-008  0.1111767E+04  0.7818608E-02  0.9193799E-01
          1   -1    0    0  501    0  0.00000000000E+00  0.00000000000E+00  0.26927520425E+03  0.26927520425E+03  0.00000000000E+00 0. -1.
         -2   -1    0    0    0  501 -0.00000000000E+00 -0.00000000000E+00 -0.11475482342E+04  0.11475482342E+04  0.00000000000E+00 0.  1.
        -24    2    1    2    0    0  0.69206397572E+02  0.56378390436E+02  0.38138711306E+02  0.12920254337E+03  0.85268326712E+02 0.  0.
        254    2    1    2    0    0 -0.69206397572E+02 -0.56378390436E+02 -0.91641174128E+03  0.12876208951E+04  0.90010501697E+03 0.  0.
         23    2    4    4    0    0 -0.21797843172E+03  0.32963710613E+03 -0.19433810319E+03  0.44973648699E+03  0.91216177011E+02 0.  0.
         23    2    4    4    0    0  0.14877203415E+03 -0.38601549656E+03 -0.72207363809E+03  0.83788440811E+03  0.97564649313E+02 0.  0.
          3    1    3    3  502    0  0.88632684416E+02  0.46610168531E+02  0.38935292065E+02  0.10744402043E+03  0.00000000000E+00 0. -1.
         -4    1    3    3    0  502 -0.19426286845E+02  0.97682219044E+01 -0.79658075979E+00  0.21758522943E+02  0.00000000000E+00 0.  1.
         11    1    5    5    0    0 -0.12473327122E+03  0.23577800419E+03 -0.16679858182E+03  0.31459723950E+03  0.00000000000E+00 0.  1.
        -11    1    5    5    0    0 -0.93245160507E+02  0.93859101939E+02 -0.27539521379E+02  0.13513924749E+03  0.00000000000E+00 0. -1.
          3    1    6    6  503    0  0.93866695373E+02 -0.11568578155E+03 -0.26603803699E+03  0.30491046830E+03  0.00000000000E+00 0. -1.
         -3    1    6    6    0  503  0.54905338780E+02 -0.27032971502E+03 -0.45603560110E+03  0.53297393981E+03  0.00000000000E+00 0.  1.
<mgrwt>
<rscale>  0 0.11117667E+04</rscale>
<asrwt>0</asrwt>
<pdfrwt beam="1">  1        1 0.41426955E-01 0.11117667E+04</pdfrwt>
<pdfrwt beam="2">  1       -2 0.17654588E+00 0.11117667E+04</pdfrwt>
<totfact> 0.16786035E+01</totfact>
</mgrwt>
</event>
<event>
12    4  0.4280696E-008  0.1420557E+04  0.7818608E-02  0.8939071E-01
          1   -1    0    0  501    0  0.00000000000E+00  0.00000000000E+00  0.19572036614E+04  0.19572036614E+04  0.00000000000E+00 0. -1.
         -2   -1    0    0    0  501 -0.00000000000E+00 -0.00000000000E+00 -0.25776339237E+03  0.25776339237E+03  0.00000000000E+00 0.  1.
        -24    2    1    2    0    0  0.15395188878E+03 -0.31457279750E+03  0.15547219899E+03  0.39132168359E+03  0.79396639738E+02 0.  0.
        254    2    1    2    0    0 -0.15395188878E+03  0.31457279750E+03  0.15439680701E+04  0.18236453702E+04  0.90508994355E+03 0.  0.
         23    2    4    4    0    0 -0.26166616238E+03 -0.30789007910E+02  0.48797689555E+02  0.28241142460E+03  0.89206808548E+02 0.  0.
         23    2    4    4    0    0  0.10771427361E+03  0.34536180541E+03  0.14951703805E+04  0.15412339456E+04  0.94818073030E+02 0.  0.
          3    1    3    3  502    0  0.62633911398E+02 -0.13460680711E+03  0.23812094984E+02  0.15036294505E+03  0.00000000000E+00 0. -1.
         -4    1    3    3    0  502  0.91317977380E+02 -0.17996599039E+03  0.13166010400E+03  0.24095873854E+03  0.00000000000E+00 0.  1.
         11    1    5    5    0    0 -0.26027955486E+03 -0.21134419384E+02  0.59606272450E+02  0.26785260513E+03  0.00000000000E+00 0.  1.
        -11    1    5    5    0    0 -0.13866075264E+01 -0.96545885260E+01 -0.10808582895E+02  0.14558819466E+02  0.00000000000E+00 0. -1.
          3    1    6    6  503    0 -0.92439271512E+00  0.75483058318E+02  0.45180944491E+03  0.45807239723E+03  0.00000000000E+00 0. -1.
         -3    1    6    6    0  503  0.10863866632E+03  0.26987874709E+03  0.10433609356E+04  0.10831615484E+04  0.00000000000E+00 0.  1.
<mgrwt>
<rscale>  0 0.14205569E+04</rscale>
<asrwt>0</asrwt>
<pdfrwt beam="1">  1        1 0.30110825E+00 0.14205569E+04</pdfrwt>
<pdfrwt beam="2">  1       -2 0.39655908E-01 0.14205569E+04</pdfrwt>
<totfact> 0.16390153E+01</totfact>
</mgrwt>
</event>
<event>
12    4  0.4280696E-008  0.1612772E+04  0.7818608E-02  0.8812740E-01
         -2   -1    0    0    0  501 -0.00000000000E+00  0.00000000000E+00  0.81998718988E+03  0.81998718988E+03  0.00000000000E+00 0.  1.
          1   -1    0    0  501    0  0.00000000000E+00 -0.00000000000E+00 -0.79300997105E+03  0.79300997105E+03  0.00000000000E+00 0. -1.
        -24    2    1    2    0    0 -0.34676482952E+03 -0.35292513713E+03 -0.24272864104E+03  0.55697786140E+03  0.80654482217E+02 0.  0.
        254    2    1    2    0    0  0.34676482952E+03  0.35292513713E+03  0.26970585988E+03  0.10560192995E+04  0.89310330350E+03 0.  0.
         23    2    4    4    0    0  0.40470391530E+03 -0.58814385574E+02 -0.16205617936E+03  0.44916006859E+03  0.90764370424E+02 0.  0.
         23    2    4    4    0    0 -0.57939085778E+02  0.41173952271E+03  0.43176203923E+03  0.60685923094E+03  0.94727479846E+02 0.  0.
          1    1    3    3  502    0 -0.33957199537E+03 -0.35584204055E+03 -0.24408343220E+03  0.54909873406E+03  0.00000000000E+00 0. -1.
         -2    1    3    3    0  502 -0.71928341478E+01  0.29169034228E+01  0.13547911630E+01  0.78791273471E+01  0.00000000000E+00 0.  1.
         11    1    5    5    0    0  0.27224647056E+03  0.23511616748E+01 -0.92602594713E+02  0.28757418042E+03  0.00000000000E+00 0.  1.
        -11    1    5    5    0    0  0.13245744473E+03 -0.61165547249E+02 -0.69453584645E+02  0.16158588817E+03  0.00000000000E+00 0. -1.
          1    1    6    6  503    0  0.60702342936E+01  0.43949273825E+00 -0.12602508119E+01  0.62152337330E+01  0.00000000000E+00 0. -1.
         -1    1    6    6    0  503 -0.64009320072E+02  0.41130002997E+03  0.43302229004E+03  0.60064399721E+03  0.00000000000E+00 0.  1.
<mgrwt>
<rscale>  0 0.16127715E+04</rscale>
<asrwt>0</asrwt>
<pdfrwt beam="1">  1        1 0.12200153E+00 0.16127715E+04</pdfrwt>
<pdfrwt beam="2">  1       -2 0.12615187E+00 0.16127715E+04</pdfrwt>
<totfact> 0.88196969E+00</totfact>
</mgrwt>
</event>
<event>
12    4  0.4280696E-008  0.2389522E+04  0.7818608E-02  0.8443437E-01
          1   -1    0    0  501    0  0.00000000000E+00  0.00000000000E+00  0.12083255551E+04  0.12083255551E+04  0.00000000000E+00 0. -1.
         -2   -1    0    0    0  501 -0.00000000000E+00 -0.00000000000E+00 -0.11813491735E+04  0.11813491735E+04  0.00000000000E+00 0.  1.
        -24    2    1    2    0    0  0.33431168596E+03 -0.15626537363E+03 -0.94247091885E+03  0.10155316445E+04  0.82884966764E+02 0.  0.
        254    2    1    2    0    0 -0.33431168596E+03  0.15626537363E+03  0.96944730036E+03  0.13741430841E+04  0.90125355870E+03 0.  0.
         23    2    4    4    0    0  0.29655469389E+03  0.84648706749E+02  0.23002076290E+03  0.39528612265E+03  0.90727489593E+02 0.  0.
         23    2    4    4    0    0 -0.63086637986E+03  0.71616666877E+02  0.73942653746E+03  0.97885696147E+03  0.91038511133E+02 0.  0.
          1    1    3    3  502    0  0.10991780465E+02 -0.28114153327E+02 -0.65837036334E+02  0.72427482410E+02  0.00000000000E+00 0. -1.
         -2    1    3    3    0  502  0.32331990550E+03 -0.12815122030E+03 -0.87663388252E+03  0.94310416208E+03  0.00000000000E+00 0.  1.
         11    1    5    5    0    0  0.66764567603E+02  0.60498171986E+02  0.72487828985E+02  0.11563745782E+03  0.00000000000E+00 0.  1.
        -11    1    5    5    0    0  0.22979012629E+03  0.24150534763E+02  0.15753293392E+03  0.27964866482E+03  0.00000000000E+00 0. -1.
          2    1    6    6  503    0 -0.49556471414E+03  0.77220027232E+02  0.53203528460E+03  0.73116951698E+03  0.00000000000E+00 0. -1.
         -2    1    6    6    0  503 -0.13530166571E+03 -0.56033603557E+01  0.20739125286E+03  0.24768744449E+03  0.00000000000E+00 0.  1.
<mgrwt>
<rscale>  0 0.23895225E+04</rscale>
<asrwt>0</asrwt>
<pdfrwt beam="1">  1        1 0.18589624E+00 0.23895225E+04</pdfrwt>
<pdfrwt beam="2">  1       -2 0.18174603E+00 0.23895225E+04</pdfrwt>
<totfact> 0.14624554E+00</totfact>
</mgrwt>
</event>
<event>
12    4  0.4280696E-008  0.1855137E+04  0.7818608E-02  0.8677515E-01
         -2   -1    0    0    0  501 -0.00000000000E+00  0.00000000000E+00  0.42549282069E+03  0.42549282069E+03  0.00000000000E+00 0.  1.
          1   -1    0    0  501    0  0.00000000000E+00 -0.00000000000E+00 -0.20220867544E+04  0.20220867544E+04  0.00000000000E+00 0. -1.
        -24    2    1    2    0    0  0.20924947467E+03  0.21466667518E+03  0.23249238391E+03  0.38772415511E+03  0.80063648429E+02 0.  0.
        254    2    1    2    0    0 -0.20924947467E+03 -0.21466667518E+03 -0.18290863176E+04  0.20598554200E+04  0.89865481130E+03 0.  0.
         23    2    4    4    0    0  0.32569634517E+03  0.26961218813E+02 -0.84556077355E+03  0.91121152052E+03  0.92349319379E+02 0.  0.
         23    2    4    4    0    0 -0.53494581983E+03 -0.24162789399E+03 -0.98352554407E+03  0.11486438995E+04  0.86655886318E+02 0.  0.
          3    1    3    3  502    0  0.71539212140E+01 -0.46745635632E+01  0.19315153281E+02  0.21121204500E+02  0.00000000000E+00 0. -1.
         -4    1    3    3    0  502  0.20209555345E+03  0.21934123874E+03  0.21317723062E+03  0.36660295061E+03  0.00000000000E+00 0.  1.
         11    1    5    5    0    0  0.27161166337E+03  0.45130154547E+02 -0.61716993460E+03  0.67580200850E+03  0.00000000000E+00 0. -1.
        -11    1    5    5    0    0  0.54084681799E+02 -0.18168935734E+02 -0.22839083895E+03  0.23540951202E+03  0.00000000000E+00 0.  1.
          1    1    6    6  503    0 -0.36951647626E+03 -0.16973519127E+03 -0.59990531713E+03  0.72473364134E+03  0.00000000000E+00 0. -1.
         -1    1    6    6    0  503 -0.16542934357E+03 -0.71892702726E+02 -0.38362022695E+03  0.42391025812E+03  0.00000000000E+00 0.  1.
<mgrwt>
<rscale>  0 0.18551371E+04</rscale>
<asrwt>0</asrwt>
<pdfrwt beam="1">  1        1 0.31109028E+00 0.18551371E+04</pdfrwt>
<pdfrwt beam="2">  1       -2 0.65460432E-01 0.18551371E+04</pdfrwt>
<totfact> 0.51055221E+00</totfact>
</mgrwt>
</event>
<event>
12    4  0.4280696E-008  0.1980050E+04  0.7818608E-02  0.8616005E-01
          1   -1    0    0  501    0  0.00000000000E+00  0.00000000000E+00  0.15541053216E+04  0.15541053216E+04  0.00000000000E+00 0. -1.
         -2   -1    0    0    0  501 -0.00000000000E+00 -0.00000000000E+00 -0.63068438435E+03  0.63068438435E+03  0.00000000000E+00 0.  1.
        -24    2    1    2    0    0  0.24472033288E+03  0.65541134229E+03  0.76172568511E+03  0.10371866191E+04  0.77961494332E+02 0.  0.
        254    2    1    2    0    0 -0.24472033288E+03 -0.65541134229E+03  0.16169525213E+03  0.11476030868E+04  0.89520691541E+03 0.  0.
         23    2    4    4    0    0  0.17884508842E+03 -0.60078137736E+03 -0.96316092857E+02  0.64069494794E+03  0.91046128634E+02 0.  0.
         23    2    4    4    0    0 -0.42356542130E+03 -0.54629964927E+02  0.25801134499E+03  0.50690813888E+03  0.89408656922E+02 0.  0.
          3    1    3    3  502    0  0.16348297339E+03  0.37073137008E+03  0.48465566974E+03  0.63171160316E+03  0.00000000000E+00 0. -1.
         -4    1    3    3    0  502  0.81237359489E+02  0.28467997221E+03  0.27707001537E+03  0.40547501596E+03  0.00000000000E+00 0.  1.
         11    1    5    5    0    0  0.14243925297E+03 -0.56374920313E+03 -0.89744587624E+02  0.58835040225E+03  0.00000000000E+00 0. -1.
        -11    1    5    5    0    0  0.36405835449E+02 -0.37032174234E+02 -0.65715052329E+01  0.52344545697E+02  0.00000000000E+00 0.  1.
          1    1    6    6  503    0 -0.41393439505E+03 -0.66581263390E+02  0.25647708867E+03  0.49148270067E+03  0.00000000000E+00 0. -1.
         -1    1    6    6    0  503 -0.96310262458E+01  0.11951298464E+02  0.15342563102E+01  0.15425438209E+02  0.00000000000E+00 0.  1.
<mgrwt>
<rscale>  0 0.19800505E+04</rscale>
<asrwt>0</asrwt>
<pdfrwt beam="1">  1        1 0.23909312E+00 0.19800505E+04</pdfrwt>
<pdfrwt beam="2">  1       -2 0.97028367E-01 0.19800505E+04</pdfrwt>
<totfact> 0.43417551E+00</totfact>
</mgrwt>
</event>
<event>
12    4  0.4280696E-008  0.2052089E+04  0.7818608E-02  0.8582647E-01
         -2   -1    0    0    0  501 -0.00000000000E+00  0.00000000000E+00  0.76087958643E+03  0.76087958643E+03  0.00000000000E+00 0.  1.
          1   -1    0    0  501    0  0.00000000000E+00 -0.00000000000E+00 -0.13836191440E+04  0.13836191440E+04  0.00000000000E+00 0. -1.
        -24    2    1    2    0    0  0.33372436659E+03  0.65751172536E+03 -0.64225909247E+03  0.98129338090E+03  0.82136080374E+02 0.  0.
        254    2    1    2    0    0 -0.33372436659E+03 -0.65751172536E+03  0.19519534875E+02  0.11632053496E+04  0.89942873600E+03 0.  0.
         23    2    4    4    0    0  0.29476400140E+03 -0.21831974851E+03  0.85168960073E+02  0.38731413593E+03  0.90604409473E+02 0.  0.
         23    2    4    4    0    0 -0.62848836799E+03 -0.43919197685E+03 -0.65649425197E+02  0.77589121362E+03  0.99045984883E+02 0.  0.
          3    1    3    3  502    0  0.33456155413E+03  0.62967697864E+03 -0.60738263228E+03  0.93666332955E+03  0.00000000000E+00 0. -1.
         -4    1    3    3    0  502 -0.83718754539E+00  0.27834746723E+02 -0.34876460193E+02  0.44630051352E+02  0.00000000000E+00 0.  1.
         11    1    5    5    0    0  0.16082617413E+03 -0.16367894003E+03  0.78433019574E+02  0.24250276752E+03  0.00000000000E+00 0.  1.
        -11    1    5    5    0    0  0.13393782727E+03 -0.54640808482E+02  0.67359404981E+01  0.14481136841E+03  0.00000000000E+00 0. -1.
          4    1    6    6  503    0 -0.37246111781E+03 -0.30047117045E+03 -0.56628136115E+01  0.47858361444E+03  0.00000000000E+00 0. -1.
         -4    1    6    6    0  503 -0.25602725018E+03 -0.13872080639E+03 -0.59986611586E+02  0.29730759918E+03  0.00000000000E+00 0.  1.
<mgrwt>
<rscale>  0 0.20520892E+04</rscale>
<asrwt>0</asrwt>
<pdfrwt beam="1">  1        1 0.21286448E+00 0.20520892E+04</pdfrwt>
<pdfrwt beam="2">  1       -2 0.11705840E+00 0.20520892E+04</pdfrwt>
<totfact> 0.36101487E+00</totfact>
</mgrwt>
</event>
<event>
12    4  0.4280696E-008  0.1583023E+04  0.7818608E-02  0.8831046E-01
          1   -1    0    0  501    0  0.00000000000E+00  0.00000000000E+00  0.27912751102E+04  0.27912751102E+04  0.00000000000E+00 0. -1.
         -2   -1    0    0    0  501 -0.00000000000E+00 -0.00000000000E+00 -0.22444596814E+03  0.22444596814E+03  0.00000000000E+00 0.  1.
        -24    2    1    2    0    0  0.12513351718E+03  0.37767568576E+03  0.20632285903E+03  0.45521055714E+03  0.79688195081E+02 0.  0.
        254    2    1    2    0    0 -0.12513351718E+03 -0.37767568576E+03  0.23605062830E+04  0.25605105212E+04  0.90880520260E+03 0.  0.
         23    2    4    4    0    0  0.31240028607E+03 -0.10251683141E+03  0.37650830399E+03  0.50825942688E+03  0.92008165876E+02 0.  0.
         23    2    4    4    0    0 -0.43753380325E+03 -0.27515885434E+03  0.19839979790E+04  0.20522510943E+04  0.91314561934E+02 0.  0.
          3    1    3    3  502    0  0.43119459776E+02  0.67448787532E+02  0.14484715890E+02  0.81353756799E+02  0.00000000000E+00 0. -1.
         -4    1    3    3    0  502  0.82014057404E+02  0.31022689822E+03  0.19183814314E+03  0.37385680034E+03  0.00000000000E+00 0.  1.
         11    1    5    5    0    0  0.30181826331E+03 -0.81361733409E+02  0.32167032882E+03  0.44853739663E+03  0.00000000000E+00 0.  1.
        -11    1    5    5    0    0  0.10582022752E+02 -0.21155098003E+02  0.54837975169E+02  0.59722030254E+02  0.00000000000E+00 0. -1.
          3    1    6    6  503    0 -0.56042031597E+02 -0.84457357092E+01  0.28870273706E+03  0.29421303531E+03  0.00000000000E+00 0. -1.
         -3    1    6    6    0  503 -0.38149177165E+03 -0.26671311864E+03  0.16952952420E+04  0.17580380590E+04  0.00000000000E+00 0.  1.
<mgrwt>
<rscale>  0 0.15830230E+04</rscale>
<asrwt>0</asrwt>
<pdfrwt beam="1">  1        1 0.42942692E+00 0.15830230E+04</pdfrwt>
<pdfrwt beam="2">  1       -2 0.34530151E-01 0.15830230E+04</pdfrwt>
<totfact> 0.56290382E+00</totfact>
</mgrwt>
</event>
<event>
12    4  0.4280696E-008  0.1561312E+04  0.7818608E-02  0.8844674E-01
         -2   -1    0    0    0  501 -0.00000000000E+00  0.00000000000E+00  0.10082791951E+04  0.10082791951E+04  0.00000000000E+00 0.  1.
          1   -1    0    0  501    0  0.00000000000E+00 -0.00000000000E+00 -0.60441998327E+03  0.60441998327E+03  0.00000000000E+00 0. -1.
        -24    2    1    2    0    0  0.95999231586E+02  0.17849002790E+02 -0.38893941546E+03  0.40888395487E+03  0.79861006034E+02 0.  0.
        254    2    1    2    0    0 -0.95999231586E+02 -0.17849002790E+02  0.79279862732E+03  0.12038152235E+04  0.90061478422E+03 0.  0.
         23    2    4    4    0    0  0.16152840772E+03  0.34405087964E+03  0.15424721187E+03  0.42045993812E+03  0.92368408631E+02 0.  0.
         23    2    4    4    0    0 -0.25752763931E+03 -0.36189988243E+03  0.63855141545E+03  0.78335528541E+03  0.92766282169E+02 0.  0.
          1    1    3    3  502    0  0.65190491869E+02 -0.27550184018E+02 -0.23702056882E+03  0.24736119929E+03  0.00000000000E+00 0. -1.
         -2    1    3    3    0  502  0.30808739717E+02  0.45399186808E+02 -0.15191884664E+03  0.16152275558E+03  0.00000000000E+00 0.  1.
         11    1    5    5    0    0  0.15926017395E+03  0.34055339370E+03  0.16376261746E+03  0.41007147163E+03  0.00000000000E+00 0.  1.
        -11    1    5    5    0    0  0.22682337654E+01  0.34974859377E+01 -0.95154055941E+01  0.10388466485E+02  0.00000000000E+00 0. -1.
          1    1    6    6  503    0 -0.57781474923E+02 -0.11920730897E+03  0.25591743851E+03  0.28817150569E+03  0.00000000000E+00 0. -1.
         -1    1    6    6    0  503 -0.19974616438E+03 -0.24269257346E+03  0.38263397693E+03  0.49518377972E+03  0.00000000000E+00 0.  1.
<mgrwt>
<rscale>  0 0.15613124E+04</rscale>
<asrwt>0</asrwt>
<pdfrwt beam="1">  1        1 0.92987689E-01 0.15613124E+04</pdfrwt>
<pdfrwt beam="2">  1       -2 0.15511988E+00 0.15613124E+04</pdfrwt>
<totfact> 0.78145396E+00</totfact>
</mgrwt>
</event>
<event>
12    4  0.4280696E-008  0.1747089E+04  0.7818608E-02  0.8734954E-01
         -2   -1    0    0    0  501 -0.00000000000E+00  0.00000000000E+00  0.62140055019E+03  0.62140055019E+03  0.00000000000E+00 0.  1.
          1   -1    0    0  501    0  0.00000000000E+00 -0.00000000000E+00 -0.12280007002E+04  0.12280007002E+04  0.00000000000E+00 0. -1.
        -24    2    1    2    0    0  0.10744639548E+03 -0.29276673052E+03  0.36466477545E+03  0.48642288672E+03  0.79810650097E+02 0.  0.
        254    2    1    2    0    0 -0.10744639548E+03  0.29276673052E+03 -0.97126492544E+03  0.13629783637E+04  0.90393438811E+03 0.  0.
         23    2    4    4    0    0  0.13748204359E+02 -0.19203988279E+03  0.53130187918E+02  0.21956084717E+03  0.91191112717E+02 0.  0.
         23    2    4    4    0    0 -0.12119459984E+03  0.48480661331E+03 -0.10243951134E+04  0.11434175165E+04  0.91064182865E+02 0.  0.
          3    1    3    3  502    0  0.75824982876E+02 -0.13530967438E+03  0.13177070926E+03  0.20352310883E+03  0.00000000000E+00 0. -1.
         -4    1    3    3    0  502  0.31621412608E+02 -0.15745705614E+03  0.23289406619E+03  0.28289977789E+03  0.00000000000E+00 0.  1.
         11    1    5    5    0    0 -0.37894595814E+02 -0.68027437103E+02  0.28885983786E+02  0.83054997742E+02  0.00000000000E+00 0. -1.
        -11    1    5    5    0    0  0.51642800173E+02 -0.12401244568E+03  0.24244204132E+02  0.13650584943E+03  0.00000000000E+00 0.  1.
          2    1    6    6  503    0 -0.24664919760E+02  0.27667102896E+03 -0.59190714332E+03  0.65384194026E+03  0.00000000000E+00 0. -1.
         -2    1    6    6    0  503 -0.96529680084E+02  0.20813558435E+03 -0.43248797003E+03  0.48957557622E+03  0.00000000000E+00 0.  1.
<mgrwt>
<rscale>  0 0.17470894E+04</rscale>
<asrwt>0</asrwt>
<pdfrwt beam="1">  1        1 0.18892318E+00 0.17470894E+04</pdfrwt>
<pdfrwt beam="2">  1       -2 0.95600086E-01 0.17470894E+04</pdfrwt>
<totfact> 0.77842530E+00</totfact>
</mgrwt>
</event>
<event>
12    4  0.4280696E-008  0.1280505E+04  0.7818608E-02  0.9045169E-01
          1   -1    0    0  501    0  0.00000000000E+00  0.00000000000E+00  0.26712829584E+04  0.26712829584E+04  0.00000000000E+00 0. -1.
         -2   -1    0    0    0  501 -0.00000000000E+00 -0.00000000000E+00 -0.15345566371E+03  0.15345566371E+03  0.00000000000E+00 0.  1.
        -24    2    1    2    0    0 -0.23968284516E+03 -0.18834326458E+02  0.11379715811E+04  0.11657239458E+04  0.78296872318E+02 0.  0.
        254    2    1    2    0    0  0.23968284516E+03  0.18834326458E+02  0.13798557136E+04  0.16590146763E+04  0.88911490138E+03 0.  0.
         23    2    4    4    0    0  0.34664663411E+03 -0.45643235033E+02  0.10683676793E+03  0.37663573277E+03  0.90516221598E+02 0.  0.
         23    2    4    4    0    0 -0.10696378895E+03  0.64477561491E+02  0.12730189456E+04  0.12823789435E+04  0.91213545172E+02 0.  0.
          3    1    3    3  502    0 -0.75338386994E+02 -0.22055631162E+02  0.53581340650E+03  0.54153331384E+03  0.00000000000E+00 0. -1.
         -4    1    3    3    0  502 -0.16434445816E+03  0.32213047043E+01  0.60215817464E+03  0.62419063196E+03  0.00000000000E+00 0.  1.
         11    1    5    5    0    0  0.25199351430E+03 -0.18318264385E+02  0.35810343729E+02  0.25518360209E+03  0.00000000000E+00 0. -1.
        -11    1    5    5    0    0  0.94653119814E+02 -0.27324970648E+02  0.71026424204E+02  0.12145213068E+03  0.00000000000E+00 0.  1.
          1    1    6    6  503    0 -0.10343479509E+03  0.21997022193E+02  0.10508703857E+04  0.10561776334E+04  0.00000000000E+00 0. -1.
         -1    1    6    6    0  503 -0.35289938683E+01  0.42480539299E+02  0.22214855998E+03  0.22620131016E+03  0.00000000000E+00 0.  1.
<mgrwt>
<rscale>  0 0.12805054E+04</rscale>
<asrwt>0</asrwt>
<pdfrwt beam="1">  1        1 0.41096657E+00 0.12805054E+04</pdfrwt>
<pdfrwt beam="2">  1       -2 0.23608566E-01 0.12805054E+04</pdfrwt>
<totfact> 0.14227923E+01</totfact>
</mgrwt>
</event>
<event>
12    4  0.4280696E-008  0.1037431E+04  0.7818608E-02  0.9268418E-01
         -2   -1    0    0    0  501 -0.00000000000E+00  0.00000000000E+00  0.15312717623E+04  0.15312717623E+04  0.00000000000E+00 0.  1.
          1   -1    0    0  501    0  0.00000000000E+00 -0.00000000000E+00 -0.17571392991E+03  0.17571392991E+03  0.00000000000E+00 0. -1.
        -24    2    1    2    0    0 -0.10379962532E+03  0.20020965194E+02  0.19721868351E+03  0.23706913492E+03  0.78303028965E+02 0.  0.
        254    2    1    2    0    0  0.10379962532E+03 -0.20020965194E+02  0.11583391489E+04  0.14699165573E+04  0.89873794864E+03 0.  0.
         23    2    4    4    0    0  0.14578898116E+03 -0.35352069589E+03  0.18129252620E+03  0.43278340259E+03  0.90571430695E+02 0.  0.
         23    2    4    4    0    0 -0.41989355840E+02  0.33349973069E+03  0.97704662270E+03  0.10371331547E+04  0.89665496760E+02 0.  0.
          1    1    3    3  502    0 -0.12162177761E+02  0.33190640319E+02  0.32005849597E+02  0.47685548975E+02  0.00000000000E+00 0. -1.
         -2    1    3    3    0  502 -0.91637447555E+02 -0.13169675125E+02  0.16521283391E+03  0.18938358595E+03  0.00000000000E+00 0.  1.
         11    1    5    5    0    0 -0.86415529650E+01 -0.55674278201E+02  0.38028665057E+02  0.67974120494E+02  0.00000000000E+00 0.  1.
        -11    1    5    5    0    0  0.15443053412E+03 -0.29784641768E+03  0.14326386115E+03  0.36480928210E+03  0.00000000000E+00 0. -1.
          2    1    6    6  503    0 -0.60641702113E+02  0.19057399583E+03  0.64114830720E+03  0.67161522894E+03  0.00000000000E+00 0. -1.
         -2    1    6    6    0  503  0.18652346274E+02  0.14292573486E+03  0.33589831550E+03  0.36551792578E+03  0.00000000000E+00 0.  1.
<mgrwt>
<rscale>  0 0.10374310E+04</rscale>
<asrwt>0</asrwt>
<pdfrwt beam="1">  1        1 0.27032913E-01 0.10374310E+04</pdfrwt>
<pdfrwt beam="2">  1       -2 0.23558026E+00 0.10374310E+04</pdfrwt>
<totfact> 0.12163224E+01</totfact>
</mgrwt>
</event>
<event>
12    4  0.4280696E-008  0.1203772E+04  0.7818608E-02  0.9109561E-01
         -2   -1    0    0    0  501 -0.00000000000E+00  0.00000000000E+00  0.33845485210E+03  0.33845485210E+03  0.00000000000E+00 0.  1.
          1   -1    0    0  501    0  0.00000000000E+00 -0.00000000000E+00 -0.10703545334E+04  0.10703545334E+04  0.00000000000E+00 0. -1.
        -24    2    1    2    0    0  0.53464313466E+02  0.21666094052E+03 -0.34007430716E+03  0.41489193483E+03  0.81758101976E+02 0.  0.
        254    2    1    2    0    0 -0.53464313466E+02 -0.21666094052E+03 -0.39182537414E+03  0.99391745066E+03  0.88574509817E+03 0.  0.
         23    2    4    4    0    0 -0.70513601210E+02 -0.47917699923E+02  0.27447322867E+03  0.30035325314E+03  0.87225280129E+02 0.  0.
         23    2    4    4    0    0  0.17049287744E+02 -0.16874324060E+03 -0.66629860281E+03  0.69356419751E+03  0.91172959298E+02 0.  0.
          3    1    3    3  502    0  0.42996712435E+02  0.16049224214E+03 -0.30645549922E+03  0.34859926860E+03  0.00000000000E+00 0. -1.
         -4    1    3    3    0  502  0.10467601031E+02  0.56168698378E+02 -0.33618807939E+02  0.66292666232E+02  0.00000000000E+00 0.  1.
         11    1    5    5    0    0 -0.59396371868E+02 -0.59969655290E+02  0.13029187783E+03  0.15524259073E+03  0.00000000000E+00 0. -1.
        -11    1    5    5    0    0 -0.11117229342E+02  0.12051955367E+02  0.14418135084E+03  0.14511066241E+03  0.00000000000E+00 0.  1.
          3    1    6    6  503    0 -0.18601671173E+02 -0.30855691014E+02 -0.27114158611E+03  0.27352487192E+03  0.00000000000E+00 0. -1.
         -3    1    6    6    0  503  0.35650958917E+02 -0.13788754958E+03 -0.39515701670E+03  0.42003932560E+03  0.00000000000E+00 0.  1.
<mgrwt>
<rscale>  0 0.12037719E+04</rscale>
<asrwt>0</asrwt>
<pdfrwt beam="1">  1        1 0.16466993E+00 0.12037719E+04</pdfrwt>
<pdfrwt beam="2">  1       -2 0.52069978E-01 0.12037719E+04</pdfrwt>
<totfact> 0.40332660E+01</totfact>
</mgrwt>
</event>
<event>
12    4  0.4280696E-008  0.1301439E+04  0.7818608E-02  0.9028425E-01
          1   -1    0    0  501    0  0.00000000000E+00  0.00000000000E+00  0.11349528363E+04  0.11349528363E+04  0.00000000000E+00 0. -1.
         -2   -1    0    0    0  501 -0.00000000000E+00 -0.00000000000E+00 -0.37308689675E+03  0.37308689675E+03  0.00000000000E+00 0.  1.
        -24    2    1    2    0    0 -0.10990285452E+03  0.15076108748E+03 -0.12094104994E+03  0.23590119357E+03  0.78835858839E+02 0.  0.
        254    2    1    2    0    0  0.10990285452E+03 -0.15076108748E+03  0.88280698950E+03  0.12721385395E+04  0.89676125029E+03 0.  0.
         23    2    4    4    0    0  0.13126315587E+03 -0.33010448682E+03  0.16049180258E+00  0.36659760702E+03  0.90525087148E+02 0.  0.
         23    2    4    4    0    0 -0.21360301355E+02  0.17934339935E+03  0.88264649770E+03  0.90554093247E+03  0.91209775353E+02 0.  0.
          1    1    3    3  502    0  0.17694292991E+01  0.10315296239E+02 -0.35792047366E+02  0.37290841653E+02  0.00000000000E+00 0. -1.
         -2    1    3    3    0  502 -0.11167228382E+03  0.14044579124E+03 -0.85149002576E+02  0.19861035192E+03  0.00000000000E+00 0.  1.
         11    1    5    5    0    0  0.24708758140E+02 -0.18034535395E+03 -0.11791086596E+02  0.18241162008E+03  0.00000000000E+00 0. -1.
        -11    1    5    5    0    0  0.10655439773E+03 -0.14975913288E+03  0.11951578399E+02  0.18418598693E+03  0.00000000000E+00 0.  1.
          3    1    6    6  503    0 -0.55626022959E+02  0.94093371735E+02  0.52715216280E+03  0.53836532186E+03  0.00000000000E+00 0. -1.
         -3    1    6    6    0  503  0.34265721604E+02  0.85250027613E+02  0.35549433490E+03  0.36717561061E+03  0.00000000000E+00 0.  1.
<mgrwt>
<rscale>  0 0.13014393E+04</rscale>
<asrwt>0</asrwt>
<pdfrwt beam="1">  1        1 0.17460813E+00 0.13014393E+04</pdfrwt>
<pdfrwt beam="2">  1       -2 0.57397985E-01 0.13014393E+04</pdfrwt>
<totfact> 0.29240936E+01</totfact>
</mgrwt>
</event>
<event>
12    4  0.4280696E-008  0.2247260E+04  0.7818608E-02  0.8499011E-01
         -2   -1    0    0    0  501 -0.00000000000E+00  0.00000000000E+00  0.11325418981E+04  0.11325418981E+04  0.00000000000E+00 0.  1.
          1   -1    0    0  501    0  0.00000000000E+00 -0.00000000000E+00 -0.11147885839E+04  0.11147885839E+04  0.00000000000E+00 0. -1.
        -24    2    1    2    0    0  0.59296300365E+03  0.27840939500E+03 -0.67031302795E+03  0.94077896277E+03  0.81416131282E+02 0.  0.
        254    2    1    2    0    0 -0.59296300365E+03 -0.27840939500E+03  0.68806634218E+03  0.13065515192E+04  0.89695298995E+03 0.  0.
         23    2    4    4    0    0 -0.24833000433E+03  0.59110574160E+02 -0.16856404315E+03  0.31920256627E+03  0.91184377195E+02 0.  0.
         23    2    4    4    0    0 -0.34463299932E+03 -0.33751996916E+03  0.85663038533E+03  0.98734895293E+03  0.91382186385E+02 0.  0.
          1    1    3    3  502    0  0.42314944052E+03  0.18571328404E+03 -0.42033935178E+03  0.62468395492E+03  0.00000000000E+00 0. -1.
         -2    1    3    3    0  502  0.16981356313E+03  0.92696110960E+02 -0.24997367617E+03  0.31609500785E+03  0.00000000000E+00 0.  1.
         11    1    5    5    0    0 -0.18161957755E+03  0.82006485678E+02 -0.11060190821E+03  0.22791120364E+03  0.00000000000E+00 0.  1.
        -11    1    5    5    0    0 -0.66710426779E+02 -0.22895911519E+02 -0.57962134943E+02  0.91291362639E+02  0.00000000000E+00 0. -1.
          3    1    6    6  503    0 -0.27916528043E+03 -0.21647493935E+03  0.62455212963E+03  0.71753746647E+03  0.00000000000E+00 0. -1.
         -3    1    6    6    0  503 -0.65467718885E+02 -0.12104502981E+03  0.23207825570E+03  0.26981148646E+03  0.00000000000E+00 0.  1.
<mgrwt>
<rscale>  0 0.22472604E+04</rscale>
<asrwt>0</asrwt>
<pdfrwt beam="1">  1        1 0.17150594E+00 0.22472604E+04</pdfrwt>
<pdfrwt beam="2">  1       -2 0.17423721E+00 0.22472604E+04</pdfrwt>
<totfact> 0.19576893E+00</totfact>
</mgrwt>
</event>
<event>
12    4  0.4280696E-008  0.2988371E+04  0.7818608E-02  0.8247059E-01
         -4   -1    0    0    0  501 -0.00000000000E+00  0.00000000000E+00  0.58230975339E+03  0.58230975339E+03  0.00000000000E+00 0.  1.
          1   -1    0    0  501    0  0.00000000000E+00 -0.00000000000E+00 -0.38340261703E+04  0.38340261703E+04  0.00000000000E+00 0. -1.
        -24    2    1    2    0    0  0.94353678925E+03 -0.66195300119E+01 -0.38172796992E+02  0.94821830957E+03  0.85763099997E+02 0.  0.
        254    2    1    2    0    0 -0.94353678925E+03  0.66195300119E+01 -0.32135436199E+04  0.34681176141E+04  0.90037308793E+03 0.  0.
         23    2    4    4    0    0 -0.15219959695E+03  0.98281278960E+02 -0.20202347494E+04  0.20303984903E+04  0.91354581145E+02 0.  0.
         23    2    4    4    0    0 -0.79133719230E+03 -0.91661748948E+02 -0.11933088705E+04  0.14377191238E+04  0.91835671254E+02 0.  0.
          1    1    3    3  502    0  0.12736734716E+03  0.12474793945E+02 -0.31507771207E+02  0.13179833554E+03  0.00000000000E+00 0. -1.
         -2    1    3    3    0  502  0.81616944209E+03 -0.19094323957E+02 -0.66650257845E+01  0.81641997402E+03  0.00000000000E+00 0.  1.
         11    1    5    5    0    0 -0.38135321584E+02 -0.16050882789E+02 -0.39892519560E+03  0.40106513845E+03  0.00000000000E+00 0.  1.
        -11    1    5    5    0    0 -0.11406427537E+03  0.11433216175E+03 -0.16213095538E+04  0.16293333518E+04  0.00000000000E+00 0. -1.
          4    1    6    6  503    0 -0.64872722375E+03 -0.10959894116E+03 -0.96533066467E+03  0.11682132643E+04  0.00000000000E+00 0. -1.
         -4    1    6    6    0  503 -0.14260996855E+03  0.17937192211E+02 -0.22797820582E+03  0.26950585953E+03  0.00000000000E+00 0.  1.
<mgrwt>
<rscale>  0 0.29883714E+04</rscale>
<asrwt>0</asrwt>
<pdfrwt beam="1">  1        1 0.58985017E+00 0.29883714E+04</pdfrwt>
<pdfrwt beam="2">  1       -4 0.89586117E-01 0.29883714E+04</pdfrwt>
<totfact> 0.60429455E-02</totfact>
</mgrwt>
</event>
<event>
12    4  0.4280696E-008  0.4030841E+04  0.7818608E-02  0.7998354E-01
         -2   -1    0    0    0  501 -0.00000000000E+00  0.00000000000E+00  0.16876880400E+04  0.16876880400E+04  0.00000000000E+00 0.  1.
          1   -1    0    0  501    0  0.00000000000E+00 -0.00000000000E+00 -0.24067952676E+04  0.24067952676E+04  0.00000000000E+00 0. -1.
        -24    2    1    2    0    0 -0.88236919529E+03 -0.61330931615E+03 -0.19526140456E+04  0.22301912170E+04  0.79545830515E+02 0.  0.
        254    2    1    2    0    0  0.88236919529E+03  0.61330931615E+03  0.12335068181E+04  0.18642920906E+04  0.89404821715E+03 0.  0.
         23    2    4    4    0    0  0.70069545865E+02 -0.81981383780E+02  0.60375784740E+03  0.62002647698E+03  0.90986841408E+02 0.  0.
         23    2    4    4    0    0  0.81229964943E+03  0.69529069993E+03  0.62974897072E+03  0.12442656136E+04  0.91396242878E+02 0.  0.
          3    1    3    3  502    0 -0.82967630828E+03 -0.55293789555E+03 -0.17920967407E+04  0.20507837090E+04  0.00000000000E+00 0. -1.
         -2    1    3    3    0  502 -0.52692887014E+02 -0.60371420606E+02 -0.16051730488E+03  0.17940750802E+03  0.00000000000E+00 0.  1.
         11    1    5    5    0    0 -0.66400943619E+01 -0.17692789460E+02  0.29168700230E+03  0.29229853397E+03  0.00000000000E+00 0.  1.
        -11    1    5    5    0    0  0.76709640227E+02 -0.64288594319E+02  0.31207084510E+03  0.32772794301E+03  0.00000000000E+00 0. -1.
          2    1    6    6  503    0  0.75853211498E+03  0.67141511043E+03  0.58048293696E+03  0.11675314386E+04  0.00000000000E+00 0. -1.
         -2    1    6    6    0  503  0.53767534445E+02  0.23875589500E+02  0.49266033767E+02  0.76734175029E+02  0.00000000000E+00 0.  1.
<mgrwt>
<rscale>  0 0.40308409E+04</rscale>
<asrwt>0</asrwt>
<pdfrwt beam="1">  1        1 0.37027620E+00 0.40308409E+04</pdfrwt>
<pdfrwt beam="2">  1       -2 0.25964431E+00 0.40308409E+04</pdfrwt>
<totfact> 0.60521714E-02</totfact>
</mgrwt>
</event>
<event>
12    4  0.4280696E-008  0.1270169E+04  0.7818608E-02  0.9053562E-01
          1   -1    0    0  501    0  0.00000000000E+00  0.00000000000E+00  0.28683809592E+03  0.28683809592E+03  0.00000000000E+00 0. -1.
         -2   -1    0    0    0  501 -0.00000000000E+00 -0.00000000000E+00 -0.14061313240E+04  0.14061313240E+04  0.00000000000E+00 0.  1.
        -24    2    1    2    0    0 -0.19316205084E+03  0.17412014408E+03 -0.51845024141E+03  0.58523694895E+03  0.77988660308E+02 0.  0.
        254    2    1    2    0    0  0.19316205084E+03 -0.17412014408E+03 -0.60084298666E+03  0.11077324710E+04  0.89354884038E+03 0.  0.
         23    2    4    4    0    0 -0.18769635840E+03  0.26440940966E+02  0.13521801535E+03  0.24983484798E+03  0.90578657939E+02 0.  0.
         23    2    4    4    0    0  0.38085840925E+03 -0.20056108505E+03 -0.73606100200E+03  0.85789762298E+03  0.94470398078E+02 0.  0.
          3    1    3    3  502    0 -0.76755709018E+02  0.76775144170E+02 -0.13760514094E+03  0.17527417506E+03  0.00000000000E+00 0. -1.
         -2    1    3    3    0  502 -0.11640634183E+03  0.97344999912E+02 -0.38084510047E+03  0.40996277389E+03  0.00000000000E+00 0.  1.
         11    1    5    5    0    0 -0.12822799298E+03  0.45524972404E+02  0.51729983381E+02  0.14557105646E+03  0.00000000000E+00 0. -1.
        -11    1    5    5    0    0 -0.59468365420E+02 -0.19084031438E+02  0.83488031966E+02  0.10426379152E+03  0.00000000000E+00 0.  1.
          1    1    6    6  503    0  0.15724706718E+03 -0.76050152138E+02 -0.21208867657E+03  0.27475784340E+03  0.00000000000E+00 0. -1.
         -1    1    6    6    0  503  0.22361134206E+03 -0.12451093291E+03 -0.52397232543E+03  0.58313977958E+03  0.00000000000E+00 0.  1.
<mgrwt>
<rscale>  0 0.12701685E+04</rscale>
<asrwt>0</asrwt>
<pdfrwt beam="1">  1        1 0.44128939E-01 0.12701685E+04</pdfrwt>
<pdfrwt beam="2">  1       -2 0.21632789E+00 0.12701685E+04</pdfrwt>
<totfact> 0.83313002E+00</totfact>
</mgrwt>
</event>
<event>
12    4  0.4280696E-008  0.1688739E+04  0.7818608E-02  0.8767813E-01
         -2   -1    0    0    0  501 -0.00000000000E+00  0.00000000000E+00  0.44590229177E+03  0.44590229177E+03  0.00000000000E+00 0.  1.
          1   -1    0    0  501    0  0.00000000000E+00 -0.00000000000E+00 -0.15989154210E+04  0.15989154210E+04  0.00000000000E+00 0. -1.
        -24    2    1    2    0    0  0.16450667270E+03  0.53438092219E+03 -0.13937843874E+03  0.58201624091E+03  0.81799389547E+02 0.  0.
        254    2    1    2    0    0 -0.16450667270E+03 -0.53438092219E+03 -0.10136346905E+04  0.14628014719E+04  0.89426363282E+03 0.  0.
         23    2    4    4    0    0 -0.49695726137E+03 -0.38608875902E+03 -0.42579888775E+03  0.76527674855E+03  0.91174336269E+02 0.  0.
         23    2    4    4    0    0  0.33245058866E+03 -0.14829216317E+03 -0.58783580279E+03  0.69752472336E+03  0.92064374747E+02 0.  0.
          3    1    3    3  502    0  0.17151561781E+03  0.47442121501E+03 -0.11919231813E+03  0.51836271577E+03  0.00000000000E+00 0. -1.
         -4    1    3    3    0  502 -0.70089451051E+01  0.59959707180E+02 -0.20186120615E+02  0.63653525134E+02  0.00000000000E+00 0.  1.
         11    1    5    5    0    0 -0.11952500110E+03 -0.62917362248E+02 -0.57615036915E+02  0.14684792419E+03  0.00000000000E+00 0. -1.
        -11    1    5    5    0    0 -0.37743226026E+03 -0.32317139677E+03 -0.36818385083E+03  0.61842882435E+03  0.00000000000E+00 0.  1.
          2    1    6    6  503    0  0.13436807230E+03 -0.10572481774E+03 -0.23431191111E+03  0.29005962771E+03  0.00000000000E+00 0. -1.
         -2    1    6    6    0  503  0.19808251636E+03 -0.42567345436E+02 -0.35352389167E+03  0.40746509564E+03  0.00000000000E+00 0.  1.
<mgrwt>
<rscale>  0 0.16887392E+04</rscale>
<asrwt>0</asrwt>
<pdfrwt beam="1">  1        1 0.24598699E+00 0.16887392E+04</pdfrwt>
<pdfrwt beam="2">  1       -2 0.68600351E-01 0.16887392E+04</pdfrwt>
<totfact> 0.90774715E+00</totfact>
</mgrwt>
</event>
<event>
12    4  0.4280696E-008  0.1655434E+04  0.7818608E-02  0.8787198E-01
         -2   -1    0    0    0  501 -0.00000000000E+00  0.00000000000E+00  0.74184563144E+03  0.74184563144E+03  0.00000000000E+00 0.  1.
          1   -1    0    0  501    0  0.00000000000E+00 -0.00000000000E+00 -0.92352814792E+03  0.92352814792E+03  0.00000000000E+00 0. -1.
        -24    2    1    2    0    0  0.50439956769E+03  0.20531891435E+03  0.59814876601E+02  0.55346367421E+03  0.78545774747E+02 0.  0.
        254    2    1    2    0    0 -0.50439956769E+03 -0.20531891435E+03 -0.24149739309E+03  0.11119101051E+04  0.93885478674E+03 0.  0.
         23    2    4    4    0    0 -0.82508068030E+00 -0.28733722716E+03  0.25433021714E+03  0.39414603353E+03  0.90021517011E+02 0.  0.
         23    2    4    4    0    0 -0.50357448701E+03  0.82018312810E+02 -0.49582761023E+03  0.71776407162E+03  0.95005135840E+02 0.  0.
          3    1    3    3  502    0  0.56713971426E+02  0.48346361565E+02  0.21231320129E+02  0.77489445642E+02  0.00000000000E+00 0. -1.
         -4    1    3    3    0  502  0.44768559627E+03  0.15697255278E+03  0.38583556472E+02  0.47597422857E+03  0.00000000000E+00 0.  1.
         11    1    5    5    0    0 -0.17419683787E+02 -0.25558263389E+03  0.18462820865E+03  0.31577445045E+03  0.00000000000E+00 0.  1.
        -11    1    5    5    0    0  0.16594603107E+02 -0.31754593270E+02  0.69702008493E+02  0.78371583077E+02  0.00000000000E+00 0. -1.
          4    1    6    6  503    0 -0.24092578032E+03  0.50711044207E+02 -0.30307173883E+03  0.39047320075E+03  0.00000000000E+00 0. -1.
         -4    1    6    6    0  503 -0.26264870669E+03  0.31307268603E+02 -0.19275587140E+03  0.32729087087E+03  0.00000000000E+00 0.  1.
<mgrwt>
<rscale>  0 0.16554339E+04</rscale>
<asrwt>0</asrwt>
<pdfrwt beam="1">  1        1 0.14208125E+00 0.16554339E+04</pdfrwt>
<pdfrwt beam="2">  1       -2 0.11413010E+00 0.16554339E+04</pdfrwt>
<totfact> 0.87536926E+00</totfact>
</mgrwt>
</event>
<event>
12    4  0.4280696E-008  0.1640848E+04  0.7818608E-02  0.8795839E-01
          1   -1    0    0  501    0  0.00000000000E+00  0.00000000000E+00  0.14160656811E+04  0.14160656811E+04  0.00000000000E+00 0. -1.
         -2   -1    0    0    0  501 -0.00000000000E+00 -0.00000000000E+00 -0.47532781742E+03  0.47532781742E+03  0.00000000000E+00 0.  1.
        -24    2    1    2    0    0 -0.46820822873E+02  0.20669943935E+03 -0.28205697724E+03  0.36255463956E+03  0.83503775798E+02 0.  0.
        254    2    1    2    0    0  0.46820822873E+02 -0.20669943935E+03  0.12227948409E+04  0.15288388590E+04  0.89286291557E+03 0.  0.
         23    2    4    4    0    0  0.43443683240E+03 -0.24388736145E+03  0.56375862564E+03  0.75767249611E+03  0.89595853499E+02 0.  0.
         23    2    4    4    0    0 -0.38761600953E+03  0.37187922100E+02  0.65903621529E+03  0.77116636285E+03  0.93486436125E+02 0.  0.
          1    1    3    3  502    0 -0.11573594276E+02  0.30624580698E+01 -0.51750813960E+02  0.53117543989E+02  0.00000000000E+00 0. -1.
         -2    1    3    3    0  502 -0.35247228596E+02  0.20363698128E+03 -0.23030616328E+03  0.30943709557E+03  0.00000000000E+00 0.  1.
         11    1    5    5    0    0  0.42718952388E+02  0.34285443864E+01  0.43822342183E+02  0.61294873229E+02  0.00000000000E+00 0.  1.
        -11    1    5    5    0    0  0.39171788001E+03 -0.24731590584E+03  0.51993628346E+03  0.69637762289E+03  0.00000000000E+00 0. -1.
          4    1    6    6  503    0 -0.15672586477E+03  0.20162127376E+02  0.18275339618E+03  0.24159534740E+03  0.00000000000E+00 0.  1.
         -4    1    6    6    0  503 -0.23089014475E+03  0.17025794724E+02  0.47628281911E+03  0.52957101545E+03  0.00000000000E+00 0. -1.
<mgrwt>
<rscale>  0 0.16408478E+04</rscale>
<asrwt>0</asrwt>
<pdfrwt beam="1">  1        1 0.21785626E+00 0.16408478E+04</pdfrwt>
<pdfrwt beam="2">  1       -2 0.73127357E-01 0.16408478E+04</pdfrwt>
<totfact> 0.10606862E+01</totfact>
</mgrwt>
</event>
<event>
12    4  0.4280696E-008  0.1875439E+04  0.7818608E-02  0.8667179E-01
         -2   -1    0    0    0  501 -0.00000000000E+00  0.00000000000E+00  0.53825353220E+03  0.53825353220E+03  0.00000000000E+00 0.  1.
          1   -1    0    0  501    0  0.00000000000E+00 -0.00000000000E+00 -0.16336501916E+04  0.16336501916E+04  0.00000000000E+00 0. -1.
        -24    2    1    2    0    0  0.62406086572E+03  0.10168799797E+03 -0.10751144660E+03  0.64626783507E+03  0.79441742394E+02 0.  0.
        254    2    1    2    0    0 -0.62406086572E+03 -0.10168799797E+03 -0.98788521280E+03  0.15256358887E+04  0.97563069768E+03 0.  0.
         23    2    4    4    0    0  0.37553374183E+01 -0.26231127229E+03 -0.79699865963E+03  0.84404460856E+03  0.91559443256E+02 0.  0.
         23    2    4    4    0    0 -0.62781620314E+03  0.16062327432E+03 -0.19088655317E+03  0.68159128018E+03  0.90421102908E+02 0.  0.
          1    1    3    3  502    0  0.15605564576E+03  0.36277817356E+02 -0.60976244676E+02  0.17142796452E+03  0.00000000000E+00 0. -1.
         -2    1    3    3    0  502  0.46800521996E+03  0.65410180612E+02 -0.46535201924E+02  0.47483987054E+03  0.00000000000E+00 0.  1.
         11    1    5    5    0    0 -0.18689178213E+02 -0.92264602414E+01 -0.34273350488E+02  0.40113283393E+02  0.00000000000E+00 0.  1.
        -11    1    5    5    0    0  0.22444515631E+02 -0.25308481205E+03 -0.76272530915E+03  0.80393132517E+03  0.00000000000E+00 0. -1.
          2    1    6    6  503    0 -0.32825745729E+03  0.13036234209E+03 -0.10663322098E+03  0.36894165164E+03  0.00000000000E+00 0. -1.
         -2    1    6    6    0  503 -0.29955874585E+03  0.30260932229E+02 -0.84253332192E+02  0.31264962853E+03  0.00000000000E+00 0.  1.
<mgrwt>
<rscale>  0 0.18754391E+04</rscale>
<asrwt>0</asrwt>
<pdfrwt beam="1">  1        1 0.25133080E+00 0.18754391E+04</pdfrwt>
<pdfrwt beam="2">  1       -2 0.82808236E-01 0.18754391E+04</pdfrwt>
<totfact> 0.55676250E+00</totfact>
</mgrwt>
</event>
<event>
12    4  0.4280696E-008  0.2086469E+04  0.7818608E-02  0.8567227E-01
          1   -1    0    0  501    0  0.00000000000E+00  0.00000000000E+00  0.74293382202E+03  0.74293382202E+03  0.00000000000E+00 0. -1.
         -2   -1    0    0    0  501 -0.00000000000E+00 -0.00000000000E+00 -0.14649195961E+04  0.14649195961E+04  0.00000000000E+00 0.  1.
        -24    2    1    2    0    0  0.21396628265E+03  0.80409279710E+03 -0.48745674886E+03  0.96757221943E+03  0.78962784471E+02 0.  0.
        254    2    1    2    0    0 -0.21396628265E+03 -0.80409279710E+03 -0.23452902519E+03  0.12402811987E+04  0.88935189414E+03 0.  0.
         23    2    4    4    0    0 -0.14423489117E+02 -0.91653340107E+03 -0.32695985277E+03  0.97733541125E+03  0.89667432494E+02 0.  0.
         23    2    4    4    0    0 -0.19954279354E+03  0.11244060396E+03  0.92430827586E+02  0.26294578740E+03  0.90204286770E+02 0.  0.
          3    1    3    3  502    0  0.37276414137E+02  0.26355918042E+03 -0.17712441246E+03  0.31972805652E+03  0.00000000000E+00 0. -1.
         -4    1    3    3    0  502  0.17668986852E+03  0.54053361668E+03 -0.31033233640E+03  0.64784416291E+03  0.00000000000E+00 0.  1.
         11    1    5    5    0    0  0.12075804208E+02 -0.28215744590E+03 -0.60857527278E+02  0.28889840420E+03  0.00000000000E+00 0. -1.
        -11    1    5    5    0    0 -0.26499293325E+02 -0.63437595517E+03 -0.26610232549E+03  0.68843700705E+03  0.00000000000E+00 0.  1.
          4    1    6    6  503    0 -0.39199700320E+02  0.31398705257E+02 -0.16471818478E+02  0.52856560624E+02  0.00000000000E+00 0. -1.
         -4    1    6    6    0  503 -0.16034309322E+03  0.81041898705E+02  0.10890264606E+03  0.21008922678E+03  0.00000000000E+00 0.  1.
<mgrwt>
<rscale>  0 0.20864691E+04</rscale>
<asrwt>0</asrwt>
<pdfrwt beam="1">  1        1 0.11429751E+00 0.20864691E+04</pdfrwt>
<pdfrwt beam="2">  1       -2 0.22537224E+00 0.20864691E+04</pdfrwt>
<totfact> 0.18322774E+00</totfact>
</mgrwt>
</event>
<event>
12    4  0.4280696E-008  0.3858054E+04  0.7818608E-02  0.8033810E-01
         -2   -1    0    0    0  501 -0.00000000000E+00  0.00000000000E+00  0.23451368744E+04  0.23451368744E+04  0.00000000000E+00 0.  1.
          1   -1    0    0  501    0  0.00000000000E+00 -0.00000000000E+00 -0.15867499169E+04  0.15867499169E+04  0.00000000000E+00 0. -1.
        -24    2    1    2    0    0 -0.52593205473E+03  0.12242768228E+03  0.21306733320E+04  0.21994153880E+04  0.77885414697E+02 0.  0.
        254    2    1    2    0    0  0.52593205473E+03 -0.12242768228E+03 -0.13722863746E+04  0.17324714033E+04  0.90922725753E+03 0.  0.
         23    2    4    4    0    0  0.19069491029E+03  0.83014057605E+02 -0.13060131315E+04  0.13256023472E+04  0.91079090557E+02 0.  0.
         23    2    4    4    0    0  0.33523714444E+03 -0.20544173989E+03 -0.66273243083E+02  0.40686905609E+03  0.80994040256E+02 0.  0.
          3    1    3    3  502    0 -0.55164281234E+02 -0.60248955206E+01  0.16518510152E+03  0.17425703731E+03  0.00000000000E+00 0. -1.
         -4    1    3    3    0  502 -0.47076777350E+03  0.12845257780E+03  0.19654882305E+04  0.20251583507E+04  0.00000000000E+00 0.  1.
         11    1    5    5    0    0  0.11389512510E+02  0.39028116026E+02 -0.17828803700E+03  0.18286481065E+03  0.00000000000E+00 0. -1.
        -11    1    5    5    0    0  0.17930539778E+03  0.43985941579E+02 -0.11277250945E+04  0.11427375365E+04  0.00000000000E+00 0.  1.
          1    1    6    6  503    0  0.59181043795E+02 -0.50597142500E+02 -0.44316132395E+02  0.89590101933E+02  0.00000000000E+00 0. -1.
         -1    1    6    6    0  503  0.27605610064E+03 -0.15484459739E+03 -0.21957110688E+02  0.31727895416E+03  0.00000000000E+00 0.  1.
<mgrwt>
<rscale>  0 0.38580543E+04</rscale>
<asrwt>0</asrwt>
<pdfrwt beam="1">  1        1 0.24411537E+00 0.38580543E+04</pdfrwt>
<pdfrwt beam="2">  1       -2 0.36079029E+00 0.38580543E+04</pdfrwt>
<totfact> 0.52656746E-02</totfact>
</mgrwt>
</event>
<event>
12    4  0.4280696E-008  0.1605848E+04  0.7818608E-02  0.8816963E-01
          1   -1    0    0  501    0  0.00000000000E+00  0.00000000000E+00  0.12860519759E+04  0.12860519759E+04  0.00000000000E+00 0. -1.
         -2   -1    0    0    0  501 -0.00000000000E+00 -0.00000000000E+00 -0.50129153817E+03  0.50129153817E+03  0.00000000000E+00 0.  1.
        -24    2    1    2    0    0 -0.22353466458E+03  0.16242966941E+03 -0.25367559470E+03  0.38368792203E+03  0.80709171650E+02 0.  0.
        254    2    1    2    0    0  0.22353466458E+03 -0.16242966941E+03  0.10384360325E+04  0.14036555921E+04  0.90307723030E+03 0.  0.
         23    2    4    4    0    0  0.35819504093E+03  0.26350834430E+03  0.70443233428E+03  0.83820323994E+03  0.92840847665E+02 0.  0.
         23    2    4    4    0    0 -0.13466037635E+03 -0.42593801371E+03  0.33400369818E+03  0.56545235215E+03  0.92850867875E+02 0.  0.
          1    1    3    3  502    0 -0.12462911156E+03  0.13382978434E+03 -0.18365982331E+03  0.25917900633E+03  0.00000000000E+00 0. -1.
         -2    1    3    3    0  502 -0.98905553022E+02  0.28599885078E+02 -0.70015771384E+02  0.12450891570E+03  0.00000000000E+00 0.  1.
         11    1    5    5    0    0  0.23264675542E+03  0.19843906387E+03  0.54637744734E+03  0.62612370170E+03  0.00000000000E+00 0. -1.
        -11    1    5    5    0    0  0.12554828551E+03  0.65069280432E+02  0.15805488695E+03  0.21207953823E+03  0.00000000000E+00 0.  1.
          3    1    6    6  503    0 -0.11549236400E+03 -0.41588793148E+03  0.30188342469E+03  0.52672085567E+03  0.00000000000E+00 0. -1.
         -3    1    6    6    0  503 -0.19168012347E+02 -0.10050082233E+02  0.32120273495E+02  0.38731496480E+02  0.00000000000E+00 0.  1.
<mgrwt>
<rscale>  0 0.16058480E+04</rscale>
<asrwt>0</asrwt>
<pdfrwt beam="1">  1        1 0.19785415E+00 0.16058480E+04</pdfrwt>
<pdfrwt beam="2">  1       -2 0.77121776E-01 0.16058480E+04</pdfrwt>
<totfact> 0.11686119E+01</totfact>
</mgrwt>
</event>
<event>
12    4  0.4280696E-008  0.1193259E+04  0.7818608E-02  0.9118777E-01
         -4   -1    0    0    0  501 -0.00000000000E+00  0.00000000000E+00  0.81644506997E+03  0.81644506997E+03  0.00000000000E+00 0.  1.
          3   -1    0    0  501    0  0.00000000000E+00 -0.00000000000E+00 -0.43599626742E+03  0.43599626742E+03  0.00000000000E+00 0. -1.
        -24    2    1    2    0    0  0.13374330626E+02 -0.19889296560E+03  0.23939258998E+03  0.32221758208E+03  0.82329056702E+02 0.  0.
        254    2    1    2    0    0 -0.13374330626E+02  0.19889296560E+03  0.14105621256E+03  0.93022375531E+03  0.89759795864E+03 0.  0.
         23    2    4    4    0    0 -0.19585479645E+03  0.50373664391E+03  0.13337948271E+03  0.56348218179E+03  0.87248925980E+02 0.  0.
         23    2    4    4    0    0  0.18248046582E+03 -0.30484367831E+03  0.76767298511E+01  0.36674157352E+03  0.90618215354E+02 0.  0.
          3    1    3    3  502    0  0.17436717816E+02 -0.16092149295E+03  0.13404308070E+03  0.21016020914E+03  0.00000000000E+00 0. -1.
         -4    1    3    3    0  502 -0.40623871906E+01 -0.37971472654E+02  0.10534950928E+03  0.11205737294E+03  0.00000000000E+00 0.  1.
         11    1    5    5    0    0 -0.19587334496E+03  0.42977082801E+03  0.12790072660E+03  0.48931373140E+03  0.00000000000E+00 0.  1.
        -11    1    5    5    0    0  0.18548506044E-01  0.73965815894E+02  0.54787561111E+01  0.74168450391E+02  0.00000000000E+00 0. -1.
          2    1    6    6  503    0  0.11511345344E+03 -0.16480497805E+03 -0.38385084694E+02  0.20465874689E+03  0.00000000000E+00 0.  1.
         -2    1    6    6    0  503  0.67367012381E+02 -0.14003870026E+03  0.46061814545E+02  0.16208282662E+03  0.00000000000E+00 0. -1.
<mgrwt>
<rscale>  0 0.11932594E+04</rscale>
<asrwt>0</asrwt>
<pdfrwt beam="1">  1        3 0.67076349E-01 0.11932594E+04</pdfrwt>
<pdfrwt beam="2">  1       -4 0.12560693E+00 0.11932594E+04</pdfrwt>
<totfact> 0.22798759E+00</totfact>
</mgrwt>
</event>
<event>
12    4  0.4280696E-008  0.3306189E+04  0.7818608E-02  0.8161322E-01
          1   -1    0    0  501    0  0.00000000000E+00  0.00000000000E+00  0.20229305508E+04  0.20229305508E+04  0.00000000000E+00 0. -1.
         -2   -1    0    0    0  501 -0.00000000000E+00 -0.00000000000E+00 -0.13508722481E+04  0.13508722481E+04  0.00000000000E+00 0.  1.
        -24    2    1    2    0    0 -0.61496796943E+03  0.13245974709E+04 -0.15409646527E+03  0.14706596429E+04  0.79686895065E+02 0.  0.
        254    2    1    2    0    0  0.61496796943E+03 -0.13245974709E+04  0.82615476790E+03  0.19031431560E+04  0.89815260855E+03 0.  0.
         23    2    4    4    0    0  0.88043067206E+02 -0.10929824012E+04  0.36313231041E+03  0.11585901217E+04  0.90021576350E+02 0.  0.
         23    2    4    4    0    0  0.52692490222E+03 -0.23161506973E+03  0.46302245749E+03  0.74455303430E+03  0.93134481414E+02 0.  0.
          1    1    3    3  502    0 -0.47566709039E+03  0.10190504617E+04 -0.84883603597E+02  0.11277979653E+04  0.00000000000E+00 0. -1.
         -2    1    3    3    0  502 -0.13930087903E+03  0.30554700921E+03 -0.69212861677E+02  0.34286167759E+03  0.00000000000E+00 0.  1.
         11    1    5    5    0    0  0.10355777135E+03 -0.83327905782E+03  0.26464567217E+03  0.88040645841E+03  0.00000000000E+00 0.  1.
        -11    1    5    5    0    0 -0.15514704148E+02 -0.25970334338E+03  0.98486638233E+02  0.27818366328E+03  0.00000000000E+00 0. -1.
          3    1    6    6  503    0  0.36243863257E+03 -0.18269544718E+03  0.27658521549E+03  0.49116063587E+03  0.00000000000E+00 0. -1.
         -3    1    6    6    0  503  0.16448626965E+03 -0.48919622550E+02  0.18643724201E+03  0.25339239843E+03  0.00000000000E+00 0.  1.
<mgrwt>
<rscale>  0 0.33061886E+04</rscale>
<asrwt>0</asrwt>
<pdfrwt beam="1">  1        1 0.31122009E+00 0.33061886E+04</pdfrwt>
<pdfrwt beam="2">  1       -2 0.20782650E+00 0.33061886E+04</pdfrwt>
<totfact> 0.24790724E-01</totfact>
</mgrwt>
</event>
<event>
12    4  0.4280696E-008  0.2359481E+04  0.7818608E-02  0.8454831E-01
         -2   -1    0    0    0  501 -0.00000000000E+00  0.00000000000E+00  0.74605640809E+03  0.74605640809E+03  0.00000000000E+00 0.  1.
          1   -1    0    0  501    0  0.00000000000E+00 -0.00000000000E+00 -0.18655259198E+04  0.18655259198E+04  0.00000000000E+00 0. -1.
        -24    2    1    2    0    0 -0.78268930103E+03  0.61984297569E+03 -0.62255017444E+03  0.11793038787E+04  0.79881551059E+02 0.  0.
        254    2    1    2    0    0  0.78268930103E+03 -0.61984297569E+03 -0.49691933723E+03  0.14322784491E+04  0.89871289725E+03 0.  0.
         23    2    4    4    0    0  0.71915216976E+03 -0.67682347189E+03 -0.77550244869E+02  0.99483566835E+03  0.91728464338E+02 0.  0.
         23    2    4    4    0    0  0.63537131272E+02  0.56980496202E+02 -0.41936909236E+03  0.43744278079E+03  0.90564931602E+02 0.  0.
          1    1    3    3  502    0 -0.75467382575E+03  0.57836507713E+03 -0.58115950079E+03  0.11143541228E+04  0.00000000000E+00 0. -1.
         -2    1    3    3    0  502 -0.28015475281E+02  0.41477898557E+02 -0.41390673651E+02  0.64949755882E+02  0.00000000000E+00 0.  1.
         11    1    5    5    0    0  0.30521971400E+03 -0.34884532297E+03 -0.27116647715E+02  0.46431395171E+03  0.00000000000E+00 0. -1.
        -11    1    5    5    0    0  0.41393245576E+03 -0.32797814892E+03 -0.50433597154E+02  0.53052171664E+03  0.00000000000E+00 0.  1.
          3    1    6    6  503    0  0.13108586737E+02  0.37925561828E+02 -0.33451037711E+03  0.33690855685E+03  0.00000000000E+00 0. -1.
         -3    1    6    6    0  503  0.50428544535E+02  0.19054934374E+02 -0.84858715257E+02  0.10053422394E+03  0.00000000000E+00 0.  1.
<mgrwt>
<rscale>  0 0.23594809E+04</rscale>
<asrwt>0</asrwt>
<pdfrwt beam="1">  1        1 0.28700399E+00 0.23594809E+04</pdfrwt>
<pdfrwt beam="2">  1       -2 0.11477791E+00 0.23594809E+04</pdfrwt>
<totfact> 0.17208870E+00</totfact>
</mgrwt>
</event>
<event>
12    4  0.4280696E-008  0.1184798E+04  0.7818608E-02  0.9126268E-01
          1   -1    0    0  501    0  0.00000000000E+00  0.00000000000E+00  0.32216608052E+03  0.32216608052E+03  0.00000000000E+00 0. -1.
         -2   -1    0    0    0  501 -0.00000000000E+00 -0.00000000000E+00 -0.10893027094E+04  0.10893027094E+04  0.00000000000E+00 0.  1.
        -24    2    1    2    0    0  0.11759911347E+03  0.16252130883E+03  0.43987458135E+01  0.21529010745E+03  0.78024060968E+02 0.  0.
        254    2    1    2    0    0 -0.11759911347E+03 -0.16252130883E+03 -0.77153537468E+03  0.11961786825E+04  0.89181493521E+03 0.  0.
         23    2    4    4    0    0 -0.39587876947E+03  0.15483502055E+03 -0.57926320628E+03  0.72419076345E+03  0.90622933078E+02 0.  0.
         23    2    4    4    0    0  0.27827965600E+03 -0.31735632938E+03 -0.19227216840E+03  0.47198791901E+03  0.87460861028E+02 0.  0.
          3    1    3    3  502    0  0.76788083608E+02  0.12886022248E+03 -0.28924437006E+02  0.15276776420E+03  0.00000000000E+00 0. -1.
         -2    1    3    3    0  502  0.40811029863E+02  0.33661086341E+02  0.33323182820E+02  0.62522343249E+02  0.00000000000E+00 0.  1.
         11    1    5    5    0    0 -0.39580641738E+03  0.15698985443E+03 -0.55348428274E+03  0.69832183531E+03  0.00000000000E+00 0.  1.
        -11    1    5    5    0    0 -0.72352096841E-01 -0.21548338815E+01 -0.25778923543E+02  0.25868928137E+02  0.00000000000E+00 0. -1.
          4    1    6    6  503    0  0.18315260989E+03 -0.17703880883E+03 -0.73922689256E+02  0.26523985811E+03  0.00000000000E+00 0.  1.
         -4    1    6    6    0  503  0.95127046112E+02 -0.14031752054E+03 -0.11834947914E+03  0.20674806090E+03  0.00000000000E+00 0. -1.
<mgrwt>
<rscale>  0 0.11847977E+04</rscale>
<asrwt>0</asrwt>
<pdfrwt beam="1">  1        1 0.49564013E-01 0.11847977E+04</pdfrwt>
<pdfrwt beam="2">  1       -2 0.16758503E+00 0.11847977E+04</pdfrwt>
<totfact> 0.15301308E+01</totfact>
</mgrwt>
</event>
<event>
12    4  0.4280696E-008  0.2185039E+04  0.7818608E-02  0.8524681E-01
         -2   -1    0    0    0  501 -0.00000000000E+00  0.00000000000E+00  0.20211091659E+04  0.20211091659E+04  0.00000000000E+00 0.  1.
          1   -1    0    0  501    0  0.00000000000E+00 -0.00000000000E+00 -0.59056602337E+03  0.59056602337E+03  0.00000000000E+00 0. -1.
        -24    2    1    2    0    0 -0.46039385149E+03  0.60953769101E+03  0.42394737441E+02  0.76922270230E+03  0.80047215535E+02 0.  0.
        254    2    1    2    0    0  0.46039385149E+03 -0.60953769101E+03  0.13881484050E+04  0.18424524869E+04  0.94030658666E+03 0.  0.
         23    2    4    4    0    0  0.19041496040E+03 -0.71867934876E+03  0.13375530719E+04  0.15332252097E+04  0.94728349441E+02 0.  0.
         23    2    4    4    0    0  0.26997889110E+03  0.10914165775E+03  0.50595333191E+02  0.30922727722E+03  0.90890693386E+02 0.  0.
          3    1    3    3  502    0 -0.43619324721E+03  0.57899774151E+03  0.22017489343E+02  0.72525009716E+03  0.00000000000E+00 0. -1.
         -4    1    3    3    0  502 -0.24200604281E+02  0.30539949500E+02  0.20377248098E+02  0.43972605143E+02  0.00000000000E+00 0.  1.
         11    1    5    5    0    0  0.10950795464E+03 -0.37835389021E+03  0.61282383411E+03  0.72848933418E+03  0.00000000000E+00 0. -1.
        -11    1    5    5    0    0  0.80907005753E+02 -0.34032545855E+03  0.72472923774E+03  0.80473587552E+03  0.00000000000E+00 0.  1.
          3    1    6    6  503    0  0.14897149878E+03  0.10719005138E+03  0.39217163651E+02  0.18767045715E+03  0.00000000000E+00 0. -1.
         -3    1    6    6    0  503  0.12100739232E+03  0.19516063646E+01  0.11378169540E+02  0.12155682007E+03  0.00000000000E+00 0.  1.
<mgrwt>
<rscale>  0 0.21850386E+04</rscale>
<asrwt>0</asrwt>
<pdfrwt beam="1">  1        1 0.90856312E-01 0.21850386E+04</pdfrwt>
<pdfrwt beam="2">  1       -2 0.31093987E+00 0.21850386E+04</pdfrwt>
<totfact> 0.76364084E-01</totfact>
</mgrwt>
</event>
<event>
12    4  0.4280696E-008  0.2862560E+04  0.7818608E-02  0.8284105E-01
          1   -1    0    0  501    0  0.00000000000E+00  0.00000000000E+00  0.26693407739E+04  0.26693407739E+04  0.00000000000E+00 0. -1.
         -2   -1    0    0    0  501 -0.00000000000E+00 -0.00000000000E+00 -0.76744145372E+03  0.76744145372E+03  0.00000000000E+00 0.  1.
        -24    2    1    2    0    0  0.82141409600E+03 -0.72568859283E+03  0.59419011084E+02  0.11005503139E+04  0.79594746440E+02 0.  0.
        254    2    1    2    0    0 -0.82141409600E+03  0.72568859283E+03  0.18424803091E+04  0.23362319137E+04  0.92838613431E+03 0.  0.
         23    2    4    4    0    0 -0.74122622340E+03  0.82804772858E+03  0.10634939684E+04  0.15408136529E+04  0.89487076659E+02 0.  0.
         23    2    4    4    0    0 -0.80187872595E+02 -0.10235913575E+03  0.77898634061E+03  0.79541826081E+03  0.94673138713E+02 0.  0.
          1    1    3    3  502    0  0.27812116444E+03 -0.21364425890E+03  0.47356628042E+02  0.35388967446E+03  0.00000000000E+00 0. -1.
         -2    1    3    3    0  502  0.54329293156E+03 -0.51204433393E+03  0.12062383042E+02  0.74666063944E+03  0.00000000000E+00 0.  1.
         11    1    5    5    0    0 -0.57861546611E+03  0.61445270594E+03  0.84963601456E+03  0.11975931457E+04  0.00000000000E+00 0.  1.
        -11    1    5    5    0    0 -0.16261075729E+03  0.21359502263E+03  0.21385795389E+03  0.34322050714E+03  0.00000000000E+00 0. -1.
          1    1    6    6  503    0  0.10379468498E+02  0.86780107073E+01  0.30889887617E+02  0.33722787446E+02  0.00000000000E+00 0. -1.
         -1    1    6    6    0  503 -0.90567341093E+02 -0.11103714646E+03  0.74809645299E+03  0.76169547336E+03  0.00000000000E+00 0.  1.
<mgrwt>
<rscale>  0 0.28625602E+04</rscale>
<asrwt>0</asrwt>
<pdfrwt beam="1">  1        1 0.41066781E+00 0.28625602E+04</pdfrwt>
<pdfrwt beam="2">  1       -2 0.11806792E+00 0.28625602E+04</pdfrwt>
<totfact> 0.43177595E-01</totfact>
</mgrwt>
</event>
<event>
12    4  0.4280696E-008  0.2984254E+04  0.7818608E-02  0.8248241E-01
         -2   -1    0    0    0  501 -0.00000000000E+00  0.00000000000E+00  0.14213529408E+04  0.14213529408E+04  0.00000000000E+00 0.  1.
          1   -1    0    0  501    0  0.00000000000E+00 -0.00000000000E+00 -0.15664254749E+04  0.15664254749E+04  0.00000000000E+00 0. -1.
        -24    2    1    2    0    0 -0.10939428241E+04  0.48991700309E+03  0.56931782167E+03  0.13289653149E+04  0.72776739657E+02 0.  0.
        254    2    1    2    0    0  0.10939428241E+04 -0.48991700309E+03 -0.71439035580E+03  0.16588131008E+04  0.89698258091E+03 0.  0.
         23    2    4    4    0    0  0.10955050698E+04 -0.64515963548E+03 -0.47641260548E+03  0.13607469649E+04  0.91109925950E+02 0.  0.
         23    2    4    4    0    0 -0.15622457010E+01  0.15524263239E+03 -0.23797775032E+03  0.29806613585E+03  0.90040525149E+02 0.  0.
          3    1    3    3  502    0 -0.80186620309E+03  0.37321478064E+03  0.38709903322E+03  0.96546586769E+03  0.00000000000E+00 0. -1.
         -4    1    3    3    0  502 -0.29207662105E+03  0.11670222245E+03  0.18221878845E+03  0.36349944725E+03  0.00000000000E+00 0.  1.
         11    1    5    5    0    0  0.71190617341E+03 -0.42894177639E+03 -0.26563766410E+03  0.87256221317E+03  0.00000000000E+00 0. -1.
        -11    1    5    5    0    0  0.38359889644E+03 -0.21621785909E+03 -0.21077494139E+03  0.48818475176E+03  0.00000000000E+00 0.  1.
          1    1    6    6  503    0  0.41769514692E+02  0.91887216007E+02 -0.15560534959E+03  0.18547500544E+03  0.00000000000E+00 0. -1.
         -1    1    6    6    0  503 -0.43331760393E+02  0.63355416384E+02 -0.82372400732E+02  0.11259113041E+03  0.00000000000E+00 0.  1.
<mgrwt>
<rscale>  0 0.29842543E+04</rscale>
<asrwt>0</asrwt>
<pdfrwt beam="1">  1        1 0.24098853E+00 0.29842543E+04</pdfrwt>
<pdfrwt beam="2">  1       -2 0.21866968E+00 0.29842543E+04</pdfrwt>
<totfact> 0.44397459E-01</totfact>
</mgrwt>
</event>
<event>
12    4  0.4280696E-008  0.1602121E+04  0.7818608E-02  0.8819246E-01
         -2   -1    0    0    0  501 -0.00000000000E+00  0.00000000000E+00  0.68954263404E+03  0.68954263404E+03  0.00000000000E+00 0.  1.
          1   -1    0    0  501    0  0.00000000000E+00 -0.00000000000E+00 -0.93061331907E+03  0.93061331907E+03  0.00000000000E+00 0. -1.
        -24    2    1    2    0    0 -0.33006202304E+03  0.21695742561E+03 -0.46541685056E+03  0.61595286353E+03  0.82302015272E+02 0.  0.
        254    2    1    2    0    0  0.33006202304E+03 -0.21695742561E+03  0.22434616554E+03  0.10042030896E+04  0.89558985007E+03 0.  0.
         23    2    4    4    0    0  0.48846106112E+03 -0.21065157892E+03  0.45888817577E+03  0.70707426223E+03  0.80045977528E+02 0.  0.
         23    2    4    4    0    0 -0.15839903808E+03 -0.63058466881E+01 -0.23454201023E+03  0.29712882735E+03  0.90252792291E+02 0.  0.
          3    1    3    3  502    0 -0.32574118263E+03  0.22387624052E+03 -0.45734746265E+03  0.60447877607E+03  0.00000000000E+00 0. -1.
         -4    1    3    3    0  502 -0.43208404115E+01 -0.69188149098E+01 -0.80693879152E+01  0.11474087456E+02  0.00000000000E+00 0.  1.
         11    1    5    5    0    0  0.36483732658E+03 -0.11946821034E+03  0.34025684813E+03  0.51298503959E+03  0.00000000000E+00 0. -1.
        -11    1    5    5    0    0  0.12362373454E+03 -0.91183368576E+02  0.11863132764E+03  0.19408922264E+03  0.00000000000E+00 0.  1.
          4    1    6    6  503    0 -0.14774021264E+03 -0.15627681636E+02 -0.14895442229E+03  0.21037779061E+03  0.00000000000E+00 0. -1.
         -4    1    6    6    0  503 -0.10658825439E+02  0.93218349478E+01 -0.85587587937E+02  0.86751036739E+02  0.00000000000E+00 0.  1.
<mgrwt>
<rscale>  0 0.16021205E+04</rscale>
<asrwt>0</asrwt>
<pdfrwt beam="1">  1        1 0.14317128E+00 0.16021205E+04</pdfrwt>
<pdfrwt beam="2">  1       -2 0.10608348E+00 0.16021205E+04</pdfrwt>
<totfact> 0.10360132E+01</totfact>
</mgrwt>
</event>
<event>
12    4  0.4280696E-008  0.1429228E+04  0.7818608E-02  0.8932929E-01
         -2   -1    0    0    0  501 -0.00000000000E+00  0.00000000000E+00  0.29042449350E+03  0.29042449350E+03  0.00000000000E+00 0.  1.
          1   -1    0    0  501    0  0.00000000000E+00 -0.00000000000E+00 -0.17583689347E+04  0.17583689347E+04  0.00000000000E+00 0. -1.
        -24    2    1    2    0    0 -0.29651464044E+03 -0.88647882486E+01 -0.87397110161E+03  0.92557544639E+03  0.69748864145E+02 0.  0.
        254    2    1    2    0    0  0.29651464044E+03  0.88647882486E+01 -0.59397333962E+03  0.11232179818E+04  0.90598829467E+03 0.  0.
         23    2    4    4    0    0  0.78585520479E+02  0.26626532785E+03 -0.69947149716E+03  0.75794777878E+03  0.90285941155E+02 0.  0.
         23    2    4    4    0    0  0.21792911996E+03 -0.25740053960E+03  0.10549815754E+03  0.36527020306E+03  0.92435495824E+02 0.  0.
          1    1    3    3  502    0 -0.28452627575E+03 -0.18770062834E+02 -0.85346947179E+03  0.89984312862E+03  0.00000000000E+00 0. -1.
         -2    1    3    3    0  502 -0.11988364691E+02  0.99052745853E+01 -0.20501629819E+02  0.25732317770E+02  0.00000000000E+00 0.  1.
         11    1    5    5    0    0  0.28433085639E+02  0.25141692025E+02 -0.46186319901E+02  0.59780608753E+02  0.00000000000E+00 0. -1.
        -11    1    5    5    0    0  0.50152434839E+02  0.24112363582E+03 -0.65328517726E+03  0.69816717002E+03  0.00000000000E+00 0.  1.
          3    1    6    6  503    0  0.60215499503E+02 -0.11470799698E+03  0.40151480372E+01  0.12961463021E+03  0.00000000000E+00 0. -1.
         -3    1    6    6    0  503  0.15771362046E+03 -0.14269254262E+03  0.10148300950E+03  0.23565557285E+03  0.00000000000E+00 0.  1.
<mgrwt>
<rscale>  0 0.14292283E+04</rscale>
<asrwt>0</asrwt>
<pdfrwt beam="1">  1        1 0.27051829E+00 0.14292283E+04</pdfrwt>
<pdfrwt beam="2">  1       -2 0.44680692E-01 0.14292283E+04</pdfrwt>
<totfact> 0.17643210E+01</totfact>
</mgrwt>
</event>
<event>
12    4  0.4280696E-008  0.1782657E+04  0.7818608E-02  0.8715577E-01
         -2   -1    0    0    0  501 -0.00000000000E+00  0.00000000000E+00  0.98786712315E+03  0.98786712315E+03  0.00000000000E+00 0.  1.
          1   -1    0    0  501    0  0.00000000000E+00 -0.00000000000E+00 -0.80422413072E+03  0.80422413072E+03  0.00000000000E+00 0. -1.
        -24    2    1    2    0    0 -0.45780881521E+03 -0.35126988462E+03 -0.26227117322E+03  0.63895344720E+03  0.80597123189E+02 0.  0.
        254    2    1    2    0    0  0.45780881521E+03  0.35126988462E+03  0.44591416565E+03  0.11531378067E+04  0.89325691428E+03 0.  0.
         23    2    4    4    0    0  0.10347495564E+03  0.59502448384E+03  0.34559390575E+03  0.70147167910E+03  0.88691409256E+02 0.  0.
         23    2    4    4    0    0  0.35433385956E+03 -0.24375459921E+03  0.10032025990E+03  0.45166612756E+03  0.94706639530E+02 0.  0.
          1    1    3    3  502    0 -0.37994436784E+03 -0.31088857221E+03 -0.19426858849E+03  0.52796752879E+03  0.00000000000E+00 0. -1.
         -2    1    3    3    0  502 -0.77864447367E+02 -0.40381312420E+02 -0.68002584732E+02  0.11098591842E+03  0.00000000000E+00 0.  1.
         11    1    5    5    0    0  0.82131814867E+02  0.54295735970E+03  0.33766486538E+03  0.64464400314E+03  0.00000000000E+00 0.  1.
        -11    1    5    5    0    0  0.21343140776E+02  0.52067124134E+02  0.79290403643E+01  0.56827675959E+02  0.00000000000E+00 0. -1.
          1    1    6    6  503    0  0.11753889113E+03 -0.13731629834E+03  0.39315407307E+02  0.18497799321E+03  0.00000000000E+00 0. -1.
         -1    1    6    6    0  503  0.23679496843E+03 -0.10643830087E+03  0.61004852597E+02  0.26668813436E+03  0.00000000000E+00 0.  1.
<mgrwt>
<rscale>  0 0.17826571E+04</rscale>
<asrwt>0</asrwt>
<pdfrwt beam="1">  1        1 0.12372679E+00 0.17826571E+04</pdfrwt>
<pdfrwt beam="2">  1       -2 0.15197956E+00 0.17826571E+04</pdfrwt>
<totfact> 0.52494304E+00</totfact>
</mgrwt>
</event>
<event>
12    4  0.4280696E-008  0.2295195E+04  0.7818608E-02  0.8479818E-01
         -2   -1    0    0    0  501 -0.00000000000E+00  0.00000000000E+00  0.59946943182E+03  0.59946943182E+03  0.00000000000E+00 0.  1.
          1   -1    0    0  501    0  0.00000000000E+00 -0.00000000000E+00 -0.21969099140E+04  0.21969099140E+04  0.00000000000E+00 0. -1.
        -24    2    1    2    0    0 -0.38637287093E+02 -0.57263738554E+03  0.27354825318E+03  0.64360758731E+03  0.99978319410E+02 0.  0.
        254    2    1    2    0    0  0.38637287093E+02  0.57263738554E+03 -0.18709887354E+04  0.21527717585E+04  0.89689518959E+03 0.  0.
         23    2    4    4    0    0 -0.16420969194E+03  0.63536806922E+02 -0.14316786369E+04  0.14453979741E+04  0.92031708487E+02 0.  0.
         23    2    4    4    0    0  0.20284697903E+03  0.50910057862E+03 -0.43931009850E+03  0.70737378446E+03  0.83988167287E+02 0.  0.
          3    1    3    3  502    0  0.21914406914E+02 -0.33880794978E+02  0.21746498874E+02  0.45837317897E+02  0.00000000000E+00 0. -1.
         -4    1    3    3    0  502 -0.60551694007E+02 -0.53875659057E+03  0.25180175431E+03  0.59777026942E+03  0.00000000000E+00 0.  1.
         11    1    5    5    0    0  0.81273738272E+01 -0.57706069479E+01 -0.34024880612E+02  0.35454853131E+02  0.00000000000E+00 0. -1.
        -11    1    5    5    0    0 -0.17233706577E+03  0.69307413870E+02 -0.13976537563E+04  0.14099431209E+04  0.00000000000E+00 0.  1.
          1    1    6    6  503    0  0.41036861049E+02  0.17494890055E+03 -0.10722294192E+03  0.20925558784E+03  0.00000000000E+00 0. -1.
         -1    1    6    6    0  503  0.16181011798E+03  0.33415167807E+03 -0.33208715658E+03  0.49811819662E+03  0.00000000000E+00 0.  1.
<mgrwt>
<rscale>  0 0.22951953E+04</rscale>
<asrwt>0</asrwt>
<pdfrwt beam="1">  1        1 0.33798614E+00 0.22951953E+04</pdfrwt>
<pdfrwt beam="2">  1       -2 0.92226066E-01 0.22951953E+04</pdfrwt>
<totfact> 0.17369093E+00</totfact>
</mgrwt>
</event>
<event>
12    4  0.4280696E-008  0.2384067E+04  0.7818608E-02  0.8445493E-01
         -2   -1    0    0    0  501 -0.00000000000E+00  0.00000000000E+00  0.96322585043E+03  0.96322585043E+03  0.00000000000E+00 0.  1.
          1   -1    0    0  501    0  0.00000000000E+00 -0.00000000000E+00 -0.14751933516E+04  0.14751933516E+04  0.00000000000E+00 0. -1.
        -24    2    1    2    0    0  0.36556117333E+03  0.41176361571E+03 -0.10981670103E+04  0.12314804585E+04  0.85959818282E+02 0.  0.
        254    2    1    2    0    0 -0.36556117333E+03 -0.41176361571E+03  0.58619950911E+03  0.12069387436E+04  0.89993723094E+03 0.  0.
         23    2    4    4    0    0  0.54868744765E+02 -0.36546276686E+03 -0.10257909777E+03  0.39409071020E+03  0.90616794529E+02 0.  0.
         23    2    4    4    0    0 -0.42042991809E+03 -0.46300848853E+02  0.68877860689E+03  0.81284803340E+03  0.86028317801E+02 0.  0.
          3    1    3    3  502    0  0.32266542427E+03  0.31268402633E+03 -0.88816851540E+03  0.99535299673E+03  0.00000000000E+00 0. -1.
         -4    1    3    3    0  502  0.42895749053E+02  0.99079589381E+02 -0.20999849494E+03  0.23612746175E+03  0.00000000000E+00 0.  1.
         11    1    5    5    0    0  0.62439471934E+02 -0.36557623372E+03 -0.93899252513E+02  0.38257252899E+03  0.00000000000E+00 0.  1.
        -11    1    5    5    0    0 -0.75707271683E+01  0.11346685843E+00 -0.86798452604E+01  0.11518181208E+02  0.00000000000E+00 0. -1.
          1    1    6    6  503    0 -0.92137350753E+01  0.77065930712E+01  0.47768701225E+01  0.12926831745E+02  0.00000000000E+00 0. -1.
         -1    1    6    6    0  503 -0.41121618302E+03 -0.54007441924E+02  0.68400173676E+03  0.79992120165E+03  0.00000000000E+00 0.  1.
<mgrwt>
<rscale>  0 0.23840674E+04</rscale>
<asrwt>0</asrwt>
<pdfrwt beam="1">  1        1 0.22695282E+00 0.23840674E+04</pdfrwt>
<pdfrwt beam="2">  1       -2 0.14818859E+00 0.23840674E+04</pdfrwt>
<totfact> 0.16593235E+00</totfact>
</mgrwt>
</event>
<event>
12    4  0.4517577E-008  0.2126645E+04  0.7818608E-02  0.8549596E-01
         -2   -1    0    0    0  501 -0.00000000000E+00  0.00000000000E+00  0.11334251937E+04  0.11334251937E+04  0.00000000000E+00 0.  1.
          1   -1    0    0  501    0  0.00000000000E+00 -0.00000000000E+00 -0.99755592609E+03  0.99755592609E+03  0.00000000000E+00 0. -1.
        -24    2    1    2    0    0 -0.67032701986E+02 -0.65628614510E+03 -0.51294761815E+03  0.83960080720E+03  0.81298026443E+02 0.  0.
        254    2    1    2    0    0  0.67032701986E+02  0.65628614510E+03  0.64881688577E+03  0.12913803126E+04  0.90083010226E+03 0.  0.
         23    2    4    4    0    0  0.82274334714E+02 -0.35021627719E+02  0.57659285966E+03  0.59075619766E+03  0.92401183451E+02 0.  0.
         23    2    4    4    0    0 -0.15241632728E+02  0.69130777282E+03  0.72224026108E+02  0.70062411494E+03  0.86712723165E+02 0.  0.
          3    1    3    3  502    0 -0.52771131864E+02 -0.62295653155E+03 -0.46337978668E+03  0.77819050320E+03  0.00000000000E+00 0. -1.
         -4    1    3    3    0  502 -0.14261570122E+02 -0.33329613551E+02 -0.49567831469E+02  0.61410304008E+02  0.00000000000E+00 0.  1.
         11    1    5    5    0    0  0.50943563268E+02  0.59046741776E+01  0.11048694076E+03  0.12180917820E+03  0.00000000000E+00 0. -1.
        -11    1    5    5    0    0  0.31330771446E+02 -0.40926301896E+02  0.46610591890E+03  0.46894701946E+03  0.00000000000E+00 0.  1.
          4    1    6    6  503    0 -0.69808328825E+01  0.68785873429E+02  0.33544550153E+02  0.76847025031E+02  0.00000000000E+00 0. -1.
         -4    1    6    6    0  503 -0.82607998453E+01  0.62252189939E+03  0.38679475955E+02  0.62377708991E+03  0.00000000000E+00 0.  1.
<mgrwt>
<rscale>  0 0.21266453E+04</rscale>
<asrwt>0</asrwt>
<pdfrwt beam="1">  1        1 0.15347014E+00 0.21266453E+04</pdfrwt>
<pdfrwt beam="2">  1       -2 0.17437311E+00 0.21266453E+04</pdfrwt>
<totfact> 0.24262774E+00</totfact>
</mgrwt>
</event>
<event>
12    4  0.4280696E-008  0.2896970E+04  0.7818608E-02  0.8273779E-01
         -2   -1    0    0    0  501 -0.00000000000E+00  0.00000000000E+00  0.17069579939E+04  0.17069579939E+04  0.00000000000E+00 0.  1.
          1   -1    0    0  501    0  0.00000000000E+00 -0.00000000000E+00 -0.12291511267E+04  0.12291511267E+04  0.00000000000E+00 0. -1.
        -24    2    1    2    0    0 -0.84444570298E+03  0.81122175609E+03 -0.34371235575E+03  0.12229046649E+04  0.78666085852E+02 0.  0.
        254    2    1    2    0    0  0.84444570298E+03 -0.81122175609E+03  0.82151922297E+03  0.17132044557E+04  0.94287135412E+03 0.  0.
         23    2    4    4    0    0  0.35620215691E+03 -0.23737836851E+03  0.84765044785E+03  0.95400902529E+03  0.91615894787E+02 0.  0.
         23    2    4    4    0    0  0.48824354607E+03 -0.57384338757E+03 -0.26131224875E+02  0.75919543039E+03  0.89536958127E+02 0.  0.
          3    1    3    3  502    0 -0.54574410698E+03  0.48963408701E+03 -0.24483587177E+03  0.77299597255E+03  0.00000000000E+00 0. -1.
         -4    1    3    3    0  502 -0.29870159600E+03  0.32158766908E+03 -0.98876483979E+02  0.44990869233E+03  0.00000000000E+00 0.  1.
         11    1    5    5    0    0  0.80928567631E+02 -0.45114219417E+02  0.11202184032E+03  0.14537406427E+03  0.00000000000E+00 0. -1.
        -11    1    5    5    0    0  0.27527358928E+03 -0.19226414910E+03  0.73562860753E+03  0.80863496103E+03  0.00000000000E+00 0.  1.
          1    1    6    6  503    0  0.90723873993E+02 -0.61554045856E+02  0.75210160606E+01  0.10989216331E+03  0.00000000000E+00 0. -1.
         -1    1    6    6    0  503  0.39751967208E+03 -0.51228934172E+03 -0.33652240936E+02  0.64930326708E+03  0.00000000000E+00 0.  1.
<mgrwt>
<rscale>  0 0.28969704E+04</rscale>
<asrwt>0</asrwt>
<pdfrwt beam="1">  1        1 0.18910017E+00 0.28969704E+04</pdfrwt>
<pdfrwt beam="2">  1       -2 0.26260892E+00 0.28969704E+04</pdfrwt>
<totfact> 0.41237710E-01</totfact>
</mgrwt>
</event>
<event>
12    4  0.4280696E-008  0.2196061E+04  0.7818608E-02  0.8520070E-01
         -4   -1    0    0    0  501 -0.00000000000E+00  0.00000000000E+00  0.10760467143E+04  0.10760467143E+04  0.00000000000E+00 0.  1.
          3   -1    0    0  501    0  0.00000000000E+00 -0.00000000000E+00 -0.11204629940E+04  0.11204629940E+04  0.00000000000E+00 0. -1.
        -24    2    1    2    0    0  0.17712895978E+03 -0.55031489785E+03  0.68891529966E+03  0.90289881682E+03  0.80005175683E+02 0.  0.
        254    2    1    2    0    0 -0.17712895978E+03  0.55031489785E+03 -0.73333157940E+03  0.12936108914E+04  0.89522777992E+03 0.  0.
         23    2    4    4    0    0  0.18245217969E+03  0.64527481023E+03 -0.53136858349E+03  0.86072699448E+03  0.93968127069E+02 0.  0.
         23    2    4    4    0    0 -0.35958113948E+03 -0.94959912387E+02 -0.20196299591E+03  0.43288389697E+03  0.91013382058E+02 0.  0.
          3    1    3    3  502    0  0.11146416790E+03 -0.26372094451E+03  0.29200599123E+03  0.40895048137E+03  0.00000000000E+00 0. -1.
         -2    1    3    3    0  502  0.65664791883E+02 -0.28659395334E+03  0.39690930843E+03  0.49394833546E+03  0.00000000000E+00 0.  1.
         11    1    5    5    0    0  0.10439493126E+03  0.22165362733E+03 -0.16668493593E+03  0.29633173986E+03  0.00000000000E+00 0.  1.
        -11    1    5    5    0    0  0.78057248429E+02  0.42362118290E+03 -0.36468364757E+03  0.56439525462E+03  0.00000000000E+00 0. -1.
          1    1    6    6  503    0 -0.61479837172E+02  0.16826978883E+01 -0.69100683141E+02  0.92506790353E+02  0.00000000000E+00 0. -1.
         -1    1    6    6    0  503 -0.29810130230E+03 -0.96642610275E+02 -0.13286231277E+03  0.34037710662E+03  0.00000000000E+00 0.  1.
<mgrwt>
<rscale>  0 0.21960606E+04</rscale>
<asrwt>0</asrwt>
<pdfrwt beam="1">  1        3 0.17237892E+00 0.21960606E+04</pdfrwt>
<pdfrwt beam="2">  1       -4 0.16554565E+00 0.21960606E+04</pdfrwt>
<totfact> 0.10644287E-01</totfact>
</mgrwt>
</event>
<event>
12    4  0.4280696E-008  0.1439340E+04  0.7818608E-02  0.8925824E-01
          1   -1    0    0  501    0  0.00000000000E+00  0.00000000000E+00  0.15257940673E+04  0.15257940673E+04  0.00000000000E+00 0. -1.
         -2   -1    0    0    0  501 -0.00000000000E+00 -0.00000000000E+00 -0.33944610913E+03  0.33944610913E+03  0.00000000000E+00 0.  1.
        -24    2    1    2    0    0  0.44215058327E+03  0.50305194295E+02  0.36671176391E+03  0.58226840236E+03  0.80815986907E+02 0.  0.
        254    2    1    2    0    0 -0.44215058327E+03 -0.50305194295E+02  0.81963619425E+03  0.12829717741E+04  0.88101380876E+03 0.  0.
         23    2    4    4    0    0  0.25741338117E+03 -0.38911343189E+02  0.17337635367E+03  0.32690116010E+03  0.95022455406E+02 0.  0.
         23    2    4    4    0    0 -0.69956396444E+03 -0.11393851106E+02  0.64625984058E+03  0.95607061395E+03  0.83064295142E+02 0.  0.
          3    1    3    3  502    0  0.11033487109E+03  0.77283648048E+01  0.49237524078E+02  0.12106958817E+03  0.00000000000E+00 0. -1.
         -4    1    3    3    0  502  0.33181571217E+03  0.42576829490E+02  0.31747423983E+03  0.46119881419E+03  0.00000000000E+00 0.  1.
         11    1    5    5    0    0  0.47128637807E+02 -0.64641244112E+01 -0.68455791728E+01  0.48059914276E+02  0.00000000000E+00 0.  1.
        -11    1    5    5    0    0  0.21028474336E+03 -0.32447218778E+02  0.18022193284E+03  0.27884124583E+03  0.00000000000E+00 0. -1.
          1    1    6    6  503    0 -0.65960930657E+03 -0.20360474036E+00  0.58247665079E+03  0.87997927673E+03  0.00000000000E+00 0. -1.
         -1    1    6    6    0  503 -0.39954657870E+02 -0.11190246366E+02  0.63783189795E+02  0.76091337218E+02  0.00000000000E+00 0.  1.
<mgrwt>
<rscale>  0 0.14393399E+04</rscale>
<asrwt>0</asrwt>
<pdfrwt beam="1">  1        1 0.23473754E+00 0.14393399E+04</pdfrwt>
<pdfrwt beam="2">  1       -2 0.52222479E-01 0.14393399E+04</pdfrwt>
<totfact> 0.18533897E+01</totfact>
</mgrwt>
</event>
<event>
12    4  0.4280696E-008  0.2574375E+04  0.7818608E-02  0.8376958E-01
         -2   -1    0    0    0  501 -0.00000000000E+00  0.00000000000E+00  0.59980806375E+03  0.59980806375E+03  0.00000000000E+00 0.  1.
          1   -1    0    0  501    0  0.00000000000E+00 -0.00000000000E+00 -0.27623040078E+04  0.27623040078E+04  0.00000000000E+00 0. -1.
        -24    2    1    2    0    0 -0.90529966077E+03 -0.11269198786E+03 -0.86756068638E+02  0.92021462784E+03  0.83674284775E+02 0.  0.
        254    2    1    2    0    0  0.90529966077E+03  0.11269198786E+03 -0.20757398755E+04  0.24418974438E+04  0.90658708093E+03 0.  0.
         23    2    4    4    0    0 -0.61794272571E+02  0.15334742788E+03 -0.51670981614E+02  0.19628512914E+03  0.92325488453E+02 0.  0.
         23    2    4    4    0    0  0.96709393334E+03 -0.40655440028E+02 -0.20240688938E+04  0.22456123146E+04  0.94848509813E+02 0.  0.
          3    1    3    3  502    0 -0.17165461619E+03  0.87188255456E+01 -0.29512698554E+02  0.17439129724E+03  0.00000000000E+00 0. -1.
         -4    1    3    3    0  502 -0.73364504458E+03 -0.12141081340E+03 -0.57243370084E+02  0.74582333060E+03  0.00000000000E+00 0.  1.
         11    1    5    5    0    0  0.14859465575E+02  0.40009581094E+02 -0.40774078105E+02  0.59026229270E+02  0.00000000000E+00 0. -1.
        -11    1    5    5    0    0 -0.76653738145E+02  0.11333784679E+03 -0.10896903509E+02  0.13725889987E+03  0.00000000000E+00 0.  1.
          2    1    6    6  503    0  0.17646457720E+03  0.11534749036E+02 -0.30124106646E+03  0.34931214918E+03  0.00000000000E+00 0. -1.
         -2    1    6    6    0  503  0.79062935614E+03 -0.52190189064E+02 -0.17228278274E+04  0.18963001654E+04  0.00000000000E+00 0.  1.
<mgrwt>
<rscale>  0 0.25743754E+04</rscale>
<asrwt>0</asrwt>
<pdfrwt beam="1">  1        1 0.42496984E+00 0.25743754E+04</pdfrwt>
<pdfrwt beam="2">  1       -2 0.92278165E-01 0.25743754E+04</pdfrwt>
<totfact> 0.68612746E-01</totfact>
</mgrwt>
</event>
<event>
12    4  0.4280696E-008  0.1602939E+04  0.7818608E-02  0.8818744E-01
         -2   -1    0    0    0  501 -0.00000000000E+00  0.00000000000E+00  0.31560346771E+03  0.31560346771E+03  0.00000000000E+00 0.  1.
          1   -1    0    0  501    0  0.00000000000E+00 -0.00000000000E+00 -0.20353185874E+04  0.20353185874E+04  0.00000000000E+00 0. -1.
        -24    2    1    2    0    0  0.10488259766E+03 -0.33479954049E+03  0.19615952024E+02  0.36051827862E+03  0.80607394459E+02 0.  0.
        254    2    1    2    0    0 -0.10488259766E+03  0.33479954049E+03 -0.17393310717E+04  0.19904037765E+04  0.90185560085E+03 0.  0.
         23    2    4    4    0    0  0.23448550536E+03 -0.20351583591E+03 -0.55447405885E+03  0.64241153642E+03  0.94068870977E+02 0.  0.
         23    2    4    4    0    0 -0.33936810302E+03  0.53831537641E+03 -0.11848570129E+04  0.13479922401E+04  0.90789782041E+02 0.  0.
          3    1    3    3  502    0  0.42764300471E+02 -0.68576455630E+02 -0.22565558731E+02  0.83908998935E+02  0.00000000000E+00 0. -1.
         -2    1    3    3    0  502  0.62118297187E+02 -0.26622308486E+03  0.42181510755E+02  0.27660927969E+03  0.00000000000E+00 0.  1.
         11    1    5    5    0    0  0.24271751392E+03 -0.18904219989E+03 -0.52190658670E+03  0.60583432565E+03  0.00000000000E+00 0.  1.
        -11    1    5    5    0    0 -0.82320085546E+01 -0.14473636027E+02 -0.32567472154E+02  0.36577210763E+02  0.00000000000E+00 0. -1.
          3    1    6    6  503    0 -0.25565195875E+03  0.36331280460E+03 -0.74759045910E+03  0.86962383393E+03  0.00000000000E+00 0. -1.
         -3    1    6    6    0  503 -0.83716144270E+02  0.17500257181E+03 -0.43726655376E+03  0.47836840614E+03  0.00000000000E+00 0.  1.
<mgrwt>
<rscale>  0 0.16029393E+04</rscale>
<asrwt>0</asrwt>
<pdfrwt beam="1">  1        1 0.31312593E+00 0.16029393E+04</pdfrwt>
<pdfrwt beam="2">  1       -2 0.48554381E-01 0.16029393E+04</pdfrwt>
<totfact> 0.95459285E+00</totfact>
</mgrwt>
</event>
<event>
12    4  0.4280696E-008  0.1406808E+04  0.7818608E-02  0.8948905E-01
         -2   -1    0    0    0  501 -0.00000000000E+00  0.00000000000E+00  0.66812227806E+03  0.66812227806E+03  0.00000000000E+00 0.  1.
          1   -1    0    0  501    0  0.00000000000E+00 -0.00000000000E+00 -0.74054934909E+03  0.74054934909E+03  0.00000000000E+00 0. -1.
        -24    2    1    2    0    0 -0.25720763339E+03  0.40280057875E+02  0.29473841512E+03  0.40144365824E+03  0.80672347521E+02 0.  0.
        254    2    1    2    0    0  0.25720763339E+03 -0.40280057875E+02 -0.36716548615E+03  0.10072279689E+04  0.90106572313E+03 0.  0.
         23    2    4    4    0    0  0.40488425284E+03  0.13628292891E+03 -0.54807853314E+03  0.70096170617E+03  0.91939872322E+02 0.  0.
         23    2    4    4    0    0 -0.14767661944E+03 -0.17656298679E+03  0.18091304700E+03  0.30626626273E+03  0.89925640841E+02 0.  0.
          1    1    3    3  502    0 -0.14869738641E+03 -0.11845508585E+01  0.11746107769E+03  0.18949781175E+03  0.00000000000E+00 0. -1.
         -2    1    3    3    0  502 -0.10851024698E+03  0.41464608733E+02  0.17727733743E+03  0.21194584649E+03  0.00000000000E+00 0.  1.
         11    1    5    5    0    0  0.38724390028E+03  0.12177560635E+03 -0.47725041248E+03  0.62654217162E+03  0.00000000000E+00 0. -1.
        -11    1    5    5    0    0  0.17640352553E+02  0.14507322558E+02 -0.70828120669E+02  0.74419534556E+02  0.00000000000E+00 0.  1.
          3    1    6    6  503    0 -0.52595623860E+02 -0.99439979499E+02  0.13448709650E+03  0.17533222265E+03  0.00000000000E+00 0.  1.
         -3    1    6    6    0  503 -0.95080995583E+02 -0.77123007287E+02  0.46425950497E+02  0.13093404009E+03  0.00000000000E+00 0. -1.
<mgrwt>
<rscale>  0 0.14068085E+04</rscale>
<asrwt>0</asrwt>
<pdfrwt beam="1">  1        1 0.11393067E+00 0.14068085E+04</pdfrwt>
<pdfrwt beam="2">  1       -2 0.10278804E+00 0.14068085E+04</pdfrwt>
<totfact> 0.16494735E+01</totfact>
</mgrwt>
</event>
<event>
12    4  0.4280696E-008  0.2523486E+04  0.7818608E-02  0.8394666E-01
         -2   -1    0    0    0  501 -0.00000000000E+00  0.00000000000E+00  0.57028333847E+03  0.57028333847E+03  0.00000000000E+00 0.  1.
          1   -1    0    0  501    0  0.00000000000E+00 -0.00000000000E+00 -0.27915857389E+04  0.27915857389E+04  0.00000000000E+00 0. -1.
        -24    2    1    2    0    0  0.17644276639E+02  0.10632381392E+04 -0.13291001260E+04  0.17040597026E+04  0.80781581985E+02 0.  0.
        254    2    1    2    0    0 -0.17644276639E+02 -0.10632381392E+04 -0.89220227444E+03  0.16578093748E+04  0.90637760537E+03 0.  0.
         23    2    4    4    0    0 -0.28527931649E+03 -0.64532733772E+03 -0.10129918646E+03  0.71956176883E+03  0.98366420934E+02 0.  0.
         23    2    4    4    0    0  0.26763503985E+03 -0.41791080146E+03 -0.79090308799E+03  0.93824760596E+03  0.92211295223E+02 0.  0.
          3    1    3    3  502    0  0.18576924929E+02  0.66026723887E+03 -0.88603526773E+03  0.11051499557E+04  0.00000000000E+00 0. -1.
         -2    1    3    3    0  502 -0.93264828936E+00  0.40297090031E+03 -0.44306485827E+03  0.59890974693E+03  0.00000000000E+00 0.  1.
         11    1    5    5    0    0 -0.15806496726E+03 -0.46238592637E+03 -0.86427717433E+02  0.49624089827E+03  0.00000000000E+00 0. -1.
        -11    1    5    5    0    0 -0.12721434923E+03 -0.18294141135E+03 -0.14871469024E+02  0.22332087056E+03  0.00000000000E+00 0.  1.
          4    1    6    6  503    0  0.18284395324E+03 -0.35143165603E+03 -0.64350172007E+03  0.75566565612E+03  0.00000000000E+00 0. -1.
         -4    1    6    6    0  503  0.84791086606E+02 -0.66479145429E+02 -0.14740136791E+03  0.18258194984E+03  0.00000000000E+00 0.  1.
<mgrwt>
<rscale>  0 0.25234856E+04</rscale>
<asrwt>0</asrwt>
<pdfrwt beam="1">  1        1 0.42947472E+00 0.25234856E+04</pdfrwt>
<pdfrwt beam="2">  1       -2 0.87735899E-01 0.25234856E+04</pdfrwt>
<totfact> 0.73808416E-01</totfact>
</mgrwt>
</event>
<event>
12    4  0.4280696E-008  0.2154805E+04  0.7818608E-02  0.8537478E-01
          1   -1    0    0  501    0  0.00000000000E+00  0.00000000000E+00  0.13661146190E+04  0.13661146190E+04  0.00000000000E+00 0. -1.
         -2   -1    0    0    0  501 -0.00000000000E+00 -0.00000000000E+00 -0.84970619285E+03  0.84970619285E+03  0.00000000000E+00 0.  1.
        -24    2    1    2    0    0 -0.71573495786E+03 -0.52103158709E+03  0.19378849370E+03  0.90979338897E+03  0.80122316939E+02 0.  0.
        254    2    1    2    0    0  0.71573495786E+03  0.52103158709E+03  0.32261993240E+03  0.13060274228E+04  0.90436362364E+03 0.  0.
         23    2    4    4    0    0  0.50213204999E+03  0.63050925065E+03 -0.93924570563E+02  0.81661897023E+03  0.91466971136E+02 0.  0.
         23    2    4    4    0    0  0.21360290787E+03 -0.10947766356E+03  0.41654450296E+03  0.48940845260E+03  0.91650147083E+02 0.  0.
          1    1    3    3  502    0 -0.73815522920E+02 -0.80846846129E+02  0.92225742895E+01  0.10986355096E+03  0.00000000000E+00 0. -1.
         -2    1    3    3    0  502 -0.64191943494E+03 -0.44018474096E+03  0.18456591942E+03  0.79992983801E+03  0.00000000000E+00 0.  1.
         11    1    5    5    0    0  0.23929306088E+03  0.37333257399E+03 -0.54949880485E+02  0.44683091786E+03  0.00000000000E+00 0. -1.
        -11    1    5    5    0    0  0.26283898911E+03  0.25717667666E+03 -0.38974690078E+02  0.36978805238E+03  0.00000000000E+00 0.  1.
          1    1    6    6  503    0  0.21115059543E+03 -0.88739086187E+02  0.33914639184E+03  0.40924256189E+03  0.00000000000E+00 0. -1.
         -1    1    6    6    0  503  0.24523124439E+01 -0.20738577371E+02  0.77398111127E+02  0.80165890712E+02  0.00000000000E+00 0.  1.
<mgrwt>
<rscale>  0 0.21548049E+04</rscale>
<asrwt>0</asrwt>
<pdfrwt beam="1">  1        1 0.21017148E+00 0.21548049E+04</pdfrwt>
<pdfrwt beam="2">  1       -2 0.13072403E+00 0.21548049E+04</pdfrwt>
<totfact> 0.27924291E+00</totfact>
</mgrwt>
</event>
<event>
12    4  0.4280696E-008  0.1097486E+04  0.7818608E-02  0.9207645E-01
         -2   -1    0    0    0  501 -0.00000000000E+00  0.00000000000E+00  0.23511022981E+03  0.23511022981E+03  0.00000000000E+00 0.  1.
          1   -1    0    0  501    0  0.00000000000E+00 -0.00000000000E+00 -0.12807570189E+04  0.12807570189E+04  0.00000000000E+00 0. -1.
        -24    2    1    2    0    0  0.10070546657E+03  0.10816747674E+03 -0.69714874458E+02  0.18162008793E+03  0.79271045145E+02 0.  0.
        254    2    1    2    0    0 -0.10070546657E+03 -0.10816747674E+03 -0.97593191459E+03  0.13342471607E+04  0.89773636999E+03 0.  0.
         23    2    4    4    0    0 -0.42154925650E+03 -0.15859444066E+03 -0.22716840233E+03  0.51281217962E+03  0.92276087299E+02 0.  0.
         23    2    4    4    0    0  0.32084378993E+03  0.50426963921E+02 -0.74876351226E+03  0.82143498112E+03  0.92870957213E+02 0.  0.
          1    1    3    3  502    0  0.19504494231E+02 -0.11281028849E+02 -0.37798413267E+01  0.22846752670E+02  0.00000000000E+00 0. -1.
         -2    1    3    3    0  502  0.81200972339E+02  0.11944850559E+03 -0.65935033132E+02  0.15877333526E+03  0.00000000000E+00 0.  1.
         11    1    5    5    0    0 -0.72894339180E+02  0.66704766173E+01 -0.26007951785E+02  0.77682002412E+02  0.00000000000E+00 0. -1.
        -11    1    5    5    0    0 -0.34865491732E+03 -0.16526491728E+03 -0.20116045055E+03  0.43513017721E+03  0.00000000000E+00 0.  1.
          3    1    6    6  503    0  0.14124503300E+03 -0.24145032266E+02 -0.32397267499E+03  0.35424770440E+03  0.00000000000E+00 0. -1.
         -3    1    6    6    0  503  0.17959875692E+03  0.74571996187E+02 -0.42479083727E+03  0.46718727672E+03  0.00000000000E+00 0.  1.
<mgrwt>
<rscale>  0 0.10974864E+04</rscale>
<asrwt>0</asrwt>
<pdfrwt beam="1">  1        1 0.19703954E+00 0.10974864E+04</pdfrwt>
<pdfrwt beam="2">  1       -2 0.36170805E-01 0.10974864E+04</pdfrwt>
<totfact> 0.58681082E+01</totfact>
</mgrwt>
</event>
<event>
12    4  0.4280696E-008  0.1821341E+04  0.7818608E-02  0.8695032E-01
          1   -1    0    0  501    0  0.00000000000E+00  0.00000000000E+00  0.45479151282E+03  0.45479151282E+03  0.00000000000E+00 0. -1.
         -4   -1    0    0    0  501 -0.00000000000E+00 -0.00000000000E+00 -0.18235194787E+04  0.18235194787E+04  0.00000000000E+00 0.  1.
        -24    2    1    2    0    0  0.35971337365E+03  0.12783886246E+03  0.19200147190E+03  0.43452420794E+03  0.78805051483E+02 0.  0.
        254    2    1    2    0    0 -0.35971337365E+03 -0.12783886246E+03 -0.15607294377E+04  0.18437867835E+04  0.90439860647E+03 0.  0.
         23    2    4    4    0    0  0.25136278084E+03 -0.13789369897E+03 -0.85375296639E+03  0.90474569974E+03  0.86444975386E+02 0.  0.
         23    2    4    4    0    0 -0.61107615448E+03  0.10054836508E+02 -0.70697647135E+03  0.93904108380E+03  0.92017714091E+02 0.  0.
          1    1    3    3  502    0  0.33252391402E+03  0.98327789771E+02  0.18733876636E+03  0.39412729037E+03  0.00000000000E+00 0. -1.
         -2    1    3    3    0  502  0.27189459629E+02  0.29511072690E+02  0.46627055454E+01  0.40396917571E+02  0.00000000000E+00 0.  1.
         11    1    5    5    0    0  0.72322001036E+02 -0.47102295107E+02 -0.38953411688E+03  0.39898111015E+03  0.00000000000E+00 0. -1.
        -11    1    5    5    0    0  0.17904077980E+03 -0.90791403862E+02 -0.46421884951E+03  0.50576458959E+03  0.00000000000E+00 0.  1.
          2    1    6    6  503    0 -0.55952308890E+03  0.17053342418E+02 -0.60302717612E+03  0.82279929427E+03  0.00000000000E+00 0. -1.
         -2    1    6    6    0  503 -0.51553065577E+02 -0.69985059104E+01 -0.10394929522E+03  0.11624178953E+03  0.00000000000E+00 0.  1.
<mgrwt>
<rscale>  0 0.18213415E+04</rscale>
<asrwt>0</asrwt>
<pdfrwt beam="1">  1        1 0.69967925E-01 0.18213415E+04</pdfrwt>
<pdfrwt beam="2">  1       -4 0.28054146E+00 0.18213415E+04</pdfrwt>
<totfact> 0.92559184E-01</totfact>
</mgrwt>
</event>
<event>
12    4  0.4280696E-008  0.1949502E+04  0.7818608E-02  0.8630601E-01
         -2   -1    0    0    0  501 -0.00000000000E+00  0.00000000000E+00  0.52213439524E+03  0.52213439524E+03  0.00000000000E+00 0.  1.
          1   -1    0    0  501    0  0.00000000000E+00 -0.00000000000E+00 -0.18197228676E+04  0.18197228676E+04  0.00000000000E+00 0. -1.
        -24    2    1    2    0    0  0.75520973113E+03  0.31813997571E+02 -0.30232193827E+03  0.81803001594E+03  0.80129171948E+02 0.  0.
        254    2    1    2    0    0 -0.75520973113E+03 -0.31813997571E+02 -0.99526653411E+03  0.15238272469E+04  0.87186015857E+03 0.  0.
         23    2    4    4    0    0  0.10439439167E+03  0.49709957310E+02 -0.50607129507E+03  0.52711898649E+03  0.91525960027E+02 0.  0.
         23    2    4    4    0    0 -0.85960412280E+03 -0.81523954882E+02 -0.48919523904E+03  0.99670826043E+03  0.92466055159E+02 0.  0.
          1    1    3    3  502    0  0.10033247404E+02  0.10652408965E+02 -0.62049613175E+01  0.15894697706E+02  0.00000000000E+00 0. -1.
         -2    1    3    3    0  502  0.74517648372E+03  0.21161588607E+02 -0.29611697695E+03  0.80213531824E+03  0.00000000000E+00 0.  1.
         11    1    5    5    0    0  0.12005992761E+03  0.50017240178E+02 -0.47245526534E+03  0.49003070136E+03  0.00000000000E+00 0.  1.
        -11    1    5    5    0    0 -0.15665535936E+02 -0.30728286772E+00 -0.33616029728E+02  0.37088285127E+02  0.00000000000E+00 0. -1.
          1    1    6    6  503    0 -0.12195360019E+03  0.19904729051E+02 -0.77908148397E+02  0.14607723445E+03  0.00000000000E+00 0. -1.
         -1    1    6    6    0  503 -0.73765052261E+03 -0.10142868393E+03 -0.41128709065E+03  0.85063102598E+03  0.00000000000E+00 0.  1.
<mgrwt>
<rscale>  0 0.19495024E+04</rscale>
<asrwt>0</asrwt>
<pdfrwt beam="1">  1        1 0.27995737E+00 0.19495024E+04</pdfrwt>
<pdfrwt beam="2">  1       -2 0.80328368E-01 0.19495024E+04</pdfrwt>
<totfact> 0.44255629E+00</totfact>
</mgrwt>
</event>
<event>
12    4  0.4280696E-008  0.1697596E+04  0.7818608E-02  0.8762736E-01
          1   -1    0    0  501    0  0.00000000000E+00  0.00000000000E+00  0.87144228690E+03  0.87144228690E+03  0.00000000000E+00 0. -1.
         -2   -1    0    0    0  501 -0.00000000000E+00 -0.00000000000E+00 -0.82674239397E+03  0.82674239397E+03  0.00000000000E+00 0.  1.
        -24    2    1    2    0    0 -0.57365836105E+02  0.56512827335E+03 -0.20389894111E+03  0.60863665191E+03  0.78759071701E+02 0.  0.
        254    2    1    2    0    0  0.57365836105E+02 -0.56512827335E+03  0.24859883404E+03  0.10895480290E+04  0.89590888076E+03 0.  0.
         23    2    4    4    0    0  0.46224547548E+03 -0.38477328028E+03  0.15151383289E+03  0.62682623400E+03  0.90737694833E+02 0.  0.
         23    2    4    4    0    0 -0.40487963937E+03 -0.18035499307E+03  0.97085001154E+02  0.46272179495E+03  0.90722192283E+02 0.  0.
          1    1    3    3  502    0 -0.41745402645E+02  0.31046172597E+03 -0.72037537779E+02  0.32143205936E+03  0.00000000000E+00 0. -1.
         -2    1    3    3    0  502 -0.15620433460E+02  0.25466654738E+03 -0.13186140333E+03  0.28720459255E+03  0.00000000000E+00 0.  1.
         11    1    5    5    0    0  0.89059091323E+02 -0.98803429255E+02  0.51949517514E+00  0.13301845457E+03  0.00000000000E+00 0.  1.
        -11    1    5    5    0    0  0.37318638415E+03 -0.28596985103E+03  0.15099433771E+03  0.49380777944E+03  0.00000000000E+00 0. -1.
          3    1    6    6  503    0 -0.36926624367E+03 -0.18276518360E+03  0.70022979923E+02  0.41792809043E+03  0.00000000000E+00 0. -1.
         -3    1    6    6    0  503 -0.35613395703E+02  0.24101905367E+01  0.27062021231E+02  0.44793704524E+02  0.00000000000E+00 0.  1.
<mgrwt>
<rscale>  0 0.16975963E+04</rscale>
<asrwt>0</asrwt>
<pdfrwt beam="1">  1        1 0.13406804E+00 0.16975963E+04</pdfrwt>
<pdfrwt beam="2">  1       -2 0.12719114E+00 0.16975963E+04</pdfrwt>
<totfact> 0.73537580E+00</totfact>
</mgrwt>
</event>
<event>
12    4  0.4280696E-008  0.1809452E+04  0.7818608E-02  0.8701289E-01
         -2   -1    0    0    0  501 -0.00000000000E+00  0.00000000000E+00  0.30584442108E+03  0.30584442108E+03  0.00000000000E+00 0.  1.
          1   -1    0    0  501    0  0.00000000000E+00 -0.00000000000E+00 -0.26762932471E+04  0.26762932471E+04  0.00000000000E+00 0. -1.
        -24    2    1    2    0    0  0.25131343451E+03 -0.55237882699E+03 -0.40085273399E+03  0.73198273659E+03  0.82674067486E+02 0.  0.
        254    2    1    2    0    0 -0.25131343451E+03  0.55237882699E+03 -0.19695960920E+04  0.22501549316E+04  0.90310998200E+03 0.  0.
         23    2    4    4    0    0  0.58576762769E+02  0.23936848106E+03 -0.39109176945E+02  0.26792926825E+03  0.97611772846E+02 0.  0.
         23    2    4    4    0    0 -0.30989019728E+03  0.31301034593E+03 -0.19304869150E+04  0.19822256633E+04  0.91822873710E+02 0.  0.
          1    1    3    3  502    0  0.61418369678E+00 -0.15059366458E+00  0.31862945568E+01  0.32484416368E+01  0.00000000000E+00 0. -1.
         -2    1    3    3    0  502  0.25069925081E+03 -0.55222823333E+03 -0.40403902855E+03  0.72873429495E+03  0.00000000000E+00 0.  1.
         11    1    5    5    0    0 -0.69159128189E+01  0.11700197392E+03 -0.52632310768E+02  0.12848132895E+03  0.00000000000E+00 0. -1.
        -11    1    5    5    0    0  0.65492675588E+02  0.12236650715E+03  0.13523133823E+02  0.13944793930E+03  0.00000000000E+00 0.  1.
          1    1    6    6  503    0 -0.19671742922E+03  0.15065328469E+03 -0.12062041157E+04  0.12313904856E+04  0.00000000000E+00 0. -1.
         -1    1    6    6    0  503 -0.11317276806E+03  0.16235706124E+03 -0.72428279930E+03  0.75083517774E+03  0.00000000000E+00 0.  1.
<mgrwt>
<rscale>  0 0.18094522E+04</rscale>
<asrwt>0</asrwt>
<pdfrwt beam="1">  1        1 0.41173742E+00 0.18094522E+04</pdfrwt>
<pdfrwt beam="2">  1       -2 0.47052988E-01 0.18094522E+04</pdfrwt>
<totfact> 0.36219619E+00</totfact>
</mgrwt>
</event>
<event>
12    4  0.4280696E-008  0.1323716E+04  0.7818608E-02  0.9010966E-01
          1   -1    0    0  501    0  0.00000000000E+00  0.00000000000E+00  0.38099620168E+03  0.38099620168E+03  0.00000000000E+00 0. -1.
         -2   -1    0    0    0  501 -0.00000000000E+00 -0.00000000000E+00 -0.11497656278E+04  0.11497656278E+04  0.00000000000E+00 0.  1.
        -24    2    1    2    0    0 -0.87384161613E+02  0.64646171437E+01 -0.59969645782E+03  0.61132689465E+03  0.80043410823E+02 0.  0.
        254    2    1    2    0    0  0.87384161613E+02 -0.64646171437E+01 -0.16907296831E+03  0.91943493484E+03  0.89949827561E+03 0.  0.
         23    2    4    4    0    0  0.38453572657E+03 -0.21174255866E+03 -0.28277651908E+03  0.52956598500E+03  0.88175600792E+02 0.  0.
         23    2    4    4    0    0 -0.29715156496E+03  0.20527794151E+03  0.11370355077E+03  0.38986894984E+03  0.92904331241E+02 0.  0.
          1    1    3    3  502    0 -0.41282614614E+02  0.38023861994E+02 -0.19932334684E+03  0.20707453959E+03  0.00000000000E+00 0. -1.
         -2    1    3    3    0  502 -0.46101546999E+02 -0.31559244850E+02 -0.40037311098E+03  0.40425235505E+03  0.00000000000E+00 0.  1.
         11    1    5    5    0    0  0.68699499040E+02 -0.38508094965E+02 -0.13700303800E+02  0.79938681941E+02  0.00000000000E+00 0. -1.
        -11    1    5    5    0    0  0.31583622753E+03 -0.17323446369E+03 -0.26907621528E+03  0.44962730306E+03  0.00000000000E+00 0.  1.
          3    1    6    6  503    0 -0.98077193276E+02  0.72109258955E+02 -0.64651037157E+01  0.12190438316E+03  0.00000000000E+00 0. -1.
         -3    1    6    6    0  503 -0.19907437168E+03  0.13316868256E+03  0.12016865448E+03  0.26796456668E+03  0.00000000000E+00 0.  1.
<mgrwt>
<rscale>  0 0.13237165E+04</rscale>
<asrwt>0</asrwt>
<pdfrwt beam="1">  1        1 0.58614801E-01 0.13237165E+04</pdfrwt>
<pdfrwt beam="2">  1       -2 0.17688702E+00 0.13237165E+04</pdfrwt>
<totfact> 0.10441824E+01</totfact>
</mgrwt>
</event>
<event>
12    4  0.4280696E-008  0.1509537E+04  0.7818608E-02  0.8878135E-01
          1   -1    0    0  501    0  0.00000000000E+00  0.00000000000E+00  0.11240513663E+04  0.11240513663E+04  0.00000000000E+00 0. -1.
         -2   -1    0    0    0  501 -0.00000000000E+00 -0.00000000000E+00 -0.50680569643E+03  0.50680569643E+03  0.00000000000E+00 0.  1.
        -24    2    1    2    0    0 -0.34970453779E+03  0.18619253072E+03 -0.86243050665E+02  0.41304886244E+03  0.78807212394E+02 0.  0.
        254    2    1    2    0    0  0.34970453779E+03 -0.18619253072E+03  0.70348872058E+03  0.12178082003E+04  0.91170143719E+03 0.  0.
         23    2    4    4    0    0  0.46714321038E+03 -0.20191583767E+03  0.19583372250E+02  0.51769292756E+03  0.92896040136E+02 0.  0.
         23    2    4    4    0    0 -0.11743867259E+03  0.15723306950E+02  0.68390534833E+03  0.70011527278E+03  0.91628628126E+02 0.  0.
          1    1    3    3  502    0 -0.12131623197E+03  0.40652979510E+02  0.27699540129E+01  0.12797642567E+03  0.00000000000E+00 0. -1.
         -2    1    3    3    0  502 -0.22838830582E+03  0.14553955121E+03 -0.89013004678E+02  0.28507243677E+03  0.00000000000E+00 0.  1.
         11    1    5    5    0    0  0.35758518396E+03 -0.17755747068E+03  0.47451501196E+02  0.40205156902E+03  0.00000000000E+00 0. -1.
        -11    1    5    5    0    0  0.10955802642E+03 -0.24358366988E+02 -0.27868128946E+02  0.11564135855E+03  0.00000000000E+00 0.  1.
          3    1    6    6  503    0 -0.11000366417E+03  0.16433872372E+01  0.67001000793E+03  0.67898226603E+03  0.00000000000E+00 0. -1.
         -3    1    6    6    0  503 -0.74350084206E+01  0.14079919713E+02  0.13895340406E+02  0.21133006751E+02  0.00000000000E+00 0.  1.
<mgrwt>
<rscale>  0 0.15095372E+04</rscale>
<asrwt>0</asrwt>
<pdfrwt beam="1">  1        1 0.17293098E+00 0.15095372E+04</pdfrwt>
<pdfrwt beam="2">  1       -2 0.77970107E-01 0.15095372E+04</pdfrwt>
<totfact> 0.15096993E+01</totfact>
</mgrwt>
</event>
<event>
12    4  0.4280696E-008  0.1311790E+04  0.7818608E-02  0.9020268E-01
          3   -1    0    0  501    0  0.00000000000E+00  0.00000000000E+00  0.13211289669E+04  0.13211289669E+04  0.00000000000E+00 0. -1.
         -4   -1    0    0    0  501 -0.00000000000E+00 -0.00000000000E+00 -0.32562906248E+03  0.32562906248E+03  0.00000000000E+00 0.  1.
        -24    2    1    2    0    0  0.29967346782E+03 -0.98379602820E+02  0.43797975633E+03  0.54561557011E+03  0.79920897297E+02 0.  0.
        254    2    1    2    0    0 -0.29967346782E+03  0.98379602820E+02  0.55752014810E+03  0.11011424593E+04  0.89565800758E+03 0.  0.
         23    2    4    4    0    0  0.15005837102E+03  0.36098388181E+03  0.35169239945E+03  0.53360452310E+03  0.90660716974E+02 0.  0.
         23    2    4    4    0    0 -0.44973183884E+03 -0.26260427899E+03  0.20582774865E+03  0.56753793619E+03  0.92274117119E+02 0.  0.
          1    1    3    3  502    0  0.20001981185E+02 -0.24455601871E+02  0.20334804412E+02  0.37572063886E+02  0.00000000000E+00 0. -1.
         -2    1    3    3    0  502  0.27967148663E+03 -0.73924000949E+02  0.41764495192E+03  0.50804350622E+03  0.00000000000E+00 0.  1.
         11    1    5    5    0    0  0.82767849296E+02  0.94853173395E+02  0.94171006699E+02  0.15721265815E+03  0.00000000000E+00 0.  1.
        -11    1    5    5    0    0  0.67290521722E+02  0.26613070841E+03  0.25752139275E+03  0.37639186495E+03  0.00000000000E+00 0. -1.
          2    1    6    6  503    0 -0.23087686997E+03 -0.17112449482E+03  0.76592415848E+02  0.29741237362E+03  0.00000000000E+00 0. -1.
         -2    1    6    6    0  503 -0.21885496886E+03 -0.91479784164E+02  0.12923533280E+03  0.27012556257E+03  0.00000000000E+00 0.  1.
<mgrwt>
<rscale>  0 0.13117896E+04</rscale>
<asrwt>0</asrwt>
<pdfrwt beam="1">  1        3 0.20325061E+00 0.13117896E+04</pdfrwt>
<pdfrwt beam="2">  1       -4 0.50096780E-01 0.13117896E+04</pdfrwt>
<totfact> 0.12132438E+00</totfact>
</mgrwt>
</event>
<event>
12    4  0.4280696E-008  0.1233927E+04  0.7818608E-02  0.9083667E-01
         -2   -1    0    0    0  501 -0.00000000000E+00  0.00000000000E+00  0.33822079045E+03  0.33822079045E+03  0.00000000000E+00 0.  1.
          1   -1    0    0  501    0  0.00000000000E+00 -0.00000000000E+00 -0.11254312807E+04  0.11254312807E+04  0.00000000000E+00 0. -1.
        -24    2    1    2    0    0  0.19155018935E+03  0.22002388609E+02 -0.42295930050E+03  0.47122293353E+03  0.77336298478E+02 0.  0.
        254    2    1    2    0    0 -0.19155018935E+03 -0.22002388609E+02 -0.36425118975E+03  0.99242913762E+03  0.90280733483E+03 0.  0.
         23    2    4    4    0    0 -0.28008104649E+03 -0.33761910300E+03  0.52977472745E+02  0.45375764162E+03  0.10323436152E+03 0.  0.
         23    2    4    4    0    0  0.88530857145E+02  0.31561671439E+03 -0.41722866249E+03  0.53867149600E+03  0.92927933012E+02 0.  0.
          1    1    3    3  502    0  0.54753128464E+02  0.41083383835E+02 -0.16445474515E+03  0.17813228990E+03  0.00000000000E+00 0. -1.
         -2    1    3    3    0  502  0.13679706088E+03 -0.19080995226E+02 -0.25850455536E+03  0.29309064363E+03  0.00000000000E+00 0.  1.
         11    1    5    5    0    0 -0.25588381937E+03 -0.31226278183E+03  0.17808909340E+02  0.40410608902E+03  0.00000000000E+00 0. -1.
        -11    1    5    5    0    0 -0.24197227128E+02 -0.25356321161E+02  0.35168563405E+02  0.49651552599E+02  0.00000000000E+00 0.  1.
          1    1    6    6  503    0 -0.41131903076E+01  0.14041875247E+03 -0.20258290505E+03  0.24652419313E+03  0.00000000000E+00 0.  1.
         -1    1    6    6    0  503  0.92644047453E+02  0.17519796191E+03 -0.21464575744E+03  0.29214730287E+03  0.00000000000E+00 0. -1.
<mgrwt>
<rscale>  0 0.12339275E+04</rscale>
<asrwt>0</asrwt>
<pdfrwt beam="1">  1        1 0.17314327E+00 0.12339275E+04</pdfrwt>
<pdfrwt beam="2">  1       -2 0.52033968E-01 0.12339275E+04</pdfrwt>
<totfact> 0.36627852E+01</totfact>
</mgrwt>
</event>
<event>
12    4  0.4280696E-008  0.2292691E+04  0.7818608E-02  0.8480809E-01
          1   -1    0    0  501    0  0.00000000000E+00  0.00000000000E+00  0.81213048056E+03  0.81213048056E+03  0.00000000000E+00 0. -1.
         -2   -1    0    0    0  501 -0.00000000000E+00 -0.00000000000E+00 -0.16180995029E+04  0.16180995029E+04  0.00000000000E+00 0.  1.
        -24    2    1    2    0    0 -0.66694472190E+03  0.66116224550E+03 -0.54548727099E+03  0.10890101328E+04  0.80224245164E+02 0.  0.
        254    2    1    2    0    0  0.66694472190E+03 -0.66116224550E+03 -0.26048175135E+03  0.13412198507E+04  0.92144949301E+03 0.  0.
         23    2    4    4    0    0 -0.21407732171E+03 -0.23771699640E+03 -0.93318912699E+02  0.34522979531E+03  0.90203780710E+02 0.  0.
         23    2    4    4    0    0  0.88102204361E+03 -0.42344524910E+03 -0.16716283865E+03  0.99599005538E+03  0.92450286607E+02 0.  0.
          1    1    3    3  502    0 -0.97609760012E+02  0.93528677832E+02 -0.47369269170E+02  0.14324498765E+03  0.00000000000E+00 0. -1.
         -2    1    3    3    0  502 -0.56933496189E+03  0.56763356766E+03 -0.49811800182E+03  0.94576514511E+03  0.00000000000E+00 0.  1.
         11    1    5    5    0    0 -0.20826507613E+03 -0.18855309081E+03 -0.65616608247E+02  0.28849982542E+03  0.00000000000E+00 0. -1.
        -11    1    5    5    0    0 -0.58122455778E+01 -0.49163905594E+02 -0.27702304452E+02  0.56729969891E+02  0.00000000000E+00 0.  1.
          2    1    6    6  503    0  0.63931765360E+03 -0.34215571299E+03 -0.14950881929E+03  0.74037185331E+03  0.00000000000E+00 0. -1.
         -2    1    6    6    0  503  0.24170439001E+03 -0.81289536105E+02 -0.17654019365E+02  0.25561820207E+03  0.00000000000E+00 0.  1.
<mgrwt>
<rscale>  0 0.22926909E+04</rscale>
<asrwt>0</asrwt>
<pdfrwt beam="1">  1        1 0.12494315E+00 0.22926909E+04</pdfrwt>
<pdfrwt beam="2">  1       -2 0.24893838E+00 0.22926909E+04</pdfrwt>
<totfact> 0.11158593E+00</totfact>
</mgrwt>
</event>
<event>
12    4  0.4280696E-008  0.1166775E+04  0.7818608E-02  0.9142446E-01
          1   -1    0    0  501    0  0.00000000000E+00  0.00000000000E+00  0.92052983503E+03  0.92052983503E+03  0.00000000000E+00 0. -1.
         -2   -1    0    0    0  501 -0.00000000000E+00 -0.00000000000E+00 -0.36972292833E+03  0.36972292833E+03  0.00000000000E+00 0.  1.
        -24    2    1    2    0    0  0.19009184261E+03  0.59891457896E+02  0.25419264043E+03  0.33289126108E+03  0.80503403019E+02 0.  0.
        254    2    1    2    0    0 -0.19009184261E+03 -0.59891457896E+02  0.29661426627E+03  0.95736150228E+03  0.88816615998E+03 0.  0.
         23    2    4    4    0    0 -0.22783641761E+03 -0.43343872252E+03  0.57182357939E+02  0.50252647998E+03  0.97388303441E+02 0.  0.
         23    2    4    4    0    0  0.37744575001E+02  0.37354726463E+03  0.23943190833E+03  0.45483502230E+03  0.92655528317E+02 0.  0.
          3    1    3    3  502    0  0.17670163926E+03  0.75604316765E+02  0.24154666247E+03  0.30868150606E+03  0.00000000000E+00 0. -1.
         -4    1    3    3    0  502  0.13390203349E+02 -0.15712858870E+02  0.12645977957E+02  0.24209755019E+02  0.00000000000E+00 0.  1.
         11    1    5    5    0    0 -0.18356003553E+03 -0.39772149500E+03  0.71576709789E+02  0.44384670734E+03  0.00000000000E+00 0.  1.
        -11    1    5    5    0    0 -0.44276382079E+02 -0.35717227521E+02 -0.14394351850E+02  0.58679772639E+02  0.00000000000E+00 0. -1.
          2    1    6    6  503    0  0.19999357754E+01  0.11715322553E+03  0.27697112627E+02  0.12039936895E+03  0.00000000000E+00 0. -1.
         -2    1    6    6    0  503  0.35744639225E+02  0.25639403909E+03  0.21173479571E+03  0.33443565335E+03  0.00000000000E+00 0.  1.
<mgrwt>
<rscale>  0 0.11667750E+04</rscale>
<asrwt>0</asrwt>
<pdfrwt beam="1">  1        1 0.14161997E+00 0.11667750E+04</pdfrwt>
<pdfrwt beam="2">  1       -2 0.56880451E-01 0.11667750E+04</pdfrwt>
<totfact> 0.44119862E+01</totfact>
</mgrwt>
</event>
<event>
12    4  0.4280696E-008  0.1639714E+04  0.7818608E-02  0.8796515E-01
         -2   -1    0    0    0  501 -0.00000000000E+00  0.00000000000E+00  0.28081060105E+03  0.28081060105E+03  0.00000000000E+00 0.  1.
          1   -1    0    0  501    0  0.00000000000E+00 -0.00000000000E+00 -0.23936614274E+04  0.23936614274E+04  0.00000000000E+00 0. -1.
        -24    2    1    2    0    0  0.23552576995E+03 -0.30558692368E+03 -0.14187545522E+04  0.14712292315E+04  0.52869801327E+02 0.  0.
        254    2    1    2    0    0 -0.23552576995E+03  0.30558692368E+03 -0.69409627413E+03  0.12032427970E+04  0.90397335938E+03 0.  0.
         23    2    4    4    0    0  0.26821226062E+03  0.34604971961E+03 -0.19898928003E+03  0.49001546585E+03  0.93969133349E+02 0.  0.
         23    2    4    4    0    0 -0.50373803058E+03 -0.40462795929E+02 -0.49510699411E+03  0.71322733112E+03  0.90404916554E+02 0.  0.
          3    1    3    3  502    0  0.22775167151E+03 -0.28922294410E+03 -0.13828645403E+04  0.14310258810E+04  0.00000000000E+00 0. -1.
         -4    1    3    3    0  502  0.77740984479E+01 -0.16363979575E+02 -0.35890011851E+02  0.40203350419E+02  0.00000000000E+00 0.  1.
         11    1    5    5    0    0  0.22886238128E+03  0.33279856004E+03 -0.16478043639E+03  0.43621722037E+03  0.00000000000E+00 0. -1.
        -11    1    5    5    0    0  0.39349879343E+02  0.13251159566E+02 -0.34208843641E+02  0.53798245486E+02  0.00000000000E+00 0.  1.
          1    1    6    6  503    0 -0.29232635120E+03 -0.39942523586E+01 -0.22870835310E+03  0.37118480631E+03  0.00000000000E+00 0. -1.
         -1    1    6    6    0  503 -0.21141167938E+03 -0.36468543571E+02 -0.26639864101E+03  0.34204252481E+03  0.00000000000E+00 0.  1.
<mgrwt>
<rscale>  0 0.16397140E+04</rscale>
<asrwt>0</asrwt>
<pdfrwt beam="1">  1        1 0.36825561E+00 0.16397140E+04</pdfrwt>
<pdfrwt beam="2">  1       -2 0.43201631E-01 0.16397140E+04</pdfrwt>
<totfact> 0.68564559E+00</totfact>
</mgrwt>
</event>
<event>
12    4  0.5032977E-008  0.2379708E+04  0.7818608E-02  0.8447140E-01
          1   -1    0    0  501    0  0.00000000000E+00  0.00000000000E+00  0.25691970631E+04  0.25691970631E+04  0.00000000000E+00 0. -1.
         -2   -1    0    0    0  501 -0.00000000000E+00 -0.00000000000E+00 -0.55104871686E+03  0.55104871686E+03  0.00000000000E+00 0.  1.
        -24    2    1    2    0    0 -0.60968010568E+03 -0.58261383978E+03  0.12097353633E+03  0.85714143723E+03  0.94382887010E+02 0.  0.
        254    2    1    2    0    0  0.60968010568E+03  0.58261383978E+03  0.18971748099E+04  0.22631043427E+04  0.90067768326E+03 0.  0.
         23    2    4    4    0    0  0.22973541784E+03  0.20146718724E+03  0.32044238150E+02  0.31977481709E+03  0.88666288425E+02 0.  0.
         23    2    4    4    0    0  0.37994468785E+03  0.38114665254E+03  0.18651305718E+04  0.19433295256E+04  0.90481262787E+02 0.  0.
          1    1    3    3  502    0 -0.12534354227E+03 -0.10558099799E+03  0.60308628114E+02  0.17462955463E+03  0.00000000000E+00 0. -1.
         -2    1    3    3    0  502 -0.48433656341E+03 -0.47703284179E+03  0.60664908212E+02  0.68251188260E+03  0.00000000000E+00 0.  1.
         11    1    5    5    0    0  0.45588395897E+02  0.60367028822E+00  0.22012537087E+01  0.45645501160E+02  0.00000000000E+00 0. -1.
        -11    1    5    5    0    0  0.18414702194E+03  0.20086351695E+03  0.29842984441E+02  0.27412931593E+03  0.00000000000E+00 0.  1.
          1    1    6    6  503    0  0.20574143856E+02  0.37411048707E+02  0.86144997768E+02  0.96144904187E+02  0.00000000000E+00 0. -1.
         -1    1    6    6    0  503  0.35937054399E+03  0.34373560383E+03  0.17789855740E+04  0.18471846215E+04  0.00000000000E+00 0.  1.
<mgrwt>
<rscale>  0 0.23797082E+04</rscale>
<asrwt>0</asrwt>
<pdfrwt beam="1">  1        1 0.39526108E+00 0.23797082E+04</pdfrwt>
<pdfrwt beam="2">  1       -2 0.84776727E-01 0.23797082E+04</pdfrwt>
<totfact> 0.11596002E+00</totfact>
</mgrwt>
</event>
<event>
12    4  0.4280696E-008  0.2607595E+04  0.7818608E-02  0.8365626E-01
         -2   -1    0    0    0  501 -0.00000000000E+00  0.00000000000E+00  0.53455262067E+03  0.53455262067E+03  0.00000000000E+00 0.  1.
          1   -1    0    0  501    0  0.00000000000E+00 -0.00000000000E+00 -0.31800186540E+04  0.31800186540E+04  0.00000000000E+00 0. -1.
        -24    2    1    2    0    0  0.11422009264E+04  0.69569914088E+02 -0.10803622283E+04  0.15756847442E+04  0.78338619430E+02 0.  0.
        254    2    1    2    0    0 -0.11422009264E+04 -0.69569914088E+02 -0.15651038050E+04  0.21388865305E+04  0.90322906332E+03 0.  0.
         23    2    4    4    0    0 -0.11210951749E+04  0.50815678503E+02 -0.85792201232E+03  0.14155957539E+04  0.91894150233E+02 0.  0.
         23    2    4    4    0    0 -0.21105751502E+02 -0.12038559259E+03 -0.70718179268E+03  0.72329077663E+03  0.90029528589E+02 0.  0.
          1    1    3    3  502    0  0.16772241000E+03  0.37966110136E+02 -0.15734618884E+03  0.23308808523E+03  0.00000000000E+00 0. -1.
         -2    1    3    3    0  502  0.97447851641E+03  0.31603803952E+02 -0.92301603950E+03  0.13425966589E+04  0.00000000000E+00 0.  1.
         11    1    5    5    0    0 -0.55365997928E+03  0.13359210254E+01 -0.37345529065E+03  0.66783980973E+03  0.00000000000E+00 0.  1.
        -11    1    5    5    0    0 -0.56743519563E+03  0.49479757477E+02 -0.48446672167E+03  0.74775594417E+03  0.00000000000E+00 0. -1.
          1    1    6    6  503    0  0.74947899685E+01 -0.11499823383E+03 -0.63655368016E+03  0.64690134749E+03  0.00000000000E+00 0. -1.
         -1    1    6    6    0  503 -0.28600541470E+02 -0.53873587597E+01 -0.70628112518E+02  0.76389429142E+02  0.00000000000E+00 0.  1.
<mgrwt>
<rscale>  0 0.26075945E+04</rscale>
<asrwt>0</asrwt>
<pdfrwt beam="1">  1        1 0.48923365E+00 0.26075945E+04</pdfrwt>
<pdfrwt beam="2">  1       -2 0.82238862E-01 0.26075945E+04</pdfrwt>
<totfact> 0.44233228E-01</totfact>
</mgrwt>
</event>
<event>
12    4  0.4280696E-008  0.2159764E+04  0.7818608E-02  0.8535365E-01
         -2   -1    0    0    0  501 -0.00000000000E+00  0.00000000000E+00  0.85429652012E+03  0.85429652012E+03  0.00000000000E+00 0.  1.
          1   -1    0    0  501    0  0.00000000000E+00 -0.00000000000E+00 -0.13650350405E+04  0.13650350405E+04  0.00000000000E+00 0. -1.
        -24    2    1    2    0    0 -0.76608569125E+03 -0.43899438030E+03 -0.83402540613E+02  0.89047216638E+03  0.79883308867E+02 0.  0.
        254    2    1    2    0    0  0.76608569125E+03  0.43899438030E+03 -0.42733597976E+03  0.13288593942E+04  0.89646410846E+03 0.  0.
         23    2    4    4    0    0  0.21444747026E+03  0.40690713270E+03 -0.58216679861E+03  0.74733781303E+03  0.89635334725E+02 0.  0.
         23    2    4    4    0    0  0.55163822099E+03  0.32087247601E+02  0.15483081885E+03  0.58152158120E+03  0.94129956003E+02 0.  0.
          3    1    3    3  502    0 -0.29728119595E+03 -0.15282918512E+03 -0.67421918721E+02  0.34099645807E+03  0.00000000000E+00 0. -1.
         -4    1    3    3    0  502 -0.46880449530E+03 -0.28616519518E+03 -0.15980621892E+02  0.54947570831E+03  0.00000000000E+00 0.  1.
         11    1    5    5    0    0  0.20879359157E+02  0.12420005349E+03 -0.16095976092E+03  0.20437623531E+03  0.00000000000E+00 0.  1.
        -11    1    5    5    0    0  0.19356811110E+03  0.28270707921E+03 -0.42120703770E+03  0.54296157771E+03  0.00000000000E+00 0. -1.
          2    1    6    6  503    0  0.47000235489E+03  0.26837312519E+02  0.95218399064E+02  0.48030094573E+03  0.00000000000E+00 0. -1.
         -2    1    6    6    0  503  0.81635866101E+02  0.52499350819E+01  0.59612419789E+02  0.10122063547E+03  0.00000000000E+00 0.  1.
<mgrwt>
<rscale>  0 0.21597636E+04</rscale>
<asrwt>0</asrwt>
<pdfrwt beam="1">  1        1 0.21000539E+00 0.21597636E+04</pdfrwt>
<pdfrwt beam="2">  1       -2 0.13143024E+00 0.21597636E+04</pdfrwt>
<totfact> 0.27581450E+00</totfact>
</mgrwt>
</event>
<event>
12    4  0.4280696E-008  0.2004340E+04  0.7818608E-02  0.8604594E-01
         -2   -1    0    0    0  501 -0.00000000000E+00  0.00000000000E+00  0.87294744231E+03  0.87294744231E+03  0.00000000000E+00 0.  1.
          1   -1    0    0  501    0  0.00000000000E+00 -0.00000000000E+00 -0.11505214151E+04  0.11505214151E+04  0.00000000000E+00 0. -1.
        -24    2    1    2    0    0 -0.29181849001E+03 -0.32727692662E+03 -0.78229740530E+03  0.90044497783E+03  0.80893200890E+02 0.  0.
        254    2    1    2    0    0  0.29181849001E+03  0.32727692662E+03  0.50472343249E+03  0.11230238796E+04  0.90231295737E+03 0.  0.
         23    2    4    4    0    0  0.20151796850E+03  0.43723646048E+03 -0.96605475771E+02  0.49882695276E+03  0.87809434865E+02 0.  0.
         23    2    4    4    0    0  0.90300521507E+02 -0.10995953387E+03  0.60132890826E+03  0.62419692683E+03  0.88204672679E+02 0.  0.
          1    1    3    3  502    0 -0.29480369650E+03 -0.30894904862E+03 -0.75563518228E+03  0.86795349116E+03  0.00000000000E+00 0. -1.
         -2    1    3    3    0  502  0.29852064913E+01 -0.18327877999E+02 -0.26662223017E+02  0.32491486669E+02  0.00000000000E+00 0.  1.
         11    1    5    5    0    0  0.17001667201E+03  0.32091844328E+03 -0.10494255954E+03  0.37803076171E+03  0.00000000000E+00 0. -1.
        -11    1    5    5    0    0  0.31501296490E+02  0.11631801721E+03  0.83370837689E+01  0.12079619106E+03  0.00000000000E+00 0.  1.
          1    1    6    6  503    0  0.10001972736E+03 -0.98002529146E+02  0.43110250642E+03  0.45327454442E+03  0.00000000000E+00 0. -1.
         -1    1    6    6    0  503 -0.97192058524E+01 -0.11957004719E+02  0.17022640185E+03  0.17092238241E+03  0.00000000000E+00 0.  1.
<mgrwt>
<rscale>  0 0.20043400E+04</rscale>
<asrwt>0</asrwt>
<pdfrwt beam="1">  1        1 0.17700330E+00 0.20043400E+04</pdfrwt>
<pdfrwt beam="2">  1       -2 0.13429961E+00 0.20043400E+04</pdfrwt>
<totfact> 0.37789525E+00</totfact>
</mgrwt>
</event>
<event>
12    4  0.4280696E-008  0.1543927E+04  0.7818608E-02  0.8855756E-01
          1   -1    0    0  501    0  0.00000000000E+00  0.00000000000E+00  0.42956298294E+03  0.42956298294E+03  0.00000000000E+00 0. -1.
         -2   -1    0    0    0  501 -0.00000000000E+00 -0.00000000000E+00 -0.13872873152E+04  0.13872873152E+04  0.00000000000E+00 0.  1.
        -24    2    1    2    0    0  0.19735491563E+02  0.42344068800E+02 -0.89361003529E+03  0.89869414276E+03  0.83245163729E+02 0.  0.
        254    2    1    2    0    0 -0.19735491563E+02 -0.42344068800E+02 -0.64114296952E+02  0.91815615535E+03  0.91472267532E+03 0.  0.
         23    2    4    4    0    0 -0.43700174039E+03  0.51161506165E+02  0.82498041321E+02  0.45680155015E+03  0.90959928437E+02 0.  0.
         23    2    4    4    0    0  0.41726624883E+03 -0.93505574965E+02 -0.14661233827E+03  0.46135460520E+03  0.92187195643E+02 0.  0.
          3    1    3    3  502    0 -0.52599454918E+00 -0.11035606770E+02 -0.17305101752E+02  0.20531143020E+02  0.00000000000E+00 0. -1.
         -4    1    3    3    0  502  0.20261486112E+02  0.53379675570E+02 -0.87630493354E+03  0.87816299975E+03  0.00000000000E+00 0.  1.
         11    1    5    5    0    0 -0.11139792496E+02 -0.12542614120E+02  0.11620246947E+02  0.20406917575E+02  0.00000000000E+00 0.  1.
        -11    1    5    5    0    0 -0.42586194790E+03  0.63704120285E+02  0.70877794375E+02  0.43639463258E+03  0.00000000000E+00 0. -1.
          4    1    6    6  503    0  0.90788230330E+02 -0.75282791646E+01 -0.70701385815E+02  0.11531636358E+03  0.00000000000E+00 0.  1.
         -4    1    6    6    0  503  0.32647801850E+03 -0.85977295801E+02 -0.75910952458E+02  0.34603824162E+03  0.00000000000E+00 0. -1.
<mgrwt>
<rscale>  0 0.15439265E+04</rscale>
<asrwt>0</asrwt>
<pdfrwt beam="1">  1        1 0.66086612E-01 0.15439265E+04</pdfrwt>
<pdfrwt beam="2">  1       -2 0.21342882E+00 0.15439265E+04</pdfrwt>
<totfact> 0.49977334E+00</totfact>
</mgrwt>
</event>
<event>
12    4  0.4280696E-008  0.3210479E+04  0.7818608E-02  0.8186055E-01
          1   -1    0    0  501    0  0.00000000000E+00  0.00000000000E+00  0.13222647789E+04  0.13222647789E+04  0.00000000000E+00 0. -1.
         -2   -1    0    0    0  501 -0.00000000000E+00 -0.00000000000E+00 -0.19487734409E+04  0.19487734409E+04  0.00000000000E+00 0.  1.
        -24    2    1    2    0    0  0.79080939758E+03 -0.12358930890E+04 -0.47666487045E+03  0.15447424596E+04  0.78794904728E+02 0.  0.
        254    2    1    2    0    0 -0.79080939758E+03  0.12358930890E+04 -0.14984379153E+03  0.17262957601E+04  0.89712466173E+03 0.  0.
         23    2    4    4    0    0 -0.51590898209E+03  0.12389007566E+04  0.92612184606E+02  0.13482081735E+04  0.89727922055E+02 0.  0.
         23    2    4    4    0    0 -0.27490041549E+03 -0.30076675119E+01 -0.24245597614E+03  0.37808758660E+03  0.92660877797E+02 0.  0.
          1    1    3    3  502    0  0.20510998720E+03 -0.25953523504E+03 -0.10786309903E+03  0.34794122091E+03  0.00000000000E+00 0. -1.
         -2    1    3    3    0  502  0.58569941038E+03 -0.97635785400E+03 -0.36880177142E+03  0.11968012387E+04  0.00000000000E+00 0.  1.
         11    1    5    5    0    0 -0.15429238203E+02  0.80017375133E+02  0.19300376170E+02  0.83745723681E+02  0.00000000000E+00 0.  1.
        -11    1    5    5    0    0 -0.50047974388E+03  0.11588833814E+04  0.73311808436E+02  0.12644624498E+04  0.00000000000E+00 0. -1.
          1    1    6    6  503    0 -0.16406358726E+03 -0.44252480697E+02 -0.12128774855E+03  0.20877226985E+03  0.00000000000E+00 0. -1.
         -1    1    6    6    0  503 -0.11083682823E+03  0.41244813185E+02 -0.12116822759E+03  0.16931531675E+03  0.00000000000E+00 0.  1.
<mgrwt>
<rscale>  0 0.32104794E+04</rscale>
<asrwt>0</asrwt>
<pdfrwt beam="1">  1        1 0.20342535E+00 0.32104794E+04</pdfrwt>
<pdfrwt beam="2">  1       -2 0.29981130E+00 0.32104794E+04</pdfrwt>
<totfact> 0.20394389E-01</totfact>
</mgrwt>
</event>
<event>
12    4  0.4280696E-008  0.1044139E+04  0.7818608E-02  0.9261416E-01
          1   -1    0    0  501    0  0.00000000000E+00  0.00000000000E+00  0.12599025874E+04  0.12599025874E+04  0.00000000000E+00 0. -1.
         -2   -1    0    0    0  501 -0.00000000000E+00 -0.00000000000E+00 -0.21633138236E+03  0.21633138236E+03  0.00000000000E+00 0.  1.
        -24    2    1    2    0    0  0.53549379894E+02  0.25525155419E+02  0.24617844947E+03  0.26796123049E+03  0.87637448703E+02 0.  0.
        254    2    1    2    0    0 -0.53549379894E+02 -0.25525155419E+02  0.79739275554E+03  0.12082727392E+04  0.90585249138E+03 0.  0.
         23    2    4    4    0    0 -0.29272066917E+03  0.33509117952E+03  0.49718902791E+03  0.67344067031E+03  0.91399771350E+02 0.  0.
         23    2    4    4    0    0  0.23917128928E+03 -0.36061633493E+03  0.30020372763E+03  0.53483206892E+03  0.93145140683E+02 0.  0.
          3    1    3    3  502    0  0.46856715255E+02 -0.26166098130E+02  0.12841896676E+03  0.13918206595E+03  0.00000000000E+00 0. -1.
         -4    1    3    3    0  502  0.66926646386E+01  0.51691253549E+02  0.11775948270E+03  0.12877916454E+03  0.00000000000E+00 0.  1.
         11    1    5    5    0    0 -0.17902164811E+02  0.17859062040E+02  0.36234646281E+01  0.25545314596E+02  0.00000000000E+00 0.  1.
        -11    1    5    5    0    0 -0.27481850436E+03  0.31723211747E+03  0.49356556329E+03  0.64789535572E+03  0.00000000000E+00 0. -1.
          3    1    6    6  503    0  0.15194124070E+03 -0.25172870746E+03  0.15091716583E+03  0.33049882560E+03  0.00000000000E+00 0. -1.
         -3    1    6    6    0  503  0.87230048572E+02 -0.10888762748E+03  0.14928656180E+03  0.20433324332E+03  0.00000000000E+00 0.  1.
<mgrwt>
<rscale>  0 0.10441388E+04</rscale>
<asrwt>0</asrwt>
<pdfrwt beam="1">  1        1 0.19383116E+00 0.10441388E+04</pdfrwt>
<pdfrwt beam="2">  1       -2 0.33281752E-01 0.10441388E+04</pdfrwt>
<totfact> 0.71460722E+01</totfact>
</mgrwt>
</event>
<event>
12    4  0.4280696E-008  0.1169053E+04  0.7818608E-02  0.9140385E-01
          1   -1    0    0  501    0  0.00000000000E+00  0.00000000000E+00  0.25605789080E+04  0.25605789080E+04  0.00000000000E+00 0. -1.
         -2   -1    0    0    0  501 -0.00000000000E+00 -0.00000000000E+00 -0.13343504422E+03  0.13343504422E+03  0.00000000000E+00 0.  1.
        -24    2    1    2    0    0 -0.12527338696E+03  0.15429928735E+03  0.73241328009E+03  0.76301137539E+03  0.79091431705E+02 0.  0.
        254    2    1    2    0    0  0.12527338696E+03 -0.15429928735E+03  0.16947305837E+04  0.19310025768E+04  0.90396764815E+03 0.  0.
         23    2    4    4    0    0 -0.91245064807E+02 -0.55404299500E+02 -0.64513420292E+02  0.15344716996E+03  0.89379831706E+02 0.  0.
         23    2    4    4    0    0  0.21651845177E+03 -0.98894987848E+02  0.17592440040E+04  0.17775554069E+04  0.90018333682E+02 0.  0.
          3    1    3    3  502    0 -0.12802144493E+03  0.14346526144E+03  0.59841521312E+03  0.62854796070E+03  0.00000000000E+00 0. -1.
         -4    1    3    3    0  502  0.27480579697E+01  0.10834025906E+02  0.13399806697E+03  0.13446341470E+03  0.00000000000E+00 0.  1.
         11    1    5    5    0    0 -0.88988317146E+02 -0.60961338666E+02 -0.21463322508E+02  0.10998126938E+03  0.00000000000E+00 0. -1.
        -11    1    5    5    0    0 -0.22567476610E+01  0.55570391657E+01 -0.43050097784E+02  0.43465900583E+02  0.00000000000E+00 0.  1.
          4    1    6    6  503    0  0.20533512242E+03 -0.76044279637E+02  0.16828783178E+04  0.16970635455E+04  0.00000000000E+00 0. -1.
         -4    1    6    6    0  503  0.11183329348E+02 -0.22850708211E+02  0.76365686168E+02  0.80491861358E+02  0.00000000000E+00 0.  1.
<mgrwt>
<rscale>  0 0.11690525E+04</rscale>
<asrwt>0</asrwt>
<pdfrwt beam="1">  1        1 0.39393518E+00 0.11690525E+04</pdfrwt>
<pdfrwt beam="2">  1       -2 0.20528470E-01 0.11690525E+04</pdfrwt>
<totfact> 0.22026557E+01</totfact>
</mgrwt>
</event>
<event>
12    4  0.4280696E-008  0.3042023E+04  0.7818608E-02  0.8231832E-01
          1   -1    0    0  501    0  0.00000000000E+00  0.00000000000E+00  0.10549798556E+04  0.10549798556E+04  0.00000000000E+00 0. -1.
         -2   -1    0    0    0  501 -0.00000000000E+00 -0.00000000000E+00 -0.21929095013E+04  0.21929095013E+04  0.00000000000E+00 0.  1.
        -24    2    1    2    0    0  0.68774962196E+03 -0.11956628220E+04 -0.38151582732E+03  0.14334238150E+04  0.80872619224E+02 0.  0.
        254    2    1    2    0    0 -0.68774962196E+03  0.11956628220E+04 -0.75641381833E+03  0.18144655420E+04  0.90416492522E+03 0.  0.
         23    2    4    4    0    0  0.20172315024E+03  0.26872244098E+03 -0.65844930664E+02  0.35323432875E+03  0.86804127114E+02 0.  0.
         23    2    4    4    0    0 -0.88947277220E+03  0.92694038100E+03 -0.69056888767E+03  0.14612312132E+04  0.89056091324E+02 0.  0.
          3    1    3    3  502    0  0.68099531863E+03 -0.11922756665E+04 -0.37473582036E+03  0.14232718728E+04  0.00000000000E+00 0. -1.
         -4    1    3    3    0  502  0.67543033240E+01 -0.33871555043E+01 -0.67800069615E+01  0.10151942189E+02  0.00000000000E+00 0.  1.
         11    1    5    5    0    0  0.14299627571E+03  0.13378595167E+03 -0.10820434907E+02  0.19612163966E+03  0.00000000000E+00 0. -1.
        -11    1    5    5    0    0  0.58726874527E+02  0.13493648931E+03 -0.55024495757E+02  0.15711268909E+03  0.00000000000E+00 0.  1.
          1    1    6    6  503    0 -0.87426010286E+03  0.90113930768E+03 -0.68660856262E+03  0.14310185525E+04  0.00000000000E+00 0. -1.
         -1    1    6    6    0  503 -0.15212669342E+02  0.25801073324E+02 -0.39603250509E+01  0.30212660718E+02  0.00000000000E+00 0.  1.
<mgrwt>
<rscale>  0 0.30420226E+04</rscale>
<asrwt>0</asrwt>
<pdfrwt beam="1">  1        1 0.16230459E+00 0.30420226E+04</pdfrwt>
<pdfrwt beam="2">  1       -2 0.33737069E+00 0.30420226E+04</pdfrwt>
<totfact> 0.19060334E-01</totfact>
</mgrwt>
</event>
<event>
12    4  0.4280696E-008  0.1213615E+04  0.7818608E-02  0.9101023E-01
         -2   -1    0    0    0  501 -0.00000000000E+00  0.00000000000E+00  0.23428167960E+03  0.23428167960E+03  0.00000000000E+00 0.  1.
          1   -1    0    0  501    0  0.00000000000E+00 -0.00000000000E+00 -0.15716766286E+04  0.15716766286E+04  0.00000000000E+00 0. -1.
        -24    2    1    2    0    0  0.25746510604E+03 -0.32278632329E+02 -0.19458210736E+03  0.33380379652E+03  0.78946736036E+02 0.  0.
        254    2    1    2    0    0 -0.25746510604E+03  0.32278632329E+02 -0.11428128416E+04  0.14721545117E+04  0.89100366123E+03 0.  0.
         23    2    4    4    0    0 -0.42132824295E+03  0.22358037105E+03 -0.10923551548E+04  0.11955434328E+04  0.92620973936E+02 0.  0.
         23    2    4    4    0    0  0.16386313691E+03 -0.19130173872E+03 -0.50457686809E+02  0.27661107888E+03  0.10256816234E+03 0.  0.
          3    1    3    3  502    0  0.30805519450E+00 -0.13145123744E+02 -0.12392715929E+02  0.18068441669E+02  0.00000000000E+00 0. -1.
         -2    1    3    3    0  502  0.25715705085E+03 -0.19133508584E+02 -0.18218939143E+03  0.31573535485E+03  0.00000000000E+00 0.  1.
         11    1    5    5    0    0 -0.78682678191E+02  0.12107043791E+02 -0.13130820720E+03  0.15355581928E+03  0.00000000000E+00 0. -1.
        -11    1    5    5    0    0 -0.34264556476E+03  0.21147332725E+03 -0.96104694762E+03  0.10419876135E+04  0.00000000000E+00 0.  1.
          1    1    6    6  503    0  0.17709842676E+02  0.12111566680E+02 -0.52621725584E+01  0.22091152869E+02  0.00000000000E+00 0. -1.
         -1    1    6    6    0  503  0.14615329424E+03 -0.20341330540E+03 -0.45195514251E+02  0.25451992601E+03  0.00000000000E+00 0.  1.
<mgrwt>
<rscale>  0 0.12136145E+04</rscale>
<asrwt>0</asrwt>
<pdfrwt beam="1">  1        1 0.24179640E+00 0.12136145E+04</pdfrwt>
<pdfrwt beam="2">  1       -2 0.36043336E-01 0.12136145E+04</pdfrwt>
<totfact> 0.36667331E+01</totfact>
</mgrwt>
</event>
<event>
12    4  0.4280696E-008  0.1995432E+04  0.7818608E-02  0.8608760E-01
         -2   -1    0    0    0  501 -0.00000000000E+00  0.00000000000E+00  0.52494125341E+03  0.52494125341E+03  0.00000000000E+00 0.  1.
          1   -1    0    0  501    0  0.00000000000E+00 -0.00000000000E+00 -0.18962823527E+04  0.18962823527E+04  0.00000000000E+00 0. -1.
        -24    2    1    2    0    0 -0.40906543287E+03 -0.65919180620E+03 -0.34676473786E+03  0.85325983562E+03  0.77059703604E+02 0.  0.
        254    2    1    2    0    0  0.40906543287E+03  0.65919180620E+03 -0.10245763614E+04  0.15679637705E+04  0.89826794414E+03 0.  0.
         23    2    4    4    0    0  0.22116434033E+03  0.17459729877E+03 -0.99654495778E+03  0.10397776828E+04  0.92940274854E+02 0.  0.
         23    2    4    4    0    0  0.18790109254E+03  0.48459450744E+03 -0.28031403661E+02  0.52818608767E+03  0.89755926801E+02 0.  0.
          3    1    3    3  502    0 -0.29485027278E+03 -0.44117436461E+03 -0.27043292064E+03  0.59557154726E+03  0.00000000000E+00 0. -1.
         -4    1    3    3    0  502 -0.11421516010E+03 -0.21801744159E+03 -0.76331817223E+02  0.25768828836E+03  0.00000000000E+00 0.  1.
         11    1    5    5    0    0  0.13376951135E+03  0.15570818960E+03 -0.63581913367E+03  0.66813568474E+03  0.00000000000E+00 0.  1.
        -11    1    5    5    0    0  0.87394828973E+02  0.18889109168E+02 -0.36072582411E+03  0.37164199811E+03  0.00000000000E+00 0. -1.
          3    1    6    6  503    0  0.11661494295E+03  0.37462312151E+03 -0.49220697540E+02  0.39542914050E+03  0.00000000000E+00 0. -1.
         -3    1    6    6    0  503  0.71286149590E+02  0.10997138593E+03  0.21189293879E+02  0.13275694717E+03  0.00000000000E+00 0.  1.
<mgrwt>
<rscale>  0 0.19954316E+04</rscale>
<asrwt>0</asrwt>
<pdfrwt beam="1">  1        1 0.29173575E+00 0.19954316E+04</pdfrwt>
<pdfrwt beam="2">  1       -2 0.80760193E-01 0.19954316E+04</pdfrwt>
<totfact> 0.38642296E+00</totfact>
</mgrwt>
</event>
<event>
12    4  0.4280696E-008  0.1588816E+04  0.7818608E-02  0.8827449E-01
         -2   -1    0    0    0  501 -0.00000000000E+00  0.00000000000E+00  0.85567816828E+03  0.85567816828E+03  0.00000000000E+00 0.  1.
          1   -1    0    0  501    0  0.00000000000E+00 -0.00000000000E+00 -0.73752466034E+03  0.73752466034E+03  0.00000000000E+00 0. -1.
        -24    2    1    2    0    0 -0.36280984618E+03 -0.26552189569E+01 -0.35681592654E+03  0.51506483794E+03  0.79599919434E+02 0.  0.
        254    2    1    2    0    0  0.36280984618E+03  0.26552189569E+01  0.47496943448E+03  0.10781379907E+04  0.89730013293E+03 0.  0.
         23    2    4    4    0    0  0.11734339513E+03 -0.42939829559E+03  0.29504285857E+03  0.54182841523E+03  0.91517072258E+02 0.  0.
         23    2    4    4    0    0  0.24546645105E+03  0.43205351455E+03  0.17992657591E+03  0.53630957545E+03  0.91270860473E+02 0.  0.
          3    1    3    3  502    0 -0.35870587041E+03 -0.77098338180E+01 -0.35960528612E+03  0.50798159889E+03  0.00000000000E+00 0. -1.
         -4    1    3    3    0  502 -0.41039757731E+01  0.50546148612E+01  0.27893595828E+01  0.70832390488E+01  0.00000000000E+00 0.  1.
         11    1    5    5    0    0  0.95874258923E+02 -0.19668509824E+03  0.16772480976E+03  0.27569641492E+03  0.00000000000E+00 0.  1.
        -11    1    5    5    0    0  0.21469136212E+02 -0.23271319736E+03  0.12731804881E+03  0.26613200031E+03  0.00000000000E+00 0. -1.
          2    1    6    6  503    0  0.18844258570E+02  0.10893513577E+03  0.38319612590E+02  0.11700582291E+03  0.00000000000E+00 0. -1.
         -2    1    6    6    0  503  0.22662219248E+03  0.32311837878E+03  0.14160696332E+03  0.41930375254E+03  0.00000000000E+00 0.  1.
<mgrwt>
<rscale>  0 0.15888156E+04</rscale>
<asrwt>0</asrwt>
<pdfrwt beam="1">  1        1 0.11346533E+00 0.15888156E+04</pdfrwt>
<pdfrwt beam="2">  1       -2 0.13164280E+00 0.15888156E+04</pdfrwt>
<totfact> 0.88928025E+00</totfact>
</mgrwt>
</event>
<event>
12    4  0.4280696E-008  0.2725306E+04  0.7818608E-02  0.8326841E-01
          1   -1    0    0  501    0  0.00000000000E+00  0.00000000000E+00  0.30538361606E+04  0.30538361606E+04  0.00000000000E+00 0. -1.
         -2   -1    0    0    0  501 -0.00000000000E+00 -0.00000000000E+00 -0.60802966406E+03  0.60802966406E+03  0.00000000000E+00 0.  1.
        -24    2    1    2    0    0  0.53775709120E+01 -0.49154044787E+03 -0.39925633821E+03  0.63831383536E+03  0.79987490520E+02 0.  0.
        254    2    1    2    0    0 -0.53775709120E+01  0.49154044787E+03  0.28450628348E+04  0.30235519893E+04  0.89768767854E+03 0.  0.
         23    2    4    4    0    0 -0.25696584547E+03  0.42877787800E+03  0.26177871560E+04  0.26666267299E+04  0.90590333676E+02 0.  0.
         23    2    4    4    0    0  0.25158827456E+03  0.62762569870E+02  0.22727567880E+03  0.35692525937E+03  0.92225845249E+02 0.  0.
          3    1    3    3  502    0  0.28060011739E+02 -0.10591052954E+03 -0.11395617417E+03  0.15808356701E+03  0.00000000000E+00 0. -1.
         -4    1    3    3    0  502 -0.22682440827E+02 -0.38562991833E+03 -0.28530016404E+03  0.48023026835E+03  0.00000000000E+00 0.  1.
         11    1    5    5    0    0 -0.12611827850E+02  0.35270952304E+01  0.29429380466E+02  0.32211597867E+02  0.00000000000E+00 0. -1.
        -11    1    5    5    0    0 -0.24435401762E+03  0.42525078277E+03  0.25883577755E+04  0.26344151321E+04  0.00000000000E+00 0.  1.
          3    1    6    6  503    0  0.92440411217E+02  0.68542826872E+02  0.81389174027E+02  0.14095228409E+03  0.00000000000E+00 0. -1.
         -3    1    6    6    0  503  0.15914786334E+03 -0.57802570013E+01  0.14588650478E+03  0.21597297528E+03  0.00000000000E+00 0.  1.
<mgrwt>
<rscale>  0 0.27253058E+04</rscale>
<asrwt>0</asrwt>
<pdfrwt beam="1">  1        1 0.46982094E+00 0.27253058E+04</pdfrwt>
<pdfrwt beam="2">  1       -2 0.93543027E-01 0.27253058E+04</pdfrwt>
<totfact> 0.40406090E-01</totfact>
</mgrwt>
</event>
<event>
12    4  0.4280696E-008  0.3154204E+04  0.7818608E-02  0.8201018E-01
          1   -1    0    0  501    0  0.00000000000E+00  0.00000000000E+00  0.22121046139E+04  0.22121046139E+04  0.00000000000E+00 0. -1.
         -2   -1    0    0    0  501 -0.00000000000E+00 -0.00000000000E+00 -0.11243821393E+04  0.11243821393E+04  0.00000000000E+00 0.  1.
        -24    2    1    2    0    0  0.93908921910E+03 -0.14028749311E+03  0.16550502879E+04  0.19098944619E+04  0.83284200944E+02 0.  0.
        254    2    1    2    0    0 -0.93908921910E+03  0.14028749311E+03 -0.56732781325E+03  0.14265922914E+04  0.90096369295E+03 0.  0.
         23    2    4    4    0    0 -0.36523275370E+03 -0.30315103977E+02  0.21722553074E+03  0.43553632637E+03  0.90504090966E+02 0.  0.
         23    2    4    4    0    0 -0.57385646540E+03  0.17060259709E+03 -0.78455334399E+03  0.99105596502E+03  0.90837697080E+02 0.  0.
          3    1    3    3  502    0  0.83477045745E+03 -0.98421367029E+02  0.14470490259E+04  0.16734632848E+04  0.00000000000E+00 0. -1.
         -4    1    3    3    0  502  0.10431876165E+03 -0.41866126086E+02  0.20800126192E+03  0.23643117710E+03  0.00000000000E+00 0.  1.
         11    1    5    5    0    0  0.32641540598E+01 -0.57792949556E+01  0.10159298570E+02  0.12135332684E+02  0.00000000000E+00 0.  1.
        -11    1    5    5    0    0 -0.36849690776E+03 -0.24535809021E+02  0.20706623217E+03  0.42340099369E+03  0.00000000000E+00 0. -1.
          4    1    6    6  503    0 -0.34320079143E+03  0.80757817209E+02 -0.52486707183E+03  0.63229269438E+03  0.00000000000E+00 0. -1.
         -4    1    6    6    0  503 -0.23065567397E+03  0.89844779883E+02 -0.25968627216E+03  0.35876327064E+03  0.00000000000E+00 0.  1.
<mgrwt>
<rscale>  0 0.31542041E+04</rscale>
<asrwt>0</asrwt>
<pdfrwt beam="1">  1        1 0.34032379E+00 0.31542041E+04</pdfrwt>
<pdfrwt beam="2">  1       -2 0.17298187E+00 0.31542041E+04</pdfrwt>
<totfact> 0.32054410E-01</totfact>
</mgrwt>
</event>
<event>
12    4  0.4280696E-008  0.1396617E+04  0.7818608E-02  0.8956271E-01
          1   -1    0    0  501    0  0.00000000000E+00  0.00000000000E+00  0.23602431236E+04  0.23602431236E+04  0.00000000000E+00 0. -1.
         -2   -1    0    0    0  501 -0.00000000000E+00 -0.00000000000E+00 -0.20660371671E+03  0.20660371671E+03  0.00000000000E+00 0.  1.
        -24    2    1    2    0    0 -0.29835101933E+03 -0.21646717781E+03  0.89123140493E+03  0.96849864035E+03  0.88458065883E+02 0.  0.
        254    2    1    2    0    0  0.29835101933E+03  0.21646717781E+03  0.12624080020E+04  0.15983482000E+04  0.90838958334E+03 0.  0.
         23    2    4    4    0    0  0.66711775943E+02  0.54517793220E+03  0.84376739897E+03  0.10109976900E+04  0.92214243834E+02 0.  0.
         23    2    4    4    0    0  0.23163924338E+03 -0.32871075439E+03  0.41864060298E+03  0.58735050999E+03  0.89516300120E+02 0.  0.
          1    1    3    3  502    0 -0.20694418872E+03 -0.13039551867E+03  0.68141785591E+03  0.72398838588E+03  0.00000000000E+00 0. -1.
         -2    1    3    3    0  502 -0.91406830604E+02 -0.86071659136E+02  0.20981354902E+03  0.24451025447E+03  0.00000000000E+00 0.  1.
         11    1    5    5    0    0  0.28160844187E+02  0.15707838134E+03  0.17516632035E+03  0.23695968183E+03  0.00000000000E+00 0.  1.
        -11    1    5    5    0    0  0.38550931756E+02  0.38809955086E+03  0.66860107862E+03  0.77403800814E+03  0.00000000000E+00 0. -1.
          4    1    6    6  503    0  0.23023576862E+03 -0.31485546528E+03  0.42020529661E+03  0.57333669381E+03  0.00000000000E+00 0. -1.
         -4    1    6    6    0  503  0.14034747612E+01 -0.13855289106E+02 -0.15646936256E+01  0.14013816174E+02  0.00000000000E+00 0.  1.
<mgrwt>
<rscale>  0 0.13966173E+04</rscale>
<asrwt>0</asrwt>
<pdfrwt beam="1">  1        1 0.36311431E+00 0.13966173E+04</pdfrwt>
<pdfrwt beam="2">  1       -2 0.31785189E-01 0.13966173E+04</pdfrwt>
<totfact> 0.13366169E+01</totfact>
</mgrwt>
</event>
<event>
12    4  0.4280696E-008  0.1404881E+04  0.7818608E-02  0.8950293E-01
          1   -1    0    0  501    0  0.00000000000E+00  0.00000000000E+00  0.14970652787E+04  0.14970652787E+04  0.00000000000E+00 0. -1.
         -2   -1    0    0    0  501 -0.00000000000E+00 -0.00000000000E+00 -0.32959322666E+03  0.32959322666E+03  0.00000000000E+00 0.  1.
        -24    2    1    2    0    0 -0.23072019418E+03 -0.25942092993E+03  0.64170290631E+03  0.73397286369E+03  0.80015734600E+02 0.  0.
        254    2    1    2    0    0  0.23072019418E+03  0.25942092993E+03  0.52576914572E+03  0.10926856417E+04  0.89274727107E+03 0.  0.
         23    2    4    4    0    0  0.14043277842E+03 -0.31947190017E+03  0.15456330120E+03  0.39313472064E+03  0.94241361658E+02 0.  0.
         23    2    4    4    0    0  0.90287415765E+02  0.57889283010E+03  0.37120584451E+03  0.69955092101E+03  0.91153638991E+02 0.  0.
          1    1    3    3  502    0 -0.20148812742E+03 -0.17608015563E+03  0.46760127656E+03  0.53875100050E+03  0.00000000000E+00 0. -1.
         -2    1    3    3    0  502 -0.29232066764E+02 -0.83340774299E+02  0.17410162975E+03  0.19522186320E+03  0.00000000000E+00 0.  1.
         11    1    5    5    0    0  0.41962186574E+02 -0.21174195690E+02  0.14449763843E+02  0.49172831322E+02  0.00000000000E+00 0. -1.
        -11    1    5    5    0    0  0.98470591843E+02 -0.29829770448E+03  0.14011353736E+03  0.34396188932E+03  0.00000000000E+00 0.  1.
          3    1    6    6  503    0  0.55802711671E+02  0.46277776852E+03  0.33184953211E+03  0.57218993143E+03  0.00000000000E+00 0. -1.
         -3    1    6    6    0  503  0.34484704093E+02  0.11611506158E+03  0.39356312408E+02  0.12736098958E+03  0.00000000000E+00 0.  1.
<mgrwt>
<rscale>  0 0.14048809E+04</rscale>
<asrwt>0</asrwt>
<pdfrwt beam="1">  1        1 0.23031773E+00 0.14048809E+04</pdfrwt>
<pdfrwt beam="2">  1       -2 0.50706651E-01 0.14048809E+04</pdfrwt>
<totfact> 0.20668721E+01</totfact>
</mgrwt>
</event>
<event>
12    4  0.4280696E-008  0.1315480E+04  0.7818608E-02  0.9017379E-01
         -4   -1    0    0    0  501 -0.00000000000E+00  0.00000000000E+00  0.18518170813E+04  0.18518170813E+04  0.00000000000E+00 0.  1.
          3   -1    0    0  501    0  0.00000000000E+00 -0.00000000000E+00 -0.23362016514E+03  0.23362016514E+03  0.00000000000E+00 0. -1.
        -24    2    1    2    0    0  0.87685633909E+02 -0.31287949365E+03  0.45767701924E+03  0.56631934430E+03  0.75279464955E+02 0.  0.
        254    2    1    2    0    0 -0.87685633909E+02  0.31287949365E+03  0.11605198969E+04  0.15191179022E+04  0.92484075468E+03 0.  0.
         23    2    4    4    0    0  0.26294490448E+03  0.16096926747E+03  0.33211005266E+02  0.32528183626E+03  0.98255657669E+02 0.  0.
         23    2    4    4    0    0 -0.35063053839E+03  0.15191022618E+03  0.11273088917E+04  0.11938360659E+04  0.91655462084E+02 0.  0.
          1    1    3    3  502    0  0.34268329483E+02 -0.87613468400E+02  0.80794676061E+02  0.12400894295E+03  0.00000000000E+00 0. -1.
         -2    1    3    3    0  502  0.53417304426E+02 -0.22526602525E+03  0.37688234318E+03  0.44231040135E+03  0.00000000000E+00 0.  1.
         11    1    5    5    0    0  0.13705827074E+03  0.84605908755E+02  0.66618894981E+02  0.17430205547E+03  0.00000000000E+00 0.  1.
        -11    1    5    5    0    0  0.12588663374E+03  0.76363358714E+02 -0.33407889715E+02  0.15097978078E+03  0.00000000000E+00 0. -1.
          3    1    6    6  503    0 -0.21343292130E+03  0.99471678449E+02  0.82153010363E+03  0.85461098628E+03  0.00000000000E+00 0. -1.
         -3    1    6    6    0  503 -0.13719761709E+03  0.52438547734E+02  0.30577878805E+03  0.33922507963E+03  0.00000000000E+00 0.  1.
<mgrwt>
<rscale>  0 0.13154799E+04</rscale>
<asrwt>0</asrwt>
<pdfrwt beam="1">  1        3 0.35941565E-01 0.13154799E+04</pdfrwt>
<pdfrwt beam="2">  1       -4 0.28489493E+00 0.13154799E+04</pdfrwt>
<totfact> 0.66324824E-01</totfact>
</mgrwt>
</event>
<event>
12    4  0.4280696E-008  0.1791838E+04  0.7818608E-02  0.8710652E-01
         -2   -1    0    0    0  501 -0.00000000000E+00  0.00000000000E+00  0.36259441452E+03  0.36259441452E+03  0.00000000000E+00 0.  1.
          1   -1    0    0  501    0  0.00000000000E+00 -0.00000000000E+00 -0.22136884238E+04  0.22136884238E+04  0.00000000000E+00 0. -1.
        -24    2    1    2    0    0  0.79536368015E+02 -0.54898715312E+03 -0.26276694924E+03  0.61860596324E+03  0.76902145747E+02 0.  0.
        254    2    1    2    0    0 -0.79536368015E+02  0.54898715312E+03 -0.15883270601E+04  0.19576768751E+04  0.10010009837E+04 0.  0.
         23    2    4    4    0    0  0.11329160817E+03  0.39084983110E+03 -0.16354036619E+04  0.16876264107E+04  0.89102108306E+02 0.  0.
         23    2    4    4    0    0 -0.19282797619E+03  0.15813732202E+03  0.47076601845E+02  0.27005046441E+03  0.92309294612E+02 0.  0.
          1    1    3    3  502    0  0.60885173186E+02 -0.17975779248E+03 -0.76417714897E+02  0.20459602983E+03  0.00000000000E+00 0. -1.
         -2    1    3    3    0  502  0.18651194828E+02 -0.36922936063E+03 -0.18634923435E+03  0.41400993341E+03  0.00000000000E+00 0.  1.
         11    1    5    5    0    0  0.93999323222E+02  0.38489572360E+03 -0.15661621833E+04  0.16155013386E+04  0.00000000000E+00 0.  1.
        -11    1    5    5    0    0  0.19292284950E+02  0.59541074936E+01 -0.69241478655E+02  0.72125072069E+02  0.00000000000E+00 0. -1.
          1    1    6    6  503    0 -0.89779250682E+02  0.47012973949E+02 -0.21672398409E+02  0.10363506369E+03  0.00000000000E+00 0. -1.
         -1    1    6    6    0  503 -0.10304872550E+03  0.11112434807E+03  0.68749000254E+02  0.16641540073E+03  0.00000000000E+00 0.  1.
<mgrwt>
<rscale>  0 0.17918382E+04</rscale>
<asrwt>0</asrwt>
<pdfrwt beam="1">  1        1 0.34056745E+00 0.17918382E+04</pdfrwt>
<pdfrwt beam="2">  1       -2 0.55783756E-01 0.17918382E+04</pdfrwt>
<totfact> 0.53394258E+00</totfact>
</mgrwt>
</event>
<event>
12    4  0.4280696E-008  0.1460593E+04  0.7818608E-02  0.8911090E-01
         -2   -1    0    0    0  501 -0.00000000000E+00  0.00000000000E+00  0.11783118096E+04  0.11783118096E+04  0.00000000000E+00 0.  1.
          1   -1    0    0  501    0  0.00000000000E+00 -0.00000000000E+00 -0.45262438747E+03  0.45262438747E+03  0.00000000000E+00 0. -1.
        -24    2    1    2    0    0 -0.28169470821E+03  0.31369130693E+03  0.42044329040E+03  0.60063394558E+03  0.78958416060E+02 0.  0.
        254    2    1    2    0    0  0.28169470821E+03 -0.31369130693E+03  0.30524413170E+03  0.10303022515E+04  0.88915387012E+03 0.  0.
         23    2    4    4    0    0  0.33703976767E+03 -0.54190769841E+03  0.12140929344E+02  0.64489882508E+03  0.92126726988E+02 0.  0.
         23    2    4    4    0    0 -0.55345059468E+02  0.22821639148E+03  0.29310320235E+03  0.38540342639E+03  0.86489981456E+02 0.  0.
          1    1    3    3  502    0 -0.23483674330E+03  0.25485203084E+03  0.38332802057E+03  0.51675741405E+03  0.00000000000E+00 0. -1.
         -2    1    3    3    0  502 -0.46857964909E+02  0.58839276094E+02  0.37115269828E+02  0.83876531527E+02  0.00000000000E+00 0.  1.
         11    1    5    5    0    0  0.16967559045E+03 -0.34540772523E+03 -0.16590864373E+02  0.38519028989E+03  0.00000000000E+00 0. -1.
        -11    1    5    5    0    0  0.16736417723E+03 -0.19649997318E+03  0.28731793717E+02  0.25970853519E+03  0.00000000000E+00 0.  1.
          4    1    6    6  503    0  0.90506105598E+01  0.11982872401E+03  0.17749148363E+03  0.21434566338E+03  0.00000000000E+00 0. -1.
         -4    1    6    6    0  503 -0.64395670027E+02  0.10838766747E+03  0.11561171873E+03  0.17105776301E+03  0.00000000000E+00 0.  1.
<mgrwt>
<rscale>  0 0.14605926E+04</rscale>
<asrwt>0</asrwt>
<pdfrwt beam="1">  1        1 0.69634522E-01 0.14605926E+04</pdfrwt>
<pdfrwt beam="2">  1       -2 0.18127874E+00 0.14605926E+04</pdfrwt>
<totfact> 0.76500379E+00</totfact>
</mgrwt>
</event>
<event>
12    4  0.4280696E-008  0.1556910E+04  0.7818608E-02  0.8847466E-01
         -2   -1    0    0    0  501 -0.00000000000E+00  0.00000000000E+00  0.68256702286E+03  0.68256702286E+03  0.00000000000E+00 0.  1.
          1   -1    0    0  501    0  0.00000000000E+00 -0.00000000000E+00 -0.88781322845E+03  0.88781322845E+03  0.00000000000E+00 0. -1.
        -24    2    1    2    0    0 -0.40000272180E+03 -0.27834764108E+03 -0.22406451922E+03  0.54234710583E+03  0.80348538784E+02 0.  0.
        254    2    1    2    0    0  0.40000272180E+03  0.27834764108E+03  0.18818313630E+02  0.10280331455E+04  0.90499637156E+03 0.  0.
         23    2    4    4    0    0  0.14660739068E+03 -0.30022730318E+03 -0.13571521249E+03  0.37142293150E+03  0.88916896970E+02 0.  0.
         23    2    4    4    0    0  0.25339533111E+03  0.57857494426E+03  0.15453352612E+03  0.65661021398E+03  0.91094469908E+02 0.  0.
          3    1    3    3  502    0 -0.38810484141E+03 -0.27328721343E+03 -0.23075752987E+03  0.52778812657E+03  0.00000000000E+00 0. -1.
         -4    1    3    3    0  502 -0.11897880382E+02 -0.50604276529E+01  0.66930106466E+01  0.14558979261E+02  0.00000000000E+00 0.  1.
         11    1    5    5    0    0  0.76667885032E+02 -0.65581808028E+02 -0.38945683725E+02  0.10814668012E+03  0.00000000000E+00 0. -1.
        -11    1    5    5    0    0  0.69939505650E+02 -0.23464549515E+03 -0.96769528767E+02  0.26327625139E+03  0.00000000000E+00 0.  1.
          3    1    6    6  503    0  0.16353356417E+03  0.32515711358E+03  0.46840763667E+02  0.36696652744E+03  0.00000000000E+00 0. -1.
         -3    1    6    6    0  503  0.89861766945E+02  0.25341783067E+03  0.10769276245E+03  0.28964368653E+03  0.00000000000E+00 0.  1.
<mgrwt>
<rscale>  0 0.15569098E+04</rscale>
<asrwt>0</asrwt>
<pdfrwt beam="1">  1        1 0.13658665E+00 0.15569098E+04</pdfrwt>
<pdfrwt beam="2">  1       -2 0.10501031E+00 0.15569098E+04</pdfrwt>
<totfact> 0.11548239E+01</totfact>
</mgrwt>
</event>
<event>
12    4  0.4280696E-008  0.1828431E+04  0.7818608E-02  0.8691325E-01
         -4   -1    0    0    0  501 -0.00000000000E+00  0.00000000000E+00  0.29788331706E+03  0.29788331706E+03  0.00000000000E+00 0.  1.
          1   -1    0    0  501    0  0.00000000000E+00 -0.00000000000E+00 -0.28057622139E+04  0.28057622139E+04  0.00000000000E+00 0. -1.
        -24    2    1    2    0    0 -0.41783630051E+03 -0.51083143165E+03 -0.12770912425E+04  0.14397239900E+04  0.79417882345E+02 0.  0.
        254    2    1    2    0    0  0.41783630051E+03  0.51083143165E+03 -0.12307876543E+04  0.16639215410E+04  0.90457764668E+03 0.  0.
         23    2    4    4    0    0  0.53604232506E+03  0.15655415348E+03 -0.26725638790E+03  0.62614023375E+03  0.93675173942E+02 0.  0.
         23    2    4    4    0    0 -0.11820602455E+03  0.35427727818E+03 -0.96353126642E+03  0.10377813072E+04  0.95459342995E+02 0.  0.
          3    1    3    3  502    0 -0.37374486056E+03 -0.48448372701E+03 -0.11502059529E+04  0.13028366884E+04  0.00000000000E+00 0. -1.
         -4    1    3    3    0  502 -0.44091439951E+02 -0.26347704636E+02 -0.12688528954E+03  0.13688730153E+03  0.00000000000E+00 0.  1.
         11    1    5    5    0    0  0.18436941430E+02  0.70821783733E+01 -0.33435943482E+02  0.38833495546E+02  0.00000000000E+00 0.  1.
        -11    1    5    5    0    0  0.51760538364E+03  0.14947197510E+03 -0.23382044441E+03  0.58730673820E+03  0.00000000000E+00 0. -1.
          3    1    6    6  503    0 -0.12779935579E+03  0.34203461827E+03 -0.94761745864E+03  0.10155290263E+04  0.00000000000E+00 0. -1.
         -3    1    6    6    0  503  0.95933312364E+01  0.12242659906E+02 -0.15913807781E+02  0.22252280869E+02  0.00000000000E+00 0.  1.
<mgrwt>
<rscale>  0 0.18284308E+04</rscale>
<asrwt>0</asrwt>
<pdfrwt beam="1">  1        1 0.43165571E+00 0.18284308E+04</pdfrwt>
<pdfrwt beam="2">  1       -4 0.45828204E-01 0.18284308E+04</pdfrwt>
<totfact> 0.17904810E+00</totfact>
</mgrwt>
</event>
<event>
12    4  0.4280696E-008  0.1744473E+04  0.7818608E-02  0.8736398E-01
         -2   -1    0    0    0  501 -0.00000000000E+00  0.00000000000E+00  0.23410448787E+04  0.23410448787E+04  0.00000000000E+00 0.  1.
          1   -1    0    0  501    0  0.00000000000E+00 -0.00000000000E+00 -0.32498169918E+03  0.32498169918E+03  0.00000000000E+00 0. -1.
        -24    2    1    2    0    0 -0.18267338819E+03  0.64578117621E+02  0.16547339595E+04  0.16679373292E+04  0.79564800982E+02 0.  0.
        254    2    1    2    0    0  0.18267338819E+03 -0.64578117621E+02  0.36132922005E+03  0.99808924866E+03  0.90999090270E+03 0.  0.
         23    2    4    4    0    0 -0.17407541109E+03  0.32677826053E+03  0.71325445514E+02  0.38762948674E+03  0.89905614447E+02 0.  0.
         23    2    4    4    0    0  0.35674879928E+03 -0.39135637815E+03  0.29000377453E+03  0.61045976192E+03  0.90163247319E+02 0.  0.
          1    1    3    3  502    0 -0.65673947475E+01  0.13048660527E+02  0.35663770519E+03  0.35693676047E+03  0.00000000000E+00 0. -1.
         -2    1    3    3    0  502 -0.17610599344E+03  0.51529457095E+02  0.12980962543E+04  0.13110005687E+04  0.00000000000E+00 0.  1.
         11    1    5    5    0    0 -0.26281115256E+02  0.69041790471E+01  0.14207740508E+02  0.30663082000E+02  0.00000000000E+00 0. -1.
        -11    1    5    5    0    0 -0.14779429584E+03  0.31987408148E+03  0.57117705007E+02  0.35696640474E+03  0.00000000000E+00 0.  1.
          4    1    6    6  503    0  0.26142229345E+03 -0.22680541353E+03  0.17000507531E+03  0.38559569078E+03  0.00000000000E+00 0. -1.
         -4    1    6    6    0  503  0.95326505832E+02 -0.16455096462E+03  0.11999869922E+03  0.22486407113E+03  0.00000000000E+00 0.  1.
<mgrwt>
<rscale>  0 0.17444733E+04</rscale>
<asrwt>0</asrwt>
<pdfrwt beam="1">  1        1 0.49997186E-01 0.17444733E+04</pdfrwt>
<pdfrwt beam="2">  1       -2 0.36016074E+00 0.17444733E+04</pdfrwt>
<totfact> 0.88178054E-01</totfact>
</mgrwt>
</event>
<event>
12    4  0.4280696E-008  0.1687932E+04  0.7818608E-02  0.8768277E-01
         -2   -1    0    0    0  501 -0.00000000000E+00  0.00000000000E+00  0.56228459601E+03  0.56228459601E+03  0.00000000000E+00 0.  1.
          1   -1    0    0  501    0  0.00000000000E+00 -0.00000000000E+00 -0.12667576836E+04  0.12667576836E+04  0.00000000000E+00 0. -1.
        -24    2    1    2    0    0 -0.90505120334E+02 -0.55265144392E+03 -0.46516104272E+03  0.73223998365E+03  0.78649874213E+02 0.  0.
        254    2    1    2    0    0  0.90505120334E+02  0.55265144392E+03 -0.23931204485E+03  0.10968022959E+04  0.91218979730E+03 0.  0.
         23    2    4    4    0    0  0.20442521133E+03  0.41036375956E+03  0.27585659804E+03  0.54269260036E+03  0.90721075889E+02 0.  0.
         23    2    4    4    0    0 -0.11392009099E+03  0.14228768435E+03 -0.51516864289E+03  0.55410969558E+03  0.91734681937E+02 0.  0.
          1    1    3    3  502    0 -0.42560200184E+02 -0.39817446132E+03 -0.36608811024E+03  0.54256315461E+03  0.00000000000E+00 0. -1.
         -2    1    3    3    0  502 -0.47944920150E+02 -0.15447698260E+03 -0.99072932481E+02  0.18967682903E+03  0.00000000000E+00 0.  1.
         11    1    5    5    0    0  0.17056748540E+03  0.30630364465E+03  0.24899022583E+03  0.43001316534E+03  0.00000000000E+00 0. -1.
        -11    1    5    5    0    0  0.33857725924E+02  0.10406011492E+03  0.26866372205E+02  0.11267943502E+03  0.00000000000E+00 0.  1.
          2    1    6    6  503    0 -0.10687693737E+03  0.14734785323E+03 -0.51409705415E+03  0.54537129616E+03  0.00000000000E+00 0. -1.
         -2    1    6    6    0  503 -0.70431536236E+01 -0.50601688735E+01 -0.10715887406E+01  0.87383994200E+01  0.00000000000E+00 0.  1.
<mgrwt>
<rscale>  0 0.16879317E+04</rscale>
<asrwt>0</asrwt>
<pdfrwt beam="1">  1        1 0.19488580E+00 0.16879317E+04</pdfrwt>
<pdfrwt beam="2">  1       -2 0.86505323E-01 0.16879317E+04</pdfrwt>
<totfact> 0.92439685E+00</totfact>
</mgrwt>
</event>
<event>
12    4  0.4280696E-008  0.2812861E+04  0.7818608E-02  0.8299287E-01
         -2   -1    0    0    0  501 -0.00000000000E+00  0.00000000000E+00  0.15914456532E+04  0.15914456532E+04  0.00000000000E+00 0.  1.
          1   -1    0    0  501    0  0.00000000000E+00 -0.00000000000E+00 -0.12429241077E+04  0.12429241077E+04  0.00000000000E+00 0. -1.
        -24    2    1    2    0    0 -0.82507302589E+03 -0.44914975292E+03  0.10037731199E+04  0.13772507603E+04  0.82329714886E+02 0.  0.
        254    2    1    2    0    0  0.82507302589E+03  0.44914975292E+03 -0.65525157438E+03  0.14571190007E+04  0.90075532627E+03 0.  0.
         23    2    4    4    0    0  0.89640761286E+03  0.42468320446E+03 -0.79489931671E+03  0.12744920897E+04  0.92535023292E+02 0.  0.
         23    2    4    4    0    0 -0.71334586972E+02  0.24466548458E+02  0.13964774234E+03  0.18262691094E+03  0.90354088827E+02 0.  0.
          1    1    3    3  502    0 -0.19115045943E+03 -0.14477073509E+03  0.25250108961E+03  0.34821525545E+03  0.00000000000E+00 0. -1.
         -2    1    3    3    0  502 -0.63392256645E+03 -0.30437901784E+03  0.75127203029E+03  0.10290355049E+04  0.00000000000E+00 0.  1.
         11    1    5    5    0    0  0.58157945471E+03  0.23363864671E+03 -0.47011176090E+03  0.78347096124E+03  0.00000000000E+00 0. -1.
        -11    1    5    5    0    0  0.31482815815E+03  0.19104455776E+03 -0.32478755581E+03  0.49102112849E+03  0.00000000000E+00 0.  1.
          4    1    6    6  503    0 -0.56128909554E+02 -0.11460169294E+02  0.13055286542E+03  0.14256872251E+03  0.00000000000E+00 0. -1.
         -4    1    6    6    0  503 -0.15205677418E+02  0.35926717752E+02  0.90948769133E+01  0.40058188429E+02  0.00000000000E+00 0.  1.
<mgrwt>
<rscale>  0 0.28128606E+04</rscale>
<asrwt>0</asrwt>
<pdfrwt beam="1">  1        1 0.19121909E+00 0.28128606E+04</pdfrwt>
<pdfrwt beam="2">  1       -2 0.24483779E+00 0.28128606E+04</pdfrwt>
<totfact> 0.52186707E-01</totfact>
</mgrwt>
</event>
<event>
12    4  0.4280696E-008  0.2451764E+04  0.7818608E-02  0.8420374E-01
         -2   -1    0    0    0  501 -0.00000000000E+00  0.00000000000E+00  0.15267732178E+04  0.15267732178E+04  0.00000000000E+00 0.  1.
          1   -1    0    0  501    0  0.00000000000E+00 -0.00000000000E+00 -0.98428961892E+03  0.98428961892E+03  0.00000000000E+00 0. -1.
        -24    2    1    2    0    0 -0.16241763957E+03  0.13473234158E+03 -0.82903508330E+03  0.85935216492E+03  0.81576225012E+02 0.  0.
        254    2    1    2    0    0  0.16241763957E+03 -0.13473234158E+03  0.13715186822E+04  0.16517106718E+04  0.89585286419E+03 0.  0.
         23    2    4    4    0    0 -0.89425787723E+02  0.31395734946E+03  0.84294460375E+03  0.90855712077E+03  0.91401575031E+02 0.  0.
         23    2    4    4    0    0  0.25184342729E+03 -0.44868969104E+03  0.52857407842E+03  0.74315355103E+03  0.90216923647E+02 0.  0.
          3    1    3    3  502    0 -0.12175269733E+03  0.10826423803E+03 -0.74228424028E+03  0.75995444463E+03  0.00000000000E+00 0. -1.
         -4    1    3    3    0  502 -0.40664942240E+02  0.26468103552E+02 -0.86750843021E+02  0.99397720285E+02  0.00000000000E+00 0.  1.
         11    1    5    5    0    0  0.35453385529E+01  0.15272808061E+03  0.36821833694E+03  0.39865170223E+03  0.00000000000E+00 0. -1.
        -11    1    5    5    0    0 -0.92971126276E+02  0.16122926884E+03  0.47472626682E+03  0.50990541854E+03  0.00000000000E+00 0.  1.
          4    1    6    6  503    0  0.22737726395E+03 -0.35736912832E+03  0.46622611964E+03  0.62990468222E+03  0.00000000000E+00 0. -1.
         -4    1    6    6    0  503  0.24466163338E+02 -0.91320562714E+02  0.62347958776E+02  0.11324886881E+03  0.00000000000E+00 0.  1.
<mgrwt>
<rscale>  0 0.24517643E+04</rscale>
<asrwt>0</asrwt>
<pdfrwt beam="1">  1        1 0.15142917E+00 0.24517643E+04</pdfrwt>
<pdfrwt beam="2">  1       -2 0.23488819E+00 0.24517643E+04</pdfrwt>
<totfact> 0.97052420E-01</totfact>
</mgrwt>
</event>
<event>
12    4  0.4280696E-008  0.1397007E+04  0.7818608E-02  0.8955988E-01
          1   -1    0    0  501    0  0.00000000000E+00  0.00000000000E+00  0.23208901264E+04  0.23208901264E+04  0.00000000000E+00 0. -1.
         -2   -1    0    0    0  501 -0.00000000000E+00 -0.00000000000E+00 -0.21022414356E+03  0.21022414356E+03  0.00000000000E+00 0.  1.
        -24    2    1    2    0    0  0.33253793537E+03 -0.14449219554E+03  0.29774345250E+03  0.47598569747E+03  0.80322771744E+02 0.  0.
        254    2    1    2    0    0 -0.33253793537E+03  0.14449219554E+03  0.18129225303E+04  0.20551285725E+04  0.89744407925E+03 0.  0.
         23    2    4    4    0    0 -0.34203946779E+03 -0.10777526560E+03  0.19939021647E+03  0.41947411990E+03  0.87152587092E+02 0.  0.
         23    2    4    4    0    0  0.95015324255E+01  0.25226746115E+03  0.16135323139E+04  0.16356544526E+04  0.90276294031E+02 0.  0.
          1    1    3    3  502    0  0.92988287649E+02 -0.15364102675E+02  0.11261096314E+03  0.14684722098E+03  0.00000000000E+00 0. -1.
         -2    1    3    3    0  502  0.23954964772E+03 -0.12912809287E+03  0.18513248936E+03  0.32913847649E+03  0.00000000000E+00 0.  1.
         11    1    5    5    0    0 -0.30191674003E+03 -0.12091639321E+03  0.18835761849E+03  0.37583651300E+03  0.00000000000E+00 0.  1.
        -11    1    5    5    0    0 -0.40122727760E+02  0.13141127608E+02  0.11032597974E+02  0.43637606898E+02  0.00000000000E+00 0. -1.
          3    1    6    6  503    0  0.41778495887E+02  0.60273046092E+02  0.45919356046E+03  0.46501291248E+03  0.00000000000E+00 0. -1.
         -3    1    6    6    0  503 -0.32276963462E+02  0.19199441505E+03  0.11543387534E+04  0.11706415401E+04  0.00000000000E+00 0.  1.
<mgrwt>
<rscale>  0 0.13970070E+04</rscale>
<asrwt>0</asrwt>
<pdfrwt beam="1">  1        1 0.35706000E+00 0.13970070E+04</pdfrwt>
<pdfrwt beam="2">  1       -2 0.32342178E-01 0.13970070E+04</pdfrwt>
<totfact> 0.13761887E+01</totfact>
</mgrwt>
</event>
<event>
12    4  0.4280696E-008  0.2440383E+04  0.7818608E-02  0.8424538E-01
         -2   -1    0    0    0  501 -0.00000000000E+00  0.00000000000E+00  0.10686203800E+04  0.10686203800E+04  0.00000000000E+00 0.  1.
          1   -1    0    0  501    0  0.00000000000E+00 -0.00000000000E+00 -0.13932613252E+04  0.13932613252E+04  0.00000000000E+00 0. -1.
        -24    2    1    2    0    0  0.27119567353E+03 -0.97757993594E+03 -0.41941224303E+03  0.11006137925E+04  0.78958636186E+02 0.  0.
        254    2    1    2    0    0 -0.27119567353E+03  0.97757993594E+03  0.94771297870E+02  0.13612679126E+04  0.90269546720E+03 0.  0.
         23    2    4    4    0    0 -0.30226569882E+03  0.66868492312E+03  0.46205497090E+03  0.87179923397E+03  0.89638323967E+02 0.  0.
         23    2    4    4    0    0  0.31070025294E+02  0.30889501281E+03 -0.36728367303E+03  0.48946867863E+03  0.91108811177E+02 0.  0.
          1    1    3    3  502    0  0.16082077152E+03 -0.47375660700E+03 -0.23626387073E+03  0.55328949009E+03  0.00000000000E+00 0. -1.
         -4    1    3    3    0  502  0.11037490201E+03 -0.50382332894E+03 -0.18314837230E+03  0.54732430245E+03  0.00000000000E+00 0.  1.
         11    1    5    5    0    0 -0.17142082982E+03  0.47823481682E+03  0.30845795395E+03  0.59433992822E+03  0.00000000000E+00 0. -1.
        -11    1    5    5    0    0 -0.13084486900E+03  0.19045010630E+03  0.15359701696E+03  0.27745930576E+03  0.00000000000E+00 0.  1.
          1    1    6    6  503    0  0.12155488723E+02  0.10066274366E+03 -0.18989609702E+03  0.21527022909E+03  0.00000000000E+00 0. -1.
         -1    1    6    6    0  503  0.18914536571E+02  0.20823226915E+03 -0.17738757601E+03  0.27419844954E+03  0.00000000000E+00 0.  1.
<mgrwt>
<rscale>  0 0.24403831E+04</rscale>
<asrwt>0</asrwt>
<pdfrwt beam="1">  1        1 0.21434790E+00 0.24403831E+04</pdfrwt>
<pdfrwt beam="2">  1       -2 0.16440314E+00 0.24403831E+04</pdfrwt>
<totfact> 0.14238384E+00</totfact>
</mgrwt>
</event>
<event>
12    4  0.4280696E-008  0.1077125E+04  0.7818608E-02  0.9227778E-01
         -2   -1    0    0    0  501 -0.00000000000E+00  0.00000000000E+00  0.69759454526E+03  0.69759454526E+03  0.00000000000E+00 0.  1.
          1   -1    0    0  501    0  0.00000000000E+00 -0.00000000000E+00 -0.41578561440E+03  0.41578561440E+03  0.00000000000E+00 0. -1.
        -24    2    1    2    0    0  0.32195976412E+01 -0.34228658013E+02 -0.10357603000E+03  0.13529248832E+03  0.79963095040E+02 0.  0.
        254    2    1    2    0    0 -0.32195976412E+01  0.34228658013E+02  0.38538496086E+03  0.97808767133E+03  0.89830504725E+03 0.  0.
         23    2    4    4    0    0  0.34579696984E+03  0.20623730833E+03  0.40437963883E+03  0.57771493019E+03  0.90123673745E+02 0.  0.
         23    2    4    4    0    0 -0.34901656748E+03 -0.17200865032E+03 -0.18994677967E+02  0.40037274115E+03  0.92401265707E+02 0.  0.
          3    1    3    3  502    0  0.33080983082E+02 -0.14437452235E+01 -0.76437940166E+02  0.83301827944E+02  0.00000000000E+00 0. -1.
         -4    1    3    3    0  502 -0.29861385440E+02 -0.32784912790E+02 -0.27138089831E+02  0.51990660380E+02  0.00000000000E+00 0.  1.
         11    1    5    5    0    0  0.17233545638E+03  0.51050949295E+02  0.18269163605E+03  0.25628488608E+03  0.00000000000E+00 0. -1.
        -11    1    5    5    0    0  0.17346151346E+03  0.15518635904E+03  0.22168800278E+03  0.32143004411E+03  0.00000000000E+00 0.  1.
          4    1    6    6  503    0 -0.27922059650E+03 -0.97320286155E+02 -0.31580914500E+02  0.29737641764E+03  0.00000000000E+00 0. -1.
         -4    1    6    6    0  503 -0.69795970976E+02 -0.74688364162E+02  0.12586236534E+02  0.10299632351E+03  0.00000000000E+00 0.  1.
<mgrwt>
<rscale>  0 0.10771254E+04</rscale>
<asrwt>0</asrwt>
<pdfrwt beam="1">  1        1 0.63967018E-01 0.10771254E+04</pdfrwt>
<pdfrwt beam="2">  1       -2 0.10732224E+00 0.10771254E+04</pdfrwt>
<totfact> 0.34642722E+01</totfact>
</mgrwt>
</event>
<event>
12    4  0.4280696E-008  0.1781587E+04  0.7818608E-02  0.8716153E-01
          1   -1    0    0  501    0  0.00000000000E+00  0.00000000000E+00  0.94234797238E+03  0.94234797238E+03  0.00000000000E+00 0. -1.
         -2   -1    0    0    0  501 -0.00000000000E+00 -0.00000000000E+00 -0.84205977485E+03  0.84205977485E+03  0.00000000000E+00 0.  1.
        -24    2    1    2    0    0 -0.40455449879E+02 -0.31605196191E+03 -0.54007394336E+03  0.63209955530E+03  0.79652353774E+02 0.  0.
        254    2    1    2    0    0  0.40455449879E+02  0.31605196191E+03  0.64036214088E+03  0.11523081919E+04  0.90345172071E+03 0.  0.
         23    2    4    4    0    0 -0.26635643017E+03 -0.10723894175E+03 -0.23274184879E+02  0.30261727980E+03  0.92680050863E+02 0.  0.
         23    2    4    4    0    0  0.30681188005E+03  0.42329090366E+03  0.66363632576E+03  0.84969091213E+03  0.90844671969E+02 0.  0.
          1    1    3    3  502    0  0.16324917981E+02 -0.27543298657E+02 -0.79034368593E+02  0.85273487479E+02  0.00000000000E+00 0. -1.
         -2    1    3    3    0  502 -0.56780367860E+02 -0.28850866326E+03 -0.46103957477E+03  0.54682606782E+03  0.00000000000E+00 0.  1.
         11    1    5    5    0    0 -0.45076281224E+02 -0.11139533515E+02  0.30364567050E+02  0.55479431036E+02  0.00000000000E+00 0.  1.
        -11    1    5    5    0    0 -0.22128014895E+03 -0.96099408233E+02 -0.53638751929E+02  0.24713784876E+03  0.00000000000E+00 0. -1.
          3    1    6    6  503    0  0.18632044021E+03  0.31578352818E+03  0.49742828179E+03  0.61795585492E+03  0.00000000000E+00 0. -1.
         -3    1    6    6    0  503  0.12049143984E+03  0.10750737549E+03  0.16620804397E+03  0.23173505721E+03  0.00000000000E+00 0.  1.
<mgrwt>
<rscale>  0 0.17815873E+04</rscale>
<asrwt>0</asrwt>
<pdfrwt beam="1">  1        1 0.14497661E+00 0.17815873E+04</pdfrwt>
<pdfrwt beam="2">  1       -2 0.12954766E+00 0.17815873E+04</pdfrwt>
<totfact> 0.61006308E+00</totfact>
</mgrwt>
</event>
<event>
12    4  0.4280696E-008  0.1535289E+04  0.7818608E-02  0.8861319E-01
          1   -1    0    0  501    0  0.00000000000E+00  0.00000000000E+00  0.41135963413E+03  0.41135963413E+03  0.00000000000E+00 0. -1.
         -2   -1    0    0    0  501 -0.00000000000E+00 -0.00000000000E+00 -0.14325129610E+04  0.14325129610E+04  0.00000000000E+00 0.  1.
        -24    2    1    2    0    0 -0.32542035323E+03  0.16688047861E+03 -0.73257318496E+03  0.82263083277E+03  0.79438751662E+02 0.  0.
        254    2    1    2    0    0  0.32542035323E+03 -0.16688047861E+03 -0.28858014194E+03  0.10212417624E+04  0.90879521263E+03 0.  0.
         23    2    4    4    0    0  0.34957647790E+02  0.35331107061E+03 -0.18269204749E+03  0.40881112071E+03  0.87746216138E+02 0.  0.
         23    2    4    4    0    0  0.29046270544E+03 -0.52019154922E+03 -0.10588809445E+03  0.61243064168E+03  0.94293007160E+02 0.  0.
          1    1    3    3  502    0 -0.92789372285E+01 -0.77415609059E+01 -0.14725800165E+02  0.19049399776E+02  0.00000000000E+00 0. -1.
         -2    1    3    3    0  502 -0.31614141600E+03  0.17462203952E+03 -0.71784738480E+03  0.80358143299E+03  0.00000000000E+00 0.  1.
         11    1    5    5    0    0 -0.10224302245E+02  0.21472631171E+03 -0.75369149541E+02  0.22779910887E+03  0.00000000000E+00 0.  1.
        -11    1    5    5    0    0  0.45181950035E+02  0.13858475890E+03 -0.10732289795E+03  0.18101201185E+03  0.00000000000E+00 0. -1.
          1    1    6    6  503    0  0.48532307520E+02 -0.35823807284E+02 -0.23659067266E+02  0.64795690485E+02  0.00000000000E+00 0. -1.
         -1    1    6    6    0  503  0.24193039792E+03 -0.48436774193E+03 -0.82229027181E+02  0.54763495120E+03  0.00000000000E+00 0.  1.
<mgrwt>
<rscale>  0 0.15352889E+04</rscale>
<asrwt>0</asrwt>
<pdfrwt beam="1">  1        1 0.63286098E-01 0.15352889E+04</pdfrwt>
<pdfrwt beam="2">  1       -2 0.22038661E+00 0.15352889E+04</pdfrwt>
<totfact> 0.47864981E+00</totfact>
</mgrwt>
</event>
<event>
12    4  0.4280696E-008  0.1507600E+04  0.7818608E-02  0.8879415E-01
          1   -1    0    0  501    0  0.00000000000E+00  0.00000000000E+00  0.11285473219E+04  0.11285473219E+04  0.00000000000E+00 0. -1.
         -2   -1    0    0    0  501 -0.00000000000E+00 -0.00000000000E+00 -0.50349200744E+03  0.50349200744E+03  0.00000000000E+00 0.  1.
        -24    2    1    2    0    0 -0.55308413097E+01  0.67614434175E+02 -0.33005983048E+03  0.34667822876E+03  0.81510739709E+02 0.  0.
        254    2    1    2    0    0  0.55308413097E+01 -0.67614434175E+02  0.95511514497E+03  0.12853611006E+04  0.85749980577E+03 0.  0.
         23    2    4    4    0    0  0.32883989877E+03  0.23030706543E+03  0.46340119814E+03  0.61984334384E+03  0.91038876588E+02 0.  0.
         23    2    4    4    0    0 -0.32330905746E+03 -0.29792149961E+03  0.49171394683E+03  0.66551775677E+03  0.88573768749E+02 0.  0.
          1    1    3    3  502    0  0.19268759217E+02  0.68030400631E+02 -0.16145396835E+03  0.17625777824E+03  0.00000000000E+00 0. -1.
         -2    1    3    3    0  502 -0.24799600527E+02 -0.41596645683E+00 -0.16860586212E+03  0.17042045052E+03  0.00000000000E+00 0.  1.
         11    1    5    5    0    0  0.48693895622E+02  0.72862900444E+02  0.13000466042E+03  0.15678427683E+03  0.00000000000E+00 0. -1.
        -11    1    5    5    0    0  0.28014600315E+03  0.15744416499E+03  0.33339653772E+03  0.46305906700E+03  0.00000000000E+00 0.  1.
          2    1    6    6  503    0 -0.38977364363E+02 -0.83604641744E+02  0.93751445592E+02  0.13152301929E+03  0.00000000000E+00 0. -1.
         -2    1    6    6    0  503 -0.28433169310E+03 -0.21431685786E+03  0.39796250124E+03  0.53399473748E+03  0.00000000000E+00 0.  1.
<mgrwt>
<rscale>  0 0.15076002E+04</rscale>
<asrwt>0</asrwt>
<pdfrwt beam="1">  1        1 0.17362266E+00 0.15076002E+04</pdfrwt>
<pdfrwt beam="2">  1       -2 0.77460309E-01 0.15076002E+04</pdfrwt>
<totfact> 0.15204518E+01</totfact>
</mgrwt>
</event>
<event>
12    4  0.4280696E-008  0.2305754E+04  0.7818608E-02  0.8475656E-01
         -2   -1    0    0    0  501 -0.00000000000E+00  0.00000000000E+00  0.13145088818E+04  0.13145088818E+04  0.00000000000E+00 0.  1.
          1   -1    0    0  501    0  0.00000000000E+00 -0.00000000000E+00 -0.10111190715E+04  0.10111190715E+04  0.00000000000E+00 0. -1.
        -24    2    1    2    0    0  0.43739266519E+03 -0.76545418361E+03  0.57781776777E+03  0.10570349027E+04  0.78847713420E+02 0.  0.
        254    2    1    2    0    0 -0.43739266519E+03  0.76545418361E+03 -0.27442795739E+03  0.12685930506E+04  0.86993400529E+03 0.  0.
         23    2    4    4    0    0 -0.10725262888E+03  0.42235632921E+03  0.28591103790E+03  0.52854183443E+03  0.87882614476E+02 0.  0.
         23    2    4    4    0    0 -0.33014003632E+03  0.34309785440E+03 -0.56033899529E+03  0.74005121621E+03  0.83590858874E+02 0.  0.
          1    1    3    3  502    0  0.67328180115E+02 -0.13250070498E+03  0.13307411557E+03  0.19949496458E+03  0.00000000000E+00 0. -1.
         -2    1    3    3    0  502  0.37006448508E+03 -0.63295347863E+03  0.44474365221E+03  0.85753993808E+03  0.00000000000E+00 0.  1.
         11    1    5    5    0    0 -0.24954619152E+02  0.17183308534E+03  0.68059739439E+02  0.18649790982E+03  0.00000000000E+00 0.  1.
        -11    1    5    5    0    0 -0.82298009724E+02  0.25052324388E+03  0.21785129846E+03  0.34204392462E+03  0.00000000000E+00 0. -1.
          4    1    6    6  503    0 -0.68461583070E+02  0.56242944332E+02 -0.61242720250E+02  0.10770760385E+03  0.00000000000E+00 0.  1.
         -4    1    6    6    0  503 -0.26167845325E+03  0.28685491007E+03 -0.49909627504E+03  0.63234361236E+03  0.00000000000E+00 0. -1.
<mgrwt>
<rscale>  0 0.23057537E+04</rscale>
<asrwt>0</asrwt>
<pdfrwt beam="1">  1        1 0.15555678E+00 0.23057537E+04</pdfrwt>
<pdfrwt beam="2">  1       -2 0.20223214E+00 0.23057537E+04</pdfrwt>
<totfact> 0.15107333E+00</totfact>
</mgrwt>
</event>
<event>
12    4  0.4280696E-008  0.1641539E+04  0.7818608E-02  0.8795428E-01
          1   -1    0    0  501    0  0.00000000000E+00  0.00000000000E+00  0.16002597853E+04  0.16002597853E+04  0.00000000000E+00 0. -1.
         -2   -1    0    0    0  501 -0.00000000000E+00 -0.00000000000E+00 -0.42097080197E+03  0.42097080197E+03  0.00000000000E+00 0.  1.
        -24    2    1    2    0    0  0.10312975718E+03 -0.51174122728E+03  0.73412770074E+03  0.90439600073E+03  0.80460018874E+02 0.  0.
        254    2    1    2    0    0 -0.10312975718E+03  0.51174122728E+03  0.44516128256E+03  0.11168345865E+04  0.88126959303E+03 0.  0.
         23    2    4    4    0    0  0.87088502187E+02  0.21541151303E+02 -0.22545215075E+03  0.25967617980E+03  0.92491176154E+02 0.  0.
         23    2    4    4    0    0 -0.19021825937E+03  0.49020007597E+03  0.67061343330E+03  0.85715840670E+03  0.92298735455E+02 0.  0.
          3    1    3    3  502    0  0.95473668758E+02 -0.29101568469E+03  0.45454781301E+03  0.54810497578E+03  0.00000000000E+00 0. -1.
         -4    1    3    3    0  502  0.76560884239E+01 -0.22072554258E+03  0.27957988774E+03  0.35629102496E+03  0.00000000000E+00 0.  1.
         11    1    5    5    0    0  0.15216856740E+02 -0.31475120574E+02 -0.97985561363E+02  0.10403560054E+03  0.00000000000E+00 0. -1.
        -11    1    5    5    0    0  0.71871645447E+02  0.53016271877E+02 -0.12746658938E+03  0.15564057926E+03  0.00000000000E+00 0.  1.
          1    1    6    6  503    0 -0.16411263247E+03  0.47629555506E+03  0.62436322739E+03  0.80225921722E+03  0.00000000000E+00 0. -1.
         -1    1    6    6    0  503 -0.26105626899E+02  0.13904520907E+02  0.46250205916E+02  0.54899189472E+02  0.00000000000E+00 0.  1.
<mgrwt>
<rscale>  0 0.16415391E+04</rscale>
<asrwt>0</asrwt>
<pdfrwt beam="1">  1        1 0.24619381E+00 0.16415391E+04</pdfrwt>
<pdfrwt beam="2">  1       -2 0.64764739E-01 0.16415391E+04</pdfrwt>
<totfact> 0.10299390E+01</totfact>
</mgrwt>
</event>
<event>
12    4  0.4280696E-008  0.2173231E+04  0.7818608E-02  0.8529653E-01
          1   -1    0    0  501    0  0.00000000000E+00  0.00000000000E+00  0.24380169284E+04  0.24380169284E+04  0.00000000000E+00 0. -1.
         -2   -1    0    0    0  501 -0.00000000000E+00 -0.00000000000E+00 -0.48430048756E+03  0.48430048756E+03  0.00000000000E+00 0.  1.
        -24    2    1    2    0    0 -0.21535124379E+02 -0.26646346408E+03  0.19663645288E+04  0.19860224597E+04  0.78925351336E+02 0.  0.
        254    2    1    2    0    0  0.21535124379E+02  0.26646346408E+03 -0.12648088007E+02  0.93629495620E+03  0.89723003272E+03 0.  0.
         23    2    4    4    0    0  0.42042604969E+03  0.23528079331E+03  0.12058513992E+03  0.50487613783E+03  0.90796605773E+02 0.  0.
         23    2    4    4    0    0 -0.39889092531E+03  0.31182670776E+02 -0.13323322793E+03  0.43141881837E+03  0.91020737019E+02 0.  0.
          3    1    3    3  502    0 -0.18353453779E+02 -0.20704973993E+03  0.17228765198E+04  0.17353702621E+04  0.00000000000E+00 0. -1.
         -4    1    3    3    0  502 -0.31816705997E+01 -0.59413724155E+02  0.24348800902E+03  0.25065219764E+03  0.00000000000E+00 0.  1.
         11    1    5    5    0    0  0.26335631894E+03  0.12266063901E+03  0.32025879692E+02  0.29228041340E+03  0.00000000000E+00 0. -1.
        -11    1    5    5    0    0  0.15706973075E+03  0.11262015430E+03  0.88559260227E+02  0.21259572443E+03  0.00000000000E+00 0.  1.
          1    1    6    6  503    0 -0.35008167989E+03  0.26072265154E+02 -0.82056463577E+02  0.36051381225E+03  0.00000000000E+00 0. -1.
         -1    1    6    6    0  503 -0.48809245421E+02  0.51104056224E+01 -0.51176764349E+02  0.70905006124E+02  0.00000000000E+00 0.  1.
<mgrwt>
<rscale>  0 0.21732306E+04</rscale>
<asrwt>0</asrwt>
<pdfrwt beam="1">  1        1 0.37507952E+00 0.21732306E+04</pdfrwt>
<pdfrwt beam="2">  1       -2 0.74507769E-01 0.21732306E+04</pdfrwt>
<totfact> 0.19458795E+00</totfact>
</mgrwt>
</event>
<event>
12    4  0.4280696E-008  0.1482425E+04  0.7818608E-02  0.8896225E-01
          1   -1    0    0  501    0  0.00000000000E+00  0.00000000000E+00  0.10860153875E+04  0.10860153875E+04  0.00000000000E+00 0. -1.
         -2   -1    0    0    0  501 -0.00000000000E+00 -0.00000000000E+00 -0.50588241920E+03  0.50588241920E+03  0.00000000000E+00 0.  1.
        -24    2    1    2    0    0 -0.89570491105E+00  0.21885028771E+03  0.62415545834E+03  0.66698094931E+03  0.86007556916E+02 0.  0.
        254    2    1    2    0    0  0.89570491105E+00 -0.21885028771E+03 -0.44022490001E+02  0.92491685744E+03  0.89757281757E+03 0.  0.
         23    2    4    4    0    0  0.41510521455E+03 -0.31592206589E+02 -0.14221412898E+03  0.44915900395E+03  0.90601024725E+02 0.  0.
         23    2    4    4    0    0 -0.41420950964E+03 -0.18725808112E+03  0.98191638979E+02  0.47575785350E+03  0.10034356172E+03 0.  0.
          1    1    3    3  502    0  0.17570537872E+02  0.16702461693E+03  0.36125798192E+03  0.39838834817E+03  0.00000000000E+00 0. -1.
         -2    1    3    3    0  502 -0.18466242783E+02  0.51825670775E+02  0.26289747642E+03  0.26859260113E+03  0.00000000000E+00 0.  1.
         11    1    5    5    0    0  0.11819839641E+03 -0.13666126713E+02  0.10898709069E+01  0.11899080533E+03  0.00000000000E+00 0. -1.
        -11    1    5    5    0    0  0.29690681814E+03 -0.17926079876E+02 -0.14330399989E+03  0.33016819862E+03  0.00000000000E+00 0.  1.
          4    1    6    6  503    0 -0.69656492854E+02 -0.42023506088E+02 -0.19698038477E+02  0.83701940124E+02  0.00000000000E+00 0. -1.
         -4    1    6    6    0  503 -0.34455301678E+03 -0.14523457503E+03  0.11788967746E+03  0.39205591337E+03  0.00000000000E+00 0.  1.
<mgrwt>
<rscale>  0 0.14824252E+04</rscale>
<asrwt>0</asrwt>
<pdfrwt beam="1">  1        1 0.16707929E+00 0.14824252E+04</pdfrwt>
<pdfrwt beam="2">  1       -2 0.77828064E-01 0.14824252E+04</pdfrwt>
<totfact> 0.16226210E+01</totfact>
</mgrwt>
</event>
<event>
12    4  0.4280696E-008  0.1432436E+04  0.7818608E-02  0.8930669E-01
          1   -1    0    0  501    0  0.00000000000E+00  0.00000000000E+00  0.25436682796E+04  0.25436682796E+04  0.00000000000E+00 0. -1.
         -2   -1    0    0    0  501 -0.00000000000E+00 -0.00000000000E+00 -0.20166462198E+03  0.20166462198E+03  0.00000000000E+00 0.  1.
        -24    2    1    2    0    0 -0.13231430699E+03 -0.40449462561E+03  0.74257264613E+03  0.85973618990E+03  0.81297007778E+02 0.  0.
        254    2    1    2    0    0  0.13231430699E+03  0.40449462561E+03  0.15994310115E+04  0.18855967117E+04  0.90342261461E+03 0.  0.
         23    2    4    4    0    0 -0.14539085910E+03 -0.23307077912E+03  0.37328806889E+03  0.47258591216E+03  0.92374087338E+02 0.  0.
         23    2    4    4    0    0  0.27770516608E+03  0.63756540473E+03  0.12261429426E+04  0.14130107995E+04  0.97791611425E+02 0.  0.
          3    1    3    3  502    0 -0.73564358783E+02 -0.12626943466E+03  0.29971457027E+03  0.33344341145E+03  0.00000000000E+00 0. -1.
         -2    1    3    3    0  502 -0.58749948203E+02 -0.27822519095E+03  0.44285807586E+03  0.52629277845E+03  0.00000000000E+00 0.  1.
         11    1    5    5    0    0 -0.11669477790E+03 -0.23075228543E+03  0.35204852977E+03  0.43680940435E+03  0.00000000000E+00 0. -1.
        -11    1    5    5    0    0 -0.28696081199E+02 -0.23184936982E+01  0.21239539117E+02  0.35776507810E+02  0.00000000000E+00 0.  1.
          2    1    6    6  503    0  0.25340181072E+03  0.60577808151E+03  0.11897245844E+04  0.13589054965E+04  0.00000000000E+00 0. -1.
         -2    1    6    6    0  503  0.24303355360E+02  0.31787323225E+02  0.36418358223E+02  0.54105303023E+02  0.00000000000E+00 0.  1.
<mgrwt>
<rscale>  0 0.14324356E+04</rscale>
<asrwt>0</asrwt>
<pdfrwt beam="1">  1        1 0.39133356E+00 0.14324356E+04</pdfrwt>
<pdfrwt beam="2">  1       -2 0.31025328E-01 0.14324356E+04</pdfrwt>
<totfact> 0.10423803E+01</totfact>
</mgrwt>
</event>
<event>
12    4  0.4280696E-008  0.1547152E+04  0.7818608E-02  0.8853689E-01
          1   -1    0    0  501    0  0.00000000000E+00  0.00000000000E+00  0.75691756124E+03  0.75691756124E+03  0.00000000000E+00 0. -1.
         -2   -1    0    0    0  501 -0.00000000000E+00 -0.00000000000E+00 -0.79060102811E+03  0.79060102811E+03  0.00000000000E+00 0.  1.
        -24    2    1    2    0    0 -0.38562417472E+03  0.99662050650E+02  0.28520274130E+03  0.49811232645E+03  0.90203977984E+02 0.  0.
        254    2    1    2    0    0  0.38562417472E+03 -0.99662050650E+02 -0.31888620817E+03  0.10494062629E+04  0.91702048091E+03 0.  0.
         23    2    4    4    0    0 -0.43038299469E+02  0.28737847669E+03  0.10937744316E+03  0.32471996567E+03  0.95083894259E+02 0.  0.
         23    2    4    4    0    0  0.42866247419E+03 -0.38704052734E+03 -0.42826365133E+03  0.72468629724E+03  0.90601257013E+02 0.  0.
          3    1    3    3  502    0 -0.33627230031E+03  0.11269675536E+03  0.22886000129E+03  0.42208591402E+03  0.00000000000E+00 0. -1.
         -4    1    3    3    0  502 -0.49351874413E+02 -0.13034704707E+02  0.56342740008E+02  0.76026412426E+02  0.00000000000E+00 0.  1.
         11    1    5    5    0    0  0.90156640602E+01 -0.88431073475E+00  0.13968238861E+02  0.16648600566E+02  0.00000000000E+00 0.  1.
        -11    1    5    5    0    0 -0.52053963529E+02  0.28826278742E+03  0.95409204303E+02  0.30807136510E+03  0.00000000000E+00 0. -1.
          3    1    6    6  503    0  0.19188502542E+03 -0.23421614492E+03 -0.22359952881E+03  0.37639582198E+03  0.00000000000E+00 0. -1.
         -3    1    6    6    0  503  0.23677744877E+03 -0.15282438242E+03 -0.20466412252E+03  0.34829047526E+03  0.00000000000E+00 0.  1.
<mgrwt>
<rscale>  0 0.15471520E+04</rscale>
<asrwt>0</asrwt>
<pdfrwt beam="1">  1        1 0.11644886E+00 0.15471520E+04</pdfrwt>
<pdfrwt beam="2">  1       -2 0.12163093E+00 0.15471520E+04</pdfrwt>
<totfact> 0.10460211E+01</totfact>
</mgrwt>
</event>
<event>
12    4  0.4280696E-008  0.2234083E+04  0.7818608E-02  0.8504374E-01
          1   -1    0    0  501    0  0.00000000000E+00  0.00000000000E+00  0.61848431146E+03  0.61848431146E+03  0.00000000000E+00 0. -1.
         -2   -1    0    0    0  501 -0.00000000000E+00 -0.00000000000E+00 -0.20174839707E+04  0.20174839707E+04  0.00000000000E+00 0.  1.
        -24    2    1    2    0    0 -0.40844918862E+03 -0.36971165584E+03 -0.15207936238E+04  0.16200678570E+04  0.91044862902E+02 0.  0.
        254    2    1    2    0    0  0.40844918862E+03  0.36971165584E+03  0.12179396453E+03  0.10159004252E+04  0.84480912394E+03 0.  0.
         23    2    4    4    0    0  0.16546094539E+03  0.47906642184E+03 -0.23080982923E+03  0.56451963743E+03  0.92343287718E+02 0.  0.
         23    2    4    4    0    0  0.24298824323E+03 -0.10935476600E+03  0.35260379377E+03  0.45138078773E+03  0.91724745620E+02 0.  0.
          3    1    3    3  502    0 -0.12949196311E+03 -0.13990616488E+03 -0.41461142442E+03  0.45633818243E+03  0.00000000000E+00 0. -1.
         -4    1    3    3    0  502 -0.27895722551E+03 -0.22980549096E+03 -0.11061821994E+04  0.11637296746E+04  0.00000000000E+00 0.  1.
         11    1    5    5    0    0  0.75001123583E+02  0.29376549391E+03 -0.17832342885E+03  0.35174220564E+03  0.00000000000E+00 0.  1.
        -11    1    5    5    0    0  0.90459821807E+02  0.18530092792E+03 -0.52486400381E+02  0.21277743178E+03  0.00000000000E+00 0. -1.
          1    1    6    6  503    0  0.14951396726E+02  0.15677671738E+02  0.30021639265E+02  0.37022053959E+02  0.00000000000E+00 0. -1.
         -1    1    6    6    0  503  0.22803684650E+03 -0.12503243774E+03  0.32258215450E+03  0.41435873377E+03  0.00000000000E+00 0.  1.
<mgrwt>
<rscale>  0 0.22340834E+04</rscale>
<asrwt>0</asrwt>
<pdfrwt beam="1">  1        1 0.95151433E-01 0.22340834E+04</pdfrwt>
<pdfrwt beam="2">  1       -2 0.31038215E+00 0.22340834E+04</pdfrwt>
<totfact> 0.71674943E-01</totfact>
</mgrwt>
</event>
<event>
12    4  0.4280696E-008  0.1661615E+04  0.7818608E-02  0.8783565E-01
          1   -1    0    0  501    0  0.00000000000E+00  0.00000000000E+00  0.97394804180E+03  0.97394804180E+03  0.00000000000E+00 0. -1.
         -2   -1    0    0    0  501 -0.00000000000E+00 -0.00000000000E+00 -0.70870408100E+03  0.70870408100E+03  0.00000000000E+00 0.  1.
        -24    2    1    2    0    0 -0.41194607523E+03 -0.42508596131E+03 -0.94087945796E+01  0.59735261565E+03  0.79649096689E+02 0.  0.
        254    2    1    2    0    0  0.41194607523E+03  0.42508596131E+03  0.27465275538E+03  0.10852995072E+04  0.86720426705E+03 0.  0.
         23    2    4    4    0    0  0.30871817462E+03  0.59544561800E+03 -0.65727300419E+02  0.68006979490E+03  0.91172652606E+02 0.  0.
         23    2    4    4    0    0  0.10322790061E+03 -0.17035965668E+03  0.34038005580E+03  0.40522971225E+03  0.93134983855E+02 0.  0.
          1    1    3    3  502    0 -0.20942806728E+03 -0.17443549863E+03 -0.31407947233E+02  0.27436165493E+03  0.00000000000E+00 0. -1.
         -2    1    3    3    0  502 -0.20251800795E+03 -0.25065046269E+03  0.21999152654E+02  0.32299096072E+03  0.00000000000E+00 0.  1.
         11    1    5    5    0    0  0.55050263933E+01  0.58768199005E+02 -0.18485811941E+02  0.61852500135E+02  0.00000000000E+00 0.  1.
        -11    1    5    5    0    0  0.30321314822E+03  0.53667741899E+03 -0.47241488479E+02  0.61821729476E+03  0.00000000000E+00 0. -1.
          4    1    6    6  503    0  0.93374485120E+02 -0.12182917464E+03  0.17589943997E+03  0.23345610989E+03  0.00000000000E+00 0. -1.
         -4    1    6    6    0  503  0.98534154937E+01 -0.48530482044E+02  0.16448061583E+03  0.17177360237E+03  0.00000000000E+00 0.  1.
<mgrwt>
<rscale>  0 0.16616148E+04</rscale>
<asrwt>0</asrwt>
<pdfrwt beam="1">  1        1 0.14983816E+00 0.16616148E+04</pdfrwt>
<pdfrwt beam="2">  1       -2 0.10903140E+00 0.16616148E+04</pdfrwt>
<totfact> 0.89102453E+00</totfact>
</mgrwt>
</event>
<event>
12    4  0.4280696E-008  0.2568174E+04  0.7818608E-02  0.8379093E-01
          1   -1    0    0  501    0  0.00000000000E+00  0.00000000000E+00  0.19568354181E+04  0.19568354181E+04  0.00000000000E+00 0. -1.
         -2   -1    0    0    0  501 -0.00000000000E+00 -0.00000000000E+00 -0.84262575313E+03  0.84262575313E+03  0.00000000000E+00 0.  1.
        -24    2    1    2    0    0 -0.82195566948E+03  0.52424573864E+03 -0.12319297322E+03  0.98595195201E+03  0.80498608402E+02 0.  0.
        254    2    1    2    0    0  0.82195566948E+03 -0.52424573864E+03  0.12374026382E+04  0.18135092192E+04  0.89844626000E+03 0.  0.
         23    2    4    4    0    0  0.49652406106E+03 -0.75790923187E+03  0.91467387088E+03  0.12907852725E+04  0.92389299601E+02 0.  0.
         23    2    4    4    0    0  0.32543160842E+03  0.23366349324E+03  0.32272876731E+03  0.52272394671E+03  0.92639664195E+02 0.  0.
          1    1    3    3  502    0 -0.53928956377E+03  0.34651259308E+03 -0.11932450423E+03  0.65202956073E+03  0.00000000000E+00 0. -1.
         -2    1    3    3    0  502 -0.28266610571E+03  0.17773314555E+03 -0.38684689826E+01  0.33392239128E+03  0.00000000000E+00 0.  1.
         11    1    5    5    0    0  0.36155027315E+03 -0.47586415063E+03  0.61977454229E+03  0.86097954281E+03  0.00000000000E+00 0.  1.
        -11    1    5    5    0    0  0.13497378791E+03 -0.28204508124E+03  0.29489932859E+03  0.42980572969E+03  0.00000000000E+00 0. -1.
          1    1    6    6  503    0  0.57278525894E+02  0.18220064815E+02  0.86917271196E+02  0.10567597798E+03  0.00000000000E+00 0. -1.
         -1    1    6    6    0  503  0.26815308252E+03  0.21544342842E+03  0.23581149612E+03  0.41704796873E+03  0.00000000000E+00 0.  1.
<mgrwt>
<rscale>  0 0.25681744E+04</rscale>
<asrwt>0</asrwt>
<pdfrwt beam="1">  1        1 0.30105160E+00 0.25681744E+04</pdfrwt>
<pdfrwt beam="2">  1       -2 0.12963473E+00 0.25681744E+04</pdfrwt>
<totfact> 0.10822285E+00</totfact>
</mgrwt>
</event>
<event>
12    4  0.4280696E-008  0.1637115E+04  0.7818608E-02  0.8798066E-01
          1   -1    0    0  501    0  0.00000000000E+00  0.00000000000E+00  0.10310934828E+04  0.10310934828E+04  0.00000000000E+00 0. -1.
         -2   -1    0    0    0  501 -0.00000000000E+00 -0.00000000000E+00 -0.64983067905E+03  0.64983067905E+03  0.00000000000E+00 0.  1.
        -24    2    1    2    0    0  0.40583701783E+03 -0.18916313290E+03 -0.22388692694E+03  0.50690121214E+03  0.79605947837E+02 0.  0.
        254    2    1    2    0    0 -0.40583701783E+03  0.18916313290E+03  0.60514973074E+03  0.11740229498E+04  0.90090915971E+03 0.  0.
         23    2    4    4    0    0 -0.67460861368E+02 -0.33428061741E+03  0.10981516560E+03  0.37262565378E+03  0.10245002818E+03 0.  0.
         23    2    4    4    0    0 -0.33837615646E+03  0.52344375030E+03  0.49533456514E+03  0.80139729597E+03  0.91594276943E+02 0.  0.
          3    1    3    3  502    0  0.14042960314E+03 -0.82781184909E+02 -0.12102703272E+03  0.20302891583E+03  0.00000000000E+00 0. -1.
         -4    1    3    3    0  502  0.26540741469E+03 -0.10638194799E+03 -0.10285989422E+03  0.30387229632E+03  0.00000000000E+00 0.  1.
         11    1    5    5    0    0 -0.48253719059E+02 -0.63452413296E+02 -0.90445478251E-01  0.79715985452E+02  0.00000000000E+00 0. -1.
        -11    1    5    5    0    0 -0.19207142309E+02 -0.27082820411E+03  0.10990561108E+03  0.29290966833E+03  0.00000000000E+00 0.  1.
          2    1    6    6  503    0 -0.32500813072E+03  0.48195997189E+03  0.48385193822E+03  0.75632558972E+03  0.00000000000E+00 0.  1.
         -2    1    6    6    0  503 -0.13368025734E+02  0.41483778410E+02  0.11482626923E+02  0.45071706249E+02  0.00000000000E+00 0. -1.
<mgrwt>
<rscale>  0 0.16371148E+04</rscale>
<asrwt>0</asrwt>
<pdfrwt beam="1">  1        1 0.15862977E+00 0.16371148E+04</pdfrwt>
<pdfrwt beam="2">  1       -2 0.99973951E-01 0.16371148E+04</pdfrwt>
<totfact> 0.99205871E+00</totfact>
</mgrwt>
</event>
<event>
12    4  0.4280696E-008  0.1377389E+04  0.7818608E-02  0.8970350E-01
          1   -1    0    0  501    0  0.00000000000E+00  0.00000000000E+00  0.86267709134E+03  0.86267709134E+03  0.00000000000E+00 0. -1.
         -2   -1    0    0    0  501 -0.00000000000E+00 -0.00000000000E+00 -0.54980030810E+03  0.54980030810E+03  0.00000000000E+00 0.  1.
        -24    2    1    2    0    0 -0.64428846086E+02  0.20007063629E+03  0.41926971572E+03  0.47748920163E+03  0.89607518869E+02 0.  0.
        254    2    1    2    0    0  0.64428846086E+02 -0.20007063629E+03 -0.10639293248E+03  0.93498819782E+03  0.90482271096E+03 0.  0.
         23    2    4    4    0    0  0.32075330604E+03 -0.53526865712E+02 -0.38972808824E+03  0.51565633382E+03  0.90915692578E+02 0.  0.
         23    2    4    4    0    0 -0.25632445996E+03 -0.14654377057E+03  0.28333515576E+03  0.41933186399E+03  0.91559249690E+02 0.  0.
          3    1    3    3  502    0 -0.22689807006E+02  0.93461535452E+02  0.28629968188E+03  0.30202217434E+03  0.00000000000E+00 0. -1.
         -2    1    3    3    0  502 -0.41739039079E+02  0.10660910083E+03  0.13297003384E+03  0.17546702728E+03  0.00000000000E+00 0.  1.
         11    1    5    5    0    0  0.13689345153E+03  0.52421979468E+01 -0.21704408797E+03  0.25666210050E+03  0.00000000000E+00 0. -1.
        -11    1    5    5    0    0  0.18385985451E+03 -0.58769063659E+02 -0.17268400028E+03  0.25899423332E+03  0.00000000000E+00 0.  1.
          3    1    6    6  503    0 -0.13101641333E+03 -0.12608340862E+03  0.17632241520E+03  0.25328229427E+03  0.00000000000E+00 0. -1.
         -3    1    6    6    0  503 -0.12530804663E+03 -0.20460361951E+02  0.10701274056E+03  0.16604956972E+03  0.00000000000E+00 0.  1.
<mgrwt>
<rscale>  0 0.13773890E+04</rscale>
<asrwt>0</asrwt>
<pdfrwt beam="1">  1        1 0.13271955E+00 0.13773890E+04</pdfrwt>
<pdfrwt beam="2">  1       -2 0.84584663E-01 0.13773890E+04</pdfrwt>
<totfact> 0.20382122E+01</totfact>
</mgrwt>
</event>
<event>
12    4  0.4280696E-008  0.1558112E+04  0.7818608E-02  0.8846703E-01
         -2   -1    0    0    0  501 -0.00000000000E+00  0.00000000000E+00  0.54214273335E+03  0.54214273335E+03  0.00000000000E+00 0.  1.
          1   -1    0    0  501    0  0.00000000000E+00 -0.00000000000E+00 -0.11194993038E+04  0.11194993038E+04  0.00000000000E+00 0. -1.
        -24    2    1    2    0    0  0.18746250797E+03  0.38636133916E+02  0.31369759129E+03  0.37603047941E+03  0.79735813318E+02 0.  0.
        254    2    1    2    0    0 -0.18746250797E+03 -0.38636133916E+02 -0.89105416177E+03  0.12856115578E+04  0.90674396360E+03 0.  0.
         23    2    4    4    0    0  0.14447582408E+03 -0.20809299272E+03  0.46197327370E+02  0.27325171006E+03  0.91413055045E+02 0.  0.
         23    2    4    4    0    0 -0.33193833205E+03  0.16945685881E+03 -0.93725148914E+03  0.10123598477E+04  0.86795299901E+02 0.  0.
          3    1    3    3  502    0  0.11922092102E+03  0.43199686744E+02  0.13760855886E+03  0.18712550979E+03  0.00000000000E+00 0. -1.
         -4    1    3    3    0  502  0.68241586951E+02 -0.45635528283E+01  0.17608903243E+03  0.18890496962E+03  0.00000000000E+00 0.  1.
         11    1    5    5    0    0  0.10687834464E+03 -0.99962996499E+02  0.59555396106E+02  0.15799502026E+03  0.00000000000E+00 0.  1.
        -11    1    5    5    0    0  0.37597479434E+02 -0.10812999622E+03 -0.13358068736E+02  0.11525668980E+03  0.00000000000E+00 0. -1.
          2    1    6    6  503    0 -0.12146191006E+03  0.93583434764E+02 -0.29888120082E+03  0.33591788738E+03  0.00000000000E+00 0. -1.
         -2    1    6    6    0  503 -0.21047642198E+03  0.75873424041E+02 -0.63837028832E+03  0.67644196033E+03  0.00000000000E+00 0.  1.
<mgrwt>
<rscale>  0 0.15581122E+04</rscale>
<asrwt>0</asrwt>
<pdfrwt beam="1">  1        1 0.17223066E+00 0.15581122E+04</pdfrwt>
<pdfrwt beam="2">  1       -2 0.83406574E-01 0.15581122E+04</pdfrwt>
<totfact> 0.13019093E+01</totfact>
</mgrwt>
</event>
<event>
12    4  0.4280696E-008  0.1364967E+04  0.7818608E-02  0.8979575E-01
          3   -1    0    0  501    0  0.00000000000E+00  0.00000000000E+00  0.34863572669E+03  0.34863572669E+03  0.00000000000E+00 0. -1.
         -4   -1    0    0    0  501 -0.00000000000E+00 -0.00000000000E+00 -0.13360176860E+04  0.13360176860E+04  0.00000000000E+00 0.  1.
        -24    2    1    2    0    0 -0.77316140840E+02  0.72417513225E+02 -0.73358313577E+03  0.74556897725E+03  0.80664743821E+02 0.  0.
        254    2    1    2    0    0  0.77316140840E+02 -0.72417513225E+02 -0.25379882355E+03  0.93908443544E+03  0.89791071505E+03 0.  0.
         23    2    4    4    0    0  0.40130806375E+02  0.38702881301E+03 -0.24571036613E+03  0.46885461550E+03  0.89717794969E+02 0.  0.
         23    2    4    4    0    0  0.37185334465E+02 -0.45944632624E+03 -0.80884574171E+01  0.47022981994E+03  0.92612011226E+02 0.  0.
          3    1    3    3  502    0  0.15875898588E+02  0.18703880318E+02 -0.10329436572E+03  0.10616781661E+03  0.00000000000E+00 0. -1.
         -4    1    3    3    0  502 -0.93192039428E+02  0.53713632907E+02 -0.63028877005E+03  0.63940116063E+03  0.00000000000E+00 0.  1.
         11    1    5    5    0    0  0.59359237814E+02  0.36601829471E+03 -0.22664474839E+03  0.43458112378E+03  0.00000000000E+00 0. -1.
        -11    1    5    5    0    0 -0.19228431439E+02  0.21010518302E+02 -0.19065617739E+02  0.34273491720E+02  0.00000000000E+00 0.  1.
          4    1    6    6  503    0  0.31735666004E+02 -0.36440576833E+03  0.31480244057E+02  0.36713719814E+03  0.00000000000E+00 0. -1.
         -4    1    6    6    0  503  0.54496684610E+01 -0.95040557903E+02 -0.39568701475E+02  0.10309262180E+03  0.00000000000E+00 0.  1.
<mgrwt>
<rscale>  0 0.13649667E+04</rscale>
<asrwt>0</asrwt>
<pdfrwt beam="1">  1        3 0.53636266E-01 0.13649667E+04</pdfrwt>
<pdfrwt beam="2">  1       -4 0.20554118E+00 0.13649667E+04</pdfrwt>
<totfact> 0.92750927E-01</totfact>
</mgrwt>
</event>
<event>
12    4  0.4280696E-008  0.3146446E+04  0.7818608E-02  0.8203106E-01
          1   -1    0    0  501    0  0.00000000000E+00  0.00000000000E+00  0.25173258120E+04  0.25173258120E+04  0.00000000000E+00 0. -1.
         -2   -1    0    0    0  501 -0.00000000000E+00 -0.00000000000E+00 -0.98319816422E+03  0.98319816422E+03  0.00000000000E+00 0.  1.
        -24    2    1    2    0    0 -0.41089797665E+03 -0.11822230527E+04 -0.10243724922E+03  0.12583773860E+04  0.80819316188E+02 0.  0.
        254    2    1    2    0    0  0.41089797665E+03  0.11822230527E+04  0.16365648970E+04  0.22421465902E+04  0.88452709190E+03 0.  0.
         23    2    4    4    0    0  0.25482983054E+03  0.41619236837E+02  0.71161396735E+03  0.76246906805E+03  0.91072706134E+02 0.  0.
         23    2    4    4    0    0  0.15606814611E+03  0.11406038159E+04  0.92495092963E+03  0.14796775222E+04  0.92612182023E+02 0.  0.
          3    1    3    3  502    0 -0.13377792633E+03 -0.42408019243E+03 -0.73045931370E+02  0.45063982433E+03  0.00000000000E+00 0. -1.
         -4    1    3    3    0  502 -0.27712005032E+03 -0.75814286032E+03 -0.29391317847E+02  0.80773756166E+03  0.00000000000E+00 0.  1.
         11    1    5    5    0    0  0.89106222248E+02 -0.28867629050E+02  0.24970958238E+03  0.26669858339E+03  0.00000000000E+00 0. -1.
        -11    1    5    5    0    0  0.16572360829E+03  0.70486865888E+02  0.46190438498E+03  0.49577048467E+03  0.00000000000E+00 0.  1.
          4    1    6    6  503    0  0.84090118310E+02  0.30958262658E+03  0.25318234742E+03  0.40867328237E+03  0.00000000000E+00 0. -1.
         -4    1    6    6    0  503  0.71978027801E+02  0.83102118933E+03  0.67176858221E+03  0.10710042398E+04  0.00000000000E+00 0.  1.
<mgrwt>
<rscale>  0 0.31464457E+04</rscale>
<asrwt>0</asrwt>
<pdfrwt beam="1">  1        1 0.38728089E+00 0.31464457E+04</pdfrwt>
<pdfrwt beam="2">  1       -2 0.15126126E+00 0.31464457E+04</pdfrwt>
<totfact> 0.28545719E-01</totfact>
</mgrwt>
</event>
<event>
12    4  0.4280696E-008  0.1507436E+04  0.7818608E-02  0.8879523E-01
          1   -1    0    0  501    0  0.00000000000E+00  0.00000000000E+00  0.10069204829E+04  0.10069204829E+04  0.00000000000E+00 0. -1.
         -2   -1    0    0    0  501 -0.00000000000E+00 -0.00000000000E+00 -0.56418605822E+03  0.56418605822E+03  0.00000000000E+00 0.  1.
        -24    2    1    2    0    0  0.16916636959E+03 -0.39363303554E+03  0.44044059662E+03  0.61962941410E+03  0.79927869932E+02 0.  0.
        254    2    1    2    0    0 -0.16916636959E+03  0.39363303554E+03  0.22938280302E+01  0.95147712699E+03  0.84955237288E+03 0.  0.
         23    2    4    4    0    0 -0.21664676585E+03  0.62133583400E+03 -0.11598852260E+03  0.67479387872E+03  0.94336639817E+02 0.  0.
         23    2    4    4    0    0  0.47480396252E+02 -0.22770279846E+03  0.11828235063E+03  0.27668324827E+03  0.91978002512E+02 0.  0.
          3    1    3    3  502    0  0.14141376548E+03 -0.35910543805E+03  0.42134703787E+03  0.57139119264E+03  0.00000000000E+00 0. -1.
         -4    1    3    3    0  502  0.27752604118E+02 -0.34527597486E+02  0.19093558753E+02  0.48238221457E+02  0.00000000000E+00 0.  1.
         11    1    5    5    0    0 -0.98964919288E+02  0.35082794696E+03 -0.21988114550E+02  0.36518184620E+03  0.00000000000E+00 0. -1.
        -11    1    5    5    0    0 -0.11768184656E+03  0.27050788704E+03 -0.94000408049E+02  0.30961203251E+03  0.00000000000E+00 0.  1.
          2    1    6    6  503    0  0.40178388413E+02 -0.18430007547E+03  0.49484572404E+02  0.19501164996E+03  0.00000000000E+00 0. -1.
         -2    1    6    6    0  503  0.73020078383E+01 -0.43402722992E+02  0.68797778225E+02  0.81671598308E+02  0.00000000000E+00 0.  1.
<mgrwt>
<rscale>  0 0.15074356E+04</rscale>
<asrwt>0</asrwt>
<pdfrwt beam="1">  1        1 0.15491084E+00 0.15074356E+04</pdfrwt>
<pdfrwt beam="2">  1       -2 0.86797855E-01 0.15074356E+04</pdfrwt>
<totfact> 0.14548693E+01</totfact>
</mgrwt>
</event>
<event>
12    4  0.4280696E-008  0.3023387E+04  0.7818608E-02  0.8237084E-01
         -2   -1    0    0    0  501 -0.00000000000E+00  0.00000000000E+00  0.12073097926E+04  0.12073097926E+04  0.00000000000E+00 0.  1.
          1   -1    0    0  501    0  0.00000000000E+00 -0.00000000000E+00 -0.18928173901E+04  0.18928173901E+04  0.00000000000E+00 0. -1.
        -24    2    1    2    0    0 -0.54374394225E+03  0.61857850362E+03 -0.14589804431E+04  0.16772100527E+04  0.78184316709E+02 0.  0.
        254    2    1    2    0    0  0.54374394225E+03 -0.61857850362E+03  0.77347284564E+03  0.14229171300E+04  0.86494859734E+03 0.  0.
         23    2    4    4    0    0 -0.83289984685E+02 -0.52536709659E+03  0.46322800511E+03  0.71121050965E+03  0.91062597094E+02 0.  0.
         23    2    4    4    0    0  0.62703392693E+03 -0.93211407026E+02  0.31024484053E+03  0.71170662035E+03  0.91730804293E+02 0.  0.
          3    1    3    3  502    0 -0.49713193937E+03  0.58513504843E+03 -0.13236088502E+04  0.15301841648E+04  0.00000000000E+00 0. -1.
         -4    1    3    3    0  502 -0.46612002880E+02  0.33443455189E+02 -0.13537159295E+03  0.14702588781E+03  0.00000000000E+00 0.  1.
         11    1    5    5    0    0 -0.95551260770E+02 -0.39507231224E+03  0.37778160482E+03  0.55491541362E+03  0.00000000000E+00 0. -1.
        -11    1    5    5    0    0  0.12261276085E+02 -0.13029478435E+03  0.85446400285E+02  0.15629509602E+03  0.00000000000E+00 0.  1.
          1    1    6    6  503    0  0.36411241406E+03 -0.97522038282E+02  0.16725196872E+03  0.41238527988E+03  0.00000000000E+00 0. -1.
         -1    1    6    6    0  503  0.26292151288E+03  0.43106312557E+01  0.14299287182E+03  0.29932134048E+03  0.00000000000E+00 0.  1.
<mgrwt>
<rscale>  0 0.30233868E+04</rscale>
<asrwt>0</asrwt>
<pdfrwt beam="1">  1        1 0.29120267E+00 0.30233868E+04</pdfrwt>
<pdfrwt beam="2">  1       -2 0.18573997E+00 0.30233868E+04</pdfrwt>
<totfact> 0.43568453E-01</totfact>
</mgrwt>
</event>
<event>
12    4  0.4280696E-008  0.2419742E+04  0.7818608E-02  0.8432149E-01
          1   -1    0    0  501    0  0.00000000000E+00  0.00000000000E+00  0.20457291242E+04  0.20457291242E+04  0.00000000000E+00 0. -1.
         -2   -1    0    0    0  501 -0.00000000000E+00 -0.00000000000E+00 -0.71553348116E+03  0.71553348116E+03  0.00000000000E+00 0.  1.
        -24    2    1    2    0    0  0.62856516311E+03  0.82939604622E+03  0.58888847921E+03  0.11984285949E+04  0.80308718439E+02 0.  0.
        254    2    1    2    0    0 -0.62856516311E+03 -0.82939604622E+03  0.74130716378E+03  0.15628340105E+04  0.89995659195E+03 0.  0.
         23    2    4    4    0    0 -0.36101674019E+03 -0.54459830414E+03 -0.64277713187E+02  0.66279500927E+03  0.90803085520E+02 0.  0.
         23    2    4    4    0    0 -0.26754842292E+03 -0.28479774209E+03  0.80558487696E+03  0.90003900118E+03  0.91713124182E+02 0.  0.
          1    1    3    3  502    0  0.53831267247E+03  0.70575347804E+03  0.53365047593E+03  0.10356888218E+04  0.00000000000E+00 0. -1.
         -2    1    3    3    0  502  0.90252490639E+02  0.12364256818E+03  0.55238003284E+02  0.16273977307E+03  0.00000000000E+00 0.  1.
         11    1    5    5    0    0 -0.97818550127E+02 -0.83395390238E+02 -0.17301620679E+02  0.12970198896E+03  0.00000000000E+00 0.  1.
        -11    1    5    5    0    0 -0.26319819006E+03 -0.46120291390E+03 -0.46976092508E+02  0.53309302031E+03  0.00000000000E+00 0. -1.
          3    1    6    6  503    0 -0.26369480754E+03 -0.25521605968E+03  0.77401935101E+03  0.85660734551E+03  0.00000000000E+00 0. -1.
         -3    1    6    6    0  503 -0.38536153804E+01 -0.29581682408E+02  0.31565525954E+02  0.43431655671E+02  0.00000000000E+00 0.  1.
<mgrwt>
<rscale>  0 0.24197419E+04</rscale>
<asrwt>0</asrwt>
<pdfrwt beam="1">  1        1 0.31472756E+00 0.24197419E+04</pdfrwt>
<pdfrwt beam="2">  1       -2 0.11008207E+00 0.24197419E+04</pdfrwt>
<totfact> 0.14302030E+00</totfact>
</mgrwt>
</event>
<event>
12    4  0.4280696E-008  0.1866217E+04  0.7818608E-02  0.8671857E-01
         -2   -1    0    0    0  501 -0.00000000000E+00  0.00000000000E+00  0.31811091731E+04  0.31811091731E+04  0.00000000000E+00 0.  1.
          1   -1    0    0  501    0  0.00000000000E+00 -0.00000000000E+00 -0.27370697131E+03  0.27370697131E+03  0.00000000000E+00 0. -1.
        -24    2    1    2    0    0 -0.39532180463E+03 -0.14456880183E+03  0.21844915805E+04  0.22260541860E+04  0.78321811219E+02 0.  0.
        254    2    1    2    0    0  0.39532180463E+03  0.14456880183E+03  0.72291062136E+03  0.12287619585E+04  0.90004261921E+03 0.  0.
         23    2    4    4    0    0  0.34564327432E+03 -0.11787913169E+03  0.84206942550E+03  0.92240152857E+03  0.91536330359E+02 0.  0.
         23    2    4    4    0    0  0.49678530314E+02  0.26244793351E+03 -0.11915880414E+03  0.30636042989E+03  0.91164786075E+02 0.  0.
          3    1    3    3  502    0 -0.14592011914E+02 -0.22222850864E+02  0.95612024075E+02  0.99239312069E+02  0.00000000000E+00 0. -1.
         -4    1    3    3    0  502 -0.38072979272E+03 -0.12234595096E+03  0.20888795564E+04  0.21268148739E+04  0.00000000000E+00 0.  1.
         11    1    5    5    0    0  0.23335516083E+02 -0.36770878383E+02  0.82116385471E+02  0.92950226308E+02  0.00000000000E+00 0. -1.
        -11    1    5    5    0    0  0.32230775824E+03 -0.81108253303E+02  0.75995304003E+03  0.82945130226E+03  0.00000000000E+00 0.  1.
          1    1    6    6  503    0 -0.26116183134E+02  0.69694568689E+02 -0.22187577372E+02  0.77663868793E+02  0.00000000000E+00 0. -1.
         -1    1    6    6    0  503  0.75794713449E+02  0.19275336482E+03 -0.96971226766E+02  0.22869656110E+03  0.00000000000E+00 0.  1.
<mgrwt>
<rscale>  0 0.18662173E+04</rscale>
<asrwt>0</asrwt>
<pdfrwt beam="1">  1        1 0.42108767E-01 0.18662173E+04</pdfrwt>
<pdfrwt beam="2">  1       -2 0.48940139E+00 0.18662173E+04</pdfrwt>
<totfact> 0.15566245E-01</totfact>
</mgrwt>
</event>
<event>
12    4  0.4280696E-008  0.1591910E+04  0.7818608E-02  0.8825534E-01
          1   -1    0    0  501    0  0.00000000000E+00  0.00000000000E+00  0.94019449742E+03  0.94019449742E+03  0.00000000000E+00 0. -1.
         -2   -1    0    0    0  501 -0.00000000000E+00 -0.00000000000E+00 -0.67384380881E+03  0.67384380881E+03  0.00000000000E+00 0.  1.
        -24    2    1    2    0    0 -0.20627479057E+03  0.49269095816E+03  0.15621710406E+03  0.56124868342E+03  0.72819170230E+02 0.  0.
        254    2    1    2    0    0  0.20627479057E+03 -0.49269095816E+03  0.11013358456E+03  0.10527896228E+04  0.90052368873E+03 0.  0.
         23    2    4    4    0    0  0.32402988597E+03 -0.45034654471E+03 -0.28298135471E+03  0.63005049685E+03  0.95277511190E+02 0.  0.
         23    2    4    4    0    0 -0.11775509539E+03 -0.42344413453E+02  0.39311493927E+03  0.42273912596E+03  0.92248042237E+02 0.  0.
          3    1    3    3  502    0 -0.39928997971E+02  0.15908981221E+03  0.71715955319E+02  0.17901695863E+03  0.00000000000E+00 0. -1.
         -4    1    3    3    0  502 -0.16634579260E+03  0.33360114595E+03  0.84501148739E+02  0.38223172479E+03  0.00000000000E+00 0.  1.
         11    1    5    5    0    0  0.16902415063E+03 -0.19975934625E+03 -0.18130901462E+03  0.31834873755E+03  0.00000000000E+00 0. -1.
        -11    1    5    5    0    0  0.15500573533E+03 -0.25058719846E+03 -0.10167234009E+03  0.31170175931E+03  0.00000000000E+00 0.  1.
          4    1    6    6  503    0 -0.62503664445E+02 -0.68448721137E+02  0.26625842784E+03  0.28193170430E+03  0.00000000000E+00 0. -1.
         -4    1    6    6    0  503 -0.55251430946E+02  0.26104307684E+02  0.12685651143E+03  0.14080742165E+03  0.00000000000E+00 0.  1.
<mgrwt>
<rscale>  0 0.15919098E+04</rscale>
<asrwt>0</asrwt>
<pdfrwt beam="1">  1        1 0.14464531E+00 0.15919098E+04</pdfrwt>
<pdfrwt beam="2">  1       -2 0.10366828E+00 0.15919098E+04</pdfrwt>
<totfact> 0.10765807E+01</totfact>
</mgrwt>
</event>
<event>
12    4  0.4280696E-008  0.1794782E+04  0.7818608E-02  0.8709079E-01
          3   -1    0    0  501    0  0.00000000000E+00  0.00000000000E+00  0.36586406992E+03  0.36586406992E+03  0.00000000000E+00 0. -1.
         -4   -1    0    0    0  501 -0.00000000000E+00 -0.00000000000E+00 -0.22011208621E+04  0.22011208621E+04  0.00000000000E+00 0.  1.
        -24    2    1    2    0    0 -0.10730422394E+03 -0.13457912260E+03  0.24687785881E+03  0.31132697244E+03  0.79687325709E+02 0.  0.
        254    2    1    2    0    0  0.10730422394E+03  0.13457912260E+03 -0.20821346510E+04  0.22556579596E+04  0.85034251279E+03 0.  0.
         23    2    4    4    0    0 -0.18278951805E+03 -0.12979839666E+03 -0.15693327637E+03  0.28873923707E+03  0.92101368657E+02 0.  0.
         23    2    4    4    0    0  0.29009374199E+03  0.26437751926E+03 -0.19252013746E+04  0.19669187225E+04  0.91208970396E+02 0.  0.
          3    1    3    3  502    0 -0.54544950868E+01 -0.83602315432E+01  0.72498954178E+02  0.73182944358E+02  0.00000000000E+00 0. -1.
         -4    1    3    3    0  502 -0.10184972885E+03 -0.12621889106E+03  0.17437890464E+03  0.23814402808E+03  0.00000000000E+00 0.  1.
         11    1    5    5    0    0 -0.84881206973E+02 -0.28293123730E+02 -0.18994039433E+02  0.91466352730E+02  0.00000000000E+00 0.  1.
        -11    1    5    5    0    0 -0.97908311077E+02 -0.10150527293E+03 -0.13793923693E+03  0.19727288434E+03  0.00000000000E+00 0. -1.
          4    1    6    6  503    0  0.10261751135E+03  0.39098487961E+02 -0.53905660424E+03  0.55012822866E+03  0.00000000000E+00 0. -1.
         -4    1    6    6    0  503  0.18747623063E+03  0.22527903130E+03 -0.13861447704E+04  0.14167904939E+04  0.00000000000E+00 0.  1.
<mgrwt>
<rscale>  0 0.17947825E+04</rscale>
<asrwt>0</asrwt>
<pdfrwt beam="1">  1        3 0.56286779E-01 0.17947825E+04</pdfrwt>
<pdfrwt beam="2">  1       -4 0.33863398E+00 0.17947825E+04</pdfrwt>
<totfact> 0.11832625E-01</totfact>
</mgrwt>
</event>
<event>
12    4  0.4280696E-008  0.2594144E+04  0.7818608E-02  0.8370193E-01
         -2   -1    0    0    0  501 -0.00000000000E+00  0.00000000000E+00  0.70286159560E+03  0.70286159560E+03  0.00000000000E+00 0.  1.
          1   -1    0    0  501    0  0.00000000000E+00 -0.00000000000E+00 -0.23936376969E+04  0.23936376969E+04  0.00000000000E+00 0. -1.
        -24    2    1    2    0    0  0.43880935398E+02 -0.71398835409E+03  0.31522711134E+03  0.78565502414E+03  0.78617930312E+02 0.  0.
        254    2    1    2    0    0 -0.43880935398E+02  0.71398835409E+03 -0.20060032127E+04  0.23108442684E+04  0.89679843734E+03 0.  0.
         23    2    4    4    0    0  0.14751503383E+03  0.56793699098E+02 -0.13355165020E+04  0.13479453874E+04  0.91467102777E+02 0.  0.
         23    2    4    4    0    0 -0.19139596923E+03  0.65719465499E+03 -0.67048671072E+03  0.96289888102E+03  0.95313137710E+02 0.  0.
          3    1    3    3  502    0 -0.12377775413E+02 -0.21138735715E+02  0.11710087443E+02  0.27151088740E+02  0.00000000000E+00 0. -1.
         -4    1    3    3    0  502  0.56258710811E+02 -0.69284961837E+03  0.30351702390E+03  0.75850393540E+03  0.00000000000E+00 0.  1.
         11    1    5    5    0    0 -0.78093336167E+01 -0.71194301308E+01 -0.17720213192E+03  0.17751694999E+03  0.00000000000E+00 0.  1.
        -11    1    5    5    0    0  0.15532436745E+03  0.63913129229E+02 -0.11583143700E+04  0.11704284374E+04  0.00000000000E+00 0. -1.
          4    1    6    6  503    0 -0.15197304409E+03  0.48935529069E+03 -0.44227665543E+03  0.67688481043E+03  0.00000000000E+00 0. -1.
         -4    1    6    6    0  503 -0.39422925144E+02  0.16783936431E+03 -0.22821005529E+03  0.28601407059E+03  0.00000000000E+00 0.  1.
<mgrwt>
<rscale>  0 0.25941442E+04</rscale>
<asrwt>0</asrwt>
<pdfrwt beam="1">  1        1 0.36825195E+00 0.25941442E+04</pdfrwt>
<pdfrwt beam="2">  1       -2 0.10813255E+00 0.25941442E+04</pdfrwt>
<totfact> 0.85124289E-01</totfact>
</mgrwt>
</event>
<event>
12    4  0.4280696E-008  0.5087809E+04  0.7818608E-02  0.7815103E-01
          1   -1    0    0  501    0  0.00000000000E+00  0.00000000000E+00  0.38311887754E+04  0.38311887754E+04  0.00000000000E+00 0. -1.
         -2   -1    0    0    0  501 -0.00000000000E+00 -0.00000000000E+00 -0.16891492100E+04  0.16891492100E+04  0.00000000000E+00 0.  1.
        -24    2    1    2    0    0 -0.94745454466E+03  0.11042479150E+04  0.31738698429E+04  0.34923629215E+04  0.78201174514E+02 0.  0.
        254    2    1    2    0    0  0.94745454466E+03 -0.11042479150E+04 -0.10318302775E+04  0.20279750639E+04  0.96487075111E+03 0.  0.
         23    2    4    4    0    0  0.41860754990E+03 -0.95976569434E+03 -0.10311405993E+04  0.14724806960E+04  0.92552663923E+02 0.  0.
         23    2    4    4    0    0  0.52884699476E+03 -0.14448222065E+03 -0.68967821602E+00  0.55549436795E+03  0.89550327887E+02 0.  0.
          3    1    3    3  502    0 -0.75346118903E+03  0.90427025627E+03  0.25029567494E+04  0.27658996636E+04  0.00000000000E+00 0. -1.
         -4    1    3    3    0  502 -0.19399335563E+03  0.19997765873E+03  0.67091309349E+03  0.72646325787E+03  0.00000000000E+00 0.  1.
         11    1    5    5    0    0  0.10406254678E+03 -0.19880937080E+03 -0.27108086539E+03  0.35190767986E+03  0.00000000000E+00 0.  1.
        -11    1    5    5    0    0  0.31454500312E+03 -0.76095632355E+03 -0.76005973394E+03  0.11205730161E+04  0.00000000000E+00 0. -1.
          3    1    6    6  503    0  0.49335255091E+03 -0.11469426144E+03  0.14540986876E+02  0.50671782423E+03  0.00000000000E+00 0. -1.
         -3    1    6    6    0  503  0.35494443848E+02 -0.29787959217E+02 -0.15230665092E+02  0.48776543723E+02  0.00000000000E+00 0.  1.
<mgrwt>
<rscale>  0 0.50878088E+04</rscale>
<asrwt>0</asrwt>
<pdfrwt beam="1">  1        1 0.58941366E+00 0.50878088E+04</pdfrwt>
<pdfrwt beam="2">  1       -2 0.25986911E+00 0.50878088E+04</pdfrwt>
<totfact> 0.47243046E-03</totfact>
</mgrwt>
</event>
<event>
12    4  0.4280696E-008  0.1310974E+04  0.7818608E-02  0.9020908E-01
         -2   -1    0    0    0  501 -0.00000000000E+00  0.00000000000E+00  0.33562686445E+03  0.33562686445E+03  0.00000000000E+00 0.  1.
          1   -1    0    0  501    0  0.00000000000E+00 -0.00000000000E+00 -0.12801816156E+04  0.12801816156E+04  0.00000000000E+00 0. -1.
        -24    2    1    2    0    0  0.73764500305E+02 -0.23195427103E+03 -0.56016094514E+03  0.61581785826E+03  0.78786830970E+02 0.  0.
        254    2    1    2    0    0 -0.73764500305E+02  0.23195427103E+03 -0.38439380598E+03  0.99999062177E+03  0.89049349251E+03 0.  0.
         23    2    4    4    0    0  0.14183498998E+03  0.49525675501E+03 -0.69956174981E+02  0.52809533547E+03  0.92705982363E+02 0.  0.
         23    2    4    4    0    0 -0.21559949028E+03 -0.26330248398E+03 -0.31443763100E+03  0.47189528630E+03  0.89458365547E+02 0.  0.
          3    1    3    3  502    0  0.32607382550E+02 -0.18614046645E+03 -0.47060611044E+03  0.50713077784E+03  0.00000000000E+00 0. -1.
         -4    1    3    3    0  502  0.41157117755E+02 -0.45813804578E+02 -0.89554834699E+02  0.10868708042E+03  0.00000000000E+00 0.  1.
         11    1    5    5    0    0  0.66092806336E+01  0.86401992159E+02 -0.42681380000E+02  0.96595481459E+02  0.00000000000E+00 0.  1.
        -11    1    5    5    0    0  0.13522570934E+03  0.40885476285E+03 -0.27274794981E+02  0.43149985401E+03  0.00000000000E+00 0. -1.
          4    1    6    6  503    0 -0.19020011808E+03 -0.23941979163E+03 -0.31214139113E+03  0.43695556936E+03  0.00000000000E+00 0. -1.
         -4    1    6    6    0  503 -0.25399372205E+02 -0.23882692349E+02 -0.22962398690E+01  0.34939716939E+02  0.00000000000E+00 0.  1.
<mgrwt>
<rscale>  0 0.13109742E+04</rscale>
<asrwt>0</asrwt>
<pdfrwt beam="1">  1        1 0.19695102E+00 0.13109742E+04</pdfrwt>
<pdfrwt beam="2">  1       -2 0.51634902E-01 0.13109742E+04</pdfrwt>
<totfact> 0.28511673E+01</totfact>
</mgrwt>
</event>
<event>
12    4  0.4280696E-008  0.3196630E+04  0.7818608E-02  0.8189708E-01
          1   -1    0    0  501    0  0.00000000000E+00  0.00000000000E+00  0.11434118201E+04  0.11434118201E+04  0.00000000000E+00 0. -1.
         -2   -1    0    0    0  501 -0.00000000000E+00 -0.00000000000E+00 -0.22342002556E+04  0.22342002556E+04  0.00000000000E+00 0.  1.
        -24    2    1    2    0    0 -0.54470562584E+03  0.13644720855E+04 -0.42999095056E+03  0.15328811834E+04  0.79650572651E+02 0.  0.
        254    2    1    2    0    0  0.54470562584E+03 -0.13644720855E+04 -0.66079748495E+03  0.18447308922E+04  0.89882726797E+03 0.  0.
         23    2    4    4    0    0  0.65867761083E+03 -0.63381004075E+03 -0.12516728022E+03  0.92706921262E+03  0.90659330392E+02 0.  0.
         23    2    4    4    0    0 -0.11397198499E+03 -0.73066204479E+03 -0.53563020473E+03  0.91766167963E+03  0.91359755820E+02 0.  0.
          1    1    3    3  502    0 -0.53962293242E+03  0.13454244440E+04 -0.43310134493E+03  0.15129232032E+04  0.00000000000E+00 0. -1.
         -2    1    3    3    0  502 -0.50826934248E+01  0.19047641497E+02  0.31103943718E+01  0.19957980163E+02  0.00000000000E+00 0.  1.
         11    1    5    5    0    0  0.13523728052E+03 -0.13058844634E+03 -0.63176808423E+02  0.19832744007E+03  0.00000000000E+00 0. -1.
        -11    1    5    5    0    0  0.52344033031E+03 -0.50322159440E+03 -0.61990471801E+02  0.72874177255E+03  0.00000000000E+00 0.  1.
          3    1    6    6  503    0  0.17299440775E+01 -0.87676103877E+02 -0.96980829205E+02  0.13074927583E+03  0.00000000000E+00 0. -1.
         -3    1    6    6    0  503 -0.11570192906E+03 -0.64298594091E+03 -0.43864937553E+03  0.78691240380E+03  0.00000000000E+00 0.  1.
<mgrwt>
<rscale>  0 0.31966301E+04</rscale>
<asrwt>0</asrwt>
<pdfrwt beam="1">  1        1 0.17590951E+00 0.31966301E+04</pdfrwt>
<pdfrwt beam="2">  1       -2 0.34372312E+00 0.31966301E+04</pdfrwt>
<totfact> 0.14720075E-01</totfact>
</mgrwt>
</event>
<event>
12    4  0.4280696E-008  0.2650318E+04  0.7818608E-02  0.8351307E-01
         -2   -1    0    0    0  501 -0.00000000000E+00  0.00000000000E+00  0.89985258134E+03  0.89985258134E+03  0.00000000000E+00 0.  1.
          1   -1    0    0  501    0  0.00000000000E+00 -0.00000000000E+00 -0.19514824580E+04  0.19514824580E+04  0.00000000000E+00 0. -1.
        -24    2    1    2    0    0  0.22070415307E+03 -0.60271035850E+03  0.58886049593E+03  0.87606366498E+03  0.93598942367E+02 0.  0.
        254    2    1    2    0    0 -0.22070415307E+03  0.60271035850E+03 -0.16404903726E+04  0.19752713744E+04  0.89359847828E+03 0.  0.
         23    2    4    4    0    0  0.17312503867E+03 -0.51195543014E+02 -0.50231871775E+02  0.20887886171E+03  0.92270663198E+02 0.  0.
         23    2    4    4    0    0 -0.39382919174E+03  0.65390590151E+03 -0.15902585008E+04  0.17663925126E+04  0.92336607363E+02 0.  0.
          1    1    3    3  502    0  0.28519366269E+02 -0.18335512430E+03  0.19898162456E+03  0.27207745730E+03  0.00000000000E+00 0. -1.
         -2    1    3    3    0  502  0.19218478680E+03 -0.41935523420E+03  0.38987887137E+03  0.60398620768E+03  0.00000000000E+00 0.  1.
         11    1    5    5    0    0  0.17634036672E+03 -0.61682102186E+02 -0.57798421786E+02  0.19555373744E+03  0.00000000000E+00 0. -1.
        -11    1    5    5    0    0 -0.32153280500E+01  0.10486559172E+02  0.75665500108E+01  0.13325124269E+02  0.00000000000E+00 0.  1.
          1    1    6    6  503    0 -0.39029204885E+03  0.65574801230E+03 -0.15686440738E+04  0.17444132450E+04  0.00000000000E+00 0. -1.
         -1    1    6    6    0  503 -0.35371428859E+01 -0.18421107926E+01 -0.21614426988E+02  0.21979267640E+02  0.00000000000E+00 0.  1.
<mgrwt>
<rscale>  0 0.26503181E+04</rscale>
<asrwt>0</asrwt>
<pdfrwt beam="1">  1        1 0.30022807E+00 0.26503181E+04</pdfrwt>
<pdfrwt beam="2">  1       -2 0.13843886E+00 0.26503181E+04</pdfrwt>
<totfact> 0.91610778E-01</totfact>
</mgrwt>
</event>
<event>
12    4  0.4280696E-008  0.1653467E+04  0.7818608E-02  0.8788358E-01
         -2   -1    0    0    0  501 -0.00000000000E+00  0.00000000000E+00  0.55943552292E+03  0.55943552292E+03  0.00000000000E+00 0.  1.
          1   -1    0    0  501    0  0.00000000000E+00 -0.00000000000E+00 -0.12217467999E+04  0.12217467999E+04  0.00000000000E+00 0. -1.
        -24    2    1    2    0    0  0.18934109899E+03 -0.26259580227E+03  0.28447214512E+03  0.43838680254E+03  0.80324218986E+02 0.  0.
        254    2    1    2    0    0 -0.18934109899E+03  0.26259580227E+03 -0.94678342208E+03  0.13427955203E+04  0.89548554081E+03 0.  0.
         23    2    4    4    0    0  0.10950819838E+03 -0.19299209504E+03  0.74153055534E+01  0.24022116011E+03  0.91723632443E+02 0.  0.
         23    2    4    4    0    0 -0.29884929738E+03  0.45558789731E+03 -0.95419872764E+03  0.11025743602E+04  0.91125041261E+02 0.  0.
          3    1    3    3  502    0  0.12239538859E+03 -0.13896006889E+03  0.20744707496E+03  0.27807340902E+03  0.00000000000E+00 0. -1.
         -4    1    3    3    0  502  0.66945710407E+02 -0.12363573337E+03  0.77025070157E+02  0.16031339352E+03  0.00000000000E+00 0.  1.
         11    1    5    5    0    0  0.64625610448E+02 -0.43001582242E+02  0.27552621088E+02  0.82369609261E+02  0.00000000000E+00 0. -1.
        -11    1    5    5    0    0  0.44882587935E+02 -0.14999051280E+03 -0.20137315535E+02  0.15785155085E+03  0.00000000000E+00 0.  1.
          4    1    6    6  503    0 -0.30070360087E+03  0.42663376042E+03 -0.88364844305E+03  0.10262911829E+04  0.00000000000E+00 0.  1.
         -4    1    6    6    0  503  0.18543034922E+01  0.28954136892E+02 -0.70550284583E+02  0.76283177302E+02  0.00000000000E+00 0. -1.
<mgrwt>
<rscale>  0 0.16534673E+04</rscale>
<asrwt>0</asrwt>
<pdfrwt beam="1">  1        1 0.18796105E+00 0.16534673E+04</pdfrwt>
<pdfrwt beam="2">  1       -2 0.86067003E-01 0.16534673E+04</pdfrwt>
<totfact> 0.10109217E+01</totfact>
</mgrwt>
</event>
<event>
12    4  0.4280696E-008  0.2475192E+04  0.7818608E-02  0.8411877E-01
         -2   -1    0    0    0  501 -0.00000000000E+00  0.00000000000E+00  0.61565062617E+03  0.61565062617E+03  0.00000000000E+00 0.  1.
          1   -1    0    0  501    0  0.00000000000E+00 -0.00000000000E+00 -0.24878450416E+04  0.24878450416E+04  0.00000000000E+00 0. -1.
        -24    2    1    2    0    0 -0.10522616928E+03 -0.10406514057E+04 -0.11056530036E+04  0.15237816853E+04  0.73581011059E+02 0.  0.
        254    2    1    2    0    0  0.10522616928E+03  0.10406514057E+04 -0.76654141184E+03  0.15797139825E+04  0.90215444116E+03 0.  0.
         23    2    4    4    0    0 -0.24189771434E+02 -0.13012908030E+03  0.17231991613E+02  0.16186769975E+03  0.91572310814E+02 0.  0.
         23    2    4    4    0    0  0.12941594072E+03  0.11707804860E+04 -0.78377340345E+03  0.14178462828E+04  0.92259967410E+02 0.  0.
          1    1    3    3  502    0 -0.95131775528E+02 -0.77308081247E+03 -0.78213161083E+03  0.11038269131E+04  0.00000000000E+00 0. -1.
         -4    1    3    3    0  502 -0.10094393753E+02 -0.26757059319E+03 -0.32352139278E+03  0.41995477222E+03  0.00000000000E+00 0.  1.
         11    1    5    5    0    0  0.35246381354E+02 -0.49818218965E+02  0.73886181969E+01  0.61471570813E+02  0.00000000000E+00 0. -1.
        -11    1    5    5    0    0 -0.59436152788E+02 -0.80310861333E+02  0.98433734159E+01  0.10039612894E+03  0.00000000000E+00 0.  1.
          1    1    6    6  503    0 -0.12521367015E+02  0.11410985297E+03 -0.89468620874E+02  0.14554201214E+03  0.00000000000E+00 0. -1.
         -1    1    6    6    0  503  0.14193730773E+03  0.10566706330E+04 -0.69430478258E+03  0.12723042706E+04  0.00000000000E+00 0.  1.
<mgrwt>
<rscale>  0 0.24751916E+04</rscale>
<asrwt>0</asrwt>
<pdfrwt beam="1">  1        1 0.38274539E+00 0.24751916E+04</pdfrwt>
<pdfrwt beam="2">  1       -2 0.94715481E-01 0.24751916E+04</pdfrwt>
<totfact> 0.10144939E+00</totfact>
</mgrwt>
</event>
<event>
12    4  0.4280696E-008  0.1394512E+04  0.7818608E-02  0.8957800E-01
          1   -1    0    0  501    0  0.00000000000E+00  0.00000000000E+00  0.10814195761E+04  0.10814195761E+04  0.00000000000E+00 0. -1.
         -2   -1    0    0    0  501 -0.00000000000E+00 -0.00000000000E+00 -0.44956293029E+03  0.44956293029E+03  0.00000000000E+00 0.  1.
        -24    2    1    2    0    0  0.32655652786E+03 -0.11880617321E+03 -0.21532856398E+02  0.35686895692E+03  0.78343575499E+02 0.  0.
        254    2    1    2    0    0 -0.32655652786E+03  0.11880617321E+03  0.65338950218E+03  0.11741135494E+04  0.91152109835E+03 0.  0.
         23    2    4    4    0    0 -0.16538842130E+03 -0.14534842729E+03 -0.16859322675E+03  0.29109922945E+03  0.88518868437E+02 0.  0.
         23    2    4    4    0    0 -0.16116810656E+03  0.26415460050E+03  0.82198272892E+03  0.88301431999E+03  0.91136552046E+02 0.  0.
          3    1    3    3  502    0  0.46285395337E+02  0.33980733276E+01  0.15385426405E+02  0.48893722189E+02  0.00000000000E+00 0. -1.
         -4    1    3    3    0  502  0.28027113253E+03 -0.12220424654E+03 -0.36918282802E+02  0.30797523473E+03  0.00000000000E+00 0.  1.
         11    1    5    5    0    0 -0.57815294325E+02 -0.80478512312E+02 -0.28877700572E+02  0.10321492524E+03  0.00000000000E+00 0.  1.
        -11    1    5    5    0    0 -0.10757312698E+03 -0.64869914973E+02 -0.13971552617E+03  0.18788430422E+03  0.00000000000E+00 0. -1.
          3    1    6    6  503    0 -0.35045796200E+02  0.40929631350E+02  0.25684781435E+03  0.26243902585E+03  0.00000000000E+00 0. -1.
         -3    1    6    6    0  503 -0.12612231036E+03  0.22322496915E+03  0.56513491457E+03  0.62057529413E+03  0.00000000000E+00 0.  1.
<mgrwt>
<rscale>  0 0.13945123E+04</rscale>
<asrwt>0</asrwt>
<pdfrwt beam="1">  1        1 0.16637224E+00 0.13945123E+04</pdfrwt>
<pdfrwt beam="2">  1       -2 0.69163528E-01 0.13945123E+04</pdfrwt>
<totfact> 0.21377076E+01</totfact>
</mgrwt>
</event>
<event>
12    4  0.4280696E-008  0.1845531E+04  0.7818608E-02  0.8682455E-01
         -2   -1    0    0    0  501 -0.00000000000E+00  0.00000000000E+00  0.29197492945E+03  0.29197492945E+03  0.00000000000E+00 0.  1.
          1   -1    0    0  501    0  0.00000000000E+00 -0.00000000000E+00 -0.29163317142E+04  0.29163317142E+04  0.00000000000E+00 0. -1.
        -24    2    1    2    0    0 -0.34330953390E+03 -0.58925937618E+03 -0.72806530200E+03  0.10006519256E+04  0.78339924005E+02 0.  0.
        254    2    1    2    0    0  0.34330953390E+03  0.58925937618E+03 -0.18962914827E+04  0.22076547181E+04  0.90151534551E+03 0.  0.
         23    2    4    4    0    0 -0.35530292271E+02 -0.99993786606E+02  0.13244904248E+02  0.14017362150E+03  0.90620404146E+02 0.  0.
         23    2    4    4    0    0  0.37883982617E+03  0.68925316278E+03 -0.19095363870E+04  0.20674810966E+04  0.97771852319E+02 0.  0.
          1    1    3    3  502    0 -0.99956847177E+00  0.72800608775E+00  0.14635004312E+01  0.19159758625E+01  0.00000000000E+00 0. -1.
         -2    1    3    3    0  502 -0.34230996543E+03 -0.58998738227E+03 -0.72952880243E+03  0.99873594971E+03  0.00000000000E+00 0.  1.
         11    1    5    5    0    0  0.10055437495E+02 -0.46347148931E+02  0.42742751975E+02  0.63844442856E+02  0.00000000000E+00 0. -1.
        -11    1    5    5    0    0 -0.45585729766E+02 -0.53646637675E+02 -0.29497847727E+02  0.76329178645E+02  0.00000000000E+00 0.  1.
          2    1    6    6  503    0  0.11706265090E+03  0.28510410849E+03 -0.83196153846E+03  0.88721362613E+03  0.00000000000E+00 0. -1.
         -2    1    6    6    0  503  0.26177717526E+03  0.40414905429E+03 -0.10775748485E+04  0.11802674704E+04  0.00000000000E+00 0.  1.
<mgrwt>
<rscale>  0 0.18455305E+04</rscale>
<asrwt>0</asrwt>
<pdfrwt beam="1">  1        1 0.44866640E+00 0.18455305E+04</pdfrwt>
<pdfrwt beam="2">  1       -2 0.44919221E-01 0.18455305E+04</pdfrwt>
<totfact> 0.26745301E+00</totfact>
</mgrwt>
</event>
<event>
12    4  0.4280696E-008  0.1682441E+04  0.7818608E-02  0.8771443E-01
         -2   -1    0    0    0  501 -0.00000000000E+00  0.00000000000E+00  0.45421192254E+03  0.45421192254E+03  0.00000000000E+00 0.  1.
          1   -1    0    0  501    0  0.00000000000E+00 -0.00000000000E+00 -0.15579774813E+04  0.15579774813E+04  0.00000000000E+00 0. -1.
        -24    2    1    2    0    0 -0.28949733186E+03  0.43391834912E+03 -0.74772470712E+03  0.91555541422E+03  0.83997857198E+02 0.  0.
        254    2    1    2    0    0  0.28949733186E+03 -0.43391834912E+03 -0.35604085160E+03  0.10966339896E+04  0.89651948124E+03 0.  0.
         23    2    4    4    0    0 -0.30143207622E+03 -0.53486550707E+02 -0.42071155826E+02  0.32187821013E+03  0.90074926172E+02 0.  0.
         23    2    4    4    0    0  0.59092940808E+03 -0.38043179842E+03 -0.31396969578E+03  0.77475577945E+03  0.87997893984E+02 0.  0.
          3    1    3    3  502    0 -0.66613892409E+02  0.87753718099E+02 -0.22170442813E+03  0.24757014997E+03  0.00000000000E+00 0. -1.
         -4    1    3    3    0  502 -0.22288343945E+03  0.34616463102E+03 -0.52602027899E+03  0.66798526425E+03  0.00000000000E+00 0.  1.
         11    1    5    5    0    0 -0.26664545310E+03 -0.61623123416E+02 -0.62506520287E+02  0.28072098617E+03  0.00000000000E+00 0.  1.
        -11    1    5    5    0    0 -0.34786623119E+02  0.81365727086E+01  0.20435364462E+02  0.41157223961E+02  0.00000000000E+00 0. -1.
          1    1    6    6  503    0  0.41773285057E+03 -0.31150961600E+03 -0.21500342823E+03  0.56370688257E+03  0.00000000000E+00 0. -1.
         -1    1    6    6    0  503  0.17319655751E+03 -0.68922182415E+02 -0.98966267547E+02  0.21104889688E+03  0.00000000000E+00 0.  1.
<mgrwt>
<rscale>  0 0.16824410E+04</rscale>
<asrwt>0</asrwt>
<pdfrwt beam="1">  1        1 0.23968884E+00 0.16824410E+04</pdfrwt>
<pdfrwt beam="2">  1       -2 0.69878757E-01 0.16824410E+04</pdfrwt>
<totfact> 0.93081668E+00</totfact>
</mgrwt>
</event>
<event>
12    4  0.4280696E-008  0.2629983E+04  0.7818608E-02  0.8358087E-01
         -2   -1    0    0    0  501 -0.00000000000E+00  0.00000000000E+00  0.14967542467E+04  0.14967542467E+04  0.00000000000E+00 0.  1.
          1   -1    0    0  501    0  0.00000000000E+00 -0.00000000000E+00 -0.11553018666E+04  0.11553018666E+04  0.00000000000E+00 0. -1.
        -24    2    1    2    0    0  0.29431802234E+03 -0.32802552233E+03  0.12309205303E+04  0.13101616298E+04  0.84464801194E+02 0.  0.
        254    2    1    2    0    0 -0.29431802234E+03  0.32802552233E+03 -0.88946815022E+03  0.13418944835E+04  0.90294151142E+03 0.  0.
         23    2    4    4    0    0 -0.21276902966E+03  0.38716660522E+03 -0.91534255826E+01  0.45113467064E+03  0.90939901457E+02 0.  0.
         23    2    4    4    0    0 -0.81548992673E+02 -0.59141082888E+02 -0.88031472464E+03  0.89075981287E+03  0.91384484006E+02 0.  0.
          3    1    3    3  502    0  0.44522682995E+02 -0.60503515428E+02  0.13184435176E+03  0.15174280138E+03  0.00000000000E+00 0. -1.
         -4    1    3    3    0  502  0.24979533934E+03 -0.26752200690E+03  0.10990761786E+04  0.11584188284E+04  0.00000000000E+00 0.  1.
         11    1    5    5    0    0 -0.17049980132E+03  0.35245786486E+03 -0.29823725759E+02  0.39266548533E+03  0.00000000000E+00 0.  1.
        -11    1    5    5    0    0 -0.42269228340E+02  0.34708740360E+02  0.20670300177E+02  0.58469185313E+02  0.00000000000E+00 0. -1.
          4    1    6    6  503    0  0.48261282537E+01  0.77452069033E+01 -0.30665206024E+03  0.30678781885E+03  0.00000000000E+00 0. -1.
         -4    1    6    6    0  503 -0.86375120927E+02 -0.66886289791E+02 -0.57366266440E+03  0.58397199402E+03  0.00000000000E+00 0.  1.
<mgrwt>
<rscale>  0 0.26299833E+04</rscale>
<asrwt>0</asrwt>
<pdfrwt beam="1">  1        1 0.17773875E+00 0.26299833E+04</pdfrwt>
<pdfrwt beam="2">  1       -2 0.23026989E+00 0.26299833E+04</pdfrwt>
<totfact> 0.75670915E-01</totfact>
</mgrwt>
</event>
<event>
12    4  0.4280696E-008  0.1600527E+04  0.7818608E-02  0.8820224E-01
          1   -1    0    0  501    0  0.00000000000E+00  0.00000000000E+00  0.12079732455E+04  0.12079732455E+04  0.00000000000E+00 0. -1.
         -2   -1    0    0    0  501 -0.00000000000E+00 -0.00000000000E+00 -0.53016198100E+03  0.53016198100E+03  0.00000000000E+00 0.  1.
        -24    2    1    2    0    0 -0.29553835685E+03 -0.44566650762E+03  0.27192106157E+03  0.60523308858E+03  0.80027941355E+02 0.  0.
        254    2    1    2    0    0  0.29553835685E+03  0.44566650762E+03  0.40589020294E+03  0.11329021379E+04  0.91255621247E+03 0.  0.
         23    2    4    4    0    0  0.28709128552E+03 -0.13815291089E+03  0.42720195808E+03  0.54130878450E+03  0.94900232793E+02 0.  0.
         23    2    4    4    0    0  0.84470713279E+01  0.58381941851E+03 -0.21311755139E+02  0.59159335343E+03  0.92801069379E+02 0.  0.
          3    1    3    3  502    0  0.21131875141E+01 -0.20817693193E+02  0.18357606450E+02  0.27836013111E+02  0.00000000000E+00 0. -1.
         -4    1    3    3    0  502 -0.29765154437E+03 -0.42484881443E+03  0.25356345512E+03  0.57739707546E+03  0.00000000000E+00 0.  1.
         11    1    5    5    0    0  0.26458457506E+03 -0.13090756531E+03  0.42513728781E+03  0.51757463375E+03  0.00000000000E+00 0.  1.
        -11    1    5    5    0    0  0.22506710466E+02 -0.72453455778E+01  0.20646702633E+01  0.23734150751E+02  0.00000000000E+00 0. -1.
          4    1    6    6  503    0 -0.13866890623E+02  0.53734173217E+03 -0.50893565761E+01  0.53754472310E+03  0.00000000000E+00 0. -1.
         -4    1    6    6    0  503  0.22313961951E+02  0.46477686338E+02 -0.16222398562E+02  0.54048630328E+02  0.00000000000E+00 0.  1.
<mgrwt>
<rscale>  0 0.16005268E+04</rscale>
<asrwt>0</asrwt>
<pdfrwt beam="1">  1        1 0.18584204E+00 0.16005268E+04</pdfrwt>
<pdfrwt beam="2">  1       -2 0.81563382E-01 0.16005268E+04</pdfrwt>
<totfact> 0.11740777E+01</totfact>
</mgrwt>
</event>
<event>
12    4  0.4280696E-008  0.1491812E+04  0.7818608E-02  0.8889916E-01
         -2   -1    0    0    0  501 -0.00000000000E+00  0.00000000000E+00  0.21831150714E+03  0.21831150714E+03  0.00000000000E+00 0.  1.
          1   -1    0    0  501    0  0.00000000000E+00 -0.00000000000E+00 -0.25485411044E+04  0.25485411044E+04  0.00000000000E+00 0. -1.
        -24    2    1    2    0    0 -0.38918334004E+03  0.17377763050E+03 -0.37257022358E+03  0.57200533617E+03  0.81970702580E+02 0.  0.
        254    2    1    2    0    0  0.38918334004E+03 -0.17377763050E+03 -0.19576593736E+04  0.21948472753E+04  0.89624885037E+03 0.  0.
         23    2    4    4    0    0  0.37555250600E+03 -0.36206071984E+03 -0.51965818077E+03  0.74161239995E+03  0.88411974898E+02 0.  0.
         23    2    4    4    0    0  0.13630834038E+02  0.18828308934E+03 -0.14380011929E+04  0.14532348754E+04  0.91694334357E+02 0.  0.
          1    1    3    3  502    0 -0.74236293632E+02  0.69304222883E+02 -0.10084917464E+03  0.14312462621E+03  0.00000000000E+00 0. -1.
         -2    1    3    3    0  502 -0.31494704641E+03  0.10447340762E+03 -0.27172104894E+03  0.42888070996E+03  0.00000000000E+00 0.  1.
         11    1    5    5    0    0  0.33437678729E+03 -0.32085006014E+03 -0.41618178249E+03  0.62286424929E+03  0.00000000000E+00 0.  1.
        -11    1    5    5    0    0  0.41175718712E+02 -0.41210659701E+02 -0.10347639827E+03  0.11874815065E+03  0.00000000000E+00 0. -1.
          4    1    6    6  503    0 -0.81377467192E+01  0.35298388744E+01 -0.10870429447E+02  0.14030285831E+02  0.00000000000E+00 0. -1.
         -4    1    6    6    0  503  0.21768580757E+02  0.18475325047E+03 -0.14271307634E+04  0.14392045896E+04  0.00000000000E+00 0.  1.
<mgrwt>
<rscale>  0 0.14918121E+04</rscale>
<asrwt>0</asrwt>
<pdfrwt beam="1">  1        1 0.39208321E+00 0.14918121E+04</pdfrwt>
<pdfrwt beam="2">  1       -2 0.33586389E-01 0.14918121E+04</pdfrwt>
<totfact> 0.88562543E+00</totfact>
</mgrwt>
</event>
<event>
12    4  0.4280696E-008  0.1688386E+04  0.7818608E-02  0.8768016E-01
         -2   -1    0    0    0  501 -0.00000000000E+00  0.00000000000E+00  0.26855935780E+03  0.26855935780E+03  0.00000000000E+00 0.  1.
          1   -1    0    0  501    0  0.00000000000E+00 -0.00000000000E+00 -0.26536479863E+04  0.26536479863E+04  0.00000000000E+00 0. -1.
        -24    2    1    2    0    0  0.48788389246E+03 -0.39581549774E+02 -0.14747369539E+04  0.15558282016E+04  0.78453285497E+02 0.  0.
        254    2    1    2    0    0 -0.48788389246E+03  0.39581549774E+02 -0.91035167462E+03  0.13663791425E+04  0.89367466010E+03 0.  0.
         23    2    4    4    0    0  0.11533238532E+03  0.68159659391E+02  0.96298264413E+02  0.18896558682E+03  0.92126755080E+02 0.  0.
         23    2    4    4    0    0 -0.60321627778E+03 -0.28578109617E+02 -0.10066499390E+04  0.11774135557E+04  0.90950510273E+02 0.  0.
          3    1    3    3  502    0  0.37345313813E+03 -0.62092056752E+02 -0.10960475246E+04  0.11595873602E+04  0.00000000000E+00 0. -1.
         -4    1    3    3    0  502  0.11443075433E+03  0.22510506978E+02 -0.37868942932E+03  0.39624084133E+03  0.00000000000E+00 0.  1.
         11    1    5    5    0    0  0.99710246219E+01  0.52174451469E+02  0.49385829758E+02  0.72529682882E+02  0.00000000000E+00 0. -1.
        -11    1    5    5    0    0  0.10536136070E+03  0.15985207922E+02  0.46912434655E+02  0.11643590394E+03  0.00000000000E+00 0.  1.
          3    1    6    6  503    0 -0.23531286430E+03 -0.19291384817E+02 -0.47992745214E+03  0.53485947776E+03  0.00000000000E+00 0. -1.
         -3    1    6    6    0  503 -0.36790341348E+03 -0.92867248002E+01 -0.52672248689E+03  0.64255407796E+03  0.00000000000E+00 0.  1.
<mgrwt>
<rscale>  0 0.16883862E+04</rscale>
<asrwt>0</asrwt>
<pdfrwt beam="1">  1        1 0.40825354E+00 0.16883862E+04</pdfrwt>
<pdfrwt beam="2">  1       -2 0.41316824E-01 0.16883862E+04</pdfrwt>
<totfact> 0.49226177E+00</totfact>
</mgrwt>
</event>
<event>
12    4  0.4280696E-008  0.1341146E+04  0.7818608E-02  0.8997558E-01
         -2   -1    0    0    0  501 -0.00000000000E+00  0.00000000000E+00  0.37523156340E+03  0.37523156340E+03  0.00000000000E+00 0.  1.
          1   -1    0    0  501    0  0.00000000000E+00 -0.00000000000E+00 -0.11983750571E+04  0.11983750571E+04  0.00000000000E+00 0. -1.
        -24    2    1    2    0    0  0.73241967542E+02  0.81557364475E+02  0.17796549567E+03  0.22395064209E+03  0.80412579439E+02 0.  0.
        254    2    1    2    0    0 -0.73241967542E+02 -0.81557364475E+02 -0.10011089894E+04  0.13496559784E+04  0.89851881557E+03 0.  0.
         23    2    4    4    0    0  0.34798113332E+02 -0.46355270935E+03 -0.38209110413E+03  0.60858904418E+03  0.91076834597E+02 0.  0.
         23    2    4    4    0    0 -0.10804008087E+03  0.38199534488E+03 -0.61901788523E+03  0.74106693421E+03  0.91673094055E+02 0.  0.
          3    1    3    3  502    0 -0.16733964849E+02  0.16399401484E+02  0.19835932301E+02  0.30699025374E+02  0.00000000000E+00 0. -1.
         -4    1    3    3    0  502  0.89975932391E+02  0.65157962991E+02  0.15812956337E+03  0.19325161671E+03  0.00000000000E+00 0.  1.
         11    1    5    5    0    0  0.12840436180E+02 -0.14094869723E+02 -0.36580421278E+02  0.41251295430E+02  0.00000000000E+00 0. -1.
        -11    1    5    5    0    0  0.21957677152E+02 -0.44945783963E+03 -0.34551068285E+03  0.56733774875E+03  0.00000000000E+00 0.  1.
          2    1    6    6  503    0 -0.32738741553E+02  0.38702473555E+02 -0.43878521084E+02  0.67044994372E+02  0.00000000000E+00 0. -1.
         -2    1    6    6    0  503 -0.75301339321E+02  0.34329287132E+03 -0.57513936414E+03  0.67402193984E+03  0.00000000000E+00 0.  1.
<mgrwt>
<rscale>  0 0.13411460E+04</rscale>
<asrwt>0</asrwt>
<pdfrwt beam="1">  1        1 0.18436540E+00 0.13411460E+04</pdfrwt>
<pdfrwt beam="2">  1       -2 0.57727931E-01 0.13411460E+04</pdfrwt>
<totfact> 0.25860892E+01</totfact>
</mgrwt>
</event>
<event>
12    4  0.4280696E-008  0.3682594E+04  0.7818608E-02  0.8071830E-01
         -2   -1    0    0    0  501 -0.00000000000E+00  0.00000000000E+00  0.11522445979E+04  0.11522445979E+04  0.00000000000E+00 0.  1.
          1   -1    0    0  501    0  0.00000000000E+00 -0.00000000000E+00 -0.29424089075E+04  0.29424089075E+04  0.00000000000E+00 0. -1.
        -24    2    1    2    0    0 -0.13375417755E+04  0.76804890172E+03 -0.17118479913E+04  0.23055595555E+04  0.79146711217E+02 0.  0.
        254    2    1    2    0    0  0.13375417755E+04 -0.76804890172E+03 -0.78316318326E+02  0.17890939499E+04  0.90322012772E+03 0.  0.
         23    2    4    4    0    0  0.10376097559E+03  0.17107149110E+03  0.65643780167E+02  0.22914503464E+03  0.90368943257E+02 0.  0.
         23    2    4    4    0    0  0.12337808000E+04 -0.93912039282E+03 -0.14396009849E+03  0.15599489153E+04  0.92487478809E+02 0.  0.
          1    1    3    3  502    0 -0.11600505911E+04  0.63433264645E+03 -0.14609531683E+04  0.19704008324E+04  0.00000000000E+00 0. -1.
         -2    1    3    3    0  502 -0.17749118442E+03  0.13371625528E+03 -0.25089482296E+03  0.33515872309E+03  0.00000000000E+00 0.  1.
         11    1    5    5    0    0 -0.11224546374E+02  0.28371093916E+02  0.29324915621E+02  0.42318554884E+02  0.00000000000E+00 0. -1.
        -11    1    5    5    0    0  0.11498552197E+03  0.14270039718E+03  0.36318864546E+02  0.18682647976E+03  0.00000000000E+00 0.  1.
          4    1    6    6  503    0  0.16413111956E+03 -0.88834019056E+02 -0.26052574217E+02  0.18843896617E+03  0.00000000000E+00 0. -1.
         -4    1    6    6    0  503  0.10696496804E+04 -0.85028637376E+03 -0.11790752428E+03  0.13715099491E+04  0.00000000000E+00 0.  1.
<mgrwt>
<rscale>  0 0.36825941E+04</rscale>
<asrwt>0</asrwt>
<pdfrwt beam="1">  1        1 0.45267828E+00 0.36825941E+04</pdfrwt>
<pdfrwt beam="2">  1       -2 0.17726840E+00 0.36825941E+04</pdfrwt>
<totfact> 0.88173485E-02</totfact>
</mgrwt>
</event>
<event>
12    4  0.4280696E-008  0.1680726E+04  0.7818608E-02  0.8772434E-01
          1   -1    0    0  501    0  0.00000000000E+00  0.00000000000E+00  0.30036717041E+03  0.30036717041E+03  0.00000000000E+00 0. -1.
         -2   -1    0    0    0  501 -0.00000000000E+00 -0.00000000000E+00 -0.23511553304E+04  0.23511553304E+04  0.00000000000E+00 0.  1.
        -24    2    1    2    0    0  0.75587370593E+02  0.19336114077E+03  0.17227577938E+03  0.28168685742E+03  0.81034314524E+02 0.  0.
        254    2    1    2    0    0 -0.75587370593E+02 -0.19336114077E+03 -0.22230639394E+04  0.23698356434E+04  0.79435868272E+03 0.  0.
         23    2    4    4    0    0 -0.30373942388E+03 -0.21903728018E+03 -0.51636459735E+03  0.64528693391E+03  0.97610767630E+02 0.  0.
         23    2    4    4    0    0  0.22815205329E+03  0.25676139406E+02 -0.17066993420E+04  0.17245487095E+04  0.92374150890E+02 0.  0.
          3    1    3    3  502    0  0.50694762687E+02  0.18260278118E+03  0.16980728089E+03  0.25445676902E+03  0.00000000000E+00 0. -1.
         -4    1    3    3    0  502  0.24892607905E+02  0.10758359587E+02  0.24684984914E+01  0.27230088398E+02  0.00000000000E+00 0.  1.
         11    1    5    5    0    0 -0.16773939973E+03 -0.86044908506E+02 -0.32334940873E+03  0.37429276326E+03  0.00000000000E+00 0.  1.
        -11    1    5    5    0    0 -0.13600002415E+03 -0.13299237167E+03 -0.19301518862E+03  0.27099417066E+03  0.00000000000E+00 0. -1.
          2    1    6    6  503    0  0.10437274465E+03 -0.58415730056E+01 -0.10746470216E+04  0.10797194148E+04  0.00000000000E+00 0. -1.
         -2    1    6    6    0  503  0.12377930864E+03  0.31517712412E+02 -0.63205232044E+03  0.64482929463E+03  0.00000000000E+00 0.  1.
<mgrwt>
<rscale>  0 0.16807259E+04</rscale>
<asrwt>0</asrwt>
<pdfrwt beam="1">  1        1 0.46210332E-01 0.16807259E+04</pdfrwt>
<pdfrwt beam="2">  1       -2 0.36171622E+00 0.16807259E+04</pdfrwt>
<totfact> 0.96104698E-01</totfact>
</mgrwt>
</event>
<event>
12    4  0.4280696E-008  0.1233462E+04  0.7818608E-02  0.9084062E-01
         -2   -1    0    0    0  501 -0.00000000000E+00  0.00000000000E+00  0.13594406649E+04  0.13594406649E+04  0.00000000000E+00 0.  1.
          1   -1    0    0  501    0  0.00000000000E+00 -0.00000000000E+00 -0.27978925583E+03  0.27978925583E+03  0.00000000000E+00 0. -1.
        -24    2    1    2    0    0 -0.33162860045E+02 -0.25344527368E+03  0.38777330155E+03  0.47134952233E+03  0.80423608284E+02 0.  0.
        254    2    1    2    0    0  0.33162860045E+02  0.25344527368E+03  0.69187810748E+03  0.11678803984E+04  0.90549159424E+03 0.  0.
         23    2    4    4    0    0 -0.29152818298E+03  0.37906613173E+03  0.13608115681E+03  0.50587290968E+03  0.93324733071E+02 0.  0.
         23    2    4    4    0    0  0.32469104303E+03 -0.12562085806E+03  0.55579695066E+03  0.66200748869E+03  0.90215249877E+02 0.  0.
          1    1    3    3  502    0 -0.50411630989E+01 -0.67429382532E+02  0.47839708846E+02  0.82829781459E+02  0.00000000000E+00 0. -1.
         -2    1    3    3    0  502 -0.28121696946E+02 -0.18601589115E+03  0.33993359270E+03  0.38851974087E+03  0.00000000000E+00 0.  1.
         11    1    5    5    0    0 -0.23423642177E+02  0.65479667838E+02  0.46585776844E+02  0.83704769978E+02  0.00000000000E+00 0.  1.
        -11    1    5    5    0    0 -0.26810454080E+03  0.31358646390E+03  0.89495379971E+02  0.42216813970E+03  0.00000000000E+00 0. -1.
          2    1    6    6  503    0  0.26380163352E+03 -0.13568989473E+03  0.43771264506E+03  0.52876782148E+03  0.00000000000E+00 0. -1.
         -2    1    6    6    0  503  0.60889409508E+02  0.10069036673E+02  0.11808430560E+03  0.13323966721E+03  0.00000000000E+00 0.  1.
<mgrwt>
<rscale>  0 0.12334616E+04</rscale>
<asrwt>0</asrwt>
<pdfrwt beam="1">  1        1 0.43044502E-01 0.12334616E+04</pdfrwt>
<pdfrwt beam="2">  1       -2 0.20914471E+00 0.12334616E+04</pdfrwt>
<totfact> 0.95921321E+00</totfact>
</mgrwt>
</event>
<event>
12    4  0.4280696E-008  0.1721061E+04  0.7818608E-02  0.8749443E-01
         -2   -1    0    0    0  501 -0.00000000000E+00  0.00000000000E+00  0.17786870953E+04  0.17786870953E+04  0.00000000000E+00 0.  1.
          3   -1    0    0  501    0  0.00000000000E+00 -0.00000000000E+00 -0.41632562042E+03  0.41632562042E+03  0.00000000000E+00 0. -1.
        -24    2    1    2    0    0 -0.24482589172E+03  0.13331503348E+03 -0.21070104865E+03  0.35851187377E+03  0.80144970691E+02 0.  0.
        254    2    1    2    0    0  0.24482589172E+03 -0.13331503348E+03  0.15730625235E+04  0.18365008419E+04  0.90581290790E+03 0.  0.
         23    2    4    4    0    0  0.57829951657E+03 -0.85326269148E+02  0.88124493440E+03  0.10615451084E+04  0.92598486210E+02 0.  0.
         23    2    4    4    0    0 -0.33347362485E+03 -0.47988764335E+02  0.69181758911E+03  0.77495573355E+03  0.91854408628E+02 0.  0.
          3    1    3    3  502    0 -0.19525940650E+03  0.75505349206E+02 -0.12483644162E+03  0.24374460146E+03  0.00000000000E+00 0. -1.
         -4    1    3    3    0  502 -0.49566485213E+02  0.57809684277E+02 -0.85864607035E+02  0.11476727231E+03  0.00000000000E+00 0.  1.
         11    1    5    5    0    0  0.49202720414E+03 -0.38215899787E+02  0.73959486366E+03  0.88912979197E+03  0.00000000000E+00 0. -1.
        -11    1    5    5    0    0  0.86272312429E+02 -0.47110369360E+02  0.14165007073E+03  0.17241531641E+03  0.00000000000E+00 0.  1.
          1    1    6    6  503    0 -0.32307752604E+03 -0.64650004222E+02  0.65669212462E+03  0.73471304426E+03  0.00000000000E+00 0. -1.
         -1    1    6    6    0  503 -0.10396098814E+02  0.16661239886E+02  0.35125464490E+02  0.40242689283E+02  0.00000000000E+00 0.  1.
<mgrwt>
<rscale>  0 0.17210613E+04</rscale>
<asrwt>0</asrwt>
<pdfrwt beam="1">  1        3 0.64050096E-01 0.17210613E+04</pdfrwt>
<pdfrwt beam="2">  1       -2 0.27364417E+00 0.17210613E+04</pdfrwt>
<totfact> 0.43493458E-01</totfact>
</mgrwt>
</event>
<event>
12    4  0.4280696E-008  0.2013740E+04  0.7818608E-02  0.8600223E-01
         -2   -1    0    0    0  501 -0.00000000000E+00  0.00000000000E+00  0.21909947031E+04  0.21909947031E+04  0.00000000000E+00 0.  1.
          1   -1    0    0  501    0  0.00000000000E+00 -0.00000000000E+00 -0.46270645598E+03  0.46270645598E+03  0.00000000000E+00 0. -1.
        -24    2    1    2    0    0  0.33907955833E+03 -0.70888776916E+03  0.46909504426E+03  0.91870008355E+03  0.80391957446E+02 0.  0.
        254    2    1    2    0    0 -0.33907955833E+03  0.70888776916E+03  0.12591932028E+04  0.17350010755E+04  0.89842328209E+03 0.  0.
         23    2    4    4    0    0  0.12663344529E+03 -0.97077723959E+02  0.22586238271E+02  0.18418253435E+03  0.89179335312E+02 0.  0.
         23    2    4    4    0    0 -0.46571300362E+03  0.80596549312E+03  0.12366069645E+04  0.15508185411E+04  0.96811078602E+02 0.  0.
          3    1    3    3  502    0  0.25614170290E+03 -0.53405742656E+03  0.31200054030E+03  0.66945518445E+03  0.00000000000E+00 0. -1.
         -4    1    3    3    0  502  0.82937855427E+02 -0.17483034260E+03  0.15709450395E+03  0.24924489910E+03  0.00000000000E+00 0.  1.
         11    1    5    5    0    0  0.39191601510E+02  0.12873292910E+02 -0.31123539877E+01  0.41368950272E+02  0.00000000000E+00 0. -1.
        -11    1    5    5    0    0  0.87441843781E+02 -0.10995101687E+03  0.25698592259E+02  0.14281358408E+03  0.00000000000E+00 0.  1.
          3    1    6    6  503    0 -0.13533849293E+03  0.22836385057E+03  0.28311807056E+03  0.38810101494E+03  0.00000000000E+00 0. -1.
         -3    1    6    6    0  503 -0.33037451069E+03  0.57760164255E+03  0.95348889398E+03  0.11627175262E+04  0.00000000000E+00 0.  1.
<mgrwt>
<rscale>  0 0.20137402E+04</rscale>
<asrwt>0</asrwt>
<pdfrwt beam="1">  1        1 0.71185610E-01 0.20137402E+04</pdfrwt>
<pdfrwt beam="2">  1       -2 0.33707610E+00 0.20137402E+04</pdfrwt>
<totfact> 0.75131724E-01</totfact>
</mgrwt>
</event>
<event>
12    4  0.4280696E-008  0.1211810E+04  0.7818608E-02  0.9102582E-01
         -2   -1    0    0    0  501 -0.00000000000E+00  0.00000000000E+00  0.83221466455E+03  0.83221466455E+03  0.00000000000E+00 0.  1.
          1   -1    0    0  501    0  0.00000000000E+00 -0.00000000000E+00 -0.44113728870E+03  0.44113728870E+03  0.00000000000E+00 0. -1.
        -24    2    1    2    0    0 -0.23326028929E+03  0.59049826137E+02  0.19230069683E+03  0.31826214157E+03  0.80087378728E+02 0.  0.
        254    2    1    2    0    0  0.23326028929E+03 -0.59049826137E+02  0.19877667901E+03  0.95508981168E+03  0.90265560195E+03 0.  0.
         23    2    4    4    0    0  0.34944206383E+03 -0.25768110664E+03  0.42906502183E+03  0.61787988893E+03  0.95757273828E+02 0.  0.
         23    2    4    4    0    0 -0.11618177455E+03  0.19863128050E+03 -0.23028834282E+03  0.33720992275E+03  0.87893235401E+02 0.  0.
          1    1    3    3  502    0  0.46065110075E+01  0.94276871266E+01  0.99637915939E+01  0.14469912617E+02  0.00000000000E+00 0. -1.
         -2    1    3    3    0  502 -0.23786680029E+03  0.49622139010E+02  0.18233690524E+03  0.30379222895E+03  0.00000000000E+00 0.  1.
         11    1    5    5    0    0  0.31785142809E+03 -0.19233426576E+03  0.34759577348E+03  0.50876794500E+03  0.00000000000E+00 0.  1.
        -11    1    5    5    0    0  0.31590635739E+02 -0.65346840883E+02  0.81469248358E+02  0.10911194393E+03  0.00000000000E+00 0. -1.
          4    1    6    6  503    0 -0.98062791273E+02  0.11039399407E+03 -0.98203077550E+02  0.17733299016E+03  0.00000000000E+00 0.  1.
         -4    1    6    6    0  503 -0.18118983274E+02  0.88237286431E+02 -0.13208526527E+03  0.15987693258E+03  0.00000000000E+00 0. -1.
<mgrwt>
<rscale>  0 0.12118101E+04</rscale>
<asrwt>0</asrwt>
<pdfrwt beam="1">  1        1 0.67867275E-01 0.12118101E+04</pdfrwt>
<pdfrwt beam="2">  1       -2 0.12803303E+00 0.12118101E+04</pdfrwt>
<totfact> 0.20510954E+01</totfact>
</mgrwt>
</event>
<event>
12    4  0.4280696E-008  0.2074497E+04  0.7818608E-02  0.8572562E-01
         -4   -1    0    0    0  501 -0.00000000000E+00  0.00000000000E+00  0.10916827253E+04  0.10916827253E+04  0.00000000000E+00 0.  1.
          3   -1    0    0  501    0  0.00000000000E+00 -0.00000000000E+00 -0.98552845551E+03  0.98552845551E+03  0.00000000000E+00 0. -1.
        -24    2    1    2    0    0 -0.56203613068E+03  0.38633091743E+03  0.54133698959E+03  0.87435391344E+03  0.79453380721E+02 0.  0.
        254    2    1    2    0    0  0.56203613068E+03 -0.38633091743E+03 -0.43518271984E+03  0.12028572673E+04  0.89013786346E+03 0.  0.
         23    2    4    4    0    0  0.40991317677E+02 -0.77994634302E+02 -0.56300086331E+03  0.57736366481E+03  0.92819061880E+02 0.  0.
         23    2    4    4    0    0  0.52104481300E+03 -0.30833628312E+03  0.12781814347E+03  0.62549360252E+03  0.91355395831E+02 0.  0.
          3    1    3    3  502    0 -0.11067234688E+03  0.58075787201E+02  0.13517411894E+03  0.18410108053E+03  0.00000000000E+00 0. -1.
         -4    1    3    3    0  502 -0.45136378380E+03  0.32825513022E+03  0.40616287065E+03  0.69025283291E+03  0.00000000000E+00 0.  1.
         11    1    5    5    0    0  0.51224562371E+02 -0.56509620954E+02 -0.20760890084E+03  0.22117583222E+03  0.00000000000E+00 0. -1.
        -11    1    5    5    0    0 -0.10233244694E+02 -0.21485013348E+02 -0.35539196246E+03  0.35618783258E+03  0.00000000000E+00 0.  1.
          1    1    6    6  503    0  0.11494844954E+03 -0.33399820322E+02  0.46337909532E+02  0.12835846645E+03  0.00000000000E+00 0. -1.
         -1    1    6    6    0  503  0.40609636346E+03 -0.27493646280E+03  0.81480233937E+02  0.49713513607E+03  0.00000000000E+00 0.  1.
<mgrwt>
<rscale>  0 0.20744969E+04</rscale>
<asrwt>0</asrwt>
<pdfrwt beam="1">  1        3 0.15161976E+00 0.20744969E+04</pdfrwt>
<pdfrwt beam="2">  1       -4 0.16795119E+00 0.20744969E+04</pdfrwt>
<totfact> 0.14533256E-01</totfact>
</mgrwt>
</event>
<event>
12    4  0.4280696E-008  0.1027209E+04  0.7818608E-02  0.9279196E-01
         -2   -1    0    0    0  501 -0.00000000000E+00  0.00000000000E+00  0.45865728522E+03  0.45865728522E+03  0.00000000000E+00 0.  1.
          1   -1    0    0  501    0  0.00000000000E+00 -0.00000000000E+00 -0.57513463170E+03  0.57513463170E+03  0.00000000000E+00 0. -1.
        -24    2    1    2    0    0  0.82259102199E+02  0.10458523476E+03 -0.50210882678E+02  0.16313655125E+03  0.79923528395E+02 0.  0.
        254    2    1    2    0    0 -0.82259102199E+02 -0.10458523476E+03 -0.66266463799E+02  0.87065536567E+03  0.85787230420E+03 0.  0.
         23    2    4    4    0    0 -0.22221942355E+02 -0.46693588196E+03 -0.11321845918E+03  0.48931213784E+03  0.89916717874E+02 0.  0.
         23    2    4    4    0    0 -0.60037159844E+02  0.36235064721E+03  0.46951995379E+02  0.38134322783E+03  0.91190544719E+02 0.  0.
          1    1    3    3  502    0  0.34052545046E+02  0.70006987352E+02 -0.65649278122E+02  0.10183507166E+03  0.00000000000E+00 0. -1.
         -4    1    3    3    0  502  0.48206557153E+02  0.34578247406E+02  0.15438395444E+02  0.61301479591E+02  0.00000000000E+00 0.  1.
         11    1    5    5    0    0 -0.66119492254E+01 -0.15324204510E+03  0.56508048340E+01  0.15348867664E+03  0.00000000000E+00 0. -1.
        -11    1    5    5    0    0 -0.15609993130E+02 -0.31369383686E+03 -0.11886926401E+03  0.33582346120E+03  0.00000000000E+00 0.  1.
          2    1    6    6  503    0  0.16071041527E+02  0.35227928115E+02  0.22056704824E+02  0.44562131039E+02  0.00000000000E+00 0. -1.
         -2    1    6    6    0  503 -0.76108201371E+02  0.32712271909E+03  0.24895290555E+02  0.33678109679E+03  0.00000000000E+00 0.  1.
<mgrwt>
<rscale>  0 0.10272092E+04</rscale>
<asrwt>0</asrwt>
<pdfrwt beam="1">  1        1 0.88482250E-01 0.10272092E+04</pdfrwt>
<pdfrwt beam="2">  1       -2 0.70562660E-01 0.10272092E+04</pdfrwt>
<totfact> 0.58280067E+01</totfact>
</mgrwt>
</event>
<event>
12    4  0.4280696E-008  0.1654641E+04  0.7818608E-02  0.8787665E-01
         -2   -1    0    0    0  501 -0.00000000000E+00  0.00000000000E+00  0.20164531281E+04  0.20164531281E+04  0.00000000000E+00 0.  1.
          1   -1    0    0  501    0  0.00000000000E+00 -0.00000000000E+00 -0.33943739057E+03  0.33943739057E+03  0.00000000000E+00 0. -1.
        -24    2    1    2    0    0  0.14495027956E+03  0.22388599037E+03  0.13267517877E+04  0.13563934735E+04  0.91637483696E+02 0.  0.
        254    2    1    2    0    0 -0.14495027956E+03 -0.22388599037E+03  0.35026394976E+03  0.99949704516E+03  0.89731487703E+03 0.  0.
         23    2    4    4    0    0 -0.12223315563E+03 -0.53782487052E+03  0.61784510621E+02  0.56317120095E+03  0.95644864673E+02 0.  0.
         23    2    4    4    0    0 -0.22717123934E+02  0.31393888015E+03  0.28847943914E+03  0.43632584421E+03  0.89923118953E+02 0.  0.
          3    1    3    3  502    0 -0.46625721388E+00  0.29626814917E+01 -0.50444284995E+00  0.30412727598E+01  0.00000000000E+00 0. -1.
         -4    1    3    3    0  502  0.14541653677E+03  0.22092330888E+03  0.13272562306E+04  0.13533522007E+04  0.00000000000E+00 0.  1.
         11    1    5    5    0    0 -0.40455790280E+02 -0.20900117348E+03 -0.22325018716E+02  0.21404805055E+03  0.00000000000E+00 0. -1.
        -11    1    5    5    0    0 -0.81777365347E+02 -0.32882369704E+03  0.84109529336E+02  0.34912315040E+03  0.00000000000E+00 0.  1.
          2    1    6    6  503    0  0.52463307670E+01  0.13170916302E+03  0.17766263238E+03  0.22122124345E+03  0.00000000000E+00 0. -1.
         -2    1    6    6    0  503 -0.27963454701E+02  0.18222971713E+03  0.11081680676E+03  0.21510460075E+03  0.00000000000E+00 0.  1.
<mgrwt>
<rscale>  0 0.16546415E+04</rscale>
<asrwt>0</asrwt>
<pdfrwt beam="1">  1        1 0.52221138E-01 0.16546415E+04</pdfrwt>
<pdfrwt beam="2">  1       -2 0.31022355E+00 0.16546415E+04</pdfrwt>
<totfact> 0.17176481E+00</totfact>
</mgrwt>
</event>
<event>
12    4  0.4280696E-008  0.3762202E+04  0.7818608E-02  0.8054315E-01
         -2   -1    0    0    0  501 -0.00000000000E+00  0.00000000000E+00  0.25815463627E+04  0.25815463627E+04  0.00000000000E+00 0.  1.
          1   -1    0    0  501    0  0.00000000000E+00 -0.00000000000E+00 -0.13707056332E+04  0.13707056332E+04  0.00000000000E+00 0. -1.
        -24    2    1    2    0    0  0.44695601293E+03  0.45324587232E+03  0.23053613906E+04  0.23929052603E+04  0.78121349211E+02 0.  0.
        254    2    1    2    0    0 -0.44695601293E+03 -0.45324587232E+03 -0.10945206612E+04  0.15593467356E+04  0.91015672593E+03 0.  0.
         23    2    4    4    0    0  0.18074253617E+03 -0.27280077435E+03 -0.73096510138E+03  0.80613509574E+03  0.91954805623E+02 0.  0.
         23    2    4    4    0    0 -0.62769854910E+03 -0.18044509797E+03 -0.36355555982E+03  0.75321163986E+03  0.92678084917E+02 0.  0.
          1    1    3    3  502    0  0.19280869119E+03  0.24857993379E+03  0.10879060870E+04  0.11324781804E+04  0.00000000000E+00 0. -1.
         -2    1    3    3    0  502  0.25414732175E+03  0.20466593853E+03  0.12174553036E+04  0.12604270800E+04  0.00000000000E+00 0.  1.
         11    1    5    5    0    0  0.27400178474E+02 -0.15497111220E+02 -0.14119009386E+03  0.14465674143E+03  0.00000000000E+00 0.  1.
        -11    1    5    5    0    0  0.15334235769E+03 -0.25730366313E+03 -0.58977500752E+03  0.66147835431E+03  0.00000000000E+00 0. -1.
          3    1    6    6  503    0 -0.32178319425E+03 -0.54450603041E+02 -0.21303673584E+03  0.38973573495E+03  0.00000000000E+00 0. -1.
         -3    1    6    6    0  503 -0.30591535484E+03 -0.12599449493E+03 -0.15051882398E+03  0.36347590491E+03  0.00000000000E+00 0.  1.
<mgrwt>
<rscale>  0 0.37622016E+04</rscale>
<asrwt>0</asrwt>
<pdfrwt beam="1">  1        1 0.21087779E+00 0.37622016E+04</pdfrwt>
<pdfrwt beam="2">  1       -2 0.39716098E+00 0.37622016E+04</pdfrwt>
<totfact> 0.43706261E-02</totfact>
</mgrwt>
</event>
<event>
12    4  0.4280696E-008  0.1953732E+04  0.7818608E-02  0.8628563E-01
          1   -1    0    0  501    0  0.00000000000E+00  0.00000000000E+00  0.65757006770E+03  0.65757006770E+03  0.00000000000E+00 0. -1.
         -2   -1    0    0    0  501 -0.00000000000E+00 -0.00000000000E+00 -0.14512016707E+04  0.14512016707E+04  0.00000000000E+00 0.  1.
        -24    2    1    2    0    0  0.34495442211E+03  0.46272544276E+03  0.23158148702E+03  0.62705252403E+03  0.80352312120E+02 0.  0.
        254    2    1    2    0    0 -0.34495442211E+03 -0.46272544276E+03 -0.10252130900E+04  0.14817192143E+04  0.90073390163E+03 0.  0.
         23    2    4    4    0    0 -0.82755262096E+02  0.88158092419E+02  0.11121328960E+03  0.18775275711E+03  0.90897851212E+02 0.  0.
         23    2    4    4    0    0 -0.26219916001E+03 -0.55088353517E+03 -0.11364263796E+04  0.12939664572E+04  0.10326280743E+03 0.  0.
          3    1    3    3  502    0  0.33775162592E+03  0.46484595728E+03  0.23168106101E+03  0.61954341159E+03  0.00000000000E+00 0. -1.
         -4    1    3    3    0  502  0.72027961848E+01 -0.21205145247E+01 -0.99573990962E-01  0.75091124448E+01  0.00000000000E+00 0.  1.
         11    1    5    5    0    0 -0.45530459809E+02  0.92442365591E+02  0.10932444971E+03  0.15023464657E+03  0.00000000000E+00 0. -1.
        -11    1    5    5    0    0 -0.37224802287E+02 -0.42842731721E+01  0.18888398860E+01  0.37518110534E+02  0.00000000000E+00 0.  1.
          1    1    6    6  503    0 -0.19618210011E+03 -0.36152934932E+03 -0.66893054150E+03  0.78527635657E+03  0.00000000000E+00 0. -1.
         -1    1    6    6    0  503 -0.66017059902E+02 -0.18935418585E+03 -0.46749583806E+03  0.50869010066E+03  0.00000000000E+00 0.  1.
<mgrwt>
<rscale>  0 0.19537316E+04</rscale>
<asrwt>0</asrwt>
<pdfrwt beam="1">  1        1 0.10116463E+00 0.19537316E+04</pdfrwt>
<pdfrwt beam="2">  1       -2 0.22326180E+00 0.19537316E+04</pdfrwt>
<totfact> 0.23001512E+00</totfact>
</mgrwt>
</event>
<event>
12    4  0.4280696E-008  0.1673269E+04  0.7818608E-02  0.8776759E-01
          1   -1    0    0  501    0  0.00000000000E+00  0.00000000000E+00  0.99034909870E+03  0.99034909870E+03  0.00000000000E+00 0. -1.
         -2   -1    0    0    0  501 -0.00000000000E+00 -0.00000000000E+00 -0.70677796168E+03  0.70677796168E+03  0.00000000000E+00 0.  1.
        -24    2    1    2    0    0 -0.23526643649E+03 -0.47087099995E+03 -0.17482746040E+03  0.55997486790E+03  0.77054636736E+02 0.  0.
        254    2    1    2    0    0  0.23526643649E+03  0.47087099995E+03  0.45839859741E+03  0.11371521925E+04  0.89772826625E+03 0.  0.
         23    2    4    4    0    0 -0.25211445210E+03  0.12121529075E+03 -0.10230691769E+03  0.31145380937E+03  0.91005089378E+02 0.  0.
         23    2    4    4    0    0  0.48738088859E+03  0.34965570920E+03  0.56070551510E+03  0.82569838311E+03  0.87108551020E+02 0.  0.
          3    1    3    3  502    0 -0.17408590910E+02 -0.30090274799E+02  0.75251047468E+01  0.35568397158E+02  0.00000000000E+00 0. -1.
         -4    1    3    3    0  502 -0.21785784558E+03 -0.44078072515E+03 -0.18235256515E+03  0.52440647075E+03  0.00000000000E+00 0.  1.
         11    1    5    5    0    0 -0.75188849094E+01 -0.91595266066E+01  0.67037292571E+01  0.13615085159E+02  0.00000000000E+00 0.  1.
        -11    1    5    5    0    0 -0.24459556719E+03  0.13037481735E+03 -0.10901064695E+03  0.29783872421E+03  0.00000000000E+00 0. -1.
          2    1    6    6  503    0  0.27256648379E+03  0.16504089727E+03  0.24794424455E+03  0.40374166773E+03  0.00000000000E+00 0. -1.
         -2    1    6    6    0  503  0.21481440481E+03  0.18461481193E+03  0.31276127055E+03  0.42195671538E+03  0.00000000000E+00 0.  1.
<mgrwt>
<rscale>  0 0.16732686E+04</rscale>
<asrwt>0</asrwt>
<pdfrwt beam="1">  1        1 0.15236140E+00 0.16732686E+04</pdfrwt>
<pdfrwt beam="2">  1       -2 0.10873507E+00 0.16732686E+04</pdfrwt>
<totfact> 0.86978702E+00</totfact>
</mgrwt>
</event>
