<event>
12    1  0.2588309E-007  0.2426314E+04  0.7818608E-02  0.8429717E-01
         -1   -1    0    0    0  501 -0.00000000000E+00  0.00000000000E+00  0.55076746100E+03  0.55076746100E+03  0.00000000000E+00 0.  1.
          1   -1    0    0  501    0  0.00000000000E+00 -0.00000000000E+00 -0.26721796591E+04  0.26721796591E+04  0.00000000000E+00 0. -1.
         23    2    1    2    0    0 -0.87513985461E+03 -0.56841585209E+03 -0.95783787734E+03  0.14195134036E+04  0.92728407539E+02 0.  0.
        254    2    1    2    0    0  0.87513985461E+03  0.56841585209E+03 -0.11635743207E+04  0.18034337165E+04  0.89972308181E+03 0.  0.
        -24    2    4    4    0    0  0.84232779561E+03  0.25877229603E+03 -0.39214691802E+03  0.96783543266E+03  0.80293231055E+02 0.  0.
         24    2    4    4    0    0  0.32812059009E+02  0.30964355607E+03 -0.77142740271E+03  0.83559828386E+03  0.78539743432E+02 0.  0.
         13    1    3    3    0    0 -0.46413773921E+03 -0.28819353262E+03 -0.56210076440E+03  0.78386007842E+03  0.00000000000E+00 0. -1.
        -13    1    3    3    0    0 -0.41100211541E+03 -0.28022231947E+03 -0.39573711294E+03  0.63565332514E+03  0.00000000000E+00 0.  1.
          2    1    6    6  502    0 -0.69746289873E+00  0.15734827127E+03 -0.47913171209E+03  0.50430760698E+03  0.00000000000E+00 0. -1.
          3    1    5    5  503    0  0.48778983524E+03  0.18991590287E+03 -0.22161787712E+03  0.56843773361E+03  0.00000000000E+00 0. -1.
         -4    1    5    5    0  503  0.35453796036E+03  0.68856393160E+02 -0.17052904090E+03  0.39939769905E+03  0.00000000000E+00 0.  1.
         -1    1    6    6    0  502  0.33509521907E+02  0.15229528480E+03 -0.29229569062E+03  0.33129067687E+03  0.00000000000E+00 0.  1.
<mgrwt>
<rscale>  0 0.24263138E+04</rscale>
<asrwt>0</asrwt>
<pdfrwt beam="1">  1        1 0.41110456E+00 0.24263138E+04</pdfrwt>
<pdfrwt beam="2">  1       -1 0.84733456E-01 0.24263138E+04</pdfrwt>
<totfact> 0.12652077E+00</totfact>
</mgrwt>
</event>
<event>
12    1  0.2588309E-007  0.1881316E+04  0.7818608E-02  0.8664213E-01
          2   -1    0    0  501    0  0.00000000000E+00  0.00000000000E+00  0.17688999802E+04  0.17688999802E+04  0.00000000000E+00 0.  1.
         -2   -1    0    0    0  501 -0.00000000000E+00 -0.00000000000E+00 -0.50021931200E+03  0.50021931200E+03  0.00000000000E+00 0. -1.
         23    2    1    2    0    0  0.34512643386E+03  0.49579833054E+03  0.96522817359E+03  0.11422695421E+04  0.90476736722E+02 0.  0.
        254    2    1    2    0    0 -0.34512643386E+03 -0.49579833054E+03  0.30345249463E+03  0.11268497501E+04  0.90154240214E+03 0.  0.
        -24    2    4    4    0    0  0.19242809922E+03 -0.41013096387E+03  0.34536872293E+03  0.57498563356E+03  0.78057306723E+02 0.  0.
         24    2    4    4    0    0 -0.53755453307E+03 -0.85667366663E+02 -0.41916228292E+02  0.55186411652E+03  0.80580761806E+02 0.  0.
         11    1    3    3    0    0  0.21298404426E+03  0.36565591941E+03  0.62512950613E+03  0.75488631856E+03  0.00000000000E+00 0. -1.
        -11    1    3    3    0    0  0.13214238960E+03  0.13014241113E+03  0.34009866746E+03  0.38738322358E+03  0.00000000000E+00 0.  1.
          2    1    6    6  502    0 -0.50230459269E+03 -0.95383156391E+02 -0.52045174748E+02  0.51392270875E+03  0.00000000000E+00 0. -1.
          3    1    5    5  503    0  0.14450983429E+03 -0.34134380692E+03  0.24552002616E+03  0.44461080731E+03  0.00000000000E+00 0. -1.
         -4    1    5    5    0  503  0.47918264927E+02 -0.68787156954E+02  0.99848696766E+02  0.13037482626E+03  0.00000000000E+00 0.  1.
         -1    1    6    6    0  502 -0.35249940386E+02  0.97157897275E+01  0.10128946457E+02  0.37941407770E+02  0.00000000000E+00 0.  1.
<mgrwt>
<rscale>  0 0.18813165E+04</rscale>
<asrwt>0</asrwt>
<pdfrwt beam="1">  1        2 0.27213845E+00 0.18813165E+04</pdfrwt>
<pdfrwt beam="2">  1       -2 0.76956818E-01 0.18813165E+04</pdfrwt>
<totfact> 0.12697667E+01</totfact>
</mgrwt>
</event>
<event>
12    1  0.2588309E-007  0.1246127E+04  0.7818608E-02  0.9073413E-01
          1   -1    0    0  501    0  0.00000000000E+00  0.00000000000E+00  0.74037949794E+03  0.74037949794E+03  0.00000000000E+00 0. -1.
         -1   -1    0    0    0  501 -0.00000000000E+00 -0.00000000000E+00 -0.52433641524E+03  0.52433641524E+03  0.00000000000E+00 0.  1.
         23    2    1    2    0    0 -0.27998028647E+03 -0.24471156404E+02 -0.45651732110E+01  0.29586111490E+03  0.92331794073E+02 0.  0.
        254    2    1    2    0    0  0.27998028647E+03  0.24471156404E+02  0.22060825591E+03  0.96885479828E+03  0.90056860886E+03 0.  0.
        -24    2    4    4    0    0  0.47877782817E+03 -0.51261504368E+02  0.43743169211E+03  0.65533061955E+03  0.79093521171E+02 0.  0.
         24    2    4    4    0    0 -0.19879754169E+03  0.75732660772E+02 -0.21682343620E+03  0.31352417873E+03  0.77647341665E+02 0.  0.
         11    1    3    3    0    0 -0.16336978939E+03 -0.25194723295E+02 -0.46860702662E+02  0.17181498079E+03  0.00000000000E+00 0. -1.
        -11    1    3    3    0    0 -0.11661049708E+03  0.72356689170E+00  0.42295529451E+02  0.12404613412E+03  0.00000000000E+00 0.  1.
          4    1    6    6  502    0 -0.72034165555E+02  0.57418753353E+02 -0.12782284843E+03  0.15755797290E+03  0.00000000000E+00 0. -1.
          3    1    5    5  503    0  0.29692915762E+02  0.73422704925E+01  0.53383310665E+02  0.61525247176E+02  0.00000000000E+00 0. -1.
         -4    1    5    5    0  503  0.44908491240E+03 -0.58603774861E+02  0.38404838144E+03  0.59380537238E+03  0.00000000000E+00 0.  1.
         -3    1    6    6    0  502 -0.12676337614E+03  0.18313907419E+02 -0.89000587767E+02  0.15596620582E+03  0.00000000000E+00 0.  1.
<mgrwt>
<rscale>  0 0.12461267E+04</rscale>
<asrwt>0</asrwt>
<pdfrwt beam="1">  1        1 0.11390454E+00 0.12461267E+04</pdfrwt>
<pdfrwt beam="2">  1       -1 0.80667141E-01 0.12461267E+04</pdfrwt>
<totfact> 0.37795734E+01</totfact>
</mgrwt>
</event>
<event>
12    1  0.2588309E-007  0.2380214E+04  0.7818608E-02  0.8446948E-01
          1   -1    0    0  501    0  0.00000000000E+00  0.00000000000E+00  0.16856597559E+04  0.16856597559E+04  0.00000000000E+00 0. -1.
         -1   -1    0    0    0  501 -0.00000000000E+00 -0.00000000000E+00 -0.84023782919E+03  0.84023782919E+03  0.00000000000E+00 0.  1.
         23    2    1    2    0    0 -0.81636528160E+03 -0.13381713625E+02 -0.28297900779E+03  0.86918485677E+03  0.93668848174E+02 0.  0.
        254    2    1    2    0    0  0.81636528160E+03  0.13381713625E+02  0.11284009345E+04  0.16567127283E+04  0.89709366955E+03 0.  0.
        -24    2    4    4    0    0  0.86334169554E+03 -0.24423309049E+03  0.66896229163E+03  0.11220029711E+04  0.79821262125E+02 0.  0.
         24    2    4    4    0    0 -0.46976413934E+02  0.25761480411E+03  0.45943864287E+03  0.53470975719E+03  0.79110600449E+02 0.  0.
         11    1    3    3    0    0 -0.26100637772E+03  0.20519832128E+02 -0.52927715718E+02  0.26710809762E+03  0.00000000000E+00 0. -1.
        -11    1    3    3    0    0 -0.55535890388E+03 -0.33901545753E+02 -0.23005129207E+03  0.60207675915E+03  0.00000000000E+00 0.  1.
          4    1    6    6  502    0 -0.10236743285E+01  0.45655767463E+01 -0.30042898628E+01  0.55604098533E+01  0.00000000000E+00 0. -1.
          1    1    5    5  503    0  0.93542779125E+02 -0.34411282227E+02  0.10605057075E+03  0.14553731970E+03  0.00000000000E+00 0. -1.
         -2    1    5    5    0  503  0.76979891641E+03 -0.20982180826E+03  0.56291172088E+03  0.97646565144E+03  0.00000000000E+00 0.  1.
         -3    1    6    6    0  502 -0.45952739605E+02  0.25304922736E+03  0.46244293273E+03  0.52914934733E+03  0.00000000000E+00 0.  1.
<mgrwt>
<rscale>  0 0.23802144E+04</rscale>
<asrwt>0</asrwt>
<pdfrwt beam="1">  1        1 0.25933227E+00 0.23802144E+04</pdfrwt>
<pdfrwt beam="2">  1       -1 0.12926736E+00 0.23802144E+04</pdfrwt>
<totfact> 0.22509754E+00</totfact>
</mgrwt>
</event>
<event>
12    1  0.2588309E-007  0.1624875E+04  0.7818608E-02  0.8805410E-01
         -1   -1    0    0    0  501 -0.00000000000E+00  0.00000000000E+00  0.68645125676E+03  0.68645125676E+03  0.00000000000E+00 0.  1.
          1   -1    0    0  501    0  0.00000000000E+00 -0.00000000000E+00 -0.96154691187E+03  0.96154691187E+03  0.00000000000E+00 0. -1.
         23    2    1    2    0    0 -0.70107837219E+02  0.52321605277E+03  0.88579699485E+02  0.54307829347E+03  0.91747059693E+02 0.  0.
        254    2    1    2    0    0  0.70107837219E+02 -0.52321605277E+03 -0.36367535459E+03  0.11049198752E+04  0.89995445456E+03 0.  0.
        -24    2    4    4    0    0  0.50825071294E+02 -0.63006193952E+03 -0.57259492465E+03  0.85637802578E+03  0.77182509711E+02 0.  0.
         24    2    4    4    0    0  0.19282765925E+02  0.10684588676E+03  0.20891957006E+03  0.24854184938E+03  0.79610272951E+02 0.  0.
         13    1    3    3    0    0 -0.14051997317E+02  0.20704970339E+03  0.78332752570E+02  0.22181762425E+03  0.00000000000E+00 0.  1.
        -13    1    3    3    0    0 -0.56055839902E+02  0.31616634937E+03  0.10246946915E+02  0.32126066922E+03  0.00000000000E+00 0. -1.
          4    1    6    6  502    0 -0.15766465967E+02  0.88497447847E+02  0.17366956781E+03  0.19555433646E+03  0.00000000000E+00 0. -1.
          1    1    5    5  503    0  0.51313965537E+02 -0.54686735255E+03 -0.46041235700E+03  0.71671232919E+03  0.00000000000E+00 0. -1.
         -2    1    5    5    0  503 -0.48889424264E+00 -0.83194586976E+02 -0.11218256765E+03  0.13966569659E+03  0.00000000000E+00 0.  1.
         -3    1    6    6    0  502  0.35049231892E+02  0.18348438910E+02  0.35250002247E+02  0.52987512917E+02  0.00000000000E+00 0.  1.
<mgrwt>
<rscale>  0 0.16248755E+04</rscale>
<asrwt>0</asrwt>
<pdfrwt beam="1">  1        1 0.14793029E+00 0.16248755E+04</pdfrwt>
<pdfrwt beam="2">  1       -1 0.10560789E+00 0.16248755E+04</pdfrwt>
<totfact> 0.13054626E+01</totfact>
</mgrwt>
</event>
<event>
12    1  0.2588309E-007  0.1331772E+04  0.7818608E-02  0.9004742E-01
          2   -1    0    0  501    0  0.00000000000E+00  0.00000000000E+00  0.82956958657E+03  0.82956958657E+03  0.00000000000E+00 0. -1.
         -2   -1    0    0    0  501 -0.00000000000E+00 -0.00000000000E+00 -0.53449941458E+03  0.53449941458E+03  0.00000000000E+00 0.  1.
         23    2    1    2    0    0 -0.22751447324E+03  0.23166806758E+03  0.22029450162E+03  0.40320134964E+03  0.92783251927E+02 0.  0.
        254    2    1    2    0    0  0.22751447324E+03 -0.23166806758E+03  0.74775670374E+02  0.96086765151E+03  0.90124486893E+03 0.  0.
        -24    2    4    4    0    0 -0.33450718090E+03 -0.16488159285E+03 -0.16496833768E+02  0.38202139846E+03  0.81161626550E+02 0.  0.
         24    2    4    4    0    0  0.56202165413E+03 -0.66786474728E+02  0.91272504141E+02  0.57884625305E+03  0.80022132803E+02 0.  0.
         11    1    3    3    0    0 -0.46407271496E+02  0.10308021596E+03  0.98204100837E+02  0.14974381854E+03  0.00000000000E+00 0. -1.
        -11    1    3    3    0    0 -0.18110720174E+03  0.12858785162E+03  0.12209040078E+03  0.25345753110E+03  0.00000000000E+00 0.  1.
          4    1    6    6  502    0  0.24543126285E+03 -0.22875908819E+02  0.16999905570E+00  0.24649511332E+03  0.00000000000E+00 0. -1.
          1    1    5    5  503    0  0.73805402363E+00 -0.69769240121E+00  0.78712310698E+01  0.79364839181E+01  0.00000000000E+00 0. -1.
         -2    1    5    5    0  503 -0.33524523492E+03 -0.16418390045E+03 -0.24368064837E+02  0.37408491454E+03  0.00000000000E+00 0.  1.
         -3    1    6    6    0  502  0.31659039128E+03 -0.43910565909E+02  0.91102505086E+02  0.33235113973E+03  0.00000000000E+00 0.  1.
<mgrwt>
<rscale>  0 0.13317724E+04</rscale>
<asrwt>0</asrwt>
<pdfrwt beam="1">  1        2 0.12762609E+00 0.13317724E+04</pdfrwt>
<pdfrwt beam="2">  1       -2 0.82230679E-01 0.13317724E+04</pdfrwt>
<totfact> 0.41697918E+01</totfact>
</mgrwt>
</event>
<event>
12    1  0.2588309E-007  0.1915309E+04  0.7818608E-02  0.8647273E-01
          2   -1    0    0  501    0  0.00000000000E+00  0.00000000000E+00  0.17620737466E+04  0.17620737466E+04  0.00000000000E+00 0. -1.
         -2   -1    0    0    0  501 -0.00000000000E+00 -0.00000000000E+00 -0.52046753032E+03  0.52046753032E+03  0.00000000000E+00 0.  1.
         23    2    1    2    0    0 -0.21171728251E+03  0.64680411717E+03  0.83832266226E+03  0.10838372321E+04  0.93479869423E+02 0.  0.
        254    2    1    2    0    0  0.21171728251E+03 -0.64680411717E+03  0.40328355400E+03  0.11987040448E+04  0.90059646254E+03 0.  0.
        -24    2    4    4    0    0 -0.99382048990E+02 -0.26799075144E+03 -0.24297242742E+03  0.38356979077E+03  0.79964675880E+02 0.  0.
         24    2    4    4    0    0  0.31109933150E+03 -0.37881336573E+03  0.64625598142E+03  0.81513425400E+03  0.80713681663E+02 0.  0.
         11    1    3    3    0    0 -0.40329142573E+02  0.12159633710E+03  0.10465727278E+03  0.16542446519E+03  0.00000000000E+00 0.  1.
        -11    1    3    3    0    0 -0.17138813994E+03  0.52520778007E+03  0.73366538948E+03  0.91841276694E+03  0.00000000000E+00 0. -1.
          2    1    6    6  502    0  0.20086413189E+03 -0.18136121246E+03  0.35582313729E+03  0.44704406259E+03  0.00000000000E+00 0. -1.
          3    1    5    5  503    0 -0.51782970912E+02 -0.94848573153E+02 -0.47210694312E+02  0.11792615301E+03  0.00000000000E+00 0. -1.
         -4    1    5    5    0  503 -0.47599078078E+02 -0.17314217829E+03 -0.19576173311E+03  0.26564363777E+03  0.00000000000E+00 0.  1.
         -1    1    6    6    0  502  0.11023519962E+03 -0.19745215327E+03  0.29043284413E+03  0.36809019141E+03  0.00000000000E+00 0.  1.
<mgrwt>
<rscale>  0 0.19153090E+04</rscale>
<asrwt>0</asrwt>
<pdfrwt beam="1">  1        2 0.27108827E+00 0.19153090E+04</pdfrwt>
<pdfrwt beam="2">  1       -2 0.80071928E-01 0.19153090E+04</pdfrwt>
<totfact> 0.11687165E+01</totfact>
</mgrwt>
</event>
<event>
12    1  0.2588309E-007  0.3617572E+04  0.7818608E-02  0.8086478E-01
          2   -1    0    0  501    0  0.00000000000E+00  0.00000000000E+00  0.21195010917E+04  0.21195010917E+04  0.00000000000E+00 0. -1.
         -2   -1    0    0    0  501 -0.00000000000E+00 -0.00000000000E+00 -0.15436212531E+04  0.15436212531E+04  0.00000000000E+00 0.  1.
         23    2    1    2    0    0  0.12887906176E+04  0.97580228794E+03  0.78887614357E+03  0.18008763211E+04  0.87513385894E+02 0.  0.
        254    2    1    2    0    0 -0.12887906176E+04 -0.97580228794E+03 -0.21299630498E+03  0.18622460238E+04  0.89967853482E+03 0.  0.
        -24    2    4    4    0    0 -0.57455193282E+03 -0.74463896202E+03  0.24974995907E+03  0.97715311600E+03  0.88634433410E+02 0.  0.
         24    2    4    4    0    0 -0.71423868481E+03 -0.23116332591E+03 -0.46274626405E+03  0.88509290780E+03  0.75378832767E+02 0.  0.
         11    1    3    3    0    0  0.63500966990E+03  0.43415556425E+03  0.40055715062E+03  0.86727986587E+03  0.00000000000E+00 0.  1.
        -11    1    3    3    0    0  0.65378094773E+03  0.54164672369E+03  0.38831899295E+03  0.93359645521E+03  0.00000000000E+00 0. -1.
          2    1    6    6  502    0 -0.31190698614E+03 -0.77423687544E+02 -0.23294154095E+03  0.39691580580E+03  0.00000000000E+00 0. -1.
          3    1    5    5  503    0 -0.27888759384E+03 -0.29110023386E+03  0.97654470278E+02  0.41479396297E+03  0.00000000000E+00 0. -1.
         -4    1    5    5    0  503 -0.29566433898E+03 -0.45353872816E+03  0.15209548879E+03  0.56235915303E+03  0.00000000000E+00 0.  1.
         -1    1    6    6    0  502 -0.40233169867E+03 -0.15373963837E+03 -0.22980472310E+03  0.48817710200E+03  0.00000000000E+00 0.  1.
<mgrwt>
<rscale>  0 0.36175721E+04</rscale>
<asrwt>0</asrwt>
<pdfrwt beam="1">  1        2 0.32607709E+00 0.36175721E+04</pdfrwt>
<pdfrwt beam="2">  1       -2 0.23748019E+00 0.36175721E+04</pdfrwt>
<totfact> 0.35813349E-01</totfact>
</mgrwt>
</event>
<event>
12    1  0.2588309E-007  0.1740378E+04  0.7818608E-02  0.8738664E-01
         -1   -1    0    0    0  501 -0.00000000000E+00  0.00000000000E+00  0.65857954455E+03  0.65857954455E+03  0.00000000000E+00 0.  1.
          1   -1    0    0  501    0  0.00000000000E+00 -0.00000000000E+00 -0.11497914930E+04  0.11497914930E+04  0.00000000000E+00 0. -1.
         23    2    1    2    0    0 -0.28884765349E+03 -0.29666248272E+03 -0.67828512626E+03  0.80021485614E+03  0.93976102849E+02 0.  0.
        254    2    1    2    0    0  0.28884765349E+03  0.29666248272E+03  0.18707317779E+03  0.10081561814E+04  0.89996717537E+03 0.  0.
        -24    2    4    4    0    0 -0.14456203094E+03  0.20093722008E+03  0.42539871455E+03  0.49809850441E+03  0.76577454581E+02 0.  0.
         24    2    4    4    0    0  0.43340968443E+03  0.95725262648E+02 -0.23832553676E+03  0.51005767703E+03  0.79702521685E+02 0.  0.
         13    1    3    3    0    0 -0.24130004963E+03 -0.18784286293E+03 -0.49326000681E+03  0.58035858693E+03  0.00000000000E+00 0. -1.
        -13    1    3    3    0    0 -0.47547603854E+02 -0.10881961980E+03 -0.18502511944E+03  0.21985626921E+03  0.00000000000E+00 0.  1.
          2    1    6    6  502    0  0.21073550182E+03  0.56776127980E+02 -0.16075843123E+03  0.27106503583E+03  0.00000000000E+00 0. -1.
          3    1    5    5  503    0 -0.21097981279E+02  0.37619234545E+02  0.14252563160E+03  0.14890898994E+03  0.00000000000E+00 0. -1.
         -4    1    5    5    0  503 -0.12346404966E+03  0.16331798553E+03  0.28287308295E+03  0.34918951447E+03  0.00000000000E+00 0.  1.
         -1    1    6    6    0  502  0.22267418260E+03  0.38949134668E+02 -0.77567105535E+02  0.23899264121E+03  0.00000000000E+00 0.  1.
<mgrwt>
<rscale>  0 0.17403783E+04</rscale>
<asrwt>0</asrwt>
<pdfrwt beam="1">  1        1 0.17689100E+00 0.17403783E+04</pdfrwt>
<pdfrwt beam="2">  1       -1 0.10131993E+00 0.17403783E+04</pdfrwt>
<totfact> 0.10207447E+01</totfact>
</mgrwt>
</event>
<event>
12    1  0.2588309E-007  0.2063942E+04  0.7818608E-02  0.8577296E-01
         -1   -1    0    0    0  501 -0.00000000000E+00  0.00000000000E+00  0.24251155520E+04  0.24251155520E+04  0.00000000000E+00 0.  1.
          1   -1    0    0  501    0  0.00000000000E+00 -0.00000000000E+00 -0.43913936873E+03  0.43913936873E+03  0.00000000000E+00 0. -1.
         23    2    1    2    0    0  0.64127449453E+02 -0.80421381475E+03  0.10923373765E+04  0.13610360937E+04  0.91357071808E+02 0.  0.
        254    2    1    2    0    0 -0.64127449453E+02  0.80421381475E+03  0.89363880678E+03  0.15032188271E+04  0.90011351253E+03 0.  0.
        -24    2    4    4    0    0  0.85135125024E+02  0.90048932488E+03  0.43846171124E+03  0.10083411983E+04  0.79839126969E+02 0.  0.
         24    2    4    4    0    0 -0.14926257448E+03 -0.96275510122E+02  0.45517709554E+03  0.49487762878E+03  0.78545459321E+02 0.  0.
         11    1    3    3    0    0  0.31190421257E+02 -0.53740634166E+03  0.65682736394E+03  0.84923530571E+03  0.00000000000E+00 0. -1.
        -11    1    3    3    0    0  0.32937028196E+02 -0.26680747309E+03  0.43551001257E+03  0.51180078798E+03  0.00000000000E+00 0.  1.
          2    1    6    6  502    0 -0.32755230213E+00  0.95450356769E+01  0.10849866429E+02  0.14454570146E+02  0.00000000000E+00 0. -1.
          3    1    5    5  503    0  0.79063279100E+02  0.44159634051E+03  0.20051910533E+03  0.49139214651E+03  0.00000000000E+00 0. -1.
         -4    1    5    5    0  503  0.60718459234E+01  0.45889298437E+03  0.23794260591E+03  0.51694905177E+03  0.00000000000E+00 0.  1.
         -1    1    6    6    0  502 -0.14893502217E+03 -0.10582054580E+03  0.44432722911E+03  0.48042305864E+03  0.00000000000E+00 0.  1.
<mgrwt>
<rscale>  0 0.20639416E+04</rscale>
<asrwt>0</asrwt>
<pdfrwt beam="1">  1        1 0.67559904E-01 0.20639416E+04</pdfrwt>
<pdfrwt beam="2">  1       -1 0.37309469E+00 0.20639416E+04</pdfrwt>
<totfact> 0.53263458E-01</totfact>
</mgrwt>
</event>
<event>
12    1  0.2588309E-007  0.2892754E+04  0.7818608E-02  0.8275037E-01
         -2   -1    0    0    0  501 -0.00000000000E+00  0.00000000000E+00  0.66424024064E+03  0.66424024064E+03  0.00000000000E+00 0.  1.
          2   -1    0    0  501    0  0.00000000000E+00 -0.00000000000E+00 -0.31494734315E+04  0.31494734315E+04  0.00000000000E+00 0. -1.
         23    2    1    2    0    0  0.42947984066E+03 -0.96265802315E+03 -0.21356275505E+04  0.23833714073E+04  0.91601461404E+02 0.  0.
        254    2    1    2    0    0 -0.42947984066E+03  0.96265802315E+03 -0.34960564036E+03  0.14303422648E+04  0.90138309704E+03 0.  0.
        -24    2    4    4    0    0  0.20378382616E+03  0.12292637767E+02  0.34100286610E+02  0.22281244612E+03  0.82483936929E+02 0.  0.
         24    2    4    4    0    0 -0.63326366682E+03  0.95036538539E+03 -0.38370592697E+03  0.12075298187E+04  0.81736082315E+02 0.  0.
         11    1    3    3    0    0  0.13045591449E+03 -0.24514497837E+03 -0.64495264981E+03  0.70219564691E+03  0.00000000000E+00 0.  1.
        -11    1    3    3    0    0  0.29902392617E+03 -0.71751304478E+03 -0.14906749007E+04  0.16811757604E+04  0.00000000000E+00 0. -1.
          2    1    6    6  502    0 -0.47792539829E+03  0.71863660641E+03 -0.25241041529E+03  0.89920090978E+03  0.00000000000E+00 0. -1.
          3    1    5    5  503    0  0.19508867790E+03  0.17247636874E+02  0.93014778176E+01  0.19607037184E+03  0.00000000000E+00 0. -1.
         -4    1    5    5    0  503  0.86951482588E+01 -0.49549991061E+01  0.24798808792E+02  0.26742074282E+02  0.00000000000E+00 0.  1.
         -1    1    6    6    0  502 -0.15533826854E+03  0.23172877898E+03 -0.13129551168E+03  0.30832890890E+03  0.00000000000E+00 0.  1.
<mgrwt>
<rscale>  0 0.28927544E+04</rscale>
<asrwt>0</asrwt>
<pdfrwt beam="1">  1        2 0.48453437E+00 0.28927544E+04</pdfrwt>
<pdfrwt beam="2">  1       -2 0.10219081E+00 0.28927544E+04</pdfrwt>
<totfact> 0.94690124E-01</totfact>
</mgrwt>
</event>
<event>
12    1  0.2588309E-007  0.1905600E+04  0.7818608E-02  0.8652074E-01
         -2   -1    0    0    0  501 -0.00000000000E+00  0.00000000000E+00  0.48678309170E+03  0.48678309170E+03  0.00000000000E+00 0.  1.
          2   -1    0    0  501    0  0.00000000000E+00 -0.00000000000E+00 -0.18649540919E+04  0.18649540919E+04  0.00000000000E+00 0. -1.
         23    2    1    2    0    0  0.62821038189E+03 -0.26177335009E+03 -0.89043355478E+03  0.11244201062E+04  0.90967515693E+02 0.  0.
        254    2    1    2    0    0 -0.62821038189E+03  0.26177335009E+03 -0.48773744539E+03  0.12273170774E+04  0.89735490311E+03 0.  0.
        -24    2    4    4    0    0 -0.34461734704E+03 -0.16852137702E+03  0.13581644761E+03  0.41453068643E+03  0.78924091097E+02 0.  0.
         24    2    4    4    0    0 -0.28359303484E+03  0.43029472711E+03 -0.62355389300E+03  0.81278639098E+03  0.78890419561E+02 0.  0.
         11    1    3    3    0    0  0.47452650958E+03 -0.18144086718E+03 -0.72072288595E+03  0.88178096765E+03  0.00000000000E+00 0. -1.
        -11    1    3    3    0    0  0.15368387231E+03 -0.80332482914E+02 -0.16971066883E+03  0.24263913850E+03  0.00000000000E+00 0.  1.
          2    1    6    6  502    0 -0.14882566486E+03  0.25621320853E+03 -0.41184721202E+03  0.50735826868E+03  0.00000000000E+00 0. -1.
          3    1    5    5  503    0 -0.28385206790E+03 -0.10278585709E+03  0.98583548408E+02  0.31757777769E+03  0.00000000000E+00 0. -1.
         -4    1    5    5    0  503 -0.60765279147E+02 -0.65735519925E+02  0.37232899203E+02  0.96952908738E+02  0.00000000000E+00 0.  1.
         -1    1    6    6    0  502 -0.13476736998E+03  0.17408151858E+03 -0.21170668098E+03  0.30542812230E+03  0.00000000000E+00 0.  1.
<mgrwt>
<rscale>  0 0.19056003E+04</rscale>
<asrwt>0</asrwt>
<pdfrwt beam="1">  1        2 0.28691601E+00 0.19056003E+04</pdfrwt>
<pdfrwt beam="2">  1       -2 0.74889708E-01 0.19056003E+04</pdfrwt>
<totfact> 0.11908761E+01</totfact>
</mgrwt>
</event>
<event>
12    1  0.2588309E-007  0.1664383E+04  0.7818608E-02  0.8781943E-01
         -2   -1    0    0    0  501 -0.00000000000E+00  0.00000000000E+00  0.32425929078E+03  0.32425929078E+03  0.00000000000E+00 0.  1.
          2   -1    0    0  501    0  0.00000000000E+00 -0.00000000000E+00 -0.21357670754E+04  0.21357670754E+04  0.00000000000E+00 0. -1.
         23    2    1    2    0    0  0.55611058437E+03 -0.10733624245E+03 -0.85513768673E+03  0.10295328383E+04  0.88867040916E+02 0.  0.
        254    2    1    2    0    0 -0.55611058437E+03  0.10733624245E+03 -0.95637009785E+03  0.14304935278E+04  0.90049315267E+03 0.  0.
        -24    2    4    4    0    0 -0.60324477261E+03 -0.26961801348E+03 -0.50639211339E+03  0.83628205776E+03  0.79602630257E+02 0.  0.
         24    2    4    4    0    0  0.47134188243E+02  0.37695425593E+03 -0.44997798446E+03  0.59421147004E+03  0.79315457903E+02 0.  0.
         13    1    3    3    0    0  0.38071600079E+03 -0.61025143628E+02 -0.64939984378E+03  0.75524095395E+03  0.00000000000E+00 0. -1.
        -13    1    3    3    0    0  0.17539458358E+03 -0.46311098822E+02 -0.20573784294E+03  0.27429188439E+03  0.00000000000E+00 0.  1.
          4    1    6    6  502    0  0.33554163603E+02  0.23869744021E+03 -0.34126560945E+03  0.41780924601E+03  0.00000000000E+00 0. -1.
          1    1    5    5  503    0 -0.50292930716E+03 -0.24503267927E+03 -0.39808739538E+03  0.68662397007E+03  0.00000000000E+00 0. -1.
         -2    1    5    5    0  503 -0.10031546545E+03 -0.24585334209E+02 -0.10830471801E+03  0.14965808769E+03  0.00000000000E+00 0.  1.
         -3    1    6    6    0  502  0.13580024639E+02  0.13825681572E+03 -0.10871237501E+03  0.17640222403E+03  0.00000000000E+00 0.  1.
<mgrwt>
<rscale>  0 0.16643825E+04</rscale>
<asrwt>0</asrwt>
<pdfrwt beam="1">  1        2 0.32857955E+00 0.16643825E+04</pdfrwt>
<pdfrwt beam="2">  1       -2 0.49886044E-01 0.16643825E+04</pdfrwt>
<totfact> 0.20364560E+01</totfact>
</mgrwt>
</event>
<event>
12    1  0.2588309E-007  0.2148922E+04  0.7818608E-02  0.8539994E-01
          2   -1    0    0  501    0  0.00000000000E+00  0.00000000000E+00  0.13910795749E+04  0.13910795749E+04  0.00000000000E+00 0. -1.
         -2   -1    0    0    0  501 -0.00000000000E+00 -0.00000000000E+00 -0.82990682456E+03  0.82990682456E+03  0.00000000000E+00 0.  1.
         23    2    1    2    0    0  0.33752748768E+03  0.64141046925E+03 -0.28996529712E+03  0.78601609855E+03  0.91701901013E+02 0.  0.
        254    2    1    2    0    0 -0.33752748768E+03 -0.64141046925E+03  0.85113804746E+03  0.14349703009E+04  0.89965081765E+03 0.  0.
        -24    2    4    4    0    0  0.28015378893E+03 -0.54928715789E+02  0.17307289177E+03  0.34331309632E+03  0.80039658680E+02 0.  0.
         24    2    4    4    0    0 -0.61768127661E+03 -0.58648175346E+03  0.67806515568E+03  0.10916572046E+04  0.80324905201E+02 0.  0.
         11    1    3    3    0    0  0.77467530840E+02  0.23922295330E+03 -0.10814029473E+03  0.27372095839E+03  0.00000000000E+00 0.  1.
        -11    1    3    3    0    0  0.26005995684E+03  0.40218751595E+03 -0.18182500239E+03  0.51229514016E+03  0.00000000000E+00 0. -1.
          2    1    6    6  502    0 -0.28161462087E+03 -0.30603159673E+03  0.29371451246E+03  0.50914668586E+03  0.00000000000E+00 0. -1.
          3    1    5    5  503    0  0.10792479795E+03  0.90294167918E+01  0.93582412509E+02  0.14313266682E+03  0.00000000000E+00 0. -1.
         -4    1    5    5    0  503  0.17222899099E+03 -0.63958132580E+02  0.79490479266E+02  0.20018042950E+03  0.00000000000E+00 0.  1.
         -1    1    6    6    0  502 -0.33606665574E+03 -0.28045015673E+03  0.38435064322E+03  0.58251051875E+03  0.00000000000E+00 0.  1.
<mgrwt>
<rscale>  0 0.21489220E+04</rscale>
<asrwt>0</asrwt>
<pdfrwt beam="1">  1        2 0.21401224E+00 0.21489220E+04</pdfrwt>
<pdfrwt beam="2">  1       -2 0.12767797E+00 0.21489220E+04</pdfrwt>
<totfact> 0.61101996E+00</totfact>
</mgrwt>
</event>
<event>
12    1  0.2588309E-007  0.1285811E+04  0.7818608E-02  0.9040893E-01
          2   -1    0    0  501    0  0.00000000000E+00  0.00000000000E+00  0.17385880740E+04  0.17385880740E+04  0.00000000000E+00 0. -1.
         -2   -1    0    0    0  501 -0.00000000000E+00 -0.00000000000E+00 -0.23773747443E+03  0.23773747443E+03  0.00000000000E+00 0.  1.
         23    2    1    2    0    0  0.49918095709E+02  0.29822989078E+03  0.49986158424E+03  0.59117978272E+03  0.90548594981E+02 0.  0.
        254    2    1    2    0    0 -0.49918095709E+02 -0.29822989078E+03  0.10009890153E+04  0.13851457657E+04  0.90841449758E+03 0.  0.
        -24    2    4    4    0    0  0.25826426458E+03  0.61928474978E+02  0.34200796155E+01  0.27772966275E+03  0.81157268672E+02 0.  0.
         24    2    4    4    0    0 -0.30818236028E+03 -0.36015836576E+03  0.99756893569E+03  0.11074161029E+04  0.80846941621E+02 0.  0.
         11    1    3    3    0    0  0.37313454322E+02  0.43343044941E+02  0.61790331167E+02  0.84195952658E+02  0.00000000000E+00 0. -1.
        -11    1    3    3    0    0  0.12604641387E+02  0.25488684584E+03  0.43807125308E+03  0.50698383006E+03  0.00000000000E+00 0.  1.
          2    1    6    6  502    0 -0.22752146921E+03 -0.21063402065E+03  0.61124430935E+03  0.68538479361E+03  0.00000000000E+00 0. -1.
          1    1    5    5  503    0  0.19854632470E+03  0.61960065280E+02  0.33816673080E+02  0.21072081083E+03  0.00000000000E+00 0. -1.
         -2    1    5    5    0  503  0.59717939879E+02 -0.31590302205E-01 -0.30396593464E+02  0.67008851919E+02  0.00000000000E+00 0.  1.
         -1    1    6    6    0  502 -0.80660891074E+02 -0.14952434511E+03  0.38632462634E+03  0.42203130932E+03  0.00000000000E+00 0.  1.
<mgrwt>
<rscale>  0 0.12858111E+04</rscale>
<asrwt>0</asrwt>
<pdfrwt beam="1">  1        2 0.26747508E+00 0.12858111E+04</pdfrwt>
<pdfrwt beam="2">  1       -2 0.36574997E-01 0.12858111E+04</pdfrwt>
<totfact> 0.64457767E+01</totfact>
</mgrwt>
</event>
<event>
12    1  0.2588309E-007  0.2263470E+04  0.7818608E-02  0.8492465E-01
         -1   -1    0    0    0  501 -0.00000000000E+00  0.00000000000E+00  0.53950149585E+03  0.53950149585E+03  0.00000000000E+00 0.  1.
          1   -1    0    0  501    0  0.00000000000E+00 -0.00000000000E+00 -0.23740889226E+04  0.23740889226E+04  0.00000000000E+00 0. -1.
         23    2    1    2    0    0  0.86602397752E+03  0.24506098539E+03 -0.38106416443E+03  0.98167066105E+03  0.91733162745E+02 0.  0.
        254    2    1    2    0    0 -0.86602397752E+03 -0.24506098539E+03 -0.14535232624E+04  0.19319197574E+04  0.89973977282E+03 0.  0.
        -24    2    4    4    0    0 -0.10421754190E+04 -0.14745111945E+03 -0.12235800974E+04  0.16159308557E+04  0.78821563848E+02 0.  0.
         24    2    4    4    0    0  0.17615144151E+03 -0.97609865936E+02 -0.22994316491E+03  0.31598890173E+03  0.80113111608E+02 0.  0.
         13    1    3    3    0    0  0.35619331464E+03  0.63702838829E+02 -0.12319144346E+03  0.38224057976E+03  0.00000000000E+00 0. -1.
        -13    1    3    3    0    0  0.50983066288E+03  0.18135814656E+03 -0.25787272098E+03  0.59943008129E+03  0.00000000000E+00 0.  1.
          4    1    6    6  502    0  0.13647214647E+03 -0.10875129168E+03 -0.19741755423E+03  0.26348658585E+03  0.00000000000E+00 0. -1.
          1    1    5    5  503    0 -0.96843542676E+03 -0.12022652541E+03 -0.11501239049E+04  0.15083456467E+04  0.00000000000E+00 0. -1.
         -2    1    5    5    0  503 -0.73739992271E+02 -0.27224594041E+02 -0.73456192520E+02  0.10758520902E+03  0.00000000000E+00 0.  1.
         -3    1    6    6    0  502  0.39679295048E+02  0.11141425740E+02 -0.32525610681E+02  0.52502315884E+02  0.00000000000E+00 0.  1.
<mgrwt>
<rscale>  0 0.22634704E+04</rscale>
<asrwt>0</asrwt>
<pdfrwt beam="1">  1        1 0.36524446E+00 0.22634704E+04</pdfrwt>
<pdfrwt beam="2">  1       -1 0.83000229E-01 0.22634704E+04</pdfrwt>
<totfact> 0.21633040E+00</totfact>
</mgrwt>
</event>
<event>
12    1  0.2588309E-007  0.1639290E+04  0.7818608E-02  0.8796767E-01
         -1   -1    0    0    0  501 -0.00000000000E+00  0.00000000000E+00  0.18761341163E+03  0.18761341163E+03  0.00000000000E+00 0.  1.
          1   -1    0    0  501    0  0.00000000000E+00 -0.00000000000E+00 -0.35808651744E+04  0.35808651744E+04  0.00000000000E+00 0. -1.
         23    2    1    2    0    0  0.24183433195E+03 -0.33276543886E+03 -0.28897723966E+03  0.51084686427E+03  0.90774403268E+02 0.  0.
        254    2    1    2    0    0 -0.24183433195E+03  0.33276543886E+03 -0.31042745231E+04  0.32576317217E+04  0.89801305021E+03 0.  0.
        -24    2    4    4    0    0 -0.96435032661E+02  0.15729371515E+03 -0.69836743157E+02  0.21346424473E+03  0.81540080531E+02 0.  0.
         24    2    4    4    0    0 -0.14539929929E+03  0.17547172370E+03 -0.30344377799E+04  0.30441674770E+04  0.84921762350E+02 0.  0.
         11    1    3    3    0    0  0.72513566231E+02 -0.17516531831E+03 -0.14066481436E+03  0.23606714304E+03  0.00000000000E+00 0. -1.
        -11    1    3    3    0    0  0.16932076572E+03 -0.15760012054E+03 -0.14831242530E+03  0.27477972123E+03  0.00000000000E+00 0.  1.
          2    1    6    6  502    0 -0.92555013421E+02  0.13796549329E+03 -0.25512718832E+04  0.25566754057E+04  0.00000000000E+00 0. -1.
          1    1    5    5  503    0 -0.95621042211E+01  0.53281823946E+02  0.11595679560E+02  0.55361054764E+02  0.00000000000E+00 0. -1.
         -2    1    5    5    0  503 -0.86872928440E+02  0.10401189121E+03 -0.81432422718E+02  0.15810318997E+03  0.00000000000E+00 0.  1.
         -1    1    6    6    0  502 -0.52844285865E+02  0.37506230409E+02 -0.48316589667E+03  0.48749207129E+03  0.00000000000E+00 0.  1.
<mgrwt>
<rscale>  0 0.16392905E+04</rscale>
<asrwt>0</asrwt>
<pdfrwt beam="1">  1        1 0.55090231E+00 0.16392905E+04</pdfrwt>
<pdfrwt beam="2">  1       -1 0.28863603E-01 0.16392905E+04</pdfrwt>
<totfact> 0.22729031E+00</totfact>
</mgrwt>
</event>
<event>
12    1  0.2588309E-007  0.1312600E+04  0.7818608E-02  0.9019632E-01
          2   -1    0    0  501    0  0.00000000000E+00  0.00000000000E+00  0.68464739568E+03  0.68464739568E+03  0.00000000000E+00 0. -1.
         -2   -1    0    0    0  501 -0.00000000000E+00 -0.00000000000E+00 -0.62912639136E+03  0.62912639136E+03  0.00000000000E+00 0.  1.
         23    2    1    2    0    0  0.19746469891E+03  0.19428212281E+03 -0.18175586591E+03  0.34387280138E+03  0.92062251646E+02 0.  0.
        254    2    1    2    0    0 -0.19746469891E+03 -0.19428212281E+03  0.23727687023E+03  0.96990098566E+03  0.89870448885E+03 0.  0.
        -24    2    4    4    0    0 -0.54144232702E+03 -0.26777215924E+02  0.16088687831E+03  0.57157034531E+03  0.83254184525E+02 0.  0.
         24    2    4    4    0    0  0.34397762811E+03 -0.16750490688E+03  0.76389991921E+02  0.39833064035E+03  0.80332843268E+02 0.  0.
         11    1    3    3    0    0  0.11901210934E+03  0.10310403446E+03 -0.49408534697E+02  0.16503189811E+03  0.00000000000E+00 0. -1.
        -11    1    3    3    0    0  0.78452589569E+02  0.91178088350E+02 -0.13234733121E+03  0.17884090327E+03  0.00000000000E+00 0.  1.
          4    1    6    6  502    0  0.24296516915E+03 -0.13456523122E+03  0.88248131224E+02  0.29142341625E+03  0.00000000000E+00 0. -1.
          1    1    5    5  503    0 -0.44023213641E+03  0.22283302144E+01  0.10591852573E+03  0.45280021364E+03  0.00000000000E+00 0. -1.
         -2    1    5    5    0  503 -0.10121019061E+03 -0.29005546138E+02  0.54968352576E+02  0.11877013166E+03  0.00000000000E+00 0.  1.
         -3    1    6    6    0  502  0.10101245895E+03 -0.32939675663E+02 -0.11858139303E+02  0.10690722410E+03  0.00000000000E+00 0.  1.
<mgrwt>
<rscale>  0 0.13126001E+04</rscale>
<asrwt>0</asrwt>
<pdfrwt beam="1">  1        2 0.10533037E+00 0.13126001E+04</pdfrwt>
<pdfrwt beam="2">  1       -2 0.96788676E-01 0.13126001E+04</pdfrwt>
<totfact> 0.36826014E+01</totfact>
</mgrwt>
</event>
<event>
12    1  0.2588309E-007  0.1962497E+04  0.7818608E-02  0.8624358E-01
          1   -1    0    0  501    0  0.00000000000E+00  0.00000000000E+00  0.13569812411E+04  0.13569812411E+04  0.00000000000E+00 0. -1.
         -1   -1    0    0    0  501 -0.00000000000E+00 -0.00000000000E+00 -0.70955184598E+03  0.70955184598E+03  0.00000000000E+00 0.  1.
         23    2    1    2    0    0  0.51914176992E+03  0.12485138341E+03  0.84272188068E+03  0.10019533097E+04  0.92920511166E+02 0.  0.
        254    2    1    2    0    0 -0.51914176992E+03 -0.12485138341E+03 -0.19529248551E+03  0.10645797774E+04  0.90005272202E+03 0.  0.
        -24    2    4    4    0    0 -0.27751661477E+03  0.36592271920E+03  0.31536034348E+02  0.46732928082E+03  0.80543325938E+02 0.  0.
         24    2    4    4    0    0 -0.24162515515E+03 -0.49077410261E+03 -0.22682851986E+03  0.59725049662E+03  0.77556707621E+02 0.  0.
         13    1    3    3    0    0  0.13934972749E+03  0.74571577802E+02  0.27163049074E+03  0.31426484096E+03  0.00000000000E+00 0. -1.
        -13    1    3    3    0    0  0.37979204243E+03  0.50279805611E+02  0.57109138995E+03  0.68768846873E+03  0.00000000000E+00 0.  1.
          4    1    6    6  502    0 -0.12904760543E+03 -0.24233843919E+03 -0.15462277098E+03  0.31510221339E+03  0.00000000000E+00 0. -1.
          1    1    5    5  503    0 -0.41474551538E+02  0.40084273138E+02  0.29913689329E+02  0.64974734994E+02  0.00000000000E+00 0. -1.
         -2    1    5    5    0  503 -0.23604206323E+03  0.32583844606E+03  0.16223450194E+01  0.40235454583E+03  0.00000000000E+00 0.  1.
         -3    1    6    6    0  502 -0.11257754972E+03 -0.24843566342E+03 -0.72205748881E+02  0.28214828323E+03  0.00000000000E+00 0.  1.
<mgrwt>
<rscale>  0 0.19624969E+04</rscale>
<asrwt>0</asrwt>
<pdfrwt beam="1">  1        1 0.20876635E+00 0.19624969E+04</pdfrwt>
<pdfrwt beam="2">  1       -1 0.10916182E+00 0.19624969E+04</pdfrwt>
<totfact> 0.59587630E+00</totfact>
</mgrwt>
</event>
<event>
12    1  0.2588309E-007  0.1813145E+04  0.7818608E-02  0.8699340E-01
          1   -1    0    0  501    0  0.00000000000E+00  0.00000000000E+00  0.26461942430E+04  0.26461942430E+04  0.00000000000E+00 0. -1.
         -1   -1    0    0    0  501 -0.00000000000E+00 -0.00000000000E+00 -0.31058700837E+03  0.31058700837E+03  0.00000000000E+00 0.  1.
         23    2    1    2    0    0  0.82830927515E+02  0.59023807526E+03  0.35048676640E+03  0.69760235290E+03  0.92553343052E+02 0.  0.
        254    2    1    2    0    0 -0.82830927515E+02 -0.59023807526E+03  0.19851204682E+04  0.22591788985E+04  0.89885709312E+03 0.  0.
        -24    2    4    4    0    0  0.18163970026E+03  0.11919307618E+03  0.93204657326E+03  0.95975926695E+03  0.72298448467E+02 0.  0.
         24    2    4    4    0    0 -0.26447062777E+03 -0.70943115144E+03  0.10530738950E+04  0.12994196315E+04  0.79306235075E+02 0.  0.
         13    1    3    3    0    0  0.68645600826E+02  0.18603582368E+03  0.10319688742E+03  0.22354226396E+03  0.00000000000E+00 0. -1.
        -13    1    3    3    0    0  0.14185326690E+02  0.40420225158E+03  0.24728987898E+03  0.47406008894E+03  0.00000000000E+00 0.  1.
          2    1    6    6  502    0 -0.26865558619E+02 -0.10279399557E+03  0.10765040537E+03  0.15125135881E+03  0.00000000000E+00 0. -1.
          3    1    5    5  503    0  0.12461338076E+03  0.69008083533E+02  0.73294234693E+03  0.74665594096E+03  0.00000000000E+00 0. -1.
         -4    1    5    5    0  503  0.57026319501E+02  0.50184992647E+02  0.19910422633E+03  0.21310332599E+03  0.00000000000E+00 0.  1.
         -1    1    6    6    0  502 -0.23760506915E+03 -0.60663715586E+03  0.94542348960E+03  0.11481682727E+04  0.00000000000E+00 0.  1.
<mgrwt>
<rscale>  0 0.18131448E+04</rscale>
<asrwt>0</asrwt>
<pdfrwt beam="1">  1        1 0.40710679E+00 0.18131448E+04</pdfrwt>
<pdfrwt beam="2">  1       -1 0.47782618E-01 0.18131448E+04</pdfrwt>
<totfact> 0.44226072E+00</totfact>
</mgrwt>
</event>
<event>
12    1  0.2588309E-007  0.1534988E+04  0.7818608E-02  0.8861514E-01
          2   -1    0    0  501    0  0.00000000000E+00  0.00000000000E+00  0.12873720378E+04  0.12873720378E+04  0.00000000000E+00 0. -1.
         -2   -1    0    0    0  501 -0.00000000000E+00 -0.00000000000E+00 -0.45755780609E+03  0.45755780609E+03  0.00000000000E+00 0.  1.
         23    2    1    2    0    0  0.42016420175E+03 -0.64243455234E+02 -0.22384623202E+02  0.43500543252E+03  0.89796865190E+02 0.  0.
        254    2    1    2    0    0 -0.42016420175E+03  0.64243455234E+02  0.85219885494E+03  0.13099244114E+04  0.89944088035E+03 0.  0.
        -24    2    4    4    0    0 -0.36565410296E+03 -0.18501742077E+03  0.14074380205E+01  0.41811314181E+03  0.82959324211E+02 0.  0.
         24    2    4    4    0    0 -0.54510098787E+02  0.24926087600E+03  0.85079141692E+03  0.89181126959E+03  0.79868456145E+02 0.  0.
         11    1    3    3    0    0  0.32060336044E+03 -0.82785166276E+02  0.76740841474E+00  0.33112004982E+03  0.00000000000E+00 0. -1.
        -11    1    3    3    0    0  0.99560841313E+02  0.18541711042E+02 -0.23152031617E+02  0.10388538270E+03  0.00000000000E+00 0.  1.
          4    1    6    6  502    0 -0.66221101557E+02  0.12368248881E+03  0.41051957954E+03  0.43383051704E+03  0.00000000000E+00 0. -1.
          1    1    5    5  503    0 -0.38510249851E+02 -0.27522813578E+02 -0.25989856613E+02  0.54000159792E+02  0.00000000000E+00 0. -1.
         -2    1    5    5    0  503 -0.32714385311E+03 -0.15749460719E+03  0.27397294633E+02  0.36411298202E+03  0.00000000000E+00 0.  1.
         -3    1    6    6    0  502  0.11711002770E+02  0.12557838719E+03  0.44027183738E+03  0.45798075255E+03  0.00000000000E+00 0.  1.
<mgrwt>
<rscale>  0 0.15349881E+04</rscale>
<asrwt>0</asrwt>
<pdfrwt beam="1">  1        2 0.19805723E+00 0.15349881E+04</pdfrwt>
<pdfrwt beam="2">  1       -2 0.70393509E-01 0.15349881E+04</pdfrwt>
<totfact> 0.29755432E+01</totfact>
</mgrwt>
</event>
<event>
12    1  0.2588309E-007  0.4629111E+04  0.7818608E-02  0.7888415E-01
         -3   -1    0    0    0  501 -0.00000000000E+00  0.00000000000E+00  0.17197513571E+04  0.17197513571E+04  0.00000000000E+00 0.  1.
          3   -1    0    0  501    0  0.00000000000E+00 -0.00000000000E+00 -0.31150824072E+04  0.31150824072E+04  0.00000000000E+00 0. -1.
         23    2    1    2    0    0  0.15084952516E+04 -0.14166656350E+04 -0.15277988190E+04  0.25740716195E+04  0.95791573090E+02 0.  0.
        254    2    1    2    0    0 -0.15084952516E+04  0.14166656350E+04  0.13246776890E+03  0.22607621448E+04  0.90055445163E+03 0.  0.
        -24    2    4    4    0    0 -0.31053692621E+03  0.74012732963E+03 -0.22436736148E+03  0.83721592807E+03  0.79800693757E+02 0.  0.
         24    2    4    4    0    0 -0.11979583253E+04  0.67653830537E+03  0.35683513038E+03  0.14235462168E+04  0.79651070767E+02 0.  0.
         11    1    3    3    0    0  0.13198031703E+04 -0.12677858733E+04 -0.13215413000E+04  0.22573508448E+04  0.00000000000E+00 0. -1.
        -11    1    3    3    0    0  0.18869208125E+03 -0.14887976173E+03 -0.20625751900E+03  0.31672077470E+03  0.00000000000E+00 0.  1.
          2    1    6    6  502    0 -0.62392716640E+03  0.31904288630E+03  0.15341234008E+03  0.71736240378E+03  0.00000000000E+00 0. -1.
          1    1    5    5  503    0 -0.13710244019E+03  0.42869644136E+03 -0.12116133176E+03  0.46610919993E+03  0.00000000000E+00 0. -1.
         -2    1    5    5    0  503 -0.17343448602E+03  0.31143088826E+03 -0.10320602971E+03  0.37110672814E+03  0.00000000000E+00 0.  1.
         -1    1    6    6    0  502 -0.57403115894E+03  0.35749541907E+03  0.20342279030E+03  0.70618381297E+03  0.00000000000E+00 0.  1.
<mgrwt>
<rscale>  0 0.46291110E+04</rscale>
<asrwt>0</asrwt>
<pdfrwt beam="1">  1        3 0.47924344E+00 0.46291110E+04</pdfrwt>
<pdfrwt beam="2">  1       -3 0.26457714E+00 0.46291110E+04</pdfrwt>
<totfact> 0.50439511E-04</totfact>
</mgrwt>
</event>
<event>
12    1  0.2588309E-007  0.3422147E+04  0.7818608E-02  0.8132492E-01
         -1   -1    0    0    0  501 -0.00000000000E+00  0.00000000000E+00  0.76968764115E+03  0.76968764115E+03  0.00000000000E+00 0.  1.
          1   -1    0    0  501    0  0.00000000000E+00 -0.00000000000E+00 -0.38038447739E+04  0.38038447739E+04  0.00000000000E+00 0. -1.
         23    2    1    2    0    0  0.53359333417E+03 -0.14844969956E+04 -0.11296108833E+04  0.19423742717E+04  0.91344883592E+02 0.  0.
        254    2    1    2    0    0 -0.53359333417E+03  0.14844969956E+04 -0.19045462495E+04  0.26311581433E+04  0.89846735186E+03 0.  0.
        -24    2    4    4    0    0 -0.31244953320E+03  0.12784347245E+03 -0.98865081753E+02  0.36040411348E+03  0.78410180346E+02 0.  0.
         24    2    4    4    0    0 -0.22114380097E+03  0.13566535231E+04 -0.18056811677E+04  0.22707540298E+04  0.80162471331E+02 0.  0.
         11    1    3    3    0    0  0.12876631315E+03 -0.47847359918E+03 -0.36893438933E+03  0.61776235896E+03  0.00000000000E+00 0. -1.
        -11    1    3    3    0    0  0.40482702102E+03 -0.10060233964E+04 -0.76067649393E+03  0.13246119128E+04  0.00000000000E+00 0.  1.
          2    1    6    6  502    0 -0.12133994903E+03  0.84104905651E+03 -0.11742634179E+04  0.14494762755E+04  0.00000000000E+00 0. -1.
          3    1    5    5  503    0 -0.23115743363E+03  0.10339629659E+03 -0.38261938710E+02  0.25610257560E+03  0.00000000000E+00 0. -1.
         -4    1    5    5    0  503 -0.81292099565E+02  0.24447175861E+02 -0.60603143044E+02  0.10430153789E+03  0.00000000000E+00 0.  1.
         -1    1    6    6    0  502 -0.99803851943E+02  0.51560446664E+03 -0.63141774982E+03  0.82127775427E+03  0.00000000000E+00 0.  1.
<mgrwt>
<rscale>  0 0.34221469E+04</rscale>
<asrwt>0</asrwt>
<pdfrwt beam="1">  1        1 0.58520689E+00 0.34221469E+04</pdfrwt>
<pdfrwt beam="2">  1       -1 0.11841348E+00 0.34221469E+04</pdfrwt>
<totfact> 0.74156155E-02</totfact>
</mgrwt>
</event>
<event>
12    1  0.2588309E-007  0.1428199E+04  0.7818608E-02  0.8933656E-01
          1   -1    0    0  501    0  0.00000000000E+00  0.00000000000E+00  0.70429657963E+03  0.70429657963E+03  0.00000000000E+00 0. -1.
         -1   -1    0    0    0  501 -0.00000000000E+00 -0.00000000000E+00 -0.72403835896E+03  0.72403835896E+03  0.00000000000E+00 0.  1.
         23    2    1    2    0    0  0.20339177237E+03 -0.38437543063E+02  0.36378168812E+03  0.42817590632E+03  0.90287498349E+02 0.  0.
        254    2    1    2    0    0 -0.20339177237E+03  0.38437543063E+02 -0.38352346746E+03  0.10001590323E+04  0.90021229827E+03 0.  0.
        -24    2    4    4    0    0  0.95759269463E+02 -0.25451213933E+03 -0.48547193321E+03  0.56194533305E+03  0.78442926110E+02 0.  0.
         24    2    4    4    0    0 -0.29915104183E+03  0.29294968239E+03  0.10194846575E+03  0.43821369922E+03  0.79541776895E+02 0.  0.
         11    1    3    3    0    0  0.12197104793E+03 -0.30669123632E+02  0.13170886370E+03  0.18211193386E+03  0.00000000000E+00 0.  1.
        -11    1    3    3    0    0  0.81420724441E+02 -0.77684194305E+01  0.23207282442E+03  0.24606397247E+03  0.00000000000E+00 0. -1.
          2    1    6    6  502    0 -0.22268160523E+03  0.25066531268E+03  0.10322974489E+03  0.35082271380E+03  0.00000000000E+00 0. -1.
          1    1    5    5  503    0  0.10565001458E+03 -0.23109414406E+03 -0.46238995268E+03  0.52760865927E+03  0.00000000000E+00 0. -1.
         -2    1    5    5    0  503 -0.98907451197E+01 -0.23417995267E+02 -0.23081980529E+02  0.34336673783E+02  0.00000000000E+00 0.  1.
         -1    1    6    6    0  502 -0.76469436599E+02  0.42284369712E+02 -0.12812791403E+01  0.87390985416E+02  0.00000000000E+00 0.  1.
<mgrwt>
<rscale>  0 0.14281985E+04</rscale>
<asrwt>0</asrwt>
<pdfrwt beam="1">  1        1 0.10835332E+00 0.14281985E+04</pdfrwt>
<pdfrwt beam="2">  1       -1 0.11139052E+00 0.14281985E+04</pdfrwt>
<totfact> 0.19460162E+01</totfact>
</mgrwt>
</event>
<event>
12    1  0.2588309E-007  0.1754037E+04  0.7818608E-02  0.8731131E-01
         -2   -1    0    0    0  501 -0.00000000000E+00  0.00000000000E+00  0.46043023445E+03  0.46043023445E+03  0.00000000000E+00 0.  1.
          2   -1    0    0  501    0  0.00000000000E+00 -0.00000000000E+00 -0.16705272978E+04  0.16705272978E+04  0.00000000000E+00 0. -1.
         23    2    1    2    0    0 -0.89413610358E+02  0.63624308225E+03 -0.43059142260E+03  0.77864503840E+03  0.89883642445E+02 0.  0.
        254    2    1    2    0    0  0.89413610358E+02 -0.63624308225E+03 -0.77950564073E+03  0.13523124938E+04  0.89906617309E+03 0.  0.
        -24    2    4    4    0    0  0.13477205144E+02 -0.32747406962E+03 -0.93197030588E+03  0.99116046764E+03  0.80059479381E+02 0.  0.
         24    2    4    4    0    0  0.75936405215E+02 -0.30876901263E+03  0.15246466514E+03  0.36115202619E+03  0.77978658002E+02 0.  0.
         11    1    3    3    0    0 -0.89205531970E+02  0.36260596364E+03 -0.27613001300E+03  0.46442275556E+03  0.00000000000E+00 0.  1.
        -11    1    3    3    0    0 -0.20807838843E+00  0.27363711862E+03 -0.15446140960E+03  0.31422228284E+03  0.00000000000E+00 0. -1.
          4    1    6    6  502    0  0.24769260638E+02 -0.38834068533E+02  0.49851718006E+02  0.67873374305E+02  0.00000000000E+00 0. -1.
          1    1    5    5  503    0 -0.16729512673E+02 -0.50762449488E+02 -0.93563417512E+02  0.10775349632E+03  0.00000000000E+00 0. -1.
         -2    1    5    5    0  503  0.30206717817E+02 -0.27671162013E+03 -0.83840688837E+03  0.88340697132E+03  0.00000000000E+00 0.  1.
         -3    1    6    6    0  502  0.51167144576E+02 -0.26993494410E+03  0.10261294714E+03  0.29327865189E+03  0.00000000000E+00 0.  1.
<mgrwt>
<rscale>  0 0.17540368E+04</rscale>
<asrwt>0</asrwt>
<pdfrwt beam="1">  1        2 0.25700420E+00 0.17540368E+04</pdfrwt>
<pdfrwt beam="2">  1       -2 0.70835421E-01 0.17540368E+04</pdfrwt>
<totfact> 0.17477339E+01</totfact>
</mgrwt>
</event>
<event>
12    1  0.2588309E-007  0.1862823E+04  0.7818608E-02  0.8673586E-01
         -2   -1    0    0    0  501 -0.00000000000E+00  0.00000000000E+00  0.20166997037E+03  0.20166997037E+03  0.00000000000E+00 0. -1.
          2   -1    0    0  501    0  0.00000000000E+00 -0.00000000000E+00 -0.43017177727E+04  0.43017177727E+04  0.00000000000E+00 0.  1.
         23    2    1    2    0    0 -0.26683239656E+02  0.35055481685E+03 -0.82554363151E+02  0.37242417617E+03  0.91015763614E+02 0.  0.
        254    2    1    2    0    0  0.26683239656E+02 -0.35055481685E+03 -0.40174934392E+04  0.41309635669E+04  0.89498926378E+03 0.  0.
        -24    2    4    4    0    0  0.18129034229E+03 -0.48712720432E+03 -0.12691066294E+04  0.13737773279E+04  0.80457494975E+02 0.  0.
         24    2    4    4    0    0 -0.15460710263E+03  0.13657238747E+03 -0.27483868098E+04  0.27571862390E+04  0.76749769253E+02 0.  0.
         13    1    3    3    0    0 -0.19656409879E+02  0.26947671157E+02  0.11616959468E+02  0.35320039318E+02  0.00000000000E+00 0.  1.
        -13    1    3    3    0    0 -0.70268297773E+01  0.32360714569E+03 -0.94171322619E+02  0.33710413685E+03  0.00000000000E+00 0. -1.
          4    1    6    6  502    0 -0.48491187261E+02  0.55672674289E+01 -0.81625921656E+03  0.81771724839E+03  0.00000000000E+00 0. -1.
          1    1    5    5  503    0  0.11824598226E+02 -0.81645828227E+02 -0.14511752814E+03  0.16692800653E+03  0.00000000000E+00 0. -1.
         -4    1    5    5    0  503  0.16946574406E+03 -0.40548137609E+03 -0.11239891012E+04  0.12068493214E+04  0.00000000000E+00 0.  1.
         -3    1    6    6    0  502 -0.10611591537E+03  0.13100512004E+03 -0.19321275933E+04  0.19394689906E+04  0.00000000000E+00 0.  1.
<mgrwt>
<rscale>  0 0.18628229E+04</rscale>
<asrwt>0</asrwt>
<pdfrwt beam="1">  1        2 0.66180276E+00 0.18628229E+04</pdfrwt>
<pdfrwt beam="2">  1       -2 0.31026148E-01 0.18628229E+04</pdfrwt>
<totfact> 0.17394469E+00</totfact>
</mgrwt>
</event>
<event>
12    1  0.2588309E-007  0.1995574E+04  0.7818608E-02  0.8608693E-01
         -2   -1    0    0    0  501 -0.00000000000E+00  0.00000000000E+00  0.87932421962E+03  0.87932421962E+03  0.00000000000E+00 0.  1.
          2   -1    0    0  501    0  0.00000000000E+00 -0.00000000000E+00 -0.11322092931E+04  0.11322092931E+04  0.00000000000E+00 0. -1.
         23    2    1    2    0    0  0.33788806011E+03  0.40617868717E+03 -0.69480133628E+03  0.87752252873E+03  0.90263084661E+02 0.  0.
        254    2    1    2    0    0 -0.33788806011E+03 -0.40617868717E+03  0.44191626279E+03  0.11340109840E+04  0.90085596043E+03 0.  0.
        -24    2    4    4    0    0  0.13835038824E+03 -0.29979890307E+03 -0.14342452063E+03  0.36781142600E+03  0.75461511843E+02 0.  0.
         24    2    4    4    0    0 -0.47623844835E+03 -0.10637978410E+03  0.58534078343E+03  0.76619955800E+03  0.79487179986E+02 0.  0.
         13    1    3    3    0    0  0.14715560319E+03  0.16273158012E+03 -0.36126727903E+03  0.42267054027E+03  0.00000000000E+00 0.  1.
        -13    1    3    3    0    0  0.19073245693E+03  0.24344710705E+03 -0.33353405725E+03  0.45485198845E+03  0.00000000000E+00 0. -1.
          4    1    6    6  502    0 -0.34940602292E+03 -0.43238787493E+02  0.43489260960E+03  0.55954065400E+03  0.00000000000E+00 0. -1.
          3    1    5    5  503    0  0.22569971330E+02 -0.10399183535E+03 -0.17610922580E+02  0.10786032644E+03  0.00000000000E+00 0. -1.
         -4    1    5    5    0  503  0.11578041691E+03 -0.19580706773E+03 -0.12581359805E+03  0.25995109957E+03  0.00000000000E+00 0.  1.
         -3    1    6    6    0  502 -0.12683242543E+03 -0.63140996608E+02  0.15044817383E+03  0.20665890400E+03  0.00000000000E+00 0.  1.
<mgrwt>
<rscale>  0 0.19955742E+04</rscale>
<asrwt>0</asrwt>
<pdfrwt beam="1">  1        2 0.17418605E+00 0.19955742E+04</pdfrwt>
<pdfrwt beam="2">  1       -2 0.13528065E+00 0.19955742E+04</pdfrwt>
<totfact> 0.75923823E+00</totfact>
</mgrwt>
</event>
<event>
12    1  0.2588309E-007  0.1408500E+04  0.7818608E-02  0.8947689E-01
         -1   -1    0    0    0  501 -0.00000000000E+00  0.00000000000E+00  0.17835539623E+03  0.17835539623E+03  0.00000000000E+00 0.  1.
          1   -1    0    0  501    0  0.00000000000E+00 -0.00000000000E+00 -0.27807844228E+04  0.27807844228E+04  0.00000000000E+00 0. -1.
         23    2    1    2    0    0  0.33025504959E+03 -0.18081411574E+03 -0.10880332693E+04  0.11546668137E+04  0.87617995816E+02 0.  0.
        254    2    1    2    0    0 -0.33025504959E+03  0.18081411574E+03 -0.15143957572E+04  0.18044730053E+04  0.90607183783E+03 0.  0.
        -24    2    4    4    0    0 -0.10669110841E+03  0.20480722804E+03 -0.15451268545E+04  0.15642871425E+04  0.79046027927E+02 0.  0.
         24    2    4    4    0    0 -0.22356394118E+03 -0.23993112297E+02  0.30731097262E+02  0.24018586283E+03  0.78666022726E+02 0.  0.
         11    1    3    3    0    0  0.25853438491E+03 -0.14781007835E+03 -0.73760824410E+03  0.79545821336E+03  0.00000000000E+00 0.  1.
        -11    1    3    3    0    0  0.71720664671E+02 -0.33004037396E+02 -0.35042502524E+03  0.35920860032E+03  0.00000000000E+00 0. -1.
          4    1    6    6  502    0 -0.68479429496E+02 -0.36025324551E+02 -0.13325858319E+02  0.78516461796E+02  0.00000000000E+00 0. -1.
          3    1    5    5  503    0 -0.76130447952E+02  0.11116258870E+03 -0.65412185548E+03  0.66785355285E+03  0.00000000000E+00 0. -1.
         -4    1    5    5    0  503 -0.30560660457E+02  0.93644639340E+02 -0.89100499899E+03  0.89643358966E+03  0.00000000000E+00 0.  1.
         -3    1    6    6    0  502 -0.15508451168E+03  0.12032212254E+02  0.44056955581E+02  0.16166940103E+03  0.00000000000E+00 0.  1.
<mgrwt>
<rscale>  0 0.14084998E+04</rscale>
<asrwt>0</asrwt>
<pdfrwt beam="1">  1        1 0.42781296E+00 0.14084998E+04</pdfrwt>
<pdfrwt beam="2">  1       -1 0.27439294E-01 0.14084998E+04</pdfrwt>
<totfact> 0.10051557E+01</totfact>
</mgrwt>
</event>
<event>
12    1  0.2588309E-007  0.1391579E+04  0.7818608E-02  0.8959937E-01
          1   -1    0    0  501    0  0.00000000000E+00  0.00000000000E+00  0.11200635835E+04  0.11200635835E+04  0.00000000000E+00 0. -1.
         -1   -1    0    0    0  501 -0.00000000000E+00 -0.00000000000E+00 -0.43222792429E+03  0.43222792429E+03  0.00000000000E+00 0.  1.
         23    2    1    2    0    0  0.33019075534E+03 -0.73991608605E+02  0.43545013740E+03  0.55826662357E+03  0.86856823413E+02 0.  0.
        254    2    1    2    0    0 -0.33019075534E+03  0.73991608605E+02  0.25238552177E+03  0.99402488418E+03  0.89993684540E+03 0.  0.
        -24    2    4    4    0    0 -0.38511439701E+03  0.41162547943E+03  0.15169615573E+02  0.56944131228E+03  0.79275827312E+02 0.  0.
         24    2    4    4    0    0  0.54923641669E+02 -0.33763387083E+03  0.23721590620E+03  0.42458357189E+03  0.83585801581E+02 0.  0.
         13    1    3    3    0    0  0.19134486368E+03 -0.81737221230E+02  0.22969234920E+03  0.30992322513E+03  0.00000000000E+00 0.  1.
        -13    1    3    3    0    0  0.13884589167E+03  0.77456126255E+01  0.20575778819E+03  0.24834339844E+03  0.00000000000E+00 0. -1.
          4    1    6    6  502    0  0.40534795900E+02 -0.51663373358E+02  0.39702418100E+02  0.76736274527E+02  0.00000000000E+00 0. -1.
          1    1    5    5  503    0 -0.11931577084E+03  0.81920588435E+02 -0.10869827008E+02  0.14513920601E+03  0.00000000000E+00 0. -1.
         -2    1    5    5    0  503 -0.26579862617E+03  0.32970489100E+03  0.26039442581E+02  0.42430210627E+03  0.00000000000E+00 0.  1.
         -3    1    6    6    0  502  0.14388845769E+02 -0.28597049747E+03  0.19751348810E+03  0.34784729737E+03  0.00000000000E+00 0.  1.
<mgrwt>
<rscale>  0 0.13915786E+04</rscale>
<asrwt>0</asrwt>
<pdfrwt beam="1">  1        1 0.17231747E+00 0.13915786E+04</pdfrwt>
<pdfrwt beam="2">  1       -1 0.66496604E-01 0.13915786E+04</pdfrwt>
<totfact> 0.27382162E+01</totfact>
</mgrwt>
</event>
<event>
12    1  0.2588309E-007  0.2226846E+04  0.7818608E-02  0.8507337E-01
         -2   -1    0    0    0  501 -0.00000000000E+00  0.00000000000E+00  0.81410784186E+03  0.81410784186E+03  0.00000000000E+00 0.  1.
          2   -1    0    0  501    0  0.00000000000E+00 -0.00000000000E+00 -0.15227845434E+04  0.15227845434E+04  0.00000000000E+00 0. -1.
         23    2    1    2    0    0  0.32566811565E+03 -0.45970405311E+03 -0.10723668659E+04  0.12147598346E+04  0.91012210839E+02 0.  0.
        254    2    1    2    0    0 -0.32566811565E+03  0.45970405311E+03  0.36369016436E+03  0.11221325507E+04  0.89973517646E+03 0.  0.
        -24    2    4    4    0    0 -0.67993968844E+02  0.31305420787E+03 -0.26368170370E+03  0.42357136545E+03  0.85197088546E+02 0.  0.
         24    2    4    4    0    0 -0.25767414681E+03  0.14664984524E+03  0.62737186805E+03  0.69856118528E+03  0.80561316518E+02 0.  0.
         11    1    3    3    0    0  0.22871917117E+03 -0.37760472982E+03 -0.87457472187E+03  0.97968297698E+03  0.00000000000E+00 0. -1.
        -11    1    3    3    0    0  0.96948944475E+02 -0.82099323295E+02 -0.19779214405E+03  0.23507685758E+03  0.00000000000E+00 0.  1.
          2    1    6    6  502    0 -0.79975330695E+02  0.78745813082E+01  0.19560955881E+03  0.21147378573E+03  0.00000000000E+00 0. -1.
          1    1    5    5  503    0 -0.80185707483E+02  0.17104420304E+03 -0.15389300070E+03  0.24365738803E+03  0.00000000000E+00 0. -1.
         -2    1    5    5    0  503  0.12191738639E+02  0.14201000483E+03 -0.10978870299E+03  0.17991397741E+03  0.00000000000E+00 0.  1.
         -1    1    6    6    0  502 -0.17769881611E+03  0.13877526393E+03  0.43176230924E+03  0.48708739956E+03  0.00000000000E+00 0.  1.
<mgrwt>
<rscale>  0 0.22268461E+04</rscale>
<asrwt>0</asrwt>
<pdfrwt beam="1">  1        2 0.23427454E+00 0.22268461E+04</pdfrwt>
<pdfrwt beam="2">  1       -2 0.12524736E+00 0.22268461E+04</pdfrwt>
<totfact> 0.53632353E+00</totfact>
</mgrwt>
</event>
<event>
12    1  0.2588309E-007  0.1910899E+04  0.7818608E-02  0.8649450E-01
         -2   -1    0    0    0  501 -0.00000000000E+00  0.00000000000E+00  0.16530230304E+04  0.16530230304E+04  0.00000000000E+00 0.  1.
          2   -1    0    0  501    0  0.00000000000E+00 -0.00000000000E+00 -0.55225117826E+03  0.55225117826E+03  0.00000000000E+00 0. -1.
         23    2    1    2    0    0 -0.58326202488E+03 -0.26460865966E+03  0.85935072704E+03  0.10756927375E+04  0.91754351017E+02 0.  0.
        254    2    1    2    0    0  0.58326202488E+03  0.26460865966E+03  0.24142112506E+03  0.11295814712E+04  0.89858656117E+03 0.  0.
        -24    2    4    4    0    0 -0.25039360847E+02  0.31805144653E+03 -0.18915825798E+03  0.37827882738E+03  0.74366205049E+02 0.  0.
         24    2    4    4    0    0  0.60830138573E+03 -0.53442786872E+02  0.43057938304E+03  0.75130264377E+03  0.78551575979E+02 0.  0.
         11    1    3    3    0    0 -0.14555256296E+03 -0.31875232884E+02  0.16214545305E+03  0.22021064235E+03  0.00000000000E+00 0. -1.
        -11    1    3    3    0    0 -0.43770946192E+03 -0.23273342677E+03  0.69720527398E+03  0.85548209511E+03  0.00000000000E+00 0.  1.
          4    1    6    6  502    0  0.55700356401E+03 -0.62696446439E+02  0.41318327059E+03  0.69635065148E+03  0.00000000000E+00 0. -1.
          1    1    5    5  503    0 -0.22361900449E+02  0.27814317711E+03 -0.19114614539E+03  0.33823147468E+03  0.00000000000E+00 0. -1.
         -2    1    5    5    0  503 -0.26774603979E+01  0.39908269419E+02  0.19878874149E+01  0.40047352704E+02  0.00000000000E+00 0.  1.
         -3    1    6    6    0  502  0.51297821721E+02  0.92536595676E+01  0.17396112444E+02  0.54951992293E+02  0.00000000000E+00 0.  1.
<mgrwt>
<rscale>  0 0.19108992E+04</rscale>
<asrwt>0</asrwt>
<pdfrwt beam="1">  1        2 0.84961720E-01 0.19108992E+04</pdfrwt>
<pdfrwt beam="2">  1       -2 0.25431123E+00 0.19108992E+04</pdfrwt>
<totfact> 0.30991830E+00</totfact>
</mgrwt>
</event>
<event>
12    1  0.2588309E-007  0.2366301E+04  0.7818608E-02  0.8452229E-01
          2   -1    0    0  501    0  0.00000000000E+00  0.00000000000E+00  0.15139128675E+04  0.15139128675E+04  0.00000000000E+00 0. -1.
         -2   -1    0    0    0  501 -0.00000000000E+00 -0.00000000000E+00 -0.92465363055E+03  0.92465363055E+03  0.00000000000E+00 0.  1.
         23    2    1    2    0    0 -0.98928216632E+03 -0.11796811921E+03  0.83000974612E+02  0.10038505255E+04  0.90725045903E+02 0.  0.
        254    2    1    2    0    0  0.98928216632E+03  0.11796811921E+03  0.50625826231E+03  0.14347159725E+04  0.89973152215E+03 0.  0.
        -24    2    4    4    0    0  0.33554931805E+03 -0.20410324044E+03  0.57239759948E+03  0.69861599405E+03  0.78573644809E+02 0.  0.
         24    2    4    4    0    0  0.65373284828E+03  0.32207135965E+03 -0.66139337174E+02  0.73609997849E+03  0.79825865367E+02 0.  0.
         11    1    3    3    0    0 -0.44704585596E+03 -0.60928778785E+02 -0.70615221056E+01  0.45123406178E+03  0.00000000000E+00 0.  1.
        -11    1    3    3    0    0 -0.54223631036E+03 -0.57039340430E+02  0.90062496717E+02  0.55261646370E+03  0.00000000000E+00 0. -1.
          2    1    6    6  502    0  0.61043348747E+03  0.28398324288E+03 -0.76219685502E+02  0.67755809000E+03  0.00000000000E+00 0. -1.
          3    1    5    5  503    0  0.17881781363E+03 -0.14365079869E+03  0.37308185289E+03  0.43795140300E+03  0.00000000000E+00 0. -1.
         -4    1    5    5    0  503  0.15673150441E+03 -0.60452441749E+02  0.19931574659E+03  0.26066459105E+03  0.00000000000E+00 0.  1.
         -1    1    6    6    0  502  0.43299360804E+02  0.38088116772E+02  0.10080348328E+02  0.58541888488E+02  0.00000000000E+00 0.  1.
<mgrwt>
<rscale>  0 0.23663009E+04</rscale>
<asrwt>0</asrwt>
<pdfrwt beam="1">  1        2 0.23290967E+00 0.23663009E+04</pdfrwt>
<pdfrwt beam="2">  1       -2 0.14225441E+00 0.23663009E+04</pdfrwt>
<totfact> 0.38732943E+00</totfact>
</mgrwt>
</event>
<event>
12    1  0.2588309E-007  0.1515810E+04  0.7818608E-02  0.8874007E-01
          2   -1    0    0  501    0  0.00000000000E+00  0.00000000000E+00  0.93693896368E+03  0.93693896368E+03  0.00000000000E+00 0. -1.
         -2   -1    0    0    0  501 -0.00000000000E+00 -0.00000000000E+00 -0.61308162163E+03  0.61308162163E+03  0.00000000000E+00 0.  1.
         23    2    1    2    0    0 -0.23676010548E+03  0.22191133451E+03  0.47470213122E+03  0.58199369747E+03  0.89858569884E+02 0.  0.
        254    2    1    2    0    0  0.23676010548E+03 -0.22191133451E+03 -0.15084478917E+03  0.96802688783E+03  0.89945645654E+03 0.  0.
        -24    2    4    4    0    0  0.45639478236E+03 -0.43799429347E+03 -0.88033904605E+02  0.64384858903E+03  0.81583324006E+02 0.  0.
         24    2    4    4    0    0 -0.21963467688E+03  0.21608295897E+03 -0.62810884564E+02  0.32417829880E+03  0.78836068838E+02 0.  0.
         13    1    3    3    0    0 -0.11482896675E+03  0.49843187890E+02  0.19440733830E+03  0.23122337288E+03  0.00000000000E+00 0.  1.
        -13    1    3    3    0    0 -0.12193113874E+03  0.17206814662E+03  0.28029479292E+03  0.35077032459E+03  0.00000000000E+00 0. -1.
          4    1    6    6  502    0 -0.18203752022E+02  0.54552017146E+02  0.34509160345E+01  0.57612567933E+02  0.00000000000E+00 0. -1.
          1    1    5    5  503    0  0.10878663191E+03 -0.12997474907E+03 -0.55161524200E+02  0.17824354246E+03  0.00000000000E+00 0. -1.
         -2    1    5    5    0  503  0.34760815046E+03 -0.30801954440E+03 -0.32872380404E+02  0.46560504657E+03  0.00000000000E+00 0.  1.
         -3    1    6    6    0  502 -0.20143092486E+03  0.16153094182E+03 -0.66261800598E+02  0.26656573087E+03  0.00000000000E+00 0.  1.
<mgrwt>
<rscale>  0 0.15158101E+04</rscale>
<asrwt>0</asrwt>
<pdfrwt beam="1">  1        2 0.14414446E+00 0.15158101E+04</pdfrwt>
<pdfrwt beam="2">  1       -2 0.94320249E-01 0.15158101E+04</pdfrwt>
<totfact> 0.25338087E+01</totfact>
</mgrwt>
</event>
<event>
12    1  0.2588309E-007  0.2407404E+04  0.7818608E-02  0.8436737E-01
          2   -1    0    0  501    0  0.00000000000E+00  0.00000000000E+00  0.16483221727E+04  0.16483221727E+04  0.00000000000E+00 0.  1.
         -2   -1    0    0    0  501 -0.00000000000E+00 -0.00000000000E+00 -0.87901431401E+03  0.87901431401E+03  0.00000000000E+00 0. -1.
         23    2    1    2    0    0 -0.27506178880E+03  0.31481136002E+03  0.13227503161E+04  0.13901270073E+04  0.89551758949E+02 0.  0.
        254    2    1    2    0    0  0.27506178880E+03 -0.31481136002E+03 -0.55344245749E+03  0.11372094794E+04  0.90121122174E+03 0.  0.
        -24    2    4    4    0    0  0.55589786528E+03 -0.26926768902E+03 -0.56561746621E+03  0.84132997614E+03  0.79909234105E+02 0.  0.
         24    2    4    4    0    0 -0.28083607648E+03 -0.45543670998E+02  0.12175008722E+02  0.29587950324E+03  0.80332569886E+02 0.  0.
         11    1    3    3    0    0 -0.17309514294E+03  0.22688978274E+03  0.76903441932E+03  0.82027729465E+03  0.00000000000E+00 0. -1.
        -11    1    3    3    0    0 -0.10196664586E+03  0.87921577283E+02  0.55371589681E+03  0.56984971264E+03  0.00000000000E+00 0.  1.
          4    1    6    6  502    0 -0.28574946911E+03 -0.45513182813E+02  0.80488089089E+01  0.28946328305E+03  0.00000000000E+00 0. -1.
          1    1    5    5  503    0  0.35787426520E+03 -0.20919114773E+03 -0.40306867491E+03  0.57818620069E+03  0.00000000000E+00 0. -1.
         -2    1    5    5    0  503  0.19802360008E+03 -0.60076541295E+02 -0.16254879130E+03  0.26314377544E+03  0.00000000000E+00 0.  1.
         -3    1    6    6    0  502  0.49133926362E+01 -0.30488184630E-01  0.41261998126E+01  0.64162201973E+01  0.00000000000E+00 0.  1.
<mgrwt>
<rscale>  0 0.24074042E+04</rscale>
<asrwt>0</asrwt>
<pdfrwt beam="1">  1        2 0.25358803E+00 0.24074042E+04</pdfrwt>
<pdfrwt beam="2">  1       -2 0.13523297E+00 0.24074042E+04</pdfrwt>
<totfact> 0.36996386E+00</totfact>
</mgrwt>
</event>
<event>
12    1  0.2588309E-007  0.4060012E+04  0.7818608E-02  0.7992549E-01
          1   -1    0    0  501    0  0.00000000000E+00  0.00000000000E+00  0.28122634971E+04  0.28122634971E+04  0.00000000000E+00 0. -1.
         -1   -1    0    0    0  501 -0.00000000000E+00 -0.00000000000E+00 -0.14653406324E+04  0.14653406324E+04  0.00000000000E+00 0.  1.
         23    2    1    2    0    0 -0.10757222973E+04  0.14056389769E+04  0.14485121229E+04  0.22890258734E+04  0.91938481287E+02 0.  0.
        254    2    1    2    0    0  0.10757222973E+04 -0.14056389769E+04 -0.10158925823E+03  0.19885782561E+04  0.90062406627E+03 0.  0.
        -24    2    4    4    0    0  0.10275501676E+04 -0.14794560513E+04  0.40361565428E+02  0.18035557118E+04  0.80836841613E+02 0.  0.
         24    2    4    4    0    0  0.48172129658E+02  0.73817074364E+02 -0.14195082366E+03  0.18502254424E+03  0.79459366956E+02 0.  0.
         13    1    3    3    0    0 -0.19265473562E+03  0.19753089249E+03  0.23173591822E+03  0.36032740173E+03  0.00000000000E+00 0. -1.
        -13    1    3    3    0    0 -0.88306756165E+03  0.12081080845E+04  0.12167762047E+04  0.19286984716E+04  0.00000000000E+00 0.  1.
          2    1    6    6  502    0  0.15816963724E+02  0.82908758048E+02 -0.10999690046E+03  0.13864831991E+03  0.00000000000E+00 0. -1.
          3    1    5    5  503    0  0.82071450076E+03 -0.12330533878E+04  0.43019757313E+02  0.14818379292E+04  0.00000000000E+00 0. -1.
         -4    1    5    5    0  503  0.20683566685E+03 -0.24640266355E+03 -0.26581918844E+01  0.32171778264E+03  0.00000000000E+00 0.  1.
         -1    1    6    6    0  502  0.32355165934E+02 -0.90916836839E+01 -0.31953923200E+02  0.46374224335E+02  0.00000000000E+00 0.  1.
<mgrwt>
<rscale>  0 0.40600118E+04</rscale>
<asrwt>0</asrwt>
<pdfrwt beam="1">  1        1 0.43265592E+00 0.40600118E+04</pdfrwt>
<pdfrwt beam="2">  1       -1 0.22543702E+00 0.40600118E+04</pdfrwt>
<totfact> 0.64372072E-02</totfact>
</mgrwt>
</event>
<event>
12    1  0.2588309E-007  0.2749846E+04  0.7818608E-02  0.8319011E-01
          2   -1    0    0  501    0  0.00000000000E+00  0.00000000000E+00  0.14721113921E+04  0.14721113921E+04  0.00000000000E+00 0.  1.
         -2   -1    0    0    0  501 -0.00000000000E+00 -0.00000000000E+00 -0.12841506575E+04  0.12841506575E+04  0.00000000000E+00 0. -1.
         23    2    1    2    0    0 -0.11788385377E+03  0.11963037387E+04  0.31662642129E+03  0.12488831577E+04  0.12007336478E+03 0.  0.
        254    2    1    2    0    0  0.11788385377E+03 -0.11963037387E+04 -0.12866568665E+03  0.15073788919E+04  0.90033162039E+03 0.  0.
        -24    2    4    4    0    0 -0.12027040291E+03 -0.74033366712E+03 -0.46696289923E+03  0.88715142611E+03  0.80152324369E+02 0.  0.
         24    2    4    4    0    0  0.23815425668E+03 -0.45597007153E+03  0.33829721258E+03  0.62022746578E+03  0.74906269137E+02 0.  0.
         13    1    3    3    0    0 -0.46153926166E+02  0.57772286191E+03  0.91657913356E+02  0.58676661728E+03  0.00000000000E+00 0. -1.
        -13    1    3    3    0    0 -0.71729927608E+02  0.61858087675E+03  0.22496850793E+03  0.66211654047E+03  0.00000000000E+00 0.  1.
          2    1    6    6  502    0  0.42385483325E+02 -0.15584024734E+03  0.10352892871E+03  0.19183573955E+03  0.00000000000E+00 0. -1.
          3    1    5    5  503    0 -0.19123376310E+02 -0.28079416016E+03 -0.20882691050E+03  0.35045647726E+03  0.00000000000E+00 0. -1.
         -4    1    5    5    0  503 -0.10114702660E+03 -0.45953950696E+03 -0.25813598873E+03  0.53669494886E+03  0.00000000000E+00 0.  1.
         -3    1    6    6    0  502  0.19576877335E+03 -0.30012982419E+03  0.23476828386E+03  0.42839172623E+03  0.00000000000E+00 0.  1.
<mgrwt>
<rscale>  0 0.27498457E+04</rscale>
<asrwt>0</asrwt>
<pdfrwt beam="1">  1        2 0.22647868E+00 0.27498457E+04</pdfrwt>
<pdfrwt beam="2">  1       -2 0.19756164E+00 0.27498457E+04</pdfrwt>
<totfact> 0.15875590E+00</totfact>
</mgrwt>
</event>
<event>
12    1  0.2588309E-007  0.4893404E+04  0.7818608E-02  0.7845164E-01
          2   -1    0    0  501    0  0.00000000000E+00  0.00000000000E+00  0.20709387768E+04  0.20709387768E+04  0.00000000000E+00 0. -1.
         -2   -1    0    0    0  501 -0.00000000000E+00 -0.00000000000E+00 -0.28906458383E+04  0.28906458383E+04  0.00000000000E+00 0.  1.
         23    2    1    2    0    0  0.92237553516E+03  0.15864222136E+04 -0.19055052677E+04  0.26471045035E+04  0.93273036567E+02 0.  0.
        254    2    1    2    0    0 -0.92237553516E+03 -0.15864222136E+04  0.10857982061E+04  0.23144801116E+04  0.90019352075E+03 0.  0.
        -24    2    4    4    0    0 -0.57130460413E+03 -0.65994080623E+03  0.98026477015E+03  0.13149698811E+04  0.79472952374E+02 0.  0.
         24    2    4    4    0    0 -0.35107093103E+03 -0.92648140740E+03  0.10553343600E+03  0.99951023052E+03  0.79150476452E+02 0.  0.
         13    1    3    3    0    0  0.40476420151E+03  0.61134247021E+03 -0.73693815823E+03  0.10395439018E+04  0.00000000000E+00 0.  1.
        -13    1    3    3    0    0  0.51761133366E+03  0.97507974343E+03 -0.11685671095E+04  0.16075606017E+04  0.00000000000E+00 0. -1.
          2    1    6    6  502    0 -0.26816682238E+03 -0.65494331514E+03  0.44521773325E+02  0.70911661874E+03  0.00000000000E+00 0. -1.
          1    1    5    5  503    0 -0.51111665013E+03 -0.57747664775E+03  0.82658948477E+03  0.11304732129E+04  0.00000000000E+00 0. -1.
         -2    1    5    5    0  503 -0.60187953998E+02 -0.82464158479E+02  0.15367528538E+03  0.18449666820E+03  0.00000000000E+00 0.  1.
         -1    1    6    6    0  502 -0.82904108652E+02 -0.27153809226E+03  0.61011662675E+02  0.29039361178E+03  0.00000000000E+00 0.  1.
<mgrwt>
<rscale>  0 0.48934040E+04</rscale>
<asrwt>0</asrwt>
<pdfrwt beam="1">  1        2 0.31860597E+00 0.48934040E+04</pdfrwt>
<pdfrwt beam="2">  1       -2 0.44471474E+00 0.48934040E+04</pdfrwt>
<totfact> 0.16883869E-02</totfact>
</mgrwt>
</event>
<event>
12    1  0.2588309E-007  0.1137766E+04  0.7818608E-02  0.9169144E-01
         -2   -1    0    0    0  501 -0.00000000000E+00  0.00000000000E+00  0.44256600546E+03  0.44256600546E+03  0.00000000000E+00 0.  1.
          2   -1    0    0  501    0  0.00000000000E+00 -0.00000000000E+00 -0.73125393275E+03  0.73125393275E+03  0.00000000000E+00 0. -1.
         23    2    1    2    0    0  0.18961889395E+03  0.34302114265E+02 -0.10278948824E+02  0.21333941906E+03  0.90973023206E+02 0.  0.
        254    2    1    2    0    0 -0.18961889395E+03 -0.34302114265E+02 -0.27840897847E+03  0.96048051914E+03  0.89882106583E+03 0.  0.
        -24    2    4    4    0    0 -0.41997235068E+03  0.19566900473E+03  0.71304640042E+02  0.47585312524E+03  0.81784536239E+02 0.  0.
         24    2    4    4    0    0  0.23035345673E+03 -0.22997111900E+03 -0.34971361851E+03  0.48462739390E+03  0.81330592931E+02 0.  0.
         13    1    3    3    0    0  0.75536245932E+02 -0.29183040484E+02 -0.16469303931E+02  0.82635417790E+02  0.00000000000E+00 0.  1.
        -13    1    3    3    0    0  0.11408264802E+03  0.63485154749E+02  0.61903551068E+01  0.13070400127E+03  0.00000000000E+00 0. -1.
          2    1    6    6  502    0  0.14163926947E+03 -0.15064783872E+03 -0.27517217690E+03  0.34420369101E+03  0.00000000000E+00 0. -1.
          3    1    5    5  503    0 -0.26489429159E+03  0.16531598824E+03  0.40577986607E+02  0.31487288655E+03  0.00000000000E+00 0. -1.
         -4    1    5    5    0  503 -0.15507805909E+03  0.30353016493E+02  0.30726653435E+02  0.16098023870E+03  0.00000000000E+00 0.  1.
         -1    1    6    6    0  502  0.88714187259E+02 -0.79323280278E+02 -0.74541441609E+02  0.14042370289E+03  0.00000000000E+00 0.  1.
<mgrwt>
<rscale>  0 0.11377665E+04</rscale>
<asrwt>0</asrwt>
<pdfrwt beam="1">  1        2 0.11250060E+00 0.11377665E+04</pdfrwt>
<pdfrwt beam="2">  1       -2 0.68087079E-01 0.11377665E+04</pdfrwt>
<totfact> 0.75836617E+01</totfact>
</mgrwt>
</event>
<event>
12    1  0.2588309E-007  0.1861934E+04  0.7818608E-02  0.8674039E-01
         -2   -1    0    0    0  501 -0.00000000000E+00  0.00000000000E+00  0.17901680823E+04  0.17901680823E+04  0.00000000000E+00 0.  1.
          2   -1    0    0  501    0  0.00000000000E+00 -0.00000000000E+00 -0.48414448531E+03  0.48414448531E+03  0.00000000000E+00 0. -1.
         23    2    1    2    0    0 -0.51169415231E+01 -0.69947224383E+03  0.35414683293E+03  0.78933615957E+03  0.91345446232E+02 0.  0.
        254    2    1    2    0    0  0.51169415231E+01  0.69947224383E+03  0.95187676403E+03  0.14849764080E+04  0.89988774604E+03 0.  0.
        -24    2    4    4    0    0  0.19116627219E+03  0.47591263219E+03  0.35527323021E+02  0.52034029608E+03  0.80339628747E+02 0.  0.
         24    2    4    4    0    0 -0.18604933066E+03  0.22355961164E+03  0.91634944101E+03  0.96463611193E+03  0.78951105163E+02 0.  0.
         11    1    3    3    0    0  0.10027691282E+02 -0.52203613565E+03  0.22097373647E+03  0.56696708346E+03  0.00000000000E+00 0. -1.
        -11    1    3    3    0    0 -0.15144632805E+02 -0.17743610818E+03  0.13317309646E+03  0.22236907611E+03  0.00000000000E+00 0.  1.
          2    1    6    6  502    0 -0.13224843309E+03  0.16539508838E+03  0.76541455723E+03  0.79416914303E+03  0.00000000000E+00 0. -1.
          1    1    5    5  503    0  0.69009428071E+02  0.27460791027E+03  0.30877350164E+02  0.28482488708E+03  0.00000000000E+00 0. -1.
         -2    1    5    5    0  503  0.12215684412E+03  0.20130472192E+03  0.46499728567E+01  0.23551540900E+03  0.00000000000E+00 0.  1.
         -1    1    6    6    0  502 -0.53800897575E+02  0.58164523267E+02  0.15093488378E+03  0.17046696890E+03  0.00000000000E+00 0.  1.
<mgrwt>
<rscale>  0 0.18619345E+04</rscale>
<asrwt>0</asrwt>
<pdfrwt beam="1">  1        2 0.74483768E-01 0.18619345E+04</pdfrwt>
<pdfrwt beam="2">  1       -2 0.27541047E+00 0.18619345E+04</pdfrwt>
<totfact> 0.26991410E+00</totfact>
</mgrwt>
</event>
<event>
12    1  0.2588309E-007  0.1142788E+04  0.7818608E-02  0.9164463E-01
          1   -1    0    0  501    0  0.00000000000E+00  0.00000000000E+00  0.18282225487E+04  0.18282225487E+04  0.00000000000E+00 0. -1.
         -1   -1    0    0    0  501 -0.00000000000E+00 -0.00000000000E+00 -0.17858397208E+03  0.17858397208E+03  0.00000000000E+00 0.  1.
         23    2    1    2    0    0 -0.17973795886E+03 -0.18486241493E+02  0.17016258312E+03  0.26460143992E+03  0.91712280181E+02 0.  0.
        254    2    1    2    0    0  0.17973795886E+03  0.18486241493E+02  0.14794759935E+04  0.17422050809E+04  0.90209858301E+03 0.  0.
        -24    2    4    4    0    0  0.31245466144E+03  0.32676132743E+03  0.12392589837E+04  0.13216448822E+04  0.81126355489E+02 0.  0.
         24    2    4    4    0    0 -0.13271670259E+03 -0.30827508594E+03  0.24021700984E+03  0.42056019865E+03  0.80742907521E+02 0.  0.
         11    1    3    3    0    0 -0.59856649680E+02  0.34175192010E+02  0.38660312863E+02  0.79027729630E+02  0.00000000000E+00 0.  1.
        -11    1    3    3    0    0 -0.11988130918E+03 -0.52661433503E+02  0.13150227026E+03  0.18557371029E+03  0.00000000000E+00 0. -1.
          4    1    6    6  502    0 -0.12142020185E+03 -0.26597512824E+03  0.23751441230E+03  0.37669447873E+03  0.00000000000E+00 0. -1.
          1    1    5    5  503    0  0.83569661517E+01  0.16412394653E+02  0.19570753250E+02  0.26874150485E+02  0.00000000000E+00 0. -1.
         -2    1    5    5    0  503  0.30409769529E+03  0.31034893278E+03  0.12196882304E+04  0.12947707317E+04  0.00000000000E+00 0.  1.
         -3    1    6    6    0  502 -0.11296500738E+02 -0.42299957700E+02  0.27025975445E+01  0.43865719917E+02  0.00000000000E+00 0.  1.
<mgrwt>
<rscale>  0 0.11427882E+04</rscale>
<asrwt>0</asrwt>
<pdfrwt beam="1">  1        1 0.28126500E+00 0.11427882E+04</pdfrwt>
<pdfrwt beam="2">  1       -1 0.27474458E-01 0.11427882E+04</pdfrwt>
<totfact> 0.46145040E+01</totfact>
</mgrwt>
</event>
<event>
12    1  0.2588309E-007  0.5087758E+04  0.7818608E-02  0.7815111E-01
          1   -1    0    0  501    0  0.00000000000E+00  0.00000000000E+00  0.42461584894E+04  0.42461584894E+04  0.00000000000E+00 0. -1.
         -1   -1    0    0    0  501 -0.00000000000E+00 -0.00000000000E+00 -0.15240409900E+04  0.15240409900E+04  0.00000000000E+00 0.  1.
         23    2    1    2    0    0  0.21702396302E+04  0.78751370051E+03  0.22935886090E+04  0.32556629289E+04  0.93137091239E+02 0.  0.
        254    2    1    2    0    0 -0.21702396302E+04 -0.78751370051E+03  0.42852889037E+03  0.25145365506E+04  0.89952163573E+03 0.  0.
        -24    2    4    4    0    0 -0.79305606425E+03 -0.19280547885E+03  0.58065593744E+03  0.10047262875E+04  0.78751008487E+02 0.  0.
         24    2    4    4    0    0 -0.13771835660E+04 -0.59470822166E+03 -0.15212704707E+03  0.15098102631E+04  0.77922710275E+02 0.  0.
         11    1    3    3    0    0  0.79040882323E+03  0.25875511104E+03  0.87721249439E+03  0.12088019175E+04  0.00000000000E+00 0.  1.
        -11    1    3    3    0    0  0.13798308070E+04  0.52875858946E+03  0.14163761147E+04  0.20468610114E+04  0.00000000000E+00 0. -1.
          2    1    6    6  502    0 -0.72862692274E+03 -0.30327679543E+03 -0.11769331222E+03  0.79795095271E+03  0.00000000000E+00 0. -1.
          3    1    5    5  503    0 -0.74198084318E+03 -0.16042626628E+03  0.54525745145E+03  0.93465386476E+03  0.00000000000E+00 0. -1.
         -4    1    5    5    0  503 -0.51075221073E+02 -0.32379212566E+02  0.35398485986E+02  0.70072422708E+02  0.00000000000E+00 0.  1.
         -1    1    6    6    0  502 -0.64855664326E+03 -0.29143142623E+03 -0.34433734850E+02  0.71185931040E+03  0.00000000000E+00 0.  1.
<mgrwt>
<rscale>  0 0.50877577E+04</rscale>
<asrwt>0</asrwt>
<pdfrwt beam="1">  1        1 0.65325515E+00 0.50877577E+04</pdfrwt>
<pdfrwt beam="2">  1       -1 0.23446785E+00 0.50877577E+04</pdfrwt>
<totfact> 0.36003303E-03</totfact>
</mgrwt>
</event>
<event>
12    1  0.2588309E-007  0.2012706E+04  0.7818608E-02  0.8600703E-01
          1   -1    0    0  501    0  0.00000000000E+00  0.00000000000E+00  0.13048329956E+04  0.13048329956E+04  0.00000000000E+00 0. -1.
         -1   -1    0    0    0  501 -0.00000000000E+00 -0.00000000000E+00 -0.77615026479E+03  0.77615026479E+03  0.00000000000E+00 0.  1.
         23    2    1    2    0    0 -0.22338674112E+03 -0.68970145493E+03  0.56634673934E+03  0.92443125981E+03  0.90745754180E+02 0.  0.
        254    2    1    2    0    0  0.22338674112E+03  0.68970145493E+03 -0.37664008487E+02  0.11565520006E+04  0.90033561496E+03 0.  0.
        -24    2    4    4    0    0 -0.14657673377E+03 -0.14594111739E+03 -0.86259992091E+02  0.23786340495E+03  0.79716149872E+02 0.  0.
         24    2    4    4    0    0  0.36996347489E+03  0.83564257232E+03  0.48595983604E+02  0.91868859567E+03  0.80347276023E+02 0.  0.
         13    1    3    3    0    0 -0.20962894356E+03 -0.52439562745E+03  0.44000305417E+03  0.71591742244E+03  0.00000000000E+00 0. -1.
        -13    1    3    3    0    0 -0.13757797564E+02 -0.16530582748E+03  0.12634368517E+03  0.20851383737E+03  0.00000000000E+00 0.  1.
          4    1    6    6  502    0  0.26677659305E+03  0.64376758126E+03  0.69883516274E+01  0.69688972323E+03  0.00000000000E+00 0. -1.
          1    1    5    5  503    0 -0.15436049364E+03 -0.13104201434E+03 -0.88361179014E+02  0.22092276813E+03  0.00000000000E+00 0. -1.
         -2    1    5    5    0  503  0.77837598724E+01 -0.14899103051E+02  0.21011869229E+01  0.16940636823E+02  0.00000000000E+00 0.  1.
         -3    1    6    6    0  502  0.10318688184E+03  0.19187499106E+03  0.41607631976E+02  0.22179887244E+03  0.00000000000E+00 0.  1.
<mgrwt>
<rscale>  0 0.20127061E+04</rscale>
<asrwt>0</asrwt>
<pdfrwt beam="1">  1        1 0.20074354E+00 0.20127061E+04</pdfrwt>
<pdfrwt beam="2">  1       -1 0.11940773E+00 0.20127061E+04</pdfrwt>
<totfact> 0.52111573E+00</totfact>
</mgrwt>
</event>
<event>
12    1  0.2588309E-007  0.1850454E+04  0.7818608E-02  0.8679919E-01
          1   -1    0    0  501    0  0.00000000000E+00  0.00000000000E+00  0.15712041870E+04  0.15712041870E+04  0.00000000000E+00 0. -1.
         -1   -1    0    0    0  501 -0.00000000000E+00 -0.00000000000E+00 -0.54483381545E+03  0.54483381545E+03  0.00000000000E+00 0.  1.
         23    2    1    2    0    0 -0.42841333382E+03 -0.46886310615E+03  0.74052983801E+03  0.97956019296E+03  0.88222070656E+02 0.  0.
        254    2    1    2    0    0  0.42841333382E+03  0.46886310615E+03  0.28584053356E+03  0.11364778095E+04  0.89805701599E+03 0.  0.
        -24    2    4    4    0    0  0.39758749847E+02  0.64268415303E+03  0.69406679186E+02  0.65259450846E+03  0.80241053214E+02 0.  0.
         24    2    4    4    0    0  0.38865458397E+03 -0.17382104687E+03  0.21643385437E+03  0.48388330104E+03  0.77674279700E+02 0.  0.
         11    1    3    3    0    0 -0.28504871602E+03 -0.24840512137E+03  0.42661151367E+03  0.57004847024E+03  0.00000000000E+00 0.  1.
        -11    1    3    3    0    0 -0.14336461780E+03 -0.22045798479E+03  0.31391832434E+03  0.40951172272E+03  0.00000000000E+00 0. -1.
          2    1    6    6  502    0  0.26003243452E+03 -0.89228601384E+02  0.16938176537E+03  0.32290678647E+03  0.00000000000E+00 0. -1.
          1    1    5    5  503    0 -0.98791966284E+01  0.42215351570E+03  0.32085476472E+02  0.42348632463E+03  0.00000000000E+00 0. -1.
         -2    1    5    5    0  503  0.49637946476E+02  0.22053063733E+03  0.37321202714E+02  0.22910818384E+03  0.00000000000E+00 0.  1.
         -1    1    6    6    0  502  0.12862214945E+03 -0.84592445489E+02  0.47052088999E+02  0.16097651457E+03  0.00000000000E+00 0.  1.
<mgrwt>
<rscale>  0 0.18504542E+04</rscale>
<asrwt>0</asrwt>
<pdfrwt beam="1">  1        1 0.24172372E+00 0.18504542E+04</pdfrwt>
<pdfrwt beam="2">  1       -1 0.83820588E-01 0.18504542E+04</pdfrwt>
<totfact> 0.77434840E+00</totfact>
</mgrwt>
</event>
<event>
12    1  0.2588309E-007  0.1921908E+04  0.7818608E-02  0.8644027E-01
          2   -1    0    0  501    0  0.00000000000E+00  0.00000000000E+00  0.13209024446E+04  0.13209024446E+04  0.00000000000E+00 0. -1.
         -2   -1    0    0    0  501 -0.00000000000E+00 -0.00000000000E+00 -0.69909251746E+03  0.69909251746E+03  0.00000000000E+00 0.  1.
         23    2    1    2    0    0  0.45806893304E+03  0.51301500885E+03  0.54934489976E+03  0.88515364879E+03  0.93303892538E+02 0.  0.
        254    2    1    2    0    0 -0.45806893304E+03 -0.51301500885E+03  0.72465027337E+02  0.11348413132E+04  0.89977890579E+03 0.  0.
        -24    2    4    4    0    0 -0.44492351784E+03  0.12007350710E+03 -0.88753562615E+02  0.47670393536E+03  0.83635299257E+02 0.  0.
         24    2    4    4    0    0 -0.13145415204E+02 -0.63308851595E+03  0.16121858995E+03  0.65813737787E+03  0.78609817650E+02 0.  0.
         11    1    3    3    0    0  0.12931740114E+03  0.13880462025E+03  0.20677528002E+03  0.28061669456E+03  0.00000000000E+00 0. -1.
        -11    1    3    3    0    0  0.32875153190E+03  0.37421038860E+03  0.34256961973E+03  0.60453695423E+03  0.00000000000E+00 0.  1.
          2    1    6    6  502    0  0.73444880662E+01 -0.34692655743E+03  0.12562071492E+03  0.36904273705E+03  0.00000000000E+00 0. -1.
          1    1    5    5  503    0 -0.34789951870E+03  0.57465624427E+02 -0.74000330311E+02  0.36029490975E+03  0.00000000000E+00 0. -1.
         -2    1    5    5    0  503 -0.97023999133E+02  0.62607882677E+02 -0.14753232304E+02  0.11640902561E+03  0.00000000000E+00 0.  1.
         -1    1    6    6    0  502 -0.20489903271E+02 -0.28616195852E+03  0.35597875032E+02  0.28909464082E+03  0.00000000000E+00 0.  1.
<mgrwt>
<rscale>  0 0.19219084E+04</rscale>
<asrwt>0</asrwt>
<pdfrwt beam="1">  1        2 0.20321576E+00 0.19219084E+04</pdfrwt>
<pdfrwt beam="2">  1       -2 0.10755270E+00 0.19219084E+04</pdfrwt>
<totfact> 0.10427845E+01</totfact>
</mgrwt>
</event>
<event>
12    1  0.2588309E-007  0.3091303E+04  0.7818608E-02  0.8218129E-01
          1   -1    0    0  501    0  0.00000000000E+00  0.00000000000E+00  0.14845389204E+04  0.14845389204E+04  0.00000000000E+00 0. -1.
         -1   -1    0    0    0  501 -0.00000000000E+00 -0.00000000000E+00 -0.16092798208E+04  0.16092798208E+04  0.00000000000E+00 0.  1.
         23    2    1    2    0    0 -0.51155988979E+03  0.10958357509E+04 -0.78850204255E+03  0.14465650142E+04  0.90914000199E+02 0.  0.
        254    2    1    2    0    0  0.51155988979E+03 -0.10958357509E+04  0.66376114221E+03  0.16472537270E+04  0.90017580145E+03 0.  0.
        -24    2    4    4    0    0  0.54299483088E+03 -0.51720308583E+03  0.74072909425E+03  0.10570869920E+04  0.80068091199E+02 0.  0.
         24    2    4    4    0    0 -0.31434941095E+02 -0.57863266506E+03 -0.76967952039E+02  0.59016673503E+03  0.81048089992E+02 0.  0.
         13    1    3    3    0    0 -0.20559449507E+03  0.46209262499E+03 -0.38242985569E+03  0.63407514145E+03  0.00000000000E+00 0.  1.
        -13    1    3    3    0    0 -0.30596539471E+03  0.63374312590E+03 -0.40607218686E+03  0.81248987275E+03  0.00000000000E+00 0. -1.
          4    1    6    6  502    0  0.25447190979E+02 -0.27180135520E+03 -0.31141335885E+02  0.27476047572E+03  0.00000000000E+00 0. -1.
          1    1    5    5  503    0  0.69617141941E+02 -0.33710634260E+02  0.82735945852E+02  0.11326160007E+03  0.00000000000E+00 0. -1.
         -2    1    5    5    0  503  0.47337768894E+03 -0.48349245157E+03  0.65799314840E+03  0.94382539193E+03  0.00000000000E+00 0.  1.
         -3    1    6    6    0  502 -0.56882132074E+02 -0.30683130987E+03 -0.45826616154E+02  0.31540625931E+03  0.00000000000E+00 0.  1.
<mgrwt>
<rscale>  0 0.30913030E+04</rscale>
<asrwt>0</asrwt>
<pdfrwt beam="1">  1        1 0.22839060E+00 0.30913030E+04</pdfrwt>
<pdfrwt beam="2">  1       -1 0.24758151E+00 0.30913030E+04</pdfrwt>
<totfact> 0.40942552E-01</totfact>
</mgrwt>
</event>
<event>
12    1  0.2588309E-007  0.2057487E+04  0.7818608E-02  0.8580205E-01
          1   -1    0    0  501    0  0.00000000000E+00  0.00000000000E+00  0.17261930351E+04  0.17261930351E+04  0.00000000000E+00 0. -1.
         -1   -1    0    0    0  501 -0.00000000000E+00 -0.00000000000E+00 -0.61309114886E+03  0.61309114886E+03  0.00000000000E+00 0.  1.
         23    2    1    2    0    0  0.80912874962E+03  0.19194707907E+03  0.41398980177E+03  0.93343561370E+03  0.91550392303E+02 0.  0.
        254    2    1    2    0    0 -0.80912874962E+03 -0.19194707907E+03  0.69911208443E+03  0.14058485702E+04  0.89225527802E+03 0.  0.
        -24    2    4    4    0    0 -0.52489056507E+03 -0.49835071817E+03  0.65227771714E+03  0.97773130938E+03  0.81417132425E+02 0.  0.
         24    2    4    4    0    0 -0.28423818455E+03  0.30640363910E+03  0.46834367285E+02  0.42811726084E+03  0.80102406079E+02 0.  0.
         11    1    3    3    0    0  0.77145857861E+02  0.45671715120E+02  0.34570316020E+02  0.96085876677E+02  0.00000000000E+00 0.  1.
        -11    1    3    3    0    0  0.73198289176E+03  0.14627536394E+03  0.37941948575E+03  0.83734973702E+03  0.00000000000E+00 0. -1.
          2    1    6    6  502    0 -0.64406460994E+02  0.61102224244E+02  0.43139392400E+02  0.98705021159E+02  0.00000000000E+00 0. -1.
          1    1    5    5  503    0 -0.20480356532E+03 -0.16915174312E+03  0.28646852176E+03  0.39066741165E+03  0.00000000000E+00 0. -1.
         -2    1    5    5    0  503 -0.32008699975E+03 -0.32919897505E+03  0.36580919538E+03  0.58706389772E+03  0.00000000000E+00 0.  1.
         -1    1    6    6    0  502 -0.21983172355E+03  0.24530141486E+03  0.36949748850E+01  0.32941223968E+03  0.00000000000E+00 0.  1.
<mgrwt>
<rscale>  0 0.20574875E+04</rscale>
<asrwt>0</asrwt>
<pdfrwt beam="1">  1        1 0.26556816E+00 0.20574875E+04</pdfrwt>
<pdfrwt beam="2">  1       -1 0.94321716E-01 0.20574875E+04</pdfrwt>
<totfact> 0.45935605E+00</totfact>
</mgrwt>
</event>
<event>
12    1  0.2588309E-007  0.3017795E+04  0.7818608E-02  0.8238667E-01
          2   -1    0    0  501    0  0.00000000000E+00  0.00000000000E+00  0.77413122742E+03  0.77413122742E+03  0.00000000000E+00 0. -1.
         -2   -1    0    0    0  501 -0.00000000000E+00 -0.00000000000E+00 -0.29410675603E+04  0.29410675603E+04  0.00000000000E+00 0.  1.
         23    2    1    2    0    0  0.94842912416E+03 -0.92519223011E+03 -0.14365875116E+04  0.19564280833E+04  0.91261712386E+02 0.  0.
        254    2    1    2    0    0 -0.94842912416E+03  0.92519223011E+03 -0.73034882125E+03  0.17587707045E+04  0.89686483040E+03 0.  0.
        -24    2    4    4    0    0 -0.45196784318E+03  0.44486769239E+03  0.13031229537E+03  0.65224338677E+03  0.79107182120E+02 0.  0.
         24    2    4    4    0    0 -0.49646128098E+03  0.48032453772E+03 -0.86066111662E+03  0.11065273177E+04  0.80496472721E+02 0.  0.
         11    1    3    3    0    0  0.78457845700E+03 -0.73521401073E+03 -0.11214649671E+04  0.15536365950E+04  0.00000000000E+00 0.  1.
        -11    1    3    3    0    0  0.16385066715E+03 -0.18997821938E+03 -0.31512254455E+03  0.40279148830E+03  0.00000000000E+00 0. -1.
          4    1    6    6  502    0 -0.35784545149E+03  0.30136314564E+03 -0.61064173817E+03  0.76925707348E+03  0.00000000000E+00 0. -1.
          1    1    5    5  503    0 -0.14218328866E+03  0.19183076804E+03  0.38710443419E+02  0.24189590648E+03  0.00000000000E+00 0. -1.
         -2    1    5    5    0  503 -0.30978455451E+03  0.25303692434E+03  0.91601851951E+02  0.41034748029E+03  0.00000000000E+00 0.  1.
         -3    1    6    6    0  502 -0.13861582949E+03  0.17896139209E+03 -0.25001937845E+03  0.33727024423E+03  0.00000000000E+00 0.  1.
<mgrwt>
<rscale>  0 0.30177954E+04</rscale>
<asrwt>0</asrwt>
<pdfrwt beam="1">  1        2 0.11909712E+00 0.30177954E+04</pdfrwt>
<pdfrwt beam="2">  1       -2 0.45247192E+00 0.30177954E+04</pdfrwt>
<totfact> 0.10264094E-01</totfact>
</mgrwt>
</event>
<event>
12    1  0.2588309E-007  0.2085062E+04  0.7818608E-02  0.8567852E-01
         -1   -1    0    0    0  501 -0.00000000000E+00  0.00000000000E+00  0.13582320239E+04  0.13582320239E+04  0.00000000000E+00 0.  1.
          1   -1    0    0  501    0  0.00000000000E+00 -0.00000000000E+00 -0.80020994582E+03  0.80020994582E+03  0.00000000000E+00 0. -1.
         23    2    1    2    0    0  0.36816043127E+03 -0.72356035639E+03  0.47331840436E+03  0.94412691210E+03  0.90904464975E+02 0.  0.
        254    2    1    2    0    0 -0.36816043127E+03  0.72356035639E+03  0.84703673680E+02  0.12143150576E+04  0.89905764789E+03 0.  0.
        -24    2    4    4    0    0 -0.35664885257E+03  0.91926712523E+03  0.73890126379E+01  0.98921980278E+03  0.79061805834E+02 0.  0.
         24    2    4    4    0    0 -0.11511578700E+02 -0.19570676884E+03  0.77314661042E+02  0.22509525480E+03  0.79099058823E+02 0.  0.
         13    1    3    3    0    0  0.12521155351E+03 -0.34573812165E+03  0.21114269321E+03  0.42402124804E+03  0.00000000000E+00 0.  1.
        -13    1    3    3    0    0  0.24294887776E+03 -0.37782223474E+03  0.26217571115E+03  0.52010566406E+03  0.00000000000E+00 0. -1.
          2    1    6    6  502    0  0.19789586287E+02 -0.63501749319E+02  0.57254993171E+02  0.87762373116E+02  0.00000000000E+00 0. -1.
          3    1    5    5  503    0 -0.15984297935E+03  0.36372068392E+03  0.37603260797E+02  0.39906956684E+03  0.00000000000E+00 0. -1.
         -4    1    5    5    0  503 -0.19680587322E+03  0.55554644131E+03 -0.30214248159E+02  0.59015023594E+03  0.00000000000E+00 0.  1.
         -1    1    6    6    0  502 -0.31301164987E+02 -0.13220501952E+03  0.20059667871E+02  0.13733288168E+03  0.00000000000E+00 0.  1.
<mgrwt>
<rscale>  0 0.20850619E+04</rscale>
<asrwt>0</asrwt>
<pdfrwt beam="1">  1        1 0.12310922E+00 0.20850619E+04</pdfrwt>
<pdfrwt beam="2">  1       -1 0.20895877E+00 0.20850619E+04</pdfrwt>
<totfact> 0.26590326E+00</totfact>
</mgrwt>
</event>
<event>
12    1  0.2588309E-007  0.3594101E+04  0.7818608E-02  0.8091844E-01
          1   -1    0    0  501    0  0.00000000000E+00  0.00000000000E+00  0.45029443369E+04  0.45029443369E+04  0.00000000000E+00 0. -1.
         -1   -1    0    0    0  501 -0.00000000000E+00 -0.00000000000E+00 -0.71717293541E+03  0.71717293541E+03  0.00000000000E+00 0.  1.
         23    2    1    2    0    0 -0.51333955295E+03 -0.16011844082E+04  0.16734165978E+04  0.23740087845E+04  0.91025232779E+02 0.  0.
        254    2    1    2    0    0  0.51333955295E+03  0.16011844082E+04  0.21123548036E+04  0.28461084878E+04  0.90054522505E+03 0.  0.
        -24    2    4    4    0    0 -0.17382235566E+03  0.35864471916E+02  0.18025817930E+03  0.26505567176E+03  0.79126646932E+02 0.  0.
         24    2    4    4    0    0  0.68716190861E+03  0.15653199363E+04  0.19320966243E+04  0.25810528160E+04  0.80114180789E+02 0.  0.
         13    1    3    3    0    0 -0.20294651936E+03 -0.58732242959E+03  0.56016741477E+03  0.83661368539E+03  0.00000000000E+00 0.  1.
        -13    1    3    3    0    0 -0.31039303359E+03 -0.10138619786E+04  0.11132491831E+04  0.15373950991E+04  0.00000000000E+00 0. -1.
          2    1    6    6  502    0  0.24424134124E+03  0.47618803705E+03  0.63238494675E+03  0.82844408398E+03  0.00000000000E+00 0. -1.
          1    1    5    5  503    0 -0.37496021458E+02  0.43916232678E+02  0.54997026386E+02  0.79744968675E+02  0.00000000000E+00 0. -1.
         -2    1    5    5    0  503 -0.13632633421E+03 -0.80517607615E+01  0.12526115291E+03  0.18531070309E+03  0.00000000000E+00 0.  1.
         -1    1    6    6    0  502  0.44292056737E+03  0.10891318993E+04  0.12997116775E+04  0.17526087321E+04  0.00000000000E+00 0.  1.
<mgrwt>
<rscale>  0 0.35941006E+04</rscale>
<asrwt>0</asrwt>
<pdfrwt beam="1">  1        1 0.69276065E+00 0.35941006E+04</pdfrwt>
<pdfrwt beam="2">  1       -1 0.11033430E+00 0.35941006E+04</pdfrwt>
<totfact> 0.19535055E-02</totfact>
</mgrwt>
</event>
<event>
12    1  0.2588309E-007  0.2192659E+04  0.7818608E-02  0.8521490E-01
          2   -1    0    0  501    0  0.00000000000E+00  0.00000000000E+00  0.40529799820E+04  0.40529799820E+04  0.00000000000E+00 0.  1.
         -2   -1    0    0    0  501 -0.00000000000E+00 -0.00000000000E+00 -0.29655667422E+03  0.29655667422E+03  0.00000000000E+00 0. -1.
         23    2    1    2    0    0 -0.39795584544E+03 -0.62856353904E+03  0.26008894564E+04  0.27066484667E+04  0.88650889936E+02 0.  0.
        254    2    1    2    0    0  0.39795584544E+03  0.62856353904E+03  0.11555338514E+04  0.16428881895E+04  0.90020116867E+03 0.  0.
        -24    2    4    4    0    0  0.60688662024E+03  0.35425147595E+03  0.10630982160E+04  0.12768212582E+04  0.79304669463E+02 0.  0.
         24    2    4    4    0    0 -0.20893077480E+03  0.27431206309E+03  0.92435635349E+02  0.36606693127E+03  0.81002931227E+02 0.  0.
         13    1    3    3    0    0 -0.31216175217E+03 -0.54668737291E+03  0.21327340314E+04  0.22237055767E+04  0.00000000000E+00 0. -1.
        -13    1    3    3    0    0 -0.85794093268E+02 -0.81876166129E+02  0.46815542502E+03  0.48294288999E+03  0.00000000000E+00 0.  1.
          2    1    6    6  502    0 -0.38087606110E+02  0.93230282721E+02  0.53652837140E+02  0.11411037766E+03  0.00000000000E+00 0. -1.
          1    1    5    5  503    0  0.75004079607E+02  0.24280758829E+02  0.15513210112E+03  0.17401475801E+03  0.00000000000E+00 0. -1.
         -2    1    5    5    0  503  0.53188254063E+03  0.32997071712E+03  0.90796611488E+03  0.11028065002E+04  0.00000000000E+00 0.  1.
         -1    1    6    6    0  502 -0.17084316869E+03  0.18108178037E+03  0.38782798209E+02  0.25195655361E+03  0.00000000000E+00 0.  1.
<mgrwt>
<rscale>  0 0.21926589E+04</rscale>
<asrwt>0</asrwt>
<pdfrwt beam="1">  1        2 0.62353534E+00 0.21926589E+04</pdfrwt>
<pdfrwt beam="2">  1       -2 0.45624107E-01 0.21926589E+04</pdfrwt>
<totfact> 0.13001852E+00</totfact>
</mgrwt>
</event>
<event>
12    1  0.2588309E-007  0.3435305E+04  0.7818608E-02  0.8129295E-01
          1   -1    0    0  501    0  0.00000000000E+00  0.00000000000E+00  0.96127423751E+03  0.96127423751E+03  0.00000000000E+00 0. -1.
         -1   -1    0    0    0  501 -0.00000000000E+00 -0.00000000000E+00 -0.30691862244E+04  0.30691862244E+04  0.00000000000E+00 0.  1.
         23    2    1    2    0    0 -0.39580063875E+03  0.14666223360E+04 -0.15654251646E+04  0.21832656838E+04  0.91944970504E+02 0.  0.
        254    2    1    2    0    0  0.39580063875E+03 -0.14666223360E+04 -0.54248682224E+03  0.18471947781E+04  0.90010964544E+03 0.  0.
        -24    2    4    4    0    0  0.16751524849E+03 -0.54347540322E+03  0.23066694756E+03  0.61904490887E+03  0.81132521941E+02 0.  0.
         24    2    4    4    0    0  0.22828539025E+03 -0.92314693283E+03 -0.77315376980E+03  0.12281498693E+04  0.79188828841E+02 0.  0.
         11    1    3    3    0    0 -0.32033219878E+03  0.11575469191E+04 -0.11834216912E+04  0.16861241018E+04  0.00000000000E+00 0. -1.
        -11    1    3    3    0    0 -0.75468439968E+02  0.30907541691E+03 -0.38200347341E+03  0.49714158191E+03  0.00000000000E+00 0.  1.
          4    1    6    6  502    0  0.11997469872E+03 -0.50061457416E+03 -0.36774722384E+03  0.63265069417E+03  0.00000000000E+00 0. -1.
          1    1    5    5  503    0  0.76595170457E+02 -0.13325394518E+03  0.49475008099E+02  0.16146581827E+03  0.00000000000E+00 0. -1.
         -2    1    5    5    0  503  0.90920078035E+02 -0.41022145804E+03  0.18119193946E+03  0.45757909060E+03  0.00000000000E+00 0.  1.
         -3    1    6    6    0  502  0.10831069154E+03 -0.42253235866E+03 -0.40540654596E+03  0.59549917508E+03  0.00000000000E+00 0.  1.
<mgrwt>
<rscale>  0 0.34353047E+04</rscale>
<asrwt>0</asrwt>
<pdfrwt beam="1">  1        1 0.14788835E+00 0.34353047E+04</pdfrwt>
<pdfrwt beam="2">  1       -1 0.47218249E+00 0.34353047E+04</pdfrwt>
<totfact> 0.30341527E-02</totfact>
</mgrwt>
</event>
<event>
12    1  0.2588309E-007  0.2704972E+04  0.7818608E-02  0.8333394E-01
         -2   -1    0    0    0  501 -0.00000000000E+00  0.00000000000E+00  0.64282695185E+03  0.64282695185E+03  0.00000000000E+00 0.  1.
          2   -1    0    0  501    0  0.00000000000E+00 -0.00000000000E+00 -0.28455845876E+04  0.28455845876E+04  0.00000000000E+00 0. -1.
         23    2    1    2    0    0  0.44786215217E+02  0.12737432428E+03 -0.25191882362E+04  0.25244215317E+04  0.90358598910E+02 0.  0.
        254    2    1    2    0    0 -0.44786215217E+02 -0.12737432428E+03  0.31643060046E+03  0.96399000780E+03  0.90051007028E+03 0.  0.
        -24    2    4    4    0    0 -0.42485841912E+03 -0.25223051728E+03  0.13814132852E+03  0.51925164954E+03  0.80089567107E+02 0.  0.
         24    2    4    4    0    0  0.38007220391E+03  0.12485619300E+03  0.17828927193E+03  0.44473835826E+03  0.77208767046E+02 0.  0.
         11    1    3    3    0    0 -0.15563688502E+02  0.44747951511E+02 -0.13286866940E+04  0.13295310972E+04  0.00000000000E+00 0. -1.
        -11    1    3    3    0    0  0.60349903719E+02  0.82626372766E+02 -0.11905015422E+04  0.11948904345E+04  0.00000000000E+00 0.  1.
          2    1    6    6  502    0  0.27882496138E+03  0.12467634289E+03  0.12198889690E+03  0.32889031687E+03  0.00000000000E+00 0. -1.
          3    1    5    5  503    0 -0.22695242589E+03 -0.16437421878E+03  0.10939384618E+03  0.30082104481E+03  0.00000000000E+00 0. -1.
         -4    1    5    5    0  503 -0.19790599324E+03 -0.87856298496E+02  0.28747482345E+02  0.21843060474E+03  0.00000000000E+00 0.  1.
         -1    1    6    6    0  502  0.10124724253E+03  0.17985011635E+00  0.56300375031E+02  0.11584804139E+03  0.00000000000E+00 0.  1.
<mgrwt>
<rscale>  0 0.27049721E+04</rscale>
<asrwt>0</asrwt>
<pdfrwt beam="1">  1        2 0.43778225E+00 0.27049721E+04</pdfrwt>
<pdfrwt beam="2">  1       -2 0.98896453E-01 0.27049721E+04</pdfrwt>
<totfact> 0.16127802E+00</totfact>
</mgrwt>
</event>
<event>
12    1  0.2588309E-007  0.2072849E+04  0.7818608E-02  0.8573299E-01
         -2   -1    0    0    0  501 -0.00000000000E+00  0.00000000000E+00  0.47881213006E+03  0.47881213006E+03  0.00000000000E+00 0.  1.
          2   -1    0    0  501    0  0.00000000000E+00 -0.00000000000E+00 -0.22434172694E+04  0.22434172694E+04  0.00000000000E+00 0. -1.
         23    2    1    2    0    0  0.24645753185E+03  0.76958693076E+03 -0.10059853112E+04  0.12936762027E+04  0.92662355024E+02 0.  0.
        254    2    1    2    0    0 -0.24645753185E+03 -0.76958693076E+03 -0.75861982820E+03  0.14285531968E+04  0.90125181467E+03 0.  0.
        -24    2    4    4    0    0 -0.69440745328E+00 -0.38032245042E+03  0.14215257602E+03  0.41378296507E+03  0.79770538489E+02 0.  0.
         24    2    4    4    0    0 -0.24576312440E+03 -0.38926448034E+03 -0.90077240422E+03  0.10147702318E+04  0.80258022075E+02 0.  0.
         11    1    3    3    0    0  0.14757913293E+03  0.52076462995E+03 -0.60822820013E+03  0.81419711601E+03  0.00000000000E+00 0.  1.
        -11    1    3    3    0    0  0.98878398921E+02  0.24882230081E+03 -0.39775711106E+03  0.47947908667E+03  0.00000000000E+00 0. -1.
          4    1    6    6  502    0 -0.38192387003E+02 -0.75376015560E+02 -0.10724241865E+03  0.13653255474E+03  0.00000000000E+00 0. -1.
          3    1    5    5  503    0  0.17833799552E+02 -0.10905882482E+03  0.75502139028E+02  0.13383738146E+03  0.00000000000E+00 0. -1.
         -4    1    5    5    0  503 -0.18528207005E+02 -0.27126362560E+03  0.66650436995E+02  0.27994558361E+03  0.00000000000E+00 0.  1.
         -3    1    6    6    0  502 -0.20757073740E+03 -0.31388846478E+03 -0.79352998557E+03  0.87823767703E+03  0.00000000000E+00 0.  1.
<mgrwt>
<rscale>  0 0.20728487E+04</rscale>
<asrwt>0</asrwt>
<pdfrwt beam="1">  1        2 0.34514112E+00 0.20728487E+04</pdfrwt>
<pdfrwt beam="2">  1       -2 0.73663404E-01 0.20728487E+04</pdfrwt>
<totfact> 0.74905945E+00</totfact>
</mgrwt>
</event>
<event>
12    1  0.2588309E-007  0.3142769E+04  0.7818608E-02  0.8204097E-01
          2   -1    0    0  501    0  0.00000000000E+00  0.00000000000E+00  0.12010957242E+04  0.12010957242E+04  0.00000000000E+00 0. -1.
         -2   -1    0    0    0  501 -0.00000000000E+00 -0.00000000000E+00 -0.20558304325E+04  0.20558304325E+04  0.00000000000E+00 0.  1.
         23    2    1    2    0    0  0.58750093230E+03 -0.54240009646E+03 -0.16349540415E+04  0.18224849714E+04  0.94981803739E+02 0.  0.
        254    2    1    2    0    0 -0.58750093230E+03  0.54240009646E+03  0.78021933326E+03  0.14344411853E+04  0.89973556997E+03 0.  0.
        -24    2    4    4    0    0 -0.60338118750E+03  0.75610371637E+03  0.68008886039E+03  0.11851567152E+04  0.79460016352E+02 0.  0.
         24    2    4    4    0    0  0.15880255200E+02 -0.21370361990E+03  0.10013047287E+03  0.24928447007E+03  0.78709692879E+02 0.  0.
         13    1    3    3    0    0  0.17099574077E+01 -0.13450488723E+02 -0.13464730775E+02  0.19108599532E+02  0.00000000000E+00 0. -1.
        -13    1    3    3    0    0  0.58579097489E+03 -0.52894960774E+03 -0.16214893107E+04  0.18033763719E+04  0.00000000000E+00 0.  1.
          4    1    6    6  502    0 -0.30520696939E+02 -0.54873161302E+02  0.29391137799E+02  0.69328318557E+02  0.00000000000E+00 0. -1.
          1    1    5    5  503    0 -0.20516974179E+03  0.28705403882E+03  0.28908266086E+03  0.45613970333E+03  0.00000000000E+00 0. -1.
         -2    1    5    5    0  503 -0.39821144571E+03  0.46904967755E+03  0.39100619953E+03  0.72901701185E+03  0.00000000000E+00 0.  1.
         -3    1    6    6    0  502  0.46400952139E+02 -0.15883045860E+03  0.70739335072E+02  0.17995615151E+03  0.00000000000E+00 0.  1.
<mgrwt>
<rscale>  0 0.31427689E+04</rscale>
<asrwt>0</asrwt>
<pdfrwt beam="1">  1        2 0.18478396E+00 0.31427689E+04</pdfrwt>
<pdfrwt beam="2">  1       -2 0.31628160E+00 0.31427689E+04</pdfrwt>
<totfact> 0.40384282E-01</totfact>
</mgrwt>
</event>
<event>
12    1  0.2588309E-007  0.1702841E+04  0.7818608E-02  0.8759746E-01
          1   -1    0    0  501    0  0.00000000000E+00  0.00000000000E+00  0.20414130794E+04  0.20414130794E+04  0.00000000000E+00 0. -1.
         -1   -1    0    0    0  501 -0.00000000000E+00 -0.00000000000E+00 -0.35510523767E+03  0.35510523767E+03  0.00000000000E+00 0.  1.
         23    2    1    2    0    0  0.54797463423E+03 -0.25332299196E+03  0.71550383374E+03  0.94052219702E+03  0.90484965475E+02 0.  0.
        254    2    1    2    0    0 -0.54797463423E+03  0.25332299196E+03  0.97080400797E+03  0.14559961200E+04  0.90167374458E+03 0.  0.
        -24    2    4    4    0    0 -0.37664757332E+03 -0.24740500419E+03  0.16138953429E+03  0.48576394484E+03  0.82749004475E+02 0.  0.
         24    2    4    4    0    0 -0.17132706091E+03  0.50072799615E+03  0.80941447368E+03  0.97023217520E+03  0.78212503226E+02 0.  0.
         11    1    3    3    0    0  0.43013230989E+03 -0.16389261234E+03  0.57447513692E+03  0.73613604404E+03  0.00000000000E+00 0.  1.
        -11    1    3    3    0    0  0.11784232434E+03 -0.89430379618E+02  0.14102869682E+03  0.20438615298E+03  0.00000000000E+00 0. -1.
          4    1    6    6  502    0 -0.79729889333E+02  0.34459076579E+03  0.54956569558E+03  0.65354579402E+03  0.00000000000E+00 0. -1.
          3    1    5    5  503    0 -0.28728094695E+03 -0.14562065766E+03  0.12524796474E+03  0.34557599901E+03  0.00000000000E+00 0. -1.
         -4    1    5    5    0  503 -0.89366626364E+02 -0.10178434653E+03  0.36141569553E+02  0.14018794583E+03  0.00000000000E+00 0.  1.
         -3    1    6    6    0  502 -0.91597171576E+02  0.15613723036E+03  0.25984877809E+03  0.31668638118E+03  0.00000000000E+00 0.  1.
<mgrwt>
<rscale>  0 0.17028405E+04</rscale>
<asrwt>0</asrwt>
<pdfrwt beam="1">  1        1 0.31406354E+00 0.17028405E+04</pdfrwt>
<pdfrwt beam="2">  1       -1 0.54631576E-01 0.17028405E+04</pdfrwt>
<totfact> 0.89980770E+00</totfact>
</mgrwt>
</event>
<event>
12    1  0.2588309E-007  0.2297094E+04  0.7818608E-02  0.8479068E-01
          1   -1    0    0  501    0  0.00000000000E+00  0.00000000000E+00  0.13928310811E+04  0.13928310811E+04  0.00000000000E+00 0. -1.
         -1   -1    0    0    0  501 -0.00000000000E+00 -0.00000000000E+00 -0.94710729615E+03  0.94710729615E+03  0.00000000000E+00 0.  1.
         23    2    1    2    0    0 -0.40661490365E+03  0.74807370754E+03 -0.28325801320E+03  0.90190156942E+03  0.90782085736E+02 0.  0.
        254    2    1    2    0    0  0.40661490365E+03 -0.74807370754E+03  0.72898179816E+03  0.14380368078E+04  0.90088037324E+03 0.  0.
        -24    2    4    4    0    0  0.56860173550E+03 -0.83941936165E+03  0.50175045207E+03  0.11341739248E+04  0.81634412507E+02 0.  0.
         24    2    4    4    0    0 -0.16198683185E+03  0.91345654111E+02  0.22723134608E+03  0.30386288300E+03  0.78197217384E+02 0.  0.
         13    1    3    3    0    0 -0.12096735705E+03  0.24076554620E+03 -0.46625834316E+02  0.27345039429E+03  0.00000000000E+00 0.  1.
        -13    1    3    3    0    0 -0.28564754660E+03  0.50730816134E+03 -0.23663217889E+03  0.62845117513E+03  0.00000000000E+00 0. -1.
          2    1    6    6  502    0 -0.43494169954E+02 -0.66975257269E+01  0.27933431579E+02  0.52123663250E+02  0.00000000000E+00 0. -1.
          1    1    5    5  503    0  0.13847258409E+03 -0.15071453011E+03  0.86986410877E+02  0.22238741378E+03  0.00000000000E+00 0. -1.
         -2    1    5    5    0  503  0.43012915141E+03 -0.68870483154E+03  0.41476404119E+03  0.91178651106E+03  0.00000000000E+00 0.  1.
         -1    1    6    6    0  502 -0.11849266189E+03  0.98043179838E+02  0.19929791451E+03  0.25173921975E+03  0.00000000000E+00 0.  1.
<mgrwt>
<rscale>  0 0.22970942E+04</rscale>
<asrwt>0</asrwt>
<pdfrwt beam="1">  1        1 0.21428171E+00 0.22970942E+04</pdfrwt>
<pdfrwt beam="2">  1       -1 0.14570881E+00 0.22970942E+04</pdfrwt>
<totfact> 0.26505158E+00</totfact>
</mgrwt>
</event>
<event>
12    1  0.2588309E-007  0.1850671E+04  0.7818608E-02  0.8679808E-01
         -1   -1    0    0    0  501 -0.00000000000E+00  0.00000000000E+00  0.74364774037E+03  0.74364774037E+03  0.00000000000E+00 0.  1.
          1   -1    0    0  501    0  0.00000000000E+00 -0.00000000000E+00 -0.11514137240E+04  0.11514137240E+04  0.00000000000E+00 0. -1.
         23    2    1    2    0    0  0.29575413630E+03  0.31499899402E+03 -0.72443826073E+03  0.84837844322E+03  0.90776174909E+02 0.  0.
        254    2    1    2    0    0 -0.29575413630E+03 -0.31499899402E+03  0.31667227711E+03  0.10466830211E+04  0.89920472657E+03 0.  0.
        -24    2    4    4    0    0  0.89061821393E+02 -0.27465767191E+03  0.52198961478E+03  0.60189609051E+03  0.80230300138E+02 0.  0.
         24    2    4    4    0    0 -0.38481595770E+03 -0.40341322116E+02 -0.20531733767E+03  0.44478693064E+03  0.77262286740E+02 0.  0.
         13    1    3    3    0    0  0.24648018480E+03  0.25393240274E+03 -0.65067795709E+03  0.74068613494E+03  0.00000000000E+00 0. -1.
        -13    1    3    3    0    0  0.49273951504E+02  0.61066591287E+02 -0.73760303648E+02  0.10769230828E+03  0.00000000000E+00 0.  1.
          2    1    6    6  502    0 -0.73647846828E+02  0.21315476365E+02 -0.50486816807E+02  0.91800182714E+02  0.00000000000E+00 0. -1.
          3    1    5    5  503    0 -0.78078268005E+01 -0.92185148434E+02  0.14468216503E+03  0.17173232844E+03  0.00000000000E+00 0. -1.
         -4    1    5    5    0  503  0.96869648194E+02 -0.18247252347E+03  0.37730744975E+03  0.43016376207E+03  0.00000000000E+00 0.  1.
         -1    1    6    6    0  502 -0.31116811087E+03 -0.61656798481E+02 -0.15483052086E+03  0.35298674793E+03  0.00000000000E+00 0.  1.
<mgrwt>
<rscale>  0 0.18506715E+04</rscale>
<asrwt>0</asrwt>
<pdfrwt beam="1">  1        1 0.17714057E+00 0.18506715E+04</pdfrwt>
<pdfrwt beam="2">  1       -1 0.11440735E+00 0.18506715E+04</pdfrwt>
<totfact> 0.75779741E+00</totfact>
</mgrwt>
</event>
<event>
12    1  0.2588309E-007  0.2074027E+04  0.7818608E-02  0.8572772E-01
         -2   -1    0    0    0  501 -0.00000000000E+00  0.00000000000E+00  0.37769193083E+03  0.37769193083E+03  0.00000000000E+00 0.  1.
          2   -1    0    0  501    0  0.00000000000E+00 -0.00000000000E+00 -0.28472854084E+04  0.28472854084E+04  0.00000000000E+00 0. -1.
         23    2    1    2    0    0  0.34566655472E+03 -0.26205949409E+03 -0.21202742695E+04  0.21660808588E+04  0.90458627452E+02 0.  0.
        254    2    1    2    0    0 -0.34566655472E+03  0.26205949409E+03 -0.34931920799E+03  0.10588964804E+04  0.90059830203E+03 0.  0.
        -24    2    4    4    0    0  0.17567816985E+03  0.22733825666E+03 -0.43101735824E+03  0.52410962724E+03  0.79808746134E+02 0.  0.
         24    2    4    4    0    0 -0.52134472456E+03  0.34721237429E+02  0.81698150250E+02  0.53478685315E+03  0.79476439217E+02 0.  0.
         13    1    3    3    0    0  0.15602463252E+03 -0.13589679101E+03 -0.12210958925E+04  0.12385018379E+04  0.00000000000E+00 0. -1.
        -13    1    3    3    0    0  0.18964192220E+03 -0.12616270308E+03 -0.89917837704E+03  0.92757902092E+03  0.00000000000E+00 0.  1.
          2    1    6    6  502    0 -0.33895348170E+03  0.57071519938E+02  0.37290586165E+02  0.34574153491E+03  0.00000000000E+00 0. -1.
          1    1    5    5  503    0 -0.83660620495E+01  0.73367163210E+01 -0.20285068493E+02  0.23136603129E+02  0.00000000000E+00 0. -1.
         -2    1    5    5    0  503  0.18404423190E+03  0.22000154034E+03 -0.41073228975E+03  0.50097302411E+03  0.00000000000E+00 0.  1.
         -1    1    6    6    0  502 -0.18239124286E+03 -0.22350282508E+02  0.44407564085E+02  0.18904531824E+03  0.00000000000E+00 0.  1.
<mgrwt>
<rscale>  0 0.20740267E+04</rscale>
<asrwt>0</asrwt>
<pdfrwt beam="1">  1        2 0.43804391E+00 0.20740267E+04</pdfrwt>
<pdfrwt beam="2">  1       -2 0.58106450E-01 0.20740267E+04</pdfrwt>
<totfact> 0.55464198E+00</totfact>
</mgrwt>
</event>
<event>
12    1  0.2588309E-007  0.1373322E+04  0.7818608E-02  0.8973359E-01
         -1   -1    0    0    0  501 -0.00000000000E+00  0.00000000000E+00  0.17109781918E+04  0.17109781918E+04  0.00000000000E+00 0.  1.
          1   -1    0    0  501    0  0.00000000000E+00 -0.00000000000E+00 -0.27557523317E+03  0.27557523317E+03  0.00000000000E+00 0. -1.
         23    2    1    2    0    0 -0.92930712728E+01  0.38233366997E+03  0.36482036605E+03  0.53667707846E+03  0.93075188399E+02 0.  0.
        254    2    1    2    0    0  0.92930712728E+01 -0.38233366997E+03  0.10705825926E+04  0.14498763465E+04  0.89984939642E+03 0.  0.
        -24    2    4    4    0    0  0.33614846140E+03 -0.44813349682E+03  0.90913689064E+03  0.10708621850E+04  0.79978211169E+02 0.  0.
         24    2    4    4    0    0 -0.32685539013E+03  0.65799826851E+02  0.16144570192E+03  0.37901416148E+03  0.80143350725E+02 0.  0.
         13    1    3    3    0    0  0.14308691185E+02  0.30817727361E+03  0.32895939098E+03  0.45099030093E+03  0.00000000000E+00 0.  1.
        -13    1    3    3    0    0 -0.23601762458E+02  0.74156396354E+02  0.35860975071E+02  0.85686777536E+02  0.00000000000E+00 0. -1.
          4    1    6    6  502    0 -0.21808868197E+03  0.11878565745E+02  0.12773463588E+03  0.25302156179E+03  0.00000000000E+00 0. -1.
          1    1    5    5  503    0  0.34022902966E+03 -0.44244202351E+03  0.89049400687E+03  0.10509473408E+04  0.00000000000E+00 0. -1.
         -2    1    5    5    0  503 -0.40805682507E+01 -0.56914733125E+01  0.18642883762E+02  0.19914844229E+02  0.00000000000E+00 0.  1.
         -3    1    6    6    0  502 -0.10876670817E+03  0.53921261106E+02  0.33711066033E+02  0.12599259969E+03  0.00000000000E+00 0.  1.
<mgrwt>
<rscale>  0 0.13733218E+04</rscale>
<asrwt>0</asrwt>
<pdfrwt beam="1">  1        1 0.42396191E-01 0.13733218E+04</pdfrwt>
<pdfrwt beam="2">  1       -1 0.26322741E+00 0.13733218E+04</pdfrwt>
<totfact> 0.54813131E+00</totfact>
</mgrwt>
</event>
<event>
12    1  0.2588309E-007  0.1341546E+04  0.7818608E-02  0.8997252E-01
         -2   -1    0    0    0  501 -0.00000000000E+00  0.00000000000E+00  0.13027454117E+04  0.13027454117E+04  0.00000000000E+00 0.  1.
          2   -1    0    0  501    0  0.00000000000E+00 -0.00000000000E+00 -0.34537570422E+03  0.34537570422E+03  0.00000000000E+00 0. -1.
         23    2    1    2    0    0 -0.21354479002E+03  0.37880208437E+02  0.61582531984E+03  0.65950889344E+03  0.93138973812E+02 0.  0.
        254    2    1    2    0    0  0.21354479002E+03 -0.37880208437E+02  0.34154438763E+03  0.98861222247E+03  0.90203396286E+03 0.  0.
        -24    2    4    4    0    0  0.94775129077E+02 -0.32437942452E+03 -0.16907678676E+03  0.38612900089E+03  0.79399681129E+02 0.  0.
         24    2    4    4    0    0  0.11876966094E+03  0.28649921608E+03  0.51062117439E+03  0.60248322158E+03  0.77871788084E+02 0.  0.
         13    1    3    3    0    0 -0.53585718138E+02  0.29636945202E+02  0.29059308759E+03  0.29697494888E+03  0.00000000000E+00 0.  1.
        -13    1    3    3    0    0 -0.15995907188E+03  0.82432632345E+01  0.32523223225E+03  0.36253394456E+03  0.00000000000E+00 0. -1.
          2    1    6    6  502    0  0.12086963090E+03  0.21327860962E+03  0.36847470350E+03  0.44257297717E+03  0.00000000000E+00 0. -1.
          3    1    5    5  503    0  0.38257225170E+02 -0.25406328837E+03 -0.12461904223E+03  0.28555503053E+03  0.00000000000E+00 0. -1.
         -2    1    5    5    0  503  0.56517903906E+02 -0.70316136150E+02 -0.44457744532E+02  0.10057397036E+03  0.00000000000E+00 0.  1.
         -1    1    6    6    0  502 -0.20999699593E+01  0.73220606457E+02  0.14214647089E+03  0.15991024442E+03  0.00000000000E+00 0.  1.
<mgrwt>
<rscale>  0 0.13415463E+04</rscale>
<asrwt>0</asrwt>
<pdfrwt beam="1">  1        2 0.53134724E-01 0.13415463E+04</pdfrwt>
<pdfrwt beam="2">  1       -2 0.20042237E+00 0.13415463E+04</pdfrwt>
<totfact> 0.12104127E+01</totfact>
</mgrwt>
</event>
<event>
12    1  0.2588309E-007  0.1098700E+04  0.7818608E-02  0.9206460E-01
          1   -1    0    0  501    0  0.00000000000E+00  0.00000000000E+00  0.92940654925E+03  0.92940654925E+03  0.00000000000E+00 0. -1.
         -1   -1    0    0    0  501 -0.00000000000E+00 -0.00000000000E+00 -0.32470770257E+03  0.32470770257E+03  0.00000000000E+00 0.  1.
         23    2    1    2    0    0 -0.68935539491E+02 -0.14097433832E+03  0.65036838822E+02  0.19468006606E+03  0.95103443940E+02 0.  0.
        254    2    1    2    0    0  0.68935539491E+02  0.14097433832E+03  0.53966200785E+03  0.10594341858E+04  0.89807563076E+03 0.  0.
        -24    2    4    4    0    0  0.13719505534E+03  0.22920756411E+03 -0.17649422341E+03  0.33015461942E+03  0.80580836267E+02 0.  0.
         24    2    4    4    0    0 -0.68259515852E+02 -0.88233225784E+02  0.71615623127E+03  0.72927956634E+03  0.80774220226E+02 0.  0.
         13    1    3    3    0    0 -0.44898283311E+02 -0.12994548201E+03  0.84917667527E+02  0.16159422761E+03  0.00000000000E+00 0. -1.
        -13    1    3    3    0    0 -0.24037256179E+02 -0.11028856311E+02 -0.19880828705E+02  0.33085838453E+02  0.00000000000E+00 0.  1.
          2    1    6    6  502    0 -0.54874159674E+02 -0.86725152487E+02  0.70299682035E+03  0.71044841818E+03  0.00000000000E+00 0. -1.
          3    1    5    5  503    0  0.13436807259E+03  0.19803780906E+03 -0.12526245049E+03  0.27011929633E+03  0.00000000000E+00 0. -1.
         -4    1    5    5    0  503  0.28269827483E+01  0.31169755048E+02 -0.51231772928E+02  0.60035323090E+02  0.00000000000E+00 0.  1.
         -1    1    6    6    0  502 -0.13385356178E+02 -0.15080732971E+01  0.13159410918E+02  0.18831148154E+02  0.00000000000E+00 0.  1.
<mgrwt>
<rscale>  0 0.10987001E+04</rscale>
<asrwt>0</asrwt>
<pdfrwt beam="1">  1        1 0.14298562E+00 0.10987001E+04</pdfrwt>
<pdfrwt beam="2">  1       -1 0.49955032E-01 0.10987001E+04</pdfrwt>
<totfact> 0.68974147E+01</totfact>
</mgrwt>
</event>
<event>
12    1  0.2588309E-007  0.1369871E+04  0.7818608E-02  0.8975921E-01
          2   -1    0    0  501    0  0.00000000000E+00  0.00000000000E+00  0.78864825464E+03  0.78864825464E+03  0.00000000000E+00 0. -1.
         -2   -1    0    0    0  501 -0.00000000000E+00 -0.00000000000E+00 -0.59486135037E+03  0.59486135037E+03  0.00000000000E+00 0.  1.
         23    2    1    2    0    0  0.88800195888E+02 -0.22683864667E+03  0.35130536559E+03  0.43741172728E+03  0.92586785521E+02 0.  0.
        254    2    1    2    0    0 -0.88800195888E+02  0.22683864667E+03 -0.15751846132E+03  0.94609787774E+03  0.90052644724E+03 0.  0.
        -24    2    4    4    0    0 -0.13406436926E+02 -0.14689958940E+03  0.30083760374E+03  0.34429191894E+03  0.79211360978E+02 0.  0.
         24    2    4    4    0    0 -0.75393758961E+02  0.37373823607E+03 -0.45835606506E+03  0.60180595880E+03  0.81949018799E+02 0.  0.
         13    1    3    3    0    0 -0.74893767578E+01 -0.90995747355E+02  0.94942654937E+02  0.13172101020E+03  0.00000000000E+00 0.  1.
        -13    1    3    3    0    0  0.96289572645E+02 -0.13584289932E+03  0.25636271065E+03  0.30569071708E+03  0.00000000000E+00 0. -1.
          4    1    6    6  502    0 -0.55226863970E+02  0.26989646511E+03 -0.26976662365E+03  0.38557507650E+03  0.00000000000E+00 0. -1.
          1    1    5    5  503    0  0.21161750650E+02 -0.41563292273E+02  0.42211498584E+02  0.62905783262E+02  0.00000000000E+00 0. -1.
         -2    1    5    5    0  503 -0.34568187576E+02 -0.10533629712E+03  0.25862610515E+03  0.28138613567E+03  0.00000000000E+00 0.  1.
         -3    1    6    6    0  502 -0.20166894992E+02  0.10384177096E+03 -0.18858944141E+03  0.21623088230E+03  0.00000000000E+00 0.  1.
<mgrwt>
<rscale>  0 0.13698706E+04</rscale>
<asrwt>0</asrwt>
<pdfrwt beam="1">  1        2 0.12133050E+00 0.13698706E+04</pdfrwt>
<pdfrwt beam="2">  1       -2 0.91517131E-01 0.13698706E+04</pdfrwt>
<totfact> 0.34826972E+01</totfact>
</mgrwt>
</event>
<event>
12    1  0.3530690E-007  0.2046760E+04  0.7818608E-02  0.8585065E-01
         -2   -1    0    0    0  501 -0.00000000000E+00  0.00000000000E+00  0.51857614225E+03  0.51857614225E+03  0.00000000000E+00 0.  1.
          2   -1    0    0  501    0  0.00000000000E+00 -0.00000000000E+00 -0.20195816591E+04  0.20195816591E+04  0.00000000000E+00 0. -1.
         23    2    1    2    0    0  0.30002401645E+03 -0.76558512049E+03 -0.59601136440E+03  0.10195531951E+04  0.90134255438E+02 0.  0.
        254    2    1    2    0    0 -0.30002401645E+03  0.76558512049E+03 -0.90499415241E+03  0.15186046062E+04  0.90056123995E+03 0.  0.
        -24    2    4    4    0    0 -0.19317069067E+03  0.85610931202E+03 -0.99904443412E+03  0.13319629188E+04  0.76140434836E+02 0.  0.
         24    2    4    4    0    0 -0.10685332578E+03 -0.90524191537E+02  0.94050281709E+02  0.18664168740E+03  0.79858634494E+02 0.  0.
         13    1    3    3    0    0  0.12105993963E+03 -0.36499810483E+03 -0.32792961113E+03  0.50538792563E+03  0.00000000000E+00 0. -1.
        -13    1    3    3    0    0  0.17896407682E+03 -0.40058701566E+03 -0.26808175327E+03  0.51416526948E+03  0.00000000000E+00 0.  1.
          4    1    6    6  502    0 -0.11961148556E+03 -0.85338409874E+02  0.89915991705E+02  0.17226269835E+03  0.00000000000E+00 0. -1.
          3    1    5    5  503    0 -0.11121663621E+03  0.56209616456E+03 -0.70065652536E+03  0.90511922138E+03  0.00000000000E+00 0. -1.
         -4    1    5    5    0  503 -0.81954054462E+02  0.29401314746E+03 -0.29838790876E+03  0.42684369741E+03  0.00000000000E+00 0.  1.
         -3    1    6    6    0  502  0.12758159779E+02 -0.51857816628E+01  0.41342900039E+01  0.14378989055E+02  0.00000000000E+00 0.  1.
<mgrwt>
<rscale>  0 0.20467602E+04</rscale>
<asrwt>0</asrwt>
<pdfrwt beam="1">  1        2 0.31070487E+00 0.20467602E+04</pdfrwt>
<pdfrwt beam="2">  1       -2 0.79780944E-01 0.20467602E+04</pdfrwt>
<totfact> 0.83867688E+00</totfact>
</mgrwt>
</event>
<event>
12    1  0.2588309E-007  0.1844854E+04  0.7818608E-02  0.8682804E-01
         -2   -1    0    0    0  501 -0.00000000000E+00  0.00000000000E+00  0.72189239395E+03  0.72189239395E+03  0.00000000000E+00 0. -1.
          2   -1    0    0  501    0  0.00000000000E+00 -0.00000000000E+00 -0.11786679586E+04  0.11786679586E+04  0.00000000000E+00 0.  1.
         23    2    1    2    0    0  0.30609823570E+03  0.60383407016E+03 -0.36292973555E+03  0.77359942841E+03  0.91795253245E+02 0.  0.
        254    2    1    2    0    0 -0.30609823570E+03 -0.60383407016E+03 -0.93845829147E+02  0.11269609242E+04  0.89605924515E+03 0.  0.
        -24    2    4    4    0    0  0.26529121061E+03 -0.42251608116E+03 -0.13068296661E+03  0.52100488475E+03  0.73951246827E+02 0.  0.
         24    2    4    4    0    0 -0.57138944631E+03 -0.18131798899E+03  0.36837137459E+02  0.60595603943E+03  0.80396732160E+02 0.  0.
         11    1    3    3    0    0  0.18746236965E+03  0.27402740232E+03 -0.15939860973E+03  0.36829481946E+03  0.00000000000E+00 0. -1.
        -11    1    3    3    0    0  0.11863586605E+03  0.32980666784E+03 -0.20353112581E+03  0.40530460895E+03  0.00000000000E+00 0.  1.
          2    1    6    6  502    0 -0.24247408786E+03 -0.66515605759E+02  0.53975059394E+02  0.25716009824E+03  0.00000000000E+00 0. -1.
          3    1    5    5  503    0  0.64611556485E+02 -0.16958770617E+03 -0.46959067918E+02  0.18745612120E+03  0.00000000000E+00 0. -1.
         -2    1    5    5    0  503  0.20067965412E+03 -0.25292837499E+03 -0.83723898687E+02  0.33354876355E+03  0.00000000000E+00 0.  1.
         -3    1    6    6    0  502 -0.32891535845E+03 -0.11480238323E+03 -0.17137921935E+02  0.34879594119E+03  0.00000000000E+00 0.  1.
<mgrwt>
<rscale>  0 0.18448539E+04</rscale>
<asrwt>0</asrwt>
<pdfrwt beam="1">  1        2 0.18133353E+00 0.18448539E+04</pdfrwt>
<pdfrwt beam="2">  1       -2 0.11106037E+00 0.18448539E+04</pdfrwt>
<totfact> 0.11781455E+01</totfact>
</mgrwt>
</event>
<event>
12    1  0.2588309E-007  0.1517597E+04  0.7818608E-02  0.8872835E-01
         -2   -1    0    0    0  501 -0.00000000000E+00  0.00000000000E+00  0.10820666238E+04  0.10820666238E+04  0.00000000000E+00 0.  1.
          2   -1    0    0  501    0  0.00000000000E+00 -0.00000000000E+00 -0.53210672340E+03  0.53210672340E+03  0.00000000000E+00 0. -1.
         23    2    1    2    0    0 -0.14535700328E+02 -0.42107785710E+03 -0.58350631411E+02  0.43657143588E+03  0.98346195238E+02 0.  0.
        254    2    1    2    0    0  0.14535700328E+02  0.42107785710E+03  0.60831053179E+03  0.11776019113E+04  0.91607134551E+03 0.  0.
        -24    2    4    4    0    0  0.45689180847E+03  0.24804086131E+03  0.33186632278E+03  0.62190152270E+03  0.79698520790E+02 0.  0.
         24    2    4    4    0    0 -0.44235610814E+03  0.17303699578E+03  0.27644420901E+03  0.55570038859E+03  0.82224040683E+02 0.  0.
         13    1    3    3    0    0 -0.30738778692E+02 -0.29382034073E+03 -0.80943817811E+02  0.30631220476E+03  0.00000000000E+00 0. -1.
        -13    1    3    3    0    0  0.16203078364E+02 -0.12725751637E+03  0.22593186400E+02  0.13025923112E+03  0.00000000000E+00 0.  1.
          4    1    6    6  502    0 -0.30400546808E+03  0.93056918224E+02  0.21823693687E+03  0.38562452628E+03  0.00000000000E+00 0. -1.
          1    1    5    5  503    0  0.34184343201E+03  0.18817426390E+03  0.20633711639E+03  0.44140853096E+03  0.00000000000E+00 0. -1.
         -4    1    5    5    0  503  0.11504837645E+03  0.59866597419E+02  0.12552920639E+03  0.18049299174E+03  0.00000000000E+00 0.  1.
         -3    1    6    6    0  502 -0.13835064006E+03  0.79980077558E+02  0.58207272133E+02  0.17007586231E+03  0.00000000000E+00 0.  1.
<mgrwt>
<rscale>  0 0.15175967E+04</rscale>
<asrwt>0</asrwt>
<pdfrwt beam="1">  1        2 0.81862573E-01 0.15175967E+04</pdfrwt>
<pdfrwt beam="2">  1       -2 0.16647179E+00 0.15175967E+04</pdfrwt>
<totfact> 0.12466963E+01</totfact>
</mgrwt>
</event>
<event>
12    1  0.2588309E-007  0.2457911E+04  0.7818608E-02  0.8418135E-01
          2   -1    0    0  501    0  0.00000000000E+00  0.00000000000E+00  0.26089917952E+04  0.26089917952E+04  0.00000000000E+00 0. -1.
         -2   -1    0    0    0  501 -0.00000000000E+00 -0.00000000000E+00 -0.57889455711E+03  0.57889455711E+03  0.00000000000E+00 0.  1.
         23    2    1    2    0    0 -0.66821632742E+03 -0.65603474412E+03  0.15309780293E+04  0.17965908456E+04  0.83368427244E+02 0.  0.
        254    2    1    2    0    0  0.66821632742E+03  0.65603474412E+03  0.49911920876E+03  0.13912955066E+04  0.89982695922E+03 0.  0.
        -24    2    4    4    0    0  0.37660567420E+03  0.37533217491E+03 -0.20424101714E+03  0.57570819361E+03  0.83782192314E+02 0.  0.
         24    2    4    4    0    0  0.29161065323E+03  0.28070256922E+03  0.70336022590E+03  0.81558731304E+03  0.81463810185E+02 0.  0.
         13    1    3    3    0    0 -0.45189881573E+03 -0.49216517325E+03  0.10595039237E+04  0.12525923765E+04  0.00000000000E+00 0.  1.
        -13    1    3    3    0    0 -0.21631751170E+03 -0.16386957087E+03  0.47147410558E+03  0.54399846908E+03  0.00000000000E+00 0. -1.
          2    1    6    6  502    0  0.29279669262E+03  0.27725661531E+03  0.70452493759E+03  0.81176136988E+03  0.00000000000E+00 0. -1.
          3    1    5    5  503    0  0.21972077160E+03  0.27506045301E+03 -0.13624235458E+03  0.37748834348E+03  0.00000000000E+00 0. -1.
         -4    1    5    5    0  503  0.15688490260E+03  0.10027172190E+03 -0.67998662563E+02  0.19821985013E+03  0.00000000000E+00 0.  1.
         -1    1    6    6    0  502 -0.11860393941E+01  0.34459539058E+01 -0.11647116854E+01  0.38259431616E+01  0.00000000000E+00 0.  1.
<mgrwt>
<rscale>  0 0.24579106E+04</rscale>
<asrwt>0</asrwt>
<pdfrwt beam="1">  1        2 0.40138334E+00 0.24579106E+04</pdfrwt>
<pdfrwt beam="2">  1       -2 0.89060703E-01 0.24579106E+04</pdfrwt>
<totfact> 0.29128253E+00</totfact>
</mgrwt>
</event>
<event>
12    1  0.2588309E-007  0.1911887E+04  0.7818608E-02  0.8648962E-01
         -1   -1    0    0    0  501 -0.00000000000E+00  0.00000000000E+00  0.58607903860E+03  0.58607903860E+03  0.00000000000E+00 0.  1.
          1   -1    0    0  501    0  0.00000000000E+00 -0.00000000000E+00 -0.15592223843E+04  0.15592223843E+04  0.00000000000E+00 0. -1.
         23    2    1    2    0    0 -0.25607667045E+03  0.29461316115E+03  0.32747645580E+03  0.51761758869E+03  0.91186419737E+02 0.  0.
        254    2    1    2    0    0  0.25607667045E+03 -0.29461316115E+03 -0.13006198015E+04  0.16276838342E+04  0.89742443707E+03 0.  0.
        -24    2    4    4    0    0  0.40325053577E+03  0.19443094813E+03 -0.70848955295E+03  0.84159434691E+03  0.76871385556E+02 0.  0.
         24    2    4    4    0    0 -0.14717386532E+03 -0.48904410928E+03 -0.59213024853E+03  0.78608948729E+03  0.80586372047E+02 0.  0.
         13    1    3    3    0    0 -0.87580984727E+02  0.14750229065E+03  0.99867430012E+02  0.19849649420E+03  0.00000000000E+00 0. -1.
        -13    1    3    3    0    0 -0.16849568572E+03  0.14711087050E+03  0.22760902579E+03  0.31912109449E+03  0.00000000000E+00 0.  1.
          2    1    6    6  502    0 -0.56948393177E+02 -0.31825109781E+03 -0.35277755521E+03  0.47851738129E+03  0.00000000000E+00 0. -1.
          3    1    5    5  503    0  0.89977438236E+02  0.50358249466E+02 -0.22750697998E+03  0.24978254267E+03  0.00000000000E+00 0. -1.
         -4    1    5    5    0  503  0.31327309753E+03  0.14407269867E+03 -0.48098257297E+03  0.59181180424E+03  0.00000000000E+00 0.  1.
         -1    1    6    6    0  502 -0.90225472140E+02 -0.17079301147E+03 -0.23935269332E+03  0.30757210600E+03  0.00000000000E+00 0.  1.
<mgrwt>
<rscale>  0 0.19118866E+04</rscale>
<asrwt>0</asrwt>
<pdfrwt beam="1">  1        1 0.23988036E+00 0.19118866E+04</pdfrwt>
<pdfrwt beam="2">  1       -1 0.90166007E-01 0.19118866E+04</pdfrwt>
<totfact> 0.66930962E+00</totfact>
</mgrwt>
</event>
<event>
12    1  0.2588309E-007  0.1400723E+04  0.7818608E-02  0.8953296E-01
          1   -1    0    0  501    0  0.00000000000E+00  0.00000000000E+00  0.39926106422E+03  0.39926106422E+03  0.00000000000E+00 0. -1.
         -1   -1    0    0    0  501 -0.00000000000E+00 -0.00000000000E+00 -0.12285344630E+04  0.12285344630E+04  0.00000000000E+00 0.  1.
         23    2    1    2    0    0  0.27023525196E+02  0.37146615897E+03 -0.42636999697E+03  0.57341273174E+03  0.91068152614E+02 0.  0.
        254    2    1    2    0    0 -0.27023525196E+02 -0.37146615897E+03 -0.40290340183E+03  0.10543827955E+04  0.90037467206E+03 0.  0.
        -24    2    4    4    0    0 -0.62872995745E+02 -0.66063052016E+03 -0.32443878912E+03  0.74295050846E+03  0.79556472839E+02 0.  0.
         24    2    4    4    0    0  0.35849470549E+02  0.28916436119E+03 -0.78464612716E+02  0.31143228705E+03  0.77020527464E+02 0.  0.
         11    1    3    3    0    0  0.58542903785E+02  0.17741424271E+03 -0.20844586190E+03  0.27991563451E+03  0.00000000000E+00 0.  1.
        -11    1    3    3    0    0 -0.31519378589E+02  0.19405191626E+03 -0.21792413508E+03  0.29349709723E+03  0.00000000000E+00 0. -1.
          4    1    6    6  502    0  0.14736495277E+01  0.40704155800E+02  0.15502965418E+02  0.43581439617E+02  0.00000000000E+00 0. -1.
          3    1    5    5  503    0 -0.31005001873E+01 -0.19645459782E+03 -0.13321957597E+03  0.23738466152E+03  0.00000000000E+00 0. -1.
         -4    1    5    5    0  503 -0.59772495558E+02 -0.46417592235E+03 -0.19121921315E+03  0.50556584694E+03  0.00000000000E+00 0.  1.
         -3    1    6    6    0  502  0.34375821021E+02  0.24846020539E+03 -0.93967578133E+02  0.26785084744E+03  0.00000000000E+00 0.  1.
<mgrwt>
<rscale>  0 0.14007226E+04</rscale>
<asrwt>0</asrwt>
<pdfrwt beam="1">  1        1 0.61424780E-01 0.14007226E+04</pdfrwt>
<pdfrwt beam="2">  1       -1 0.18900530E+00 0.14007226E+04</pdfrwt>
<totfact> 0.10528863E+01</totfact>
</mgrwt>
</event>
<event>
12    1  0.2588309E-007  0.1904385E+04  0.7818608E-02  0.8652677E-01
          1   -1    0    0  501    0  0.00000000000E+00  0.00000000000E+00  0.32989863202E+04  0.32989863202E+04  0.00000000000E+00 0. -1.
         -1   -1    0    0    0  501 -0.00000000000E+00 -0.00000000000E+00 -0.27483321886E+03  0.27483321886E+03  0.00000000000E+00 0.  1.
         23    2    1    2    0    0 -0.49134225103E+02 -0.67797366284E+03  0.17077276219E+04  0.18402048293E+04  0.89206073407E+02 0.  0.
        254    2    1    2    0    0  0.49134225103E+02  0.67797366284E+03  0.13164254794E+04  0.17336147097E+04  0.90021189695E+03 0.  0.
        -24    2    4    4    0    0  0.29083406549E+03  0.72676608608E+03  0.65736081554E+03  0.10253804373E+04  0.80674666725E+02 0.  0.
         24    2    4    4    0    0 -0.24169984038E+03 -0.48792423243E+02  0.65906466386E+03  0.70823427243E+03  0.80187530806E+02 0.  0.
         13    1    3    3    0    0 -0.45493967995E+02 -0.50606695590E+03  0.11675450570E+04  0.12733165063E+04  0.00000000000E+00 0.  1.
        -13    1    3    3    0    0 -0.36402571081E+01 -0.17190670694E+03  0.54018256488E+03  0.56688832300E+03  0.00000000000E+00 0. -1.
          4    1    6    6  502    0 -0.15354163990E+03 -0.53716340246E+02  0.33574930600E+03  0.37307918311E+03  0.00000000000E+00 0. -1.
          1    1    5    5  503    0  0.78588736252E+02  0.28013008198E+03  0.27436561364E+03  0.39990691697E+03  0.00000000000E+00 0. -1.
         -2    1    5    5    0  503  0.21224532924E+03  0.44663600411E+03  0.38299520190E+03  0.62547352032E+03  0.00000000000E+00 0.  1.
         -3    1    6    6    0  502 -0.88158200483E+02  0.49239170030E+01  0.32331535786E+03  0.33515508932E+03  0.00000000000E+00 0.  1.
<mgrwt>
<rscale>  0 0.19043855E+04</rscale>
<asrwt>0</asrwt>
<pdfrwt beam="1">  1        1 0.50753633E+00 0.19043855E+04</pdfrwt>
<pdfrwt beam="2">  1       -1 0.42282036E-01 0.19043855E+04</pdfrwt>
<totfact> 0.18474717E+00</totfact>
</mgrwt>
</event>
<event>
12    1  0.2588309E-007  0.1359905E+04  0.7818608E-02  0.8983363E-01
         -2   -1    0    0    0  501 -0.00000000000E+00  0.00000000000E+00  0.49194527037E+03  0.49194527037E+03  0.00000000000E+00 0.  1.
          2   -1    0    0  501    0  0.00000000000E+00 -0.00000000000E+00 -0.93981132723E+03  0.93981132723E+03  0.00000000000E+00 0. -1.
         23    2    1    2    0    0 -0.23514749668E+03 -0.21939326103E+03  0.68321980083E+02  0.33918896761E+03  0.83387736517E+02 0.  0.
        254    2    1    2    0    0  0.23514749668E+03  0.21939326103E+03 -0.51618803694E+03  0.10925676300E+04  0.90764871424E+03 0.  0.
        -24    2    4    4    0    0  0.27807360913E+03 -0.30471929057E+03 -0.31620664480E+03  0.52565710260E+03  0.78421739040E+02 0.  0.
         24    2    4    4    0    0 -0.42926112450E+02  0.52411255160E+03 -0.19998139214E+03  0.56691052740E+03  0.69702015766E+02 0.  0.
         11    1    3    3    0    0 -0.12412066865E+03 -0.14203586536E+03  0.23415202432E+01  0.18864148576E+03  0.00000000000E+00 0. -1.
        -11    1    3    3    0    0 -0.11102682804E+03 -0.77357395672E+02  0.65980459840E+02  0.15054748185E+03  0.00000000000E+00 0.  1.
          4    1    6    6  502    0 -0.41846352186E+02  0.51063594546E+03 -0.20587284236E+03  0.55216285026E+03  0.00000000000E+00 0. -1.
          1    1    5    5  503    0  0.28112946774E+03 -0.28970509126E+03 -0.31057628246E+03  0.50933333364E+03  0.00000000000E+00 0. -1.
         -2    1    5    5    0  503 -0.30558586084E+01 -0.15014199311E+02 -0.56303623405E+01  0.16323768955E+02  0.00000000000E+00 0.  1.
         -3    1    6    6    0  502 -0.10797602637E+01  0.13476606144E+02  0.58914502230E+01  0.14747677144E+02  0.00000000000E+00 0.  1.
<mgrwt>
<rscale>  0 0.13599055E+04</rscale>
<asrwt>0</asrwt>
<pdfrwt beam="1">  1        2 0.14458636E+00 0.13599055E+04</pdfrwt>
<pdfrwt beam="2">  1       -2 0.75683888E-01 0.13599055E+04</pdfrwt>
<totfact> 0.42133205E+01</totfact>
</mgrwt>
</event>
<event>
12    1  0.2588309E-007  0.1343399E+04  0.7818608E-02  0.8995840E-01
         -1   -1    0    0    0  501 -0.00000000000E+00  0.00000000000E+00  0.30905183532E+03  0.30905183532E+03  0.00000000000E+00 0.  1.
          1   -1    0    0  501    0  0.00000000000E+00 -0.00000000000E+00 -0.14598842194E+04  0.14598842194E+04  0.00000000000E+00 0. -1.
         23    2    1    2    0    0  0.12045209130E+03 -0.26682840391E+03 -0.41517860952E+02  0.30950082358E+03  0.91438086085E+02 0.  0.
        254    2    1    2    0    0 -0.12045209130E+03  0.26682840391E+03 -0.11093145232E+04  0.14594352312E+04  0.90203457765E+03 0.  0.
        -24    2    4    4    0    0 -0.11793827326E+03 -0.85266855640E+02  0.10238474789E+03  0.19507387362E+03  0.79945647776E+02 0.  0.
         24    2    4    4    0    0 -0.25138180331E+01  0.35209525955E+03 -0.12116992711E+04  0.12643613576E+04  0.80106978059E+02 0.  0.
         11    1    3    3    0    0  0.79542124215E+02 -0.20892329114E+03  0.68788769228E+01  0.22365869098E+03  0.00000000000E+00 0.  1.
        -11    1    3    3    0    0  0.40909967080E+02 -0.57905112776E+02 -0.48396737875E+02  0.85842132598E+02  0.00000000000E+00 0. -1.
          4    1    6    6  502    0 -0.79198783667E+00  0.26661492515E+03 -0.10234260867E+04  0.10575845595E+04  0.00000000000E+00 0. -1.
          1    1    5    5  503    0 -0.10785421498E+03 -0.48942973240E+02  0.10360095107E+03  0.15735661213E+03  0.00000000000E+00 0. -1.
         -2    1    5    5    0  503 -0.10084058281E+02 -0.36323882400E+02 -0.12162031826E+01  0.37717261489E+02  0.00000000000E+00 0.  1.
         -3    1    6    6    0  502 -0.17218301964E+01  0.85480334399E+02 -0.18827318438E+03  0.20677679808E+03  0.00000000000E+00 0.  1.
<mgrwt>
<rscale>  0 0.13433985E+04</rscale>
<asrwt>0</asrwt>
<pdfrwt beam="1">  1        1 0.22459758E+00 0.13433985E+04</pdfrwt>
<pdfrwt beam="2">  1       -1 0.47546435E-01 0.13433985E+04</pdfrwt>
<totfact> 0.30164410E+01</totfact>
</mgrwt>
</event>
<event>
12    1  0.2588309E-007  0.1934262E+04  0.7818608E-02  0.8637988E-01
         -2   -1    0    0    0  501 -0.00000000000E+00  0.00000000000E+00  0.81100007294E+03  0.81100007294E+03  0.00000000000E+00 0.  1.
          2   -1    0    0  501    0  0.00000000000E+00 -0.00000000000E+00 -0.11533192043E+04  0.11533192043E+04  0.00000000000E+00 0. -1.
         23    2    1    2    0    0 -0.69872555115E+03  0.10544956746E+03  0.12544914722E+03  0.72349998799E+03  0.91529978567E+02 0.  0.
        254    2    1    2    0    0  0.69872555115E+03 -0.10544956746E+03 -0.46776827860E+03  0.12408192893E+04  0.90635993900E+03 0.  0.
        -24    2    4    4    0    0  0.79684627375E+03  0.18773550601E+03 -0.26878810639E+03  0.86456694552E+03  0.70854449065E+02 0.  0.
         24    2    4    4    0    0 -0.98120722595E+02 -0.29318507347E+03 -0.19898017221E+03  0.37625234374E+03  0.79922172922E+02 0.  0.
         13    1    3    3    0    0 -0.41982372783E+03  0.98932920900E+02  0.10409166921E+03  0.44370571428E+03  0.00000000000E+00 0.  1.
        -13    1    3    3    0    0 -0.27890182332E+03  0.65166465577E+01  0.21357478013E+02  0.27979427371E+03  0.00000000000E+00 0. -1.
          4    1    6    6  502    0 -0.11039206798E+03 -0.24686100070E+03 -0.15797722798E+03  0.31318296074E+03  0.00000000000E+00 0. -1.
          1    1    5    5  503    0  0.69755850539E+03  0.16159024224E+03 -0.20969840469E+03  0.74610501657E+03  0.00000000000E+00 0. -1.
         -2    1    5    5    0  503  0.99287768361E+02  0.26145263772E+02 -0.59089701702E+02  0.11846192895E+03  0.00000000000E+00 0.  1.
         -3    1    6    6    0  502  0.12271345383E+02 -0.46324072775E+02 -0.41002944231E+02  0.63069382997E+02  0.00000000000E+00 0.  1.
<mgrwt>
<rscale>  0 0.19342616E+04</rscale>
<asrwt>0</asrwt>
<pdfrwt beam="1">  1        2 0.17743372E+00 0.19342616E+04</pdfrwt>
<pdfrwt beam="2">  1       -2 0.12476924E+00 0.19342616E+04</pdfrwt>
<totfact> 0.90932834E+00</totfact>
</mgrwt>
</event>
<event>
12    1  0.2588309E-007  0.2715051E+04  0.7818608E-02  0.8330138E-01
          2   -1    0    0  501    0  0.00000000000E+00  0.00000000000E+00  0.40692077159E+04  0.40692077159E+04  0.00000000000E+00 0. -1.
         -2   -1    0    0    0  501 -0.00000000000E+00 -0.00000000000E+00 -0.45288303833E+03  0.45288303833E+03  0.00000000000E+00 0.  1.
         23    2    1    2    0    0 -0.78005599453E+03 -0.85038103834E+03  0.10294419534E+04  0.15490610523E+04  0.90576727341E+02 0.  0.
        254    2    1    2    0    0  0.78005599453E+03  0.85038103834E+03  0.25868827242E+04  0.29730297019E+04  0.90294413705E+03 0.  0.
        -24    2    4    4    0    0  0.85552503030E+03  0.96728998200E+03  0.24021842165E+04  0.27285771607E+04  0.84091171872E+02 0.  0.
         24    2    4    4    0    0 -0.75469035777E+02 -0.11690894365E+03  0.18469850775E+03  0.24445254123E+03  0.79247900185E+02 0.  0.
         11    1    3    3    0    0 -0.40573264995E+03 -0.42898574187E+03  0.58599348365E+03  0.83188707939E+03  0.00000000000E+00 0. -1.
        -11    1    3    3    0    0 -0.37432334458E+03 -0.42139529647E+03  0.44344846971E+03  0.71717397295E+03  0.00000000000E+00 0.  1.
          2    1    6    6  502    0 -0.81025320505E+02 -0.11845304142E+03  0.14384325765E+03  0.20319229404E+03  0.00000000000E+00 0. -1.
          3    1    5    5  503    0  0.43868591700E+03  0.43423828676E+03  0.11659575508E+04  0.13192669304E+04  0.00000000000E+00 0. -1.
         -4    1    5    5    0  503  0.41683911330E+03  0.53305169524E+03  0.12362266657E+04  0.14093102303E+04  0.00000000000E+00 0.  1.
         -1    1    6    6    0  502  0.55562847279E+01  0.15440977714E+01  0.40855250097E+02  0.41260247192E+02  0.00000000000E+00 0.  1.
<mgrwt>
<rscale>  0 0.27150508E+04</rscale>
<asrwt>0</asrwt>
<pdfrwt beam="1">  1        2 0.62603193E+00 0.27150508E+04</pdfrwt>
<pdfrwt beam="2">  1       -2 0.69674316E-01 0.27150508E+04</pdfrwt>
<totfact> 0.49478374E-01</totfact>
</mgrwt>
</event>
<event>
12    1  0.2588309E-007  0.1241408E+04  0.7818608E-02  0.9077365E-01
         -2   -1    0    0    0  501 -0.00000000000E+00  0.00000000000E+00  0.16324959987E+03  0.16324959987E+03  0.00000000000E+00 0. -1.
          2   -1    0    0  501    0  0.00000000000E+00 -0.00000000000E+00 -0.23600251753E+04  0.23600251753E+04  0.00000000000E+00 0.  1.
         23    2    1    2    0    0 -0.15489432985E+03  0.23121671597E+03 -0.62001254157E+03  0.68644176318E+03  0.96609105992E+02 0.  0.
        254    2    1    2    0    0  0.15489432985E+03 -0.23121671597E+03 -0.15767630338E+04  0.18368330120E+04  0.90017799676E+03 0.  0.
        -24    2    4    4    0    0  0.22581001545E+03  0.56674033147E+02 -0.14988304271E+04  0.15187917339E+04  0.77676075640E+02 0.  0.
         24    2    4    4    0    0 -0.70915685602E+02 -0.28789074912E+03 -0.77932606749E+02  0.31804127806E+03  0.84656042109E+02 0.  0.
         13    1    3    3    0    0 -0.14422699770E+03  0.22548043368E+03 -0.51191286604E+03  0.57766567776E+03  0.00000000000E+00 0. -1.
        -13    1    3    3    0    0 -0.10667332156E+02  0.57362822928E+01 -0.10809967553E+03  0.10877608542E+03  0.00000000000E+00 0.  1.
          4    1    6    6  502    0  0.12456410864E+02 -0.93012226757E+02 -0.42973648565E+02  0.10321419945E+03  0.00000000000E+00 0. -1.
          1    1    5    5  503    0  0.16283401440E+02 -0.86596964859E+01 -0.47407330568E+02  0.50868403723E+02  0.00000000000E+00 0. -1.
         -2    1    5    5    0  503  0.20952661401E+03  0.65333729633E+02 -0.14514230965E+04  0.14679233302E+04  0.00000000000E+00 0.  1.
         -3    1    6    6    0  502 -0.83372096466E+02 -0.19487852236E+03 -0.34958958184E+02  0.21482707861E+03  0.00000000000E+00 0.  1.
<mgrwt>
<rscale>  0 0.12414075E+04</rscale>
<asrwt>0</asrwt>
<pdfrwt beam="1">  1        2 0.36308077E+00 0.12414075E+04</pdfrwt>
<pdfrwt beam="2">  1       -2 0.25115325E-01 0.12414075E+04</pdfrwt>
<totfact> 0.58906558E+01</totfact>
</mgrwt>
</event>
<event>
12    1  0.2588309E-007  0.2412000E+04  0.7818608E-02  0.8435025E-01
         -2   -1    0    0    0  501 -0.00000000000E+00  0.00000000000E+00  0.11275399926E+04  0.11275399926E+04  0.00000000000E+00 0.  1.
          2   -1    0    0  501    0  0.00000000000E+00 -0.00000000000E+00 -0.12899192065E+04  0.12899192065E+04  0.00000000000E+00 0. -1.
         23    2    1    2    0    0 -0.86000113293E+03  0.56645887704E+03 -0.28392417057E+02  0.10343275316E+04  0.92464616805E+02 0.  0.
        254    2    1    2    0    0  0.86000113293E+03 -0.56645887704E+03 -0.13398679687E+03  0.13831316674E+04  0.91357711201E+03 0.  0.
        -24    2    4    4    0    0  0.93752091892E+03 -0.71050612859E+03 -0.18663875383E+03  0.11937380292E+04  0.80075125093E+02 0.  0.
         24    2    4    4    0    0 -0.77519785998E+02  0.14404725154E+03  0.52651956958E+02  0.18939363823E+03  0.79616541818E+02 0.  0.
         11    1    3    3    0    0 -0.51706694010E+03  0.29653906562E+03 -0.43480750036E+02  0.59764890497E+03  0.00000000000E+00 0. -1.
        -11    1    3    3    0    0 -0.34293419282E+03  0.26991981142E+03  0.15088332980E+02  0.43667862667E+03  0.00000000000E+00 0.  1.
          4    1    6    6  502    0  0.10275213138E+02 -0.16074331826E+01 -0.23308896806E+01  0.10658184328E+02  0.00000000000E+00 0. -1.
          3    1    5    5  503    0  0.60725715381E+03 -0.50613263901E+03 -0.13399302228E+03  0.80180148986E+03  0.00000000000E+00 0. -1.
         -4    1    5    5    0  503  0.33026376511E+03 -0.20437348958E+03 -0.52645731545E+02  0.39193653930E+03  0.00000000000E+00 0.  1.
         -3    1    6    6    0  502 -0.87794999137E+02  0.14565468473E+03  0.54982846638E+02  0.17873545390E+03  0.00000000000E+00 0.  1.
<mgrwt>
<rscale>  0 0.24119996E+04</rscale>
<asrwt>0</asrwt>
<pdfrwt beam="1">  1        2 0.19844911E+00 0.24119996E+04</pdfrwt>
<pdfrwt beam="2">  1       -2 0.17346769E+00 0.24119996E+04</pdfrwt>
<totfact> 0.30324075E+00</totfact>
</mgrwt>
</event>
<event>
12    1  0.2588309E-007  0.1683207E+04  0.7818608E-02  0.8771000E-01
         -1   -1    0    0    0  501 -0.00000000000E+00  0.00000000000E+00  0.15566303886E+04  0.15566303886E+04  0.00000000000E+00 0.  1.
          1   -1    0    0  501    0  0.00000000000E+00 -0.00000000000E+00 -0.45501900461E+03  0.45501900461E+03  0.00000000000E+00 0. -1.
         23    2    1    2    0    0 -0.42200886043E+02 -0.21208895487E+03  0.10593536649E+04  0.10850905395E+04  0.91807690402E+02 0.  0.
        254    2    1    2    0    0  0.42200886043E+02  0.21208895487E+03  0.42257719013E+02  0.92655885364E+03  0.89997941914E+03 0.  0.
        -24    2    4    4    0    0  0.37890243850E+03 -0.91676227840E+01 -0.21403004295E+03  0.44260034112E+03  0.80219071701E+02 0.  0.
         24    2    4    4    0    0 -0.33670155246E+03  0.22125657766E+03  0.25628776196E+03  0.48395851252E+03  0.78803656803E+02 0.  0.
         11    1    3    3    0    0 -0.57231655257E+02 -0.14290852328E+03  0.56117907795E+03  0.58191087455E+03  0.00000000000E+00 0. -1.
        -11    1    3    3    0    0  0.15030769213E+02 -0.69180431589E+02  0.49817458697E+03  0.50317966497E+03  0.00000000000E+00 0.  1.
          2    1    6    6  502    0 -0.27269198876E+03  0.19747873771E+03  0.18077038469E+03  0.38214749059E+03  0.00000000000E+00 0. -1.
          1    1    5    5  503    0  0.33409274835E+03  0.18533930275E+02 -0.18105538188E+03  0.38045042040E+03  0.00000000000E+00 0. -1.
         -4    1    5    5    0  503  0.44809690150E+02 -0.27701553059E+02 -0.32974661070E+02  0.62149920723E+02  0.00000000000E+00 0.  1.
         -1    1    6    6    0  502 -0.64009563699E+02  0.23777839947E+02  0.75517377265E+02  0.10181102193E+03  0.00000000000E+00 0.  1.
<mgrwt>
<rscale>  0 0.16832070E+04</rscale>
<asrwt>0</asrwt>
<pdfrwt beam="1">  1        1 0.70002924E-01 0.16832070E+04</pdfrwt>
<pdfrwt beam="2">  1       -1 0.23948160E+00 0.16832070E+04</pdfrwt>
<totfact> 0.39278714E+00</totfact>
</mgrwt>
</event>
<event>
12    1  0.2588309E-007  0.2596956E+04  0.7818608E-02  0.8369236E-01
         -1   -1    0    0    0  501 -0.00000000000E+00  0.00000000000E+00  0.10567358050E+04  0.10567358050E+04  0.00000000000E+00 0.  1.
          1   -1    0    0  501    0  0.00000000000E+00 -0.00000000000E+00 -0.15955222676E+04  0.15955222676E+04  0.00000000000E+00 0. -1.
         23    2    1    2    0    0 -0.17371598854E+03  0.11176098039E+04 -0.80275223656E+02  0.11375235758E+04  0.91032167464E+02 0.  0.
        254    2    1    2    0    0  0.17371598854E+03 -0.11176098039E+04 -0.45851123898E+03  0.15147344968E+04  0.89719514109E+03 0.  0.
        -24    2    4    4    0    0 -0.15999916708E+03  0.71885281842E+02 -0.13762554212E+03  0.23608174125E+03  0.77630995725E+02 0.  0.
         24    2    4    4    0    0  0.33371515562E+03 -0.11894950857E+04 -0.32088569685E+03  0.12786527556E+04  0.75636464983E+02 0.  0.
         11    1    3    3    0    0 -0.71827444202E+02  0.71937583381E+03 -0.32329226383E+02  0.72367530764E+03  0.00000000000E+00 0. -1.
        -11    1    3    3    0    0 -0.10188854434E+03  0.39823397005E+03 -0.47945997274E+02  0.41384826812E+03  0.00000000000E+00 0.  1.
          2    1    6    6  502    0  0.30885756682E+03 -0.10981781711E+04 -0.27493185172E+03  0.11734461279E+04  0.00000000000E+00 0. -1.
          1    1    5    5  503    0 -0.16002533916E+03  0.72530377598E+02 -0.10755034573E+03  0.20599961581E+03  0.00000000000E+00 0. -1.
         -2    1    5    5    0  503  0.26172074491E-01 -0.64509575562E+00 -0.30075196387E+02  0.30082125444E+02  0.00000000000E+00 0.  1.
         -1    1    6    6    0  502  0.24857588794E+02 -0.91316914617E+02 -0.45953845131E+02  0.10520662763E+03  0.00000000000E+00 0.  1.
<mgrwt>
<rscale>  0 0.25969563E+04</rscale>
<asrwt>0</asrwt>
<pdfrwt beam="1">  1        1 0.24546496E+00 0.25969563E+04</pdfrwt>
<pdfrwt beam="2">  1       -1 0.16257474E+00 0.25969563E+04</pdfrwt>
<totfact> 0.13835370E+00</totfact>
</mgrwt>
</event>
<event>
12    1  0.2588309E-007  0.1881937E+04  0.7818608E-02  0.8663900E-01
          2   -1    0    0  501    0  0.00000000000E+00  0.00000000000E+00  0.21521257793E+04  0.21521257793E+04  0.00000000000E+00 0. -1.
         -2   -1    0    0    0  501 -0.00000000000E+00 -0.00000000000E+00 -0.41141725154E+03  0.41141725154E+03  0.00000000000E+00 0.  1.
         23    2    1    2    0    0 -0.38412151187E+03 -0.44777068266E+03  0.12381242817E+04  0.13745014434E+04  0.90854614326E+02 0.  0.
        254    2    1    2    0    0  0.38412151187E+03  0.44777068266E+03  0.50258424603E+03  0.11890415874E+04  0.90176551942E+03 0.  0.
        -24    2    4    4    0    0  0.65870327806E+03  0.21721828635E+03  0.24406711596E+03  0.73970236205E+03  0.80728154129E+02 0.  0.
         24    2    4    4    0    0 -0.27458176620E+03  0.23055239631E+03  0.25851713007E+03  0.44933922533E+03  0.80777961764E+02 0.  0.
         11    1    3    3    0    0 -0.20851485021E+03 -0.20575571134E+03  0.70120102190E+03  0.75993205527E+03  0.00000000000E+00 0. -1.
        -11    1    3    3    0    0 -0.17560666165E+03 -0.24201497132E+03  0.53692325979E+03  0.61456938816E+03  0.00000000000E+00 0.  1.
          4    1    6    6  502    0 -0.13675971928E+03  0.16530604111E+03  0.13957153035E+03  0.25594827628E+03  0.00000000000E+00 0. -1.
          3    1    5    5  503    0  0.26907051369E+03  0.53273585286E+02  0.11787753754E+03  0.29855004620E+03  0.00000000000E+00 0. -1.
         -4    1    5    5    0  503  0.38963276437E+03  0.16394470106E+03  0.12618957842E+03  0.44115231585E+03  0.00000000000E+00 0.  1.
         -3    1    6    6    0  502 -0.13782204691E+03  0.65246355208E+02  0.11894559971E+03  0.19339094905E+03  0.00000000000E+00 0.  1.
<mgrwt>
<rscale>  0 0.18819370E+04</rscale>
<asrwt>0</asrwt>
<pdfrwt beam="1">  1        2 0.33109627E+00 0.18819370E+04</pdfrwt>
<pdfrwt beam="2">  1       -2 0.63294963E-01 0.18819370E+04</pdfrwt>
<totfact> 0.11910834E+01</totfact>
</mgrwt>
</event>
<event>
12    1  0.2588309E-007  0.2658083E+04  0.7818608E-02  0.8348735E-01
         -1   -1    0    0    0  501 -0.00000000000E+00  0.00000000000E+00  0.15687189645E+04  0.15687189645E+04  0.00000000000E+00 0.  1.
          1   -1    0    0  501    0  0.00000000000E+00 -0.00000000000E+00 -0.11259834437E+04  0.11259834437E+04  0.00000000000E+00 0. -1.
         23    2    1    2    0    0  0.68899652967E+03 -0.86311053628E+03 -0.20850948411E+03  0.11279456743E+04  0.95442252106E+02 0.  0.
        254    2    1    2    0    0 -0.68899652967E+03  0.86311053628E+03  0.65124500491E+03  0.15667567340E+04  0.90051684677E+03 0.  0.
        -24    2    4    4    0    0 -0.84920354132E+02  0.40481754910E+03 -0.16209663383E+03  0.45144957177E+03  0.80266322631E+02 0.  0.
         24    2    4    4    0    0 -0.60407617554E+03  0.45829298718E+03  0.81334163874E+03  0.11153071622E+04  0.86284163170E+02 0.  0.
         11    1    3    3    0    0  0.33249972792E+03 -0.34199019784E+03 -0.81186872268E+02  0.48384364490E+03  0.00000000000E+00 0.  1.
        -11    1    3    3    0    0  0.35649680176E+03 -0.52112033844E+03 -0.12732261184E+03  0.64410202941E+03  0.00000000000E+00 0. -1.
          4    1    6    6  502    0 -0.53021600131E+03  0.41087658489E+03  0.75488719179E+03  0.10098530826E+04  0.00000000000E+00 0. -1.
          1    1    5    5  503    0 -0.11238446398E+02  0.23949595998E+03 -0.10413336656E+03  0.26139696929E+03  0.00000000000E+00 0. -1.
         -2    1    5    5    0  503 -0.73681907735E+02  0.16532158912E+03 -0.57963267268E+02  0.19005260248E+03  0.00000000000E+00 0.  1.
         -3    1    6    6    0  502 -0.73860174230E+02  0.47416402297E+02  0.58454446949E+02  0.10545407964E+03  0.00000000000E+00 0.  1.
<mgrwt>
<rscale>  0 0.26580832E+04</rscale>
<asrwt>0</asrwt>
<pdfrwt beam="1">  1        1 0.17322822E+00 0.26580832E+04</pdfrwt>
<pdfrwt beam="2">  1       -1 0.24134138E+00 0.26580832E+04</pdfrwt>
<totfact> 0.84386914E-01</totfact>
</mgrwt>
</event>
<event>
12    1  0.2588309E-007  0.1682428E+04  0.7818608E-02  0.8771450E-01
          2   -1    0    0  501    0  0.00000000000E+00  0.00000000000E+00  0.44373869943E+03  0.44373869943E+03  0.00000000000E+00 0. -1.
         -2   -1    0    0    0  501 -0.00000000000E+00 -0.00000000000E+00 -0.15947253964E+04  0.15947253964E+04  0.00000000000E+00 0.  1.
         23    2    1    2    0    0 -0.11203382305E+03  0.29601075310E+03  0.19938431566E+03  0.38492387884E+03  0.90765322163E+02 0.  0.
        254    2    1    2    0    0  0.11203382305E+03 -0.29601075310E+03 -0.13503710126E+04  0.16535402170E+04  0.90028852819E+03 0.  0.
        -24    2    4    4    0    0  0.57415046441E+01 -0.38994672940E+03 -0.14210792825E+04  0.14759068107E+04  0.82116807155E+02 0.  0.
         24    2    4    4    0    0  0.10629231840E+03  0.93935976301E+02  0.70708269900E+02  0.17763340628E+03  0.80199395260E+02 0.  0.
         13    1    3    3    0    0 -0.44019080346E+02  0.31005788970E+02  0.18461739666E+02  0.56919892970E+02  0.00000000000E+00 0.  1.
        -13    1    3    3    0    0 -0.68014742703E+02  0.26500496413E+03  0.18092257599E+03  0.32800398587E+03  0.00000000000E+00 0. -1.
          4    1    6    6  502    0  0.10773797815E+02  0.11387470277E+02  0.46521069382E+02  0.49091334216E+02  0.00000000000E+00 0. -1.
          1    1    5    5  503    0  0.35260651122E+02 -0.11034492360E+03 -0.47598088921E+03  0.48987459883E+03  0.00000000000E+00 0. -1.
         -2    1    5    5    0  503 -0.29519146478E+02 -0.27960180580E+03 -0.94509839327E+03  0.98603221184E+03  0.00000000000E+00 0.  1.
         -3    1    6    6    0  502  0.95518520590E+02  0.82548506024E+02  0.24187200518E+02  0.12854207207E+03  0.00000000000E+00 0.  1.
<mgrwt>
<rscale>  0 0.16824285E+04</rscale>
<asrwt>0</asrwt>
<pdfrwt beam="1">  1        2 0.68267492E-01 0.16824285E+04</pdfrwt>
<pdfrwt beam="2">  1       -2 0.24534237E+00 0.16824285E+04</pdfrwt>
<totfact> 0.46228436E+00</totfact>
</mgrwt>
</event>
<event>
12    1  0.2588309E-007  0.1478353E+04  0.7818608E-02  0.8898977E-01
          3   -1    0    0  501    0  0.00000000000E+00  0.00000000000E+00  0.27980971304E+04  0.27980971304E+04  0.00000000000E+00 0. -1.
         -3   -1    0    0    0  501 -0.00000000000E+00 -0.00000000000E+00 -0.19526916359E+03  0.19526916359E+03  0.00000000000E+00 0.  1.
         23    2    1    2    0    0 -0.15536303222E+03  0.41925634992E+03  0.10373270144E+04  0.11331536167E+04  0.89867822396E+02 0.  0.
        254    2    1    2    0    0  0.15536303222E+03 -0.41925634992E+03  0.15655009524E+04  0.18602126773E+04  0.89982465740E+03 0.  0.
        -24    2    4    4    0    0 -0.30732702352E+03  0.34570136296E+02  0.30951735626E+03  0.44459593649E+03  0.78864182070E+02 0.  0.
         24    2    4    4    0    0  0.46269005575E+03 -0.45382648621E+03  0.12559835962E+04  0.14156167408E+04  0.80220918538E+02 0.  0.
         11    1    3    3    0    0 -0.15543419502E+02  0.13842566627E+03  0.26117714065E+03  0.29600128677E+03  0.00000000000E+00 0.  1.
        -11    1    3    3    0    0 -0.13981961272E+03  0.28083068365E+03  0.77614987373E+03  0.83715232991E+03  0.00000000000E+00 0. -1.
          2    1    6    6  502    0  0.63935206317E+02 -0.96170660889E+02  0.26660198947E+03  0.29053937326E+03  0.00000000000E+00 0. -1.
          1    1    5    5  503    0 -0.30039659869E+03  0.43279958783E+02  0.27953796184E+03  0.41261694518E+03  0.00000000000E+00 0. -1.
         -2    1    5    5    0  503 -0.69304248282E+01 -0.87098224877E+01  0.29979394414E+02  0.31978991315E+02  0.00000000000E+00 0.  1.
         -1    1    6    6    0  502  0.39875484943E+03 -0.35765582533E+03  0.98938160669E+03  0.11250773676E+04  0.00000000000E+00 0.  1.
<mgrwt>
<rscale>  0 0.14783533E+04</rscale>
<asrwt>0</asrwt>
<pdfrwt beam="1">  1        3 0.43047645E+00 0.14783533E+04</pdfrwt>
<pdfrwt beam="2">  1       -3 0.30041412E-01 0.14783533E+04</pdfrwt>
<totfact> 0.21365638E-01</totfact>
</mgrwt>
</event>
<event>
12    1  0.2588309E-007  0.1790874E+04  0.7818608E-02  0.8711167E-01
         -1   -1    0    0    0  501 -0.00000000000E+00  0.00000000000E+00  0.10046397620E+04  0.10046397620E+04  0.00000000000E+00 0.  1.
          1   -1    0    0  501    0  0.00000000000E+00 -0.00000000000E+00 -0.79810470287E+03  0.79810470287E+03  0.00000000000E+00 0. -1.
         23    2    1    2    0    0  0.57529229622E+03 -0.33457975285E+03  0.90830305076E+02  0.67779070765E+03  0.90803424781E+02 0.  0.
        254    2    1    2    0    0 -0.57529229622E+03  0.33457975285E+03  0.11570475407E+03  0.11249537572E+04  0.89957130272E+03 0.  0.
        -24    2    4    4    0    0 -0.39684106031E+03  0.41749532994E+03 -0.30297736107E+03  0.65566595402E+03  0.79481974527E+02 0.  0.
         24    2    4    4    0    0 -0.17845123591E+03 -0.82915577086E+02  0.41868211513E+03  0.46928780321E+03  0.78844734662E+02 0.  0.
         11    1    3    3    0    0  0.18627995576E+03 -0.14001432532E+03 -0.19911559637E+01  0.23304119360E+03  0.00000000000E+00 0. -1.
        -11    1    3    3    0    0  0.38901234046E+03 -0.19456542753E+03  0.92821461040E+02  0.44474951405E+03  0.00000000000E+00 0.  1.
          2    1    6    6  502    0 -0.89242145066E+01 -0.29689067788E+02  0.96481473479E+02  0.10133980992E+03  0.00000000000E+00 0. -1.
          1    1    5    5  503    0 -0.10453216784E+03  0.13194006831E+03 -0.52314482756E+02  0.17627240523E+03  0.00000000000E+00 0. -1.
         -2    1    5    5    0  503 -0.29230889247E+03  0.28555526163E+03 -0.25066287831E+03  0.47939354879E+03  0.00000000000E+00 0.  1.
         -1    1    6    6    0  502 -0.16952702140E+03 -0.53226509298E+02  0.32220064166E+03  0.36794799328E+03  0.00000000000E+00 0.  1.
<mgrwt>
<rscale>  0 0.17908743E+04</rscale>
<asrwt>0</asrwt>
<pdfrwt beam="1">  1        1 0.12278534E+00 0.17908743E+04</pdfrwt>
<pdfrwt beam="2">  1       -1 0.15455996E+00 0.17908743E+04</pdfrwt>
<totfact> 0.67411269E+00</totfact>
</mgrwt>
</event>
<event>
12    1  0.2588309E-007  0.1619444E+04  0.7818608E-02  0.8808691E-01
          2   -1    0    0  501    0  0.00000000000E+00  0.00000000000E+00  0.11597530752E+04  0.11597530752E+04  0.00000000000E+00 0. -1.
         -2   -1    0    0    0  501 -0.00000000000E+00 -0.00000000000E+00 -0.56533552109E+03  0.56533552109E+03  0.00000000000E+00 0.  1.
         23    2    1    2    0    0  0.36316095726E+03  0.38375262244E+03  0.40369151212E+02  0.53775203794E+03  0.91627669542E+02 0.  0.
        254    2    1    2    0    0 -0.36316095726E+03 -0.38375262244E+03  0.55404840292E+03  0.11873365584E+04  0.90754973085E+03 0.  0.
        -24    2    4    4    0    0 -0.62916609217E+03 -0.36464103672E+03  0.53904217805E+03  0.90874558669E+03  0.80243469668E+02 0.  0.
         24    2    4    4    0    0  0.26600513491E+03 -0.19111585720E+02  0.15006224870E+02  0.27859097168E+03  0.79143908253E+02 0.  0.
         13    1    3    3    0    0  0.13756410423E+03  0.16984648062E+03  0.58743951847E+02  0.22632401912E+03  0.00000000000E+00 0. -1.
        -13    1    3    3    0    0  0.22559685303E+03  0.21390614183E+03 -0.18374800635E+02  0.31142801882E+03  0.00000000000E+00 0.  1.
          2    1    6    6  502    0  0.16304375351E+02 -0.56817553089E+01 -0.19628939747E+02  0.26142116873E+02  0.00000000000E+00 0. -1.
          3    1    5    5  503    0 -0.16516212112E+03 -0.88464749590E+02  0.18333977701E+03  0.26214120623E+03  0.00000000000E+00 0. -1.
         -4    1    5    5    0  503 -0.46400397105E+03 -0.27617628713E+03  0.35570240104E+03  0.64660438046E+03  0.00000000000E+00 0.  1.
         -1    1    6    6    0  502  0.24970075955E+03 -0.13429830412E+02  0.34635164617E+02  0.25244885481E+03  0.00000000000E+00 0.  1.
<mgrwt>
<rscale>  0 0.16194439E+04</rscale>
<asrwt>0</asrwt>
<pdfrwt beam="1">  1        2 0.17842355E+00 0.16194439E+04</pdfrwt>
<pdfrwt beam="2">  1       -2 0.86974696E-01 0.16194439E+04</pdfrwt>
<totfact> 0.21928281E+01</totfact>
</mgrwt>
</event>
<event>
12    1  0.2588309E-007  0.1425911E+04  0.7818608E-02  0.8935273E-01
          2   -1    0    0  501    0  0.00000000000E+00  0.00000000000E+00  0.11027858974E+04  0.11027858974E+04  0.00000000000E+00 0. -1.
         -2   -1    0    0    0  501 -0.00000000000E+00 -0.00000000000E+00 -0.46092879372E+03  0.46092879372E+03  0.00000000000E+00 0.  1.
         23    2    1    2    0    0 -0.23741088775E+02  0.34046604400E+03 -0.78619001588E+02  0.36186008302E+03  0.91000032204E+02 0.  0.
        254    2    1    2    0    0  0.23741088775E+02 -0.34046604400E+03  0.72047610523E+03  0.12018546081E+04  0.89938196240E+03 0.  0.
        -24    2    4    4    0    0  0.22775110836E+03 -0.58423918781E+03  0.44026406874E+03  0.77040471016E+03  0.80529319351E+02 0.  0.
         24    2    4    4    0    0 -0.20401001959E+03  0.24377314381E+03  0.28021203649E+03  0.43144989790E+03  0.81146751417E+02 0.  0.
         11    1    3    3    0    0 -0.63281680470E+01  0.13923254485E+03 -0.78320325035E+02  0.15987438998E+03  0.00000000000E+00 0.  1.
        -11    1    3    3    0    0 -0.17412920728E+02  0.20123349915E+03 -0.29867655315E+00  0.20198569305E+03  0.00000000000E+00 0. -1.
          4    1    6    6  502    0 -0.34633069153E+02  0.45205190775E+01  0.30554842171E+02  0.46405634914E+02  0.00000000000E+00 0. -1.
          1    1    5    5  503    0  0.22832825314E+03 -0.53417742705E+03  0.41759035885E+03  0.71544463277E+03  0.00000000000E+00 0. -1.
         -2    1    5    5    0  503 -0.57714477998E+00 -0.50061760758E+02  0.22673709896E+02  0.54960077390E+02  0.00000000000E+00 0.  1.
         -3    1    6    6    0  502 -0.16937695043E+03  0.23925262474E+03  0.24965719432E+03  0.38504426298E+03  0.00000000000E+00 0.  1.
<mgrwt>
<rscale>  0 0.14259113E+04</rscale>
<asrwt>0</asrwt>
<pdfrwt beam="1">  1        2 0.16965937E+00 0.14259113E+04</pdfrwt>
<pdfrwt beam="2">  1       -2 0.70912122E-01 0.14259113E+04</pdfrwt>
<totfact> 0.38099161E+01</totfact>
</mgrwt>
</event>
<event>
12    1  0.2588309E-007  0.1532061E+04  0.7818608E-02  0.8863408E-01
         -2   -1    0    0    0  501 -0.00000000000E+00  0.00000000000E+00  0.64717473495E+03  0.64717473495E+03  0.00000000000E+00 0.  1.
          2   -1    0    0  501    0  0.00000000000E+00 -0.00000000000E+00 -0.90671506066E+03  0.90671506066E+03  0.00000000000E+00 0. -1.
         23    2    1    2    0    0  0.41301325368E+03 -0.15532482585E+03  0.14613330147E+03  0.47389191996E+03  0.92265165478E+02 0.  0.
        254    2    1    2    0    0 -0.41301325368E+03  0.15532482585E+03 -0.40567362717E+03  0.10799978757E+04  0.89839777960E+03 0.  0.
        -24    2    4    4    0    0 -0.79283768095E+02  0.17179848220E+03 -0.63484079015E+03  0.66724598870E+03  0.79960904399E+02 0.  0.
         24    2    4    4    0    0 -0.33372948559E+03 -0.16473656346E+02  0.22916716298E+03  0.41275188695E+03  0.78738686112E+02 0.  0.
         13    1    3    3    0    0  0.20297633095E+03 -0.27378815088E+02  0.69729583328E+02  0.21635897309E+03  0.00000000000E+00 0. -1.
        -13    1    3    3    0    0  0.21003692273E+03 -0.12794601077E+03  0.76403718140E+02  0.25753294687E+03  0.00000000000E+00 0.  1.
          4    1    6    6  502    0 -0.15022331677E+03  0.31722241018E+02  0.10018069246E+03  0.18332898466E+03  0.00000000000E+00 0. -1.
          3    1    5    5  503    0 -0.23799512432E+02  0.30134152959E+01 -0.12639652030E+03  0.12865293548E+03  0.00000000000E+00 0. -1.
         -2    1    5    5    0  503 -0.55484255663E+02  0.16878506690E+03 -0.50844426985E+03  0.53859305322E+03  0.00000000000E+00 0.  1.
         -3    1    6    6    0  502 -0.18350616882E+03 -0.48195897364E+02  0.12898647052E+03  0.22942290229E+03  0.00000000000E+00 0.  1.
<mgrwt>
<rscale>  0 0.15320615E+04</rscale>
<asrwt>0</asrwt>
<pdfrwt beam="1">  1        2 0.13949462E+00 0.15320615E+04</pdfrwt>
<pdfrwt beam="2">  1       -2 0.99565344E-01 0.15320615E+04</pdfrwt>
<totfact> 0.23346562E+01</totfact>
</mgrwt>
</event>
<event>
12    1  0.2588309E-007  0.2345788E+04  0.7818608E-02  0.8460083E-01
         -1   -1    0    0    0  501 -0.00000000000E+00  0.00000000000E+00  0.68906880755E+03  0.68906880755E+03  0.00000000000E+00 0.  1.
          1   -1    0    0  501    0  0.00000000000E+00 -0.00000000000E+00 -0.19964342962E+04  0.19964342962E+04  0.00000000000E+00 0. -1.
         23    2    1    2    0    0 -0.87420727628E+03  0.40081263457E+03 -0.25604589640E+03  0.10000117686E+04  0.97851450371E+02 0.  0.
        254    2    1    2    0    0  0.87420727628E+03 -0.40081263457E+03 -0.10513195922E+04  0.16854913351E+04  0.90039937020E+03 0.  0.
        -24    2    4    4    0    0  0.10434137331E+04 -0.34403411236E+03 -0.77320229220E+03  0.13456657143E+04  0.76829299228E+02 0.  0.
         24    2    4    4    0    0 -0.16920645682E+03 -0.56778522205E+02 -0.27811730002E+03  0.33982562078E+03  0.79231271322E+02 0.  0.
         11    1    3    3    0    0 -0.83107856101E+03  0.40235934485E+03 -0.24075086131E+03  0.95422512762E+03  0.00000000000E+00 0. -1.
        -11    1    3    3    0    0 -0.43128715274E+02 -0.15467102840E+01 -0.15295035090E+02  0.45786640981E+02  0.00000000000E+00 0.  1.
          4    1    6    6  502    0 -0.33518273210E+01  0.20236040009E+01  0.50775516569E+01  0.64118055469E+01  0.00000000000E+00 0. -1.
          1    1    5    5  503    0  0.11140885544E+03 -0.29228915120E+02 -0.54887910640E+02  0.12758897007E+03  0.00000000000E+00 0. -1.
         -2    1    5    5    0  503  0.93200487766E+03 -0.31480519724E+03 -0.71831438156E+03  0.12180767443E+04  0.00000000000E+00 0.  1.
         -3    1    6    6    0  502 -0.16585462950E+03 -0.58802126206E+02 -0.28319485167E+03  0.33341381523E+03  0.00000000000E+00 0.  1.
<mgrwt>
<rscale>  0 0.23457882E+04</rscale>
<asrwt>0</asrwt>
<pdfrwt beam="1">  1        1 0.30714374E+00 0.23457882E+04</pdfrwt>
<pdfrwt beam="2">  1       -1 0.10601059E+00 0.23457882E+04</pdfrwt>
<totfact> 0.22456742E+00</totfact>
</mgrwt>
</event>
<event>
12    1  0.2588309E-007  0.1658195E+04  0.7818608E-02  0.8785573E-01
          2   -1    0    0  501    0  0.00000000000E+00  0.00000000000E+00  0.98780215475E+03  0.98780215475E+03  0.00000000000E+00 0. -1.
         -2   -1    0    0    0  501 -0.00000000000E+00 -0.00000000000E+00 -0.69589130613E+03  0.69589130613E+03  0.00000000000E+00 0.  1.
         23    2    1    2    0    0  0.49144965593E+03 -0.28391697612E+03 -0.19912215977E+02  0.57523308763E+03  0.91460347207E+02 0.  0.
        254    2    1    2    0    0 -0.49144965593E+03  0.28391697612E+03  0.31182306459E+03  0.11084603733E+04  0.89962167705E+03 0.  0.
        -24    2    4    4    0    0 -0.21850130082E+03 -0.19517923013E+03 -0.18991605588E+03  0.35876547638E+03  0.82503384304E+02 0.  0.
         24    2    4    4    0    0 -0.27294835511E+03  0.47909620626E+03  0.50173912048E+03  0.74969489688E+03  0.79160052965E+02 0.  0.
         11    1    3    3    0    0  0.31997582412E+03 -0.14700742109E+03 -0.42330523103E+02  0.35466545231E+03  0.00000000000E+00 0.  1.
        -11    1    3    3    0    0  0.17147383181E+03 -0.13690955503E+03  0.22418307126E+02  0.22056763532E+03  0.00000000000E+00 0. -1.
          2    1    6    6  502    0 -0.10639385921E+02  0.16640444927E+02  0.16987668681E+01  0.19823893387E+02  0.00000000000E+00 0. -1.
          3    1    5    5  503    0 -0.65977288386E+02 -0.21363914646E+02 -0.21216615537E+02  0.72522852996E+02  0.00000000000E+00 0. -1.
         -4    1    5    5    0  503 -0.15252401244E+03 -0.17381531548E+03 -0.16869944035E+03  0.28624262338E+03  0.00000000000E+00 0.  1.
         -1    1    6    6    0  502 -0.26230896919E+03  0.46245576133E+03  0.50004035361E+03  0.72987100349E+03  0.00000000000E+00 0.  1.
<mgrwt>
<rscale>  0 0.16581953E+04</rscale>
<asrwt>0</asrwt>
<pdfrwt beam="1">  1        2 0.15196956E+00 0.16581953E+04</pdfrwt>
<pdfrwt beam="2">  1       -2 0.10706020E+00 0.16581953E+04</pdfrwt>
<totfact> 0.17179351E+01</totfact>
</mgrwt>
</event>
<event>
12    1  0.2588309E-007  0.1316846E+04  0.7818608E-02  0.9016312E-01
          2   -1    0    0  501    0  0.00000000000E+00  0.00000000000E+00  0.24132118116E+04  0.24132118116E+04  0.00000000000E+00 0. -1.
         -2   -1    0    0    0  501 -0.00000000000E+00 -0.00000000000E+00 -0.17964478102E+03  0.17964478102E+03  0.00000000000E+00 0.  1.
         23    2    1    2    0    0  0.28154789345E+02 -0.17319782932E+03  0.11879913050E+04  0.12028214349E+04  0.68307271241E+02 0.  0.
        254    2    1    2    0    0 -0.28154789345E+02  0.17319782932E+03  0.10455757255E+04  0.13900351577E+04  0.89898774266E+03 0.  0.
        -24    2    4    4    0    0 -0.31417275043E+03  0.35351744110E+03  0.29521910180E+03  0.56308719957E+03  0.78954277726E+02 0.  0.
         24    2    4    4    0    0  0.28601796109E+03 -0.18031961179E+03  0.75035662372E+03  0.82694795808E+03  0.80538352069E+02 0.  0.
         13    1    3    3    0    0  0.48552306434E+02 -0.12088451899E+03  0.74759416242E+03  0.75885929201E+03  0.00000000000E+00 0.  1.
        -13    1    3    3    0    0 -0.20397517090E+02 -0.52313310321E+02  0.44039714261E+03  0.44396214293E+03  0.00000000000E+00 0. -1.
          4    1    6    6  502    0  0.23497053061E+03 -0.13771462934E+03  0.66600671381E+03  0.71954250203E+03  0.00000000000E+00 0. -1.
          3    1    5    5  503    0 -0.17435362916E+03  0.21482361981E+03  0.12851515679E+03  0.30506478189E+03  0.00000000000E+00 0. -1.
         -2    1    5    5    0  503 -0.13981912127E+03  0.13869382129E+03  0.16670394501E+03  0.25802241767E+03  0.00000000000E+00 0.  1.
         -3    1    6    6    0  502  0.51047430480E+02 -0.42604982443E+02  0.84349909917E+02  0.10740545606E+03  0.00000000000E+00 0.  1.
<mgrwt>
<rscale>  0 0.13168461E+04</rscale>
<asrwt>0</asrwt>
<pdfrwt beam="1">  1        2 0.37126333E+00 0.13168461E+04</pdfrwt>
<pdfrwt beam="2">  1       -2 0.27637660E-01 0.13168461E+04</pdfrwt>
<totfact> 0.45841808E+01</totfact>
</mgrwt>
</event>
<event>
12    1  0.2588309E-007  0.2007000E+04  0.7818608E-02  0.8603355E-01
         -2   -1    0    0    0  501 -0.00000000000E+00  0.00000000000E+00  0.72610674648E+03  0.72610674648E+03  0.00000000000E+00 0. -1.
          2   -1    0    0  501    0  0.00000000000E+00 -0.00000000000E+00 -0.13868651592E+04  0.13868651592E+04  0.00000000000E+00 0.  1.
         23    2    1    2    0    0  0.74737758674E+03 -0.72969426553E+02  0.29660770004E+02  0.75701005626E+03  0.91031146452E+02 0.  0.
        254    2    1    2    0    0 -0.74737758674E+03  0.72969426553E+02 -0.69041918268E+03  0.13559618494E+04  0.89333985402E+03 0.  0.
        -24    2    4    4    0    0 -0.69075728391E+03  0.12281080593E+03 -0.88477623579E+03  0.11321470017E+04  0.81851858359E+02 0.  0.
         24    2    4    4    0    0 -0.56620302824E+02 -0.49841379373E+02  0.19435705311E+03  0.22381484767E+03  0.81414987285E+02 0.  0.
         13    1    3    3    0    0  0.17199475448E+03  0.21528876816E+02  0.72134140803E+01  0.17348694893E+03  0.00000000000E+00 0. -1.
        -13    1    3    3    0    0  0.57538283226E+03 -0.94498303370E+02  0.22447355924E+02  0.58352310733E+03  0.00000000000E+00 0.  1.
          2    1    6    6  502    0 -0.45246702983E+02  0.10524559792E+02  0.11048268865E+03  0.11985180425E+03  0.00000000000E+00 0. -1.
          1    1    5    5  503    0 -0.41050771283E+03  0.78894225580E+02 -0.58969748271E+03  0.72283054877E+03  0.00000000000E+00 0. -1.
         -2    1    5    5    0  503 -0.28024957109E+03  0.43916580346E+02 -0.29507875308E+03  0.40931645294E+03  0.00000000000E+00 0.  1.
         -1    1    6    6    0  502 -0.11373599841E+02 -0.60365939165E+02  0.83874364460E+02  0.10396304343E+03  0.00000000000E+00 0.  1.
<mgrwt>
<rscale>  0 0.20069999E+04</rscale>
<asrwt>0</asrwt>
<pdfrwt beam="1">  1        2 0.21336387E+00 0.20069999E+04</pdfrwt>
<pdfrwt beam="2">  1       -2 0.11170873E+00 0.20069999E+04</pdfrwt>
<totfact> 0.86541291E+00</totfact>
</mgrwt>
</event>
<event>
12    1  0.2588309E-007  0.1435906E+04  0.7818608E-02  0.8928231E-01
          2   -1    0    0  501    0  0.00000000000E+00  0.00000000000E+00  0.47192213733E+03  0.47192213733E+03  0.00000000000E+00 0. -1.
         -2   -1    0    0    0  501 -0.00000000000E+00 -0.00000000000E+00 -0.10922483799E+04  0.10922483799E+04  0.00000000000E+00 0.  1.
         23    2    1    2    0    0 -0.13210289279E+03 -0.34641867470E+03  0.43215315867E+02  0.38444353197E+03  0.92044517938E+02 0.  0.
        254    2    1    2    0    0  0.13210289279E+03  0.34641867470E+03 -0.66354155845E+03  0.11797269853E+04  0.90222574089E+03 0.  0.
        -24    2    4    4    0    0  0.14790921889E+03 -0.13092787491E+03 -0.66192061247E+03  0.69534461134E+03  0.79661696236E+02 0.  0.
         24    2    4    4    0    0 -0.15806326096E+02  0.47734654961E+03 -0.16209459880E+01  0.48438237394E+03  0.80709902399E+02 0.  0.
         13    1    3    3    0    0 -0.10007822280E+03 -0.19377843760E+03 -0.13437628064E+02  0.21850927533E+03  0.00000000000E+00 0.  1.
        -13    1    3    3    0    0 -0.32024669990E+02 -0.15264023710E+03  0.56652943930E+02  0.16593425664E+03  0.00000000000E+00 0. -1.
          4    1    6    6  502    0  0.20929993865E+02  0.34479038133E+03 -0.17789590311E+02  0.34588284321E+03  0.00000000000E+00 0. -1.
          1    1    5    5  503    0  0.99614349495E+02 -0.12244068836E+03 -0.42409622983E+03  0.45251779296E+03  0.00000000000E+00 0. -1.
         -2    1    5    5    0  503  0.48294869392E+02 -0.84871865462E+01 -0.23782438264E+03  0.24282681837E+03  0.00000000000E+00 0.  1.
         -3    1    6    6    0  502 -0.36736319960E+02  0.13255616828E+03  0.16168644323E+02  0.13849953073E+03  0.00000000000E+00 0.  1.
<mgrwt>
<rscale>  0 0.14359056E+04</rscale>
<asrwt>0</asrwt>
<pdfrwt beam="1">  1        2 0.72603407E-01 0.14359056E+04</pdfrwt>
<pdfrwt beam="2">  1       -2 0.16803821E+00 0.14359056E+04</pdfrwt>
<totfact> 0.14055545E+01</totfact>
</mgrwt>
</event>
<event>
12    1  0.2588309E-007  0.1230315E+04  0.7818608E-02  0.9086728E-01
         -1   -1    0    0    0  501 -0.00000000000E+00  0.00000000000E+00  0.15759726179E+03  0.15759726179E+03  0.00000000000E+00 0.  1.
          1   -1    0    0  501    0  0.00000000000E+00 -0.00000000000E+00 -0.24011751308E+04  0.24011751308E+04  0.00000000000E+00 0. -1.
         23    2    1    2    0    0 -0.12362504068E+02 -0.26223693113E+03 -0.37871604347E+03  0.47011307315E+03  0.93056006850E+02 0.  0.
        254    2    1    2    0    0  0.12362504068E+02  0.26223693113E+03 -0.18648618255E+04  0.20886593194E+04  0.90325361042E+03 0.  0.
        -24    2    4    4    0    0 -0.47252521259E+02 -0.92509087484E+02  0.44353096113E+02  0.14418955960E+03  0.89625330852E+02 0.  0.
         24    2    4    4    0    0  0.59615025327E+02  0.35474601861E+03 -0.19092149216E+04  0.19444697598E+04  0.80388686242E+02 0.  0.
         13    1    3    3    0    0 -0.22795126482E+02 -0.21649913900E+03 -0.35763500125E+03  0.41868160826E+03  0.00000000000E+00 0. -1.
        -13    1    3    3    0    0  0.10432622414E+02 -0.45737792135E+02 -0.21081042223E+02  0.51431464892E+02  0.00000000000E+00 0.  1.
          4    1    6    6  502    0  0.24338106658E+02  0.11279853942E+03 -0.43150395799E+03  0.44666712403E+03  0.00000000000E+00 0. -1.
          1    1    5    5  503    0 -0.13071705128E+02 -0.23174966071E+02  0.59716554119E+02  0.65375954014E+02  0.00000000000E+00 0. -1.
         -2    1    5    5    0  503 -0.34180816132E+02 -0.69334121413E+02 -0.15363458006E+02  0.78813605586E+02  0.00000000000E+00 0.  1.
         -3    1    6    6    0  502  0.35276918669E+02  0.24194747919E+03 -0.14777109636E+04  0.14978026358E+04  0.00000000000E+00 0.  1.
<mgrwt>
<rscale>  0 0.12303148E+04</rscale>
<asrwt>0</asrwt>
<pdfrwt beam="1">  1        1 0.36941156E+00 0.12303148E+04</pdfrwt>
<pdfrwt beam="2">  1       -1 0.24245733E-01 0.12303148E+04</pdfrwt>
<totfact> 0.23229659E+01</totfact>
</mgrwt>
</event>
<event>
12    1  0.2588309E-007  0.3012236E+04  0.7818608E-02  0.8240245E-01
         -2   -1    0    0    0  501 -0.00000000000E+00  0.00000000000E+00  0.13024683164E+04  0.13024683164E+04  0.00000000000E+00 0.  1.
          2   -1    0    0  501    0  0.00000000000E+00 -0.00000000000E+00 -0.17416100969E+04  0.17416100969E+04  0.00000000000E+00 0. -1.
         23    2    1    2    0    0 -0.53298388101E+03  0.10131537652E+04 -0.96072185350E+03  0.14967370581E+04  0.81749446322E+02 0.  0.
        254    2    1    2    0    0  0.53298388101E+03 -0.10131537652E+04  0.52158007292E+03  0.15473413552E+04  0.90092570604E+03 0.  0.
        -24    2    4    4    0    0  0.52887222630E+03 -0.90534520875E+03  0.45666326975E+02  0.10524638689E+04  0.78987360549E+02 0.  0.
         24    2    4    4    0    0  0.41116547038E+01 -0.10780855641E+03  0.47591374594E+03  0.49487748633E+03  0.82281482470E+02 0.  0.
         13    1    3    3    0    0 -0.43590249995E+03  0.87032871089E+03 -0.84353420584E+03  0.12880345534E+04  0.00000000000E+00 0. -1.
        -13    1    3    3    0    0 -0.97081381060E+02  0.14282505428E+03 -0.11718764766E+03  0.20870250464E+03  0.00000000000E+00 0.  1.
          2    1    6    6  502    0 -0.31647990451E+01 -0.98494098480E+02  0.47236753919E+03  0.48253724776E+03  0.00000000000E+00 0. -1.
          3    1    5    5  503    0  0.51238871387E+03 -0.85099264451E+03  0.55184103362E+02  0.99487484659E+03  0.00000000000E+00 0. -1.
         -4    1    5    5    0  503  0.16483512431E+02 -0.54352564236E+02 -0.95177763873E+01  0.57589022291E+02  0.00000000000E+00 0.  1.
         -1    1    6    6    0  502  0.72764537489E+01 -0.93144579311E+01  0.35462067493E+01  0.12340238572E+02  0.00000000000E+00 0.  1.
<mgrwt>
<rscale>  0 0.30122364E+04</rscale>
<asrwt>0</asrwt>
<pdfrwt beam="1">  1        2 0.26794001E+00 0.30122364E+04</pdfrwt>
<pdfrwt beam="2">  1       -2 0.20037974E+00 0.30122364E+04</pdfrwt>
<totfact> 0.10515686E+00</totfact>
</mgrwt>
</event>
<event>
12    1  0.2588309E-007  0.2262471E+04  0.7818608E-02  0.8492867E-01
         -2   -1    0    0    0  501 -0.00000000000E+00  0.00000000000E+00  0.44601505562E+03  0.44601505562E+03  0.00000000000E+00 0. -1.
          2   -1    0    0  501    0  0.00000000000E+00 -0.00000000000E+00 -0.28691728449E+04  0.28691728449E+04  0.00000000000E+00 0.  1.
         23    2    1    2    0    0  0.90052609820E+03  0.13660780517E+03 -0.62832542750E+03  0.11102210480E+04  0.90493020109E+02 0.  0.
        254    2    1    2    0    0 -0.90052609820E+03 -0.13660780517E+03 -0.17948323618E+04  0.22049668525E+04  0.90047024810E+03 0.  0.
        -24    2    4    4    0    0 -0.90075921989E+03 -0.36510506689E+03 -0.11027491592E+04  0.14720469868E+04  0.78725733019E+02 0.  0.
         24    2    4    4    0    0  0.23312169519E+00  0.22849726172E+03 -0.69208320259E+03  0.73291986573E+03  0.77338976695E+02 0.  0.
         13    1    3    3    0    0  0.61786567066E+03  0.62577353772E+02 -0.46177824936E+03  0.77389473688E+03  0.00000000000E+00 0.  1.
        -13    1    3    3    0    0  0.28266042754E+03  0.74030451398E+02 -0.16654717814E+03  0.33632631116E+03  0.00000000000E+00 0. -1.
          2    1    6    6  502    0 -0.27730483915E+02  0.30315631820E+02 -0.11854243906E+03  0.12546046042E+03  0.00000000000E+00 0. -1.
          3    1    5    5  503    0 -0.28008954855E+03 -0.15318161833E+03 -0.35557699979E+03  0.47785956742E+03  0.00000000000E+00 0. -1.
         -4    1    5    5    0  503 -0.62066967135E+03 -0.21192344856E+03 -0.74717215943E+03  0.99418741936E+03  0.00000000000E+00 0.  1.
         -3    1    6    6    0  502  0.27963605610E+02  0.19818162990E+03 -0.57354076353E+03  0.60745940531E+03  0.00000000000E+00 0.  1.
<mgrwt>
<rscale>  0 0.22624715E+04</rscale>
<asrwt>0</asrwt>
<pdfrwt beam="1">  1        2 0.44141120E+00 0.22624715E+04</pdfrwt>
<pdfrwt beam="2">  1       -2 0.68617702E-01 0.22624715E+04</pdfrwt>
<totfact> 0.37077400E+00</totfact>
</mgrwt>
</event>
<event>
12    1  0.2588309E-007  0.2091746E+04  0.7818608E-02  0.8564888E-01
         -2   -1    0    0    0  501 -0.00000000000E+00  0.00000000000E+00  0.55441441199E+03  0.55441441199E+03  0.00000000000E+00 0.  1.
          2   -1    0    0  501    0  0.00000000000E+00 -0.00000000000E+00 -0.19729824924E+04  0.19729824924E+04  0.00000000000E+00 0. -1.
         23    2    1    2    0    0  0.69602560416E+03  0.48668514029E+03 -0.56477425399E+03  0.10240066897E+04  0.91135477162E+02 0.  0.
        254    2    1    2    0    0 -0.69602560416E+03 -0.48668514029E+03 -0.85379382640E+03  0.15033902147E+04  0.89994676071E+03 0.  0.
        -24    2    4    4    0    0 -0.90368338543E+03 -0.45272604472E+03 -0.73067452535E+03  0.12498361964E+04  0.81244834925E+02 0.  0.
         24    2    4    4    0    0  0.20765778127E+03 -0.33959095565E+02 -0.12311930104E+03  0.25355401824E+03  0.69687183757E+02 0.  0.
         11    1    3    3    0    0  0.35850135688E+03  0.20897051242E+03 -0.23898893860E+03  0.47886074251E+03  0.00000000000E+00 0.  1.
        -11    1    3    3    0    0  0.33752424728E+03  0.27771462787E+03 -0.32578531539E+03  0.54514594721E+03  0.00000000000E+00 0. -1.
          4    1    6    6  502    0  0.37090750374E+02 -0.17372686072E+02 -0.56287452200E+02  0.69611861488E+02  0.00000000000E+00 0. -1.
          1    1    5    5  503    0 -0.17046535399E+03 -0.71698543614E+02 -0.99174924910E+02  0.20984466588E+03  0.00000000000E+00 0. -1.
         -2    1    5    5    0  503 -0.73321803144E+03 -0.38102750111E+03 -0.63149960044E+03  0.10399915305E+04  0.00000000000E+00 0.  1.
         -3    1    6    6    0  502  0.17056703090E+03 -0.16586409493E+02 -0.66831848842E+02  0.18394215675E+03  0.00000000000E+00 0.  1.
<mgrwt>
<rscale>  0 0.20917456E+04</rscale>
<asrwt>0</asrwt>
<pdfrwt beam="1">  1        2 0.30353576E+00 0.20917456E+04</pdfrwt>
<pdfrwt beam="2">  1       -2 0.85294526E-01 0.20917456E+04</pdfrwt>
<totfact> 0.76241025E+00</totfact>
</mgrwt>
</event>
<event>
12    1  0.2588309E-007  0.1819599E+04  0.7818608E-02  0.8695946E-01
         -1   -1    0    0    0  501 -0.00000000000E+00  0.00000000000E+00  0.40986186745E+03  0.40986186745E+03  0.00000000000E+00 0.  1.
          1   -1    0    0  501    0  0.00000000000E+00 -0.00000000000E+00 -0.20195456855E+04  0.20195456855E+04  0.00000000000E+00 0. -1.
         23    2    1    2    0    0  0.12237921380E+02  0.44505034299E+03  0.83819737263E+02  0.46183598021E+03  0.89705907003E+02 0.  0.
        254    2    1    2    0    0 -0.12237921380E+02 -0.44505034299E+03 -0.16935035553E+04  0.19675715727E+04  0.89730932651E+03 0.  0.
        -24    2    4    4    0    0 -0.40634537891E+03 -0.23130358935E+03 -0.49563350854E+03  0.68615674141E+03  0.80873862203E+02 0.  0.
         24    2    4    4    0    0  0.39410745753E+03 -0.21374675364E+03 -0.11978700467E+04  0.12814148313E+04  0.78249333507E+02 0.  0.
         11    1    3    3    0    0  0.24401306927E+01  0.33318171802E+01  0.13912519333E+02  0.14512526924E+02  0.00000000000E+00 0.  1.
        -11    1    3    3    0    0  0.97977906870E+01  0.44171852581E+03  0.69907217930E+02  0.44732345329E+03  0.00000000000E+00 0. -1.
          2    1    6    6  502    0  0.27343364300E+03 -0.17706689800E+03 -0.79127904207E+03  0.85571091259E+03  0.00000000000E+00 0. -1.
          3    1    5    5  503    0 -0.15091134810E+03 -0.47454888405E+02 -0.13981563224E+03  0.21112700547E+03  0.00000000000E+00 0. -1.
         -4    1    5    5    0  503 -0.25543403081E+03 -0.18384870094E+03 -0.35581787630E+03  0.47502973594E+03  0.00000000000E+00 0.  1.
         -1    1    6    6    0  502  0.12067381453E+03 -0.36679855636E+02 -0.40659100466E+03  0.42570391870E+03  0.00000000000E+00 0.  1.
<mgrwt>
<rscale>  0 0.18195986E+04</rscale>
<asrwt>0</asrwt>
<pdfrwt beam="1">  1        1 0.31069934E+00 0.18195986E+04</pdfrwt>
<pdfrwt beam="2">  1       -1 0.63055671E-01 0.18195986E+04</pdfrwt>
<totfact> 0.69463581E+00</totfact>
</mgrwt>
</event>
<event>
12    1  0.2588309E-007  0.2491437E+04  0.7818608E-02  0.8406042E-01
          2   -1    0    0  501    0  0.00000000000E+00  0.00000000000E+00  0.42691233502E+04  0.42691233502E+04  0.00000000000E+00 0. -1.
         -2   -1    0    0    0  501 -0.00000000000E+00 -0.00000000000E+00 -0.36349736637E+03  0.36349736637E+03  0.00000000000E+00 0.  1.
         23    2    1    2    0    0  0.10213767227E+04  0.17974060713E+03  0.11322125160E+04  0.15379367069E+04  0.88470547273E+02 0.  0.
        254    2    1    2    0    0 -0.10213767227E+04 -0.17974060713E+03  0.27734134678E+04  0.30946840096E+04  0.89984985427E+03 0.  0.
        -24    2    4    4    0    0 -0.89207632111E+03 -0.90872593972E+01  0.11612712669E+04  0.14666200196E+04  0.80873887767E+02 0.  0.
         24    2    4    4    0    0 -0.12930040158E+03 -0.17065334773E+03  0.16121422010E+04  0.16280639900E+04  0.75820316596E+02 0.  0.
         13    1    3    3    0    0  0.61718579482E+03  0.65564509933E+02  0.68893539097E+03  0.92728042318E+03  0.00000000000E+00 0. -1.
        -13    1    3    3    0    0  0.40419092787E+03  0.11417609720E+03  0.44327712499E+03  0.61065628375E+03  0.00000000000E+00 0.  1.
          4    1    6    6  502    0 -0.13090152401E+02 -0.46389782274E+02  0.57938172651E+03  0.58138330643E+03  0.00000000000E+00 0. -1.
          1    1    5    5  503    0 -0.23741300954E+03 -0.21048197960E+02  0.26147843582E+03  0.35380635401E+03  0.00000000000E+00 0. -1.
         -2    1    5    5    0  503 -0.65466331156E+03  0.11960938563E+02  0.89979283104E+03  0.11128136656E+04  0.00000000000E+00 0.  1.
         -3    1    6    6    0  502 -0.11621024918E+03 -0.12426356546E+03  0.10327604745E+04  0.10466806836E+04  0.00000000000E+00 0.  1.
<mgrwt>
<rscale>  0 0.24914374E+04</rscale>
<asrwt>0</asrwt>
<pdfrwt beam="1">  1        2 0.65678817E+00 0.24914374E+04</pdfrwt>
<pdfrwt beam="2">  1       -2 0.55922675E-01 0.24914374E+04</pdfrwt>
<totfact> 0.54445860E-01</totfact>
</mgrwt>
</event>
<event>
12    1  0.2588309E-007  0.1405696E+04  0.7818608E-02  0.8949705E-01
         -2   -1    0    0    0  501 -0.00000000000E+00  0.00000000000E+00  0.27969141119E+03  0.27969141119E+03  0.00000000000E+00 0.  1.
          2   -1    0    0  501    0  0.00000000000E+00 -0.00000000000E+00 -0.17662167549E+04  0.17662167549E+04  0.00000000000E+00 0. -1.
         23    2    1    2    0    0 -0.38981492840E+03  0.95352376428E+02 -0.30730340681E+03  0.51364351325E+03  0.91359294942E+02 0.  0.
        254    2    1    2    0    0  0.38981492840E+03 -0.95352376428E+02 -0.11792219369E+04  0.15322646528E+04  0.89231319377E+03 0.  0.
        -24    2    4    4    0    0  0.52196004425E+03 -0.25470703812E+03 -0.11735402940E+04  0.13121810768E+04  0.85465745422E+02 0.  0.
         24    2    4    4    0    0 -0.13214511585E+03  0.15935466169E+03 -0.56816428487E+01  0.22008357598E+03  0.74486639784E+02 0.  0.
         13    1    3    3    0    0 -0.22345874462E+03  0.87652530627E+02 -0.22005019038E+03  0.32563608977E+03  0.00000000000E+00 0. -1.
        -13    1    3    3    0    0 -0.16635618378E+03  0.76998458013E+01 -0.87253216430E+02  0.18800742348E+03  0.00000000000E+00 0.  1.
          2    1    6    6  502    0 -0.20302481143E+02  0.30803343678E+02 -0.30530643086E+02  0.47886917729E+02  0.00000000000E+00 0. -1.
          3    1    5    5  503    0  0.15155638420E+03 -0.35627315412E+02 -0.27863270058E+03  0.31917835928E+03  0.00000000000E+00 0. -1.
         -2    1    5    5    0  503  0.37040366005E+03 -0.21907972271E+03 -0.89490759344E+03  0.99300271756E+03  0.00000000000E+00 0.  1.
         -1    1    6    6    0  502 -0.11184263471E+03  0.12855131801E+03  0.24849000237E+02  0.17219665825E+03  0.00000000000E+00 0.  1.
<mgrwt>
<rscale>  0 0.14056965E+04</rscale>
<asrwt>0</asrwt>
<pdfrwt beam="1">  1        2 0.27172566E+00 0.14056965E+04</pdfrwt>
<pdfrwt beam="2">  1       -2 0.43029447E-01 0.14056965E+04</pdfrwt>
<totfact> 0.44885032E+01</totfact>
</mgrwt>
</event>
<event>
12    1  0.2588309E-007  0.1251444E+04  0.7818608E-02  0.9068982E-01
         -1   -1    0    0    0  501 -0.00000000000E+00  0.00000000000E+00  0.52673893777E+03  0.52673893777E+03  0.00000000000E+00 0.  1.
          1   -1    0    0  501    0  0.00000000000E+00 -0.00000000000E+00 -0.74330584398E+03  0.74330584398E+03  0.00000000000E+00 0. -1.
         23    2    1    2    0    0  0.18071703892E+03  0.91395273289E+02  0.15959866398E+03  0.27278697920E+03  0.89046383072E+02 0.  0.
        254    2    1    2    0    0 -0.18071703892E+03 -0.91395273289E+02 -0.37616557019E+03  0.99725780256E+03  0.90111644332E+03 0.  0.
        -24    2    4    4    0    0  0.11401648255E+02  0.27146887057E+03  0.15380292022E+03  0.32264687456E+03  0.81365361949E+02 0.  0.
         24    2    4    4    0    0 -0.19211868718E+03 -0.36286414386E+03 -0.52996849041E+03  0.67461092800E+03  0.75188606115E+02 0.  0.
         11    1    3    3    0    0  0.73976462144E+02 -0.91337125134E+01  0.50789006835E+02  0.90196811866E+02  0.00000000000E+00 0. -1.
        -11    1    3    3    0    0  0.10674057678E+03  0.10052898580E+03  0.10880965715E+03  0.18259016733E+03  0.00000000000E+00 0.  1.
          2    1    6    6  502    0 -0.19844353557E+03 -0.35462395945E+03 -0.52193775778E+03  0.66148092370E+03  0.00000000000E+00 0. -1.
          3    1    5    5  503    0  0.41685159448E+01  0.25031539433E+03  0.16271260478E+03  0.29858091854E+03  0.00000000000E+00 0. -1.
         -2    1    5    5    0  503  0.72331323100E+01  0.21153476234E+02 -0.89096845628E+01  0.24065956013E+02  0.00000000000E+00 0.  1.
         -1    1    6    6    0  502  0.63248483937E+01 -0.82401844048E+01 -0.80307326274E+01  0.13130004294E+02  0.00000000000E+00 0.  1.
<mgrwt>
<rscale>  0 0.12514442E+04</rscale>
<asrwt>0</asrwt>
<pdfrwt beam="1">  1        1 0.11435474E+00 0.12514442E+04</pdfrwt>
<pdfrwt beam="2">  1       -1 0.81036760E-01 0.12514442E+04</pdfrwt>
<totfact> 0.37184178E+01</totfact>
</mgrwt>
</event>
<event>
12    1  0.2588309E-007  0.1277110E+04  0.7818608E-02  0.9047917E-01
         -1   -1    0    0    0  501 -0.00000000000E+00  0.00000000000E+00  0.17218509245E+03  0.17218509245E+03  0.00000000000E+00 0.  1.
          1   -1    0    0  501    0  0.00000000000E+00 -0.00000000000E+00 -0.23681060587E+04  0.23681060587E+04  0.00000000000E+00 0. -1.
         23    2    1    2    0    0 -0.25156540145E+03  0.99494704600E+02 -0.84938914927E+03  0.89607754200E+03  0.91151998965E+02 0.  0.
        254    2    1    2    0    0  0.25156540145E+03 -0.99494704600E+02 -0.13465318169E+04  0.16442136091E+04  0.90393921861E+03 0.  0.
        -24    2    4    4    0    0 -0.14836438747E+03  0.12350935507E+03 -0.10958631294E+04  0.11156089662E+04  0.80005093643E+02 0.  0.
         24    2    4    4    0    0  0.39992978892E+03 -0.22300405967E+03 -0.25066868759E+03  0.52860464289E+03  0.83147043563E+02 0.  0.
         13    1    3    3    0    0 -0.15128853357E+03  0.99749358256E+02 -0.47193250744E+03  0.50552788889E+03  0.00000000000E+00 0. -1.
        -13    1    3    3    0    0 -0.10027686788E+03 -0.25465365589E+00 -0.37745664183E+03  0.39054965311E+03  0.00000000000E+00 0.  1.
          4    1    6    6  502    0  0.23843210384E+03 -0.15079136734E+03 -0.11082884906E+03  0.30310219133E+03  0.00000000000E+00 0. -1.
          3    1    5    5  503    0 -0.43026504923E+01  0.40782506247E+02 -0.28179840785E+03  0.28476669097E+03  0.00000000000E+00 0. -1.
         -4    1    5    5    0  503 -0.14406173698E+03  0.82726848818E+02 -0.81406472150E+03  0.83084227527E+03  0.00000000000E+00 0.  1.
         -3    1    6    6    0  502  0.16149768508E+03 -0.72212692326E+02 -0.13983983853E+03  0.22550245156E+03  0.00000000000E+00 0.  1.
<mgrwt>
<rscale>  0 0.12771101E+04</rscale>
<asrwt>0</asrwt>
<pdfrwt beam="1">  1        1 0.36432397E+00 0.12771101E+04</pdfrwt>
<pdfrwt beam="2">  1       -1 0.26490017E-01 0.12771101E+04</pdfrwt>
<totfact> 0.20929504E+01</totfact>
</mgrwt>
</event>
<event>
12    1  0.2588309E-007  0.3412853E+04  0.7818608E-02  0.8134759E-01
          2   -1    0    0  501    0  0.00000000000E+00  0.00000000000E+00  0.27108939487E+04  0.27108939487E+04  0.00000000000E+00 0. -1.
         -2   -1    0    0    0  501 -0.00000000000E+00 -0.00000000000E+00 -0.10741441038E+04  0.10741441038E+04  0.00000000000E+00 0.  1.
         23    2    1    2    0    0  0.79706977482E+03  0.95231814983E+03  0.18562065523E+04  0.22353242142E+04  0.94559470584E+02 0.  0.
        254    2    1    2    0    0 -0.79706977482E+03 -0.95231814983E+03 -0.21945670739E+03  0.15497138384E+04  0.90067843872E+03 0.  0.
        -24    2    4    4    0    0 -0.65211305075E+03 -0.78587018823E+03 -0.53658693229E+03  0.11564192163E+04  0.80848526742E+02 0.  0.
         24    2    4    4    0    0 -0.14495672406E+03 -0.16644796159E+03  0.31713022490E+03  0.39329462203E+03  0.73428226206E+02 0.  0.
         13    1    3    3    0    0  0.42088005773E+01  0.25209268985E+02  0.37732311050E+02  0.45573550907E+02  0.00000000000E+00 0.  1.
        -13    1    3    3    0    0  0.79286097424E+03  0.92710888084E+03  0.18184742412E+04  0.21897506633E+04  0.00000000000E+00 0. -1.
          2    1    6    6  502    0 -0.12733590525E+02 -0.37685463225E+00  0.13709740320E+01  0.12812724802E+02  0.00000000000E+00 0. -1.
          1    1    5    5  503    0 -0.94571492867E+02 -0.12748343909E+03 -0.52757002816E+02  0.16726953055E+03  0.00000000000E+00 0. -1.
         -2    1    5    5    0  503 -0.55754155788E+03 -0.65838674914E+03 -0.48382992947E+03  0.98914968577E+03  0.00000000000E+00 0.  1.
         -1    1    6    6    0  502 -0.13222313354E+03 -0.16607110696E+03  0.31575925087E+03  0.38048189723E+03  0.00000000000E+00 0.  1.
<mgrwt>
<rscale>  0 0.34128526E+04</rscale>
<asrwt>0</asrwt>
<pdfrwt beam="1">  1        2 0.41706060E+00 0.34128526E+04</pdfrwt>
<pdfrwt beam="2">  1       -2 0.16525294E+00 0.34128526E+04</pdfrwt>
<totfact> 0.49894630E-01</totfact>
</mgrwt>
</event>
<event>
12    1  0.2588309E-007  0.1279781E+04  0.7818608E-02  0.9045754E-01
          1   -1    0    0  501    0  0.00000000000E+00  0.00000000000E+00  0.70169177684E+03  0.70169177684E+03  0.00000000000E+00 0. -1.
         -1   -1    0    0    0  501 -0.00000000000E+00 -0.00000000000E+00 -0.58353251701E+03  0.58353251701E+03  0.00000000000E+00 0.  1.
         23    2    1    2    0    0  0.29538924042E+03  0.12836799435E+02  0.13819634951E+03  0.33970936291E+03  0.94258333633E+02 0.  0.
        254    2    1    2    0    0 -0.29538924042E+03 -0.12836799435E+02 -0.20037089675E+02  0.94551493093E+03  0.89787382905E+03 0.  0.
        -24    2    4    4    0    0  0.12263431562E+03  0.16291059380E+03 -0.32583187734E+03  0.39256025447E+03  0.79737721059E+02 0.  0.
         24    2    4    4    0    0 -0.41802355604E+03 -0.17574739323E+03  0.30579478767E+03  0.55295467646E+03  0.81348524452E+02 0.  0.
         11    1    3    3    0    0  0.22864173020E+03 -0.18667203037E+02  0.71652551724E+02  0.24033225631E+03  0.00000000000E+00 0.  1.
        -11    1    3    3    0    0  0.66747510218E+02  0.31504002471E+02  0.66543797783E+02  0.99377106596E+02  0.00000000000E+00 0. -1.
          4    1    6    6  502    0 -0.68090060701E+02 -0.91397182357E+01  0.20476046214E+02  0.71687232365E+02  0.00000000000E+00 0. -1.
          1    1    5    5  503    0  0.10969640765E+02 -0.88384868794E+01 -0.21139126802E+02  0.25403042155E+02  0.00000000000E+00 0. -1.
         -2    1    5    5    0  503  0.11166467486E+03  0.17174908068E+03 -0.30469275054E+03  0.36715721231E+03  0.00000000000E+00 0.  1.
         -3    1    6    6    0  502 -0.34993349534E+03 -0.16660767500E+03  0.28531874145E+03  0.48126744410E+03  0.00000000000E+00 0.  1.
<mgrwt>
<rscale>  0 0.12797812E+04</rscale>
<asrwt>0</asrwt>
<pdfrwt beam="1">  1        1 0.10795258E+00 0.12797812E+04</pdfrwt>
<pdfrwt beam="2">  1       -1 0.89774233E-01 0.12797812E+04</pdfrwt>
<totfact> 0.32459925E+01</totfact>
</mgrwt>
</event>
<event>
12    1  0.2588309E-007  0.3706887E+04  0.7818608E-02  0.8066437E-01
          2   -1    0    0  501    0  0.00000000000E+00  0.00000000000E+00  0.28041625118E+04  0.28041625118E+04  0.00000000000E+00 0.  1.
         -2   -1    0    0    0  501 -0.00000000000E+00 -0.00000000000E+00 -0.12250550221E+04  0.12250550221E+04  0.00000000000E+00 0. -1.
         23    2    1    2    0    0  0.14480525897E+04 -0.65049908478E+03 -0.41251777629E+02  0.15906692734E+04  0.92312872561E+02 0.  0.
        254    2    1    2    0    0 -0.14480525897E+04  0.65049908478E+03  0.16203592674E+04  0.24385482605E+04  0.89495703904E+03 0.  0.
        -24    2    4    4    0    0 -0.13771356138E+04  0.25363847696E+03  0.13491248123E+04  0.19460731271E+04  0.78916925070E+02 0.  0.
         24    2    4    4    0    0 -0.70916975910E+02  0.39686060782E+03  0.27123445505E+03  0.49247513342E+03  0.80225107816E+02 0.  0.
         11    1    3    3    0    0  0.11197830964E+04 -0.50036927733E+03 -0.70490426769E+02  0.12285163804E+04  0.00000000000E+00 0. -1.
        -11    1    3    3    0    0  0.32826949325E+03 -0.15012980745E+03  0.29238649140E+02  0.36215289297E+03  0.00000000000E+00 0.  1.
          2    1    6    6  502    0 -0.48530930580E+02  0.36054514929E+03  0.21746811843E+03  0.42384010951E+03  0.00000000000E+00 0. -1.
          3    1    5    5  503    0 -0.94570375974E+03  0.17020255370E+03  0.97551419752E+03  0.13692890345E+04  0.00000000000E+00 0. -1.
         -4    1    5    5    0  503 -0.43143185402E+03  0.83435923261E+02  0.37361061480E+03  0.57678409257E+03  0.00000000000E+00 0.  1.
         -1    1    6    6    0  502 -0.22386045329E+02  0.36315458531E+02  0.53766336620E+02  0.68635023911E+02  0.00000000000E+00 0.  1.
<mgrwt>
<rscale>  0 0.37068873E+04</rscale>
<asrwt>0</asrwt>
<pdfrwt beam="1">  1        2 0.43140961E+00 0.37068873E+04</pdfrwt>
<pdfrwt beam="2">  1       -2 0.18847000E+00 0.37068873E+04</pdfrwt>
<totfact> 0.29471103E-01</totfact>
</mgrwt>
</event>
<event>
12    1  0.2588309E-007  0.2464578E+04  0.7818608E-02  0.8415714E-01
         -1   -1    0    0    0  501 -0.00000000000E+00  0.00000000000E+00  0.17613957018E+04  0.17613957018E+04  0.00000000000E+00 0.  1.
          1   -1    0    0  501    0  0.00000000000E+00 -0.00000000000E+00 -0.86212129414E+03  0.86212129414E+03  0.00000000000E+00 0. -1.
         23    2    1    2    0    0 -0.28021523373E+02 -0.80762963354E+03 -0.34728225121E+03  0.88535931072E+03  0.10102136571E+03 0.  0.
        254    2    1    2    0    0  0.28021523373E+02  0.80762963354E+03  0.12465566589E+04  0.17381576852E+04  0.90235126433E+03 0.  0.
        -24    2    4    4    0    0  0.19002813737E+03  0.61189350386E+03  0.22743241543E+03  0.68462148342E+03  0.80353711271E+02 0.  0.
         24    2    4    4    0    0 -0.16200661399E+03  0.19573612968E+03  0.10191242434E+04  0.10535362018E+04  0.82252839041E+02 0.  0.
         11    1    3    3    0    0 -0.45695784805E+02 -0.37406648937E+03 -0.11985102115E+03  0.39544672270E+03  0.00000000000E+00 0. -1.
        -11    1    3    3    0    0  0.17674261433E+02 -0.43356314416E+03 -0.22743123006E+03  0.48991258802E+03  0.00000000000E+00 0.  1.
          4    1    6    6  502    0 -0.64745449867E+02  0.37089061711E+02  0.19807807941E+03  0.21166600417E+03  0.00000000000E+00 0. -1.
          1    1    5    5  503    0  0.13661051747E+03  0.30851158091E+03  0.10868200891E+03  0.35447652687E+03  0.00000000000E+00 0. -1.
         -2    1    5    5    0  503  0.53417619893E+02  0.30338192295E+03  0.11875040652E+03  0.33014495655E+03  0.00000000000E+00 0.  1.
         -3    1    6    6    0  502 -0.97261164127E+02  0.15864706797E+03  0.82104616404E+03  0.84187019765E+03  0.00000000000E+00 0.  1.
<mgrwt>
<rscale>  0 0.24645785E+04</rscale>
<asrwt>0</asrwt>
<pdfrwt beam="1">  1        1 0.13263405E+00 0.24645785E+04</pdfrwt>
<pdfrwt beam="2">  1       -1 0.27098395E+00 0.24645785E+04</pdfrwt>
<totfact> 0.88759020E-01</totfact>
</mgrwt>
</event>
<event>
12    1  0.2588309E-007  0.2394745E+04  0.7818608E-02  0.8441474E-01
         -1   -1    0    0    0  501 -0.00000000000E+00  0.00000000000E+00  0.89478446960E+03  0.89478446960E+03  0.00000000000E+00 0.  1.
          1   -1    0    0  501    0  0.00000000000E+00 -0.00000000000E+00 -0.16022863773E+04  0.16022863773E+04  0.00000000000E+00 0. -1.
         23    2    1    2    0    0 -0.47926064548E+03 -0.90796070867E+03 -0.25608598464E+03  0.10620752833E+04  0.91326125329E+02 0.  0.
        254    2    1    2    0    0  0.47926064548E+03  0.90796070867E+03 -0.45141592303E+03  0.14349955635E+04  0.89518295166E+03 0.  0.
        -24    2    4    4    0    0  0.69185416551E+03  0.68912300434E+03 -0.52676777945E+03  0.11124039840E+04  0.80035171124E+02 0.  0.
         24    2    4    4    0    0 -0.21259352003E+03  0.21883770433E+03  0.75351856420E+02  0.32259157956E+03  0.72811258337E+02 0.  0.
         13    1    3    3    0    0 -0.27945187194E+03 -0.46322444154E+03 -0.16922076096E+03  0.56683851131E+03  0.00000000000E+00 0. -1.
        -13    1    3    3    0    0 -0.19980877354E+03 -0.44473626714E+03 -0.86865223681E+02  0.49523677203E+03  0.00000000000E+00 0.  1.
          2    1    6    6  502    0 -0.27874176982E+02  0.72171686007E+02  0.11332083136E+02  0.78192954361E+02  0.00000000000E+00 0. -1.
          1    1    5    5  503    0  0.12359662868E+02  0.13245314225E+02 -0.24204402491E+02  0.30233304733E+02  0.00000000000E+00 0. -1.
         -2    1    5    5    0  503  0.67949450264E+03  0.67587769011E+03 -0.50256337696E+03  0.10821706792E+04  0.00000000000E+00 0.  1.
         -1    1    6    6    0  502 -0.18471934305E+03  0.14666601832E+03  0.64019773284E+02  0.24439862520E+03  0.00000000000E+00 0.  1.
<mgrwt>
<rscale>  0 0.23947451E+04</rscale>
<asrwt>0</asrwt>
<pdfrwt beam="1">  1        1 0.24650559E+00 0.23947451E+04</pdfrwt>
<pdfrwt beam="2">  1       -1 0.13765915E+00 0.23947451E+04</pdfrwt>
<totfact> 0.21833628E+00</totfact>
</mgrwt>
</event>
<event>
12    1  0.2588309E-007  0.2172238E+04  0.7818608E-02  0.8530073E-01
          2   -1    0    0  501    0  0.00000000000E+00  0.00000000000E+00  0.28782225764E+04  0.28782225764E+04  0.00000000000E+00 0. -1.
         -2   -1    0    0    0  501 -0.00000000000E+00 -0.00000000000E+00 -0.40985527342E+03  0.40985527342E+03  0.00000000000E+00 0.  1.
         23    2    1    2    0    0 -0.30845122644E+03  0.52866889657E+03  0.20420286444E+04  0.21336099371E+04  0.88189670977E+02 0.  0.
        254    2    1    2    0    0  0.30845122644E+03 -0.52866889657E+03  0.42633865862E+03  0.11544679127E+04  0.88113480714E+03 0.  0.
        -24    2    4    4    0    0  0.28858335340E+03 -0.28818812621E+03 -0.21266487027E+03  0.46689840155E+03  0.80218591154E+02 0.  0.
         24    2    4    4    0    0  0.19867873041E+02 -0.24048077035E+03  0.63900352889E+03  0.68756951116E+03  0.78743821746E+02 0.  0.
         11    1    3    3    0    0 -0.77718431796E+02  0.10895996305E+03  0.57529731130E+03  0.59066015997E+03  0.00000000000E+00 0. -1.
        -11    1    3    3    0    0 -0.23073279465E+03  0.41970893352E+03  0.14667313331E+04  0.15429497772E+04  0.00000000000E+00 0.  1.
          2    1    6    6  502    0  0.97136724736E+01 -0.15911245455E+03  0.31103135998E+03  0.34950198213E+03  0.00000000000E+00 0. -1.
          3    1    5    5  503    0  0.52036468471E+02 -0.99022536482E+02 -0.43876283194E+02  0.12015983110E+03  0.00000000000E+00 0. -1.
         -4    1    5    5    0  503  0.23654688493E+03 -0.18916558973E+03 -0.16878858708E+03  0.34673857045E+03  0.00000000000E+00 0.  1.
         -1    1    6    6    0  502  0.10154200567E+02 -0.81368315806E+02  0.32797216891E+03  0.33806752903E+03  0.00000000000E+00 0.  1.
<mgrwt>
<rscale>  0 0.21722382E+04</rscale>
<asrwt>0</asrwt>
<pdfrwt beam="1">  1        2 0.44280346E+00 0.21722382E+04</pdfrwt>
<pdfrwt beam="2">  1       -2 0.63054659E-01 0.21722382E+04</pdfrwt>
<totfact> 0.44275356E+00</totfact>
</mgrwt>
</event>
<event>
12    1  0.2588309E-007  0.2124936E+04  0.7818608E-02  0.8550338E-01
         -2   -1    0    0    0  501 -0.00000000000E+00  0.00000000000E+00  0.10607496268E+04  0.10607496268E+04  0.00000000000E+00 0.  1.
          2   -1    0    0  501    0  0.00000000000E+00 -0.00000000000E+00 -0.10641891463E+04  0.10641891463E+04  0.00000000000E+00 0. -1.
         23    2    1    2    0    0 -0.79924099485E+03 -0.12828924150E+03  0.31424770395E+03  0.87326835292E+03  0.92745347254E+02 0.  0.
        254    2    1    2    0    0  0.79924099485E+03  0.12828924150E+03 -0.31768722343E+03  0.12516704202E+04  0.90028293974E+03 0.  0.
        -24    2    4    4    0    0 -0.54384766795E+02  0.19781347770E+03  0.15611475408E+03  0.26997790955E+03  0.80177181172E+02 0.  0.
         24    2    4    4    0    0  0.85362576164E+03 -0.69524236199E+02 -0.47380197751E+03  0.98169251067E+03  0.75639349953E+02 0.  0.
         13    1    3    3    0    0 -0.19652249318E+03  0.84628531185E+01  0.72945664931E+02  0.20979461443E+03  0.00000000000E+00 0.  1.
        -13    1    3    3    0    0 -0.60271850166E+03 -0.13675209462E+03  0.24130203902E+03  0.66347373849E+03  0.00000000000E+00 0. -1.
          2    1    6    6  502    0  0.93113053327E+02 -0.17541554331E+02 -0.28846845494E+02  0.99044875300E+02  0.00000000000E+00 0. -1.
          3    1    5    5  503    0 -0.53321888912E+02  0.72392174415E+02  0.37729946431E+02  0.97505895265E+02  0.00000000000E+00 0. -1.
         -4    1    5    5    0  503 -0.10628778833E+01  0.12542130329E+03  0.11838480765E+03  0.17247201428E+03  0.00000000000E+00 0.  1.
         -1    1    6    6    0  502  0.76051270831E+03 -0.51982681868E+02 -0.44495513201E+03  0.88264763537E+03  0.00000000000E+00 0.  1.
<mgrwt>
<rscale>  0 0.21249360E+04</rscale>
<asrwt>0</asrwt>
<pdfrwt beam="1">  1        2 0.16372141E+00 0.21249360E+04</pdfrwt>
<pdfrwt beam="2">  1       -2 0.16319225E+00 0.21249360E+04</pdfrwt>
<totfact> 0.50327172E+00</totfact>
</mgrwt>
</event>
<event>
12    1  0.2588309E-007  0.1858401E+04  0.7818608E-02  0.8675844E-01
          1   -1    0    0  501    0  0.00000000000E+00  0.00000000000E+00  0.16208099231E+04  0.16208099231E+04  0.00000000000E+00 0. -1.
         -1   -1    0    0    0  501 -0.00000000000E+00 -0.00000000000E+00 -0.53270528628E+03  0.53270528628E+03  0.00000000000E+00 0.  1.
         23    2    1    2    0    0 -0.21163221148E+03 -0.51873693680E+03 -0.81976941640E+02  0.57416862520E+03  0.95253286912E+02 0.  0.
        254    2    1    2    0    0  0.21163221148E+03  0.51873693680E+03  0.11700815785E+04  0.15793465842E+04  0.90075997369E+03 0.  0.
        -24    2    4    4    0    0 -0.11527656187E+02  0.51494990962E+03  0.12297624972E+04  0.13356273245E+04  0.79235434666E+02 0.  0.
         24    2    4    4    0    0  0.22315986766E+03  0.37870271874E+01 -0.59680918719E+02  0.24371925972E+03  0.77605395369E+02 0.  0.
         11    1    3    3    0    0 -0.80010275865E+02 -0.31326404993E+03 -0.30261256940E+02  0.32473335661E+03  0.00000000000E+00 0. -1.
        -11    1    3    3    0    0 -0.13162193561E+03 -0.20547288687E+03 -0.51715684701E+02  0.24943526859E+03  0.00000000000E+00 0.  1.
          4    1    6    6  502    0  0.56133841467E+02  0.87761138726E+01  0.17787042427E+02  0.59534924296E+02  0.00000000000E+00 0. -1.
          3    1    5    5  503    0 -0.34153841672E+02  0.21835320361E+03  0.45834404451E+03  0.50884562450E+03  0.00000000000E+00 0. -1.
         -4    1    5    5    0  503  0.22626185486E+02  0.29659670601E+03  0.77141845269E+03  0.82678169999E+03  0.00000000000E+00 0.  1.
         -3    1    6    6    0  502  0.16702602620E+03 -0.49890866852E+01 -0.77467961146E+02  0.18418433543E+03  0.00000000000E+00 0.  1.
<mgrwt>
<rscale>  0 0.18584015E+04</rscale>
<asrwt>0</asrwt>
<pdfrwt beam="1">  1        1 0.24935537E+00 0.18584015E+04</pdfrwt>
<pdfrwt beam="2">  1       -1 0.81954660E-01 0.18584015E+04</pdfrwt>
<totfact> 0.75093943E+00</totfact>
</mgrwt>
</event>
<event>
12    1  0.2588309E-007  0.1950671E+04  0.7818608E-02  0.8630037E-01
          1   -1    0    0  501    0  0.00000000000E+00  0.00000000000E+00  0.32348659666E+04  0.32348659666E+04  0.00000000000E+00 0. -1.
         -1   -1    0    0    0  501 -0.00000000000E+00 -0.00000000000E+00 -0.29407068690E+03  0.29407068690E+03  0.00000000000E+00 0.  1.
         23    2    1    2    0    0 -0.63383633798E+03 -0.20095338046E+03  0.47849928628E+03  0.82429365025E+03  0.91475080769E+02 0.  0.
        254    2    1    2    0    0  0.63383633798E+03  0.20095338046E+03  0.24622959935E+04  0.27046430033E+04  0.90003413903E+03 0.  0.
        -24    2    4    4    0    0  0.83945684753E+03  0.47300795866E+02  0.19741145123E+04  0.21472262578E+04  0.80791895129E+02 0.  0.
         24    2    4    4    0    0 -0.20562050955E+03  0.15365258459E+03  0.48818148111E+03  0.55741674546E+03  0.80643405960E+02 0.  0.
         11    1    3    3    0    0 -0.11945575486E+03 -0.74457960650E+02  0.11636336616E+03  0.18263104407E+03  0.00000000000E+00 0. -1.
        -11    1    3    3    0    0 -0.51438058313E+03 -0.12649541981E+03  0.36213592012E+03  0.64166260618E+03  0.00000000000E+00 0.  1.
          4    1    6    6  502    0 -0.20410059096E+03  0.15013105688E+03  0.49109270117E+03  0.55260150797E+03  0.00000000000E+00 0. -1.
          1    1    5    5  503    0  0.67471624695E+03  0.58528500013E+02  0.15210960775E+04  0.16650528148E+04  0.00000000000E+00 0. -1.
         -2    1    5    5    0  503  0.16474060058E+03 -0.11227704147E+02  0.45301843484E+03  0.48217344299E+03  0.00000000000E+00 0.  1.
         -3    1    6    6    0  502 -0.15199185862E+01  0.35215277054E+01 -0.29112200562E+01  0.48152374919E+01  0.00000000000E+00 0.  1.
<mgrwt>
<rscale>  0 0.19506709E+04</rscale>
<asrwt>0</asrwt>
<pdfrwt beam="1">  1        1 0.49767166E+00 0.19506709E+04</pdfrwt>
<pdfrwt beam="2">  1       -1 0.45241646E-01 0.19506709E+04</pdfrwt>
<totfact> 0.18133846E+00</totfact>
</mgrwt>
</event>
<event>
12    1  0.2588309E-007  0.2581839E+04  0.7818608E-02  0.8374396E-01
         -2   -1    0    0    0  501 -0.00000000000E+00  0.00000000000E+00  0.61741901668E+03  0.61741901668E+03  0.00000000000E+00 0.  1.
          2   -1    0    0  501    0  0.00000000000E+00 -0.00000000000E+00 -0.26990951316E+04  0.26990951316E+04  0.00000000000E+00 0. -1.
         23    2    1    2    0    0 -0.86288258558E+03 -0.26137844185E+03 -0.34427127473E+02  0.90681990127E+03  0.90840849136E+02 0.  0.
        254    2    1    2    0    0  0.86288258558E+03  0.26137844185E+03 -0.20472489875E+04  0.24096942470E+04  0.89583084404E+03 0.  0.
        -24    2    4    4    0    0 -0.43993825403E+02 -0.10467613946E+03  0.85810687770E+00  0.13897914424E+03  0.80136853821E+02 0.  0.
         24    2    4    4    0    0  0.90687641098E+03  0.36605458131E+03 -0.20481070943E+04  0.22707151028E+04  0.70594807582E+02 0.  0.
         13    1    3    3    0    0 -0.15762238004E+03 -0.85438914216E+02 -0.76342375390E+01  0.17945167688E+03  0.00000000000E+00 0.  1.
        -13    1    3    3    0    0 -0.70526020554E+03 -0.17593952763E+03 -0.26792889934E+02  0.72736822439E+03  0.00000000000E+00 0. -1.
          2    1    6    6  502    0  0.34719784118E+03  0.15970035493E+03 -0.73280050936E+03  0.82646665438E+03  0.00000000000E+00 0. -1.
          3    1    5    5  503    0  0.12053655513E+02 -0.57723589190E+01 -0.19349739829E+02  0.23516444675E+02  0.00000000000E+00 0. -1.
         -4    1    5    5    0  503 -0.56047480916E+02 -0.98903780538E+02  0.20207846706E+02  0.11546269956E+03  0.00000000000E+00 0.  1.
         -1    1    6    6    0  502  0.55967856980E+03  0.20635422638E+03 -0.13153065850E+04  0.14442484484E+04  0.00000000000E+00 0.  1.
<mgrwt>
<rscale>  0 0.25818386E+04</rscale>
<asrwt>0</asrwt>
<pdfrwt beam="1">  1        2 0.41524541E+00 0.25818386E+04</pdfrwt>
<pdfrwt beam="2">  1       -2 0.94987540E-01 0.25818386E+04</pdfrwt>
<totfact> 0.21954802E+00</totfact>
</mgrwt>
</event>
<event>
12    1  0.2588309E-007  0.2128657E+04  0.7818608E-02  0.8548724E-01
          1   -1    0    0  501    0  0.00000000000E+00  0.00000000000E+00  0.12348804874E+04  0.12348804874E+04  0.00000000000E+00 0. -1.
         -1   -1    0    0    0  501 -0.00000000000E+00 -0.00000000000E+00 -0.91733209318E+03  0.91733209318E+03  0.00000000000E+00 0.  1.
         23    2    1    2    0    0 -0.76422831367E+03 -0.33954764856E+03 -0.11509758244E+03  0.84920652704E+03  0.92556744914E+02 0.  0.
        254    2    1    2    0    0  0.76422831367E+03  0.33954764856E+03  0.43264597665E+03  0.13030060535E+04  0.90072454911E+03 0.  0.
        -24    2    4    4    0    0  0.86644641143E+03  0.20241156099E+03  0.57896925936E+03  0.10638967903E+04  0.70506406124E+02 0.  0.
         24    2    4    4    0    0 -0.10221809777E+03  0.13713608757E+03 -0.14632328272E+03  0.23910926318E+03  0.80671498371E+02 0.  0.
         13    1    3    3    0    0 -0.55133958139E+03 -0.20020182734E+03 -0.68700306258E+02  0.59057246613E+03  0.00000000000E+00 0.  1.
        -13    1    3    3    0    0 -0.21288873228E+03 -0.13934582122E+03 -0.46397276178E+02  0.25863406090E+03  0.00000000000E+00 0. -1.
          2    1    6    6  502    0  0.13970603083E+02  0.13089758336E+02 -0.15222984410E+02  0.24459329062E+02  0.00000000000E+00 0. -1.
          1    1    5    5  503    0  0.28861669750E+03  0.34929415077E+02  0.17737936793E+03  0.34056291971E+03  0.00000000000E+00 0. -1.
         -2    1    5    5    0  503  0.57782971393E+03  0.16748214591E+03  0.40158989143E+03  0.72333387063E+03  0.00000000000E+00 0.  1.
         -1    1    6    6    0  502 -0.11618870085E+03  0.12404632923E+03 -0.13110029831E+03  0.21464993412E+03  0.00000000000E+00 0.  1.
<mgrwt>
<rscale>  0 0.21286573E+04</rscale>
<asrwt>0</asrwt>
<pdfrwt beam="1">  1        1 0.18998161E+00 0.21286573E+04</pdfrwt>
<pdfrwt beam="2">  1       -1 0.14112801E+00 0.21286573E+04</pdfrwt>
<totfact> 0.37948842E+00</totfact>
</mgrwt>
</event>
<event>
12    1  0.2588309E-007  0.2005286E+04  0.7818608E-02  0.8604153E-01
         -2   -1    0    0    0  501 -0.00000000000E+00  0.00000000000E+00  0.76334811631E+03  0.76334811631E+03  0.00000000000E+00 0.  1.
          2   -1    0    0  501    0  0.00000000000E+00 -0.00000000000E+00 -0.13169519575E+04  0.13169519575E+04  0.00000000000E+00 0. -1.
         23    2    1    2    0    0 -0.43781350203E+03 -0.17134586514E+03  0.44516328747E+03  0.65302160144E+03  0.85010536896E+02 0.  0.
        254    2    1    2    0    0  0.43781350203E+03  0.17134586514E+03 -0.99876712861E+03  0.14272784723E+04  0.90473642145E+03 0.  0.
        -24    2    4    4    0    0  0.67193168250E+03  0.84777421108E+02 -0.44374080925E+03  0.81352683210E+03  0.78997491568E+02 0.  0.
         24    2    4    4    0    0 -0.23411818047E+03  0.86568444028E+02 -0.55502631936E+03  0.61375164022E+03  0.79570363596E+02 0.  0.
         11    1    3    3    0    0 -0.25963961919E+03 -0.95478785354E+02  0.31731407681E+03  0.42097167796E+03  0.00000000000E+00 0.  1.
        -11    1    3    3    0    0 -0.17817388284E+03 -0.75867079782E+02  0.12784921066E+03  0.23204992348E+03  0.00000000000E+00 0. -1.
          2    1    6    6  502    0 -0.37951229656E+02 -0.72743304900E+01 -0.45079915834E+02  0.59375167604E+02  0.00000000000E+00 0. -1.
          3    1    5    5  503    0  0.80362023396E+02  0.21673345777E+02 -0.28333787109E+02  0.87923786391E+02  0.00000000000E+00 0. -1.
         -4    1    5    5    0  503  0.59156965910E+03  0.63104075330E+02 -0.41540702214E+03  0.72560304571E+03  0.00000000000E+00 0.  1.
         -1    1    6    6    0  502 -0.19616695082E+03  0.93842774518E+02 -0.50994640353E+03  0.55437647262E+03  0.00000000000E+00 0.  1.
<mgrwt>
<rscale>  0 0.20052858E+04</rscale>
<asrwt>0</asrwt>
<pdfrwt beam="1">  1        2 0.20260799E+00 0.20052858E+04</pdfrwt>
<pdfrwt beam="2">  1       -2 0.11743817E+00 0.20052858E+04</pdfrwt>
<totfact> 0.84070802E+00</totfact>
</mgrwt>
</event>
<event>
12    1  0.2588309E-007  0.2165644E+04  0.7818608E-02  0.8532865E-01
          2   -1    0    0  501    0  0.00000000000E+00  0.00000000000E+00  0.23197163999E+04  0.23197163999E+04  0.00000000000E+00 0. -1.
         -2   -1    0    0    0  501 -0.00000000000E+00 -0.00000000000E+00 -0.50545141747E+03  0.50545141747E+03  0.00000000000E+00 0.  1.
         23    2    1    2    0    0 -0.71167431119E+03 -0.13081203143E+03  0.69044466933E+02  0.73235612487E+03  0.89365778995E+02 0.  0.
        254    2    1    2    0    0  0.71167431119E+03  0.13081203143E+03  0.17452205155E+04  0.20928116925E+04  0.90026330578E+03 0.  0.
        -24    2    4    4    0    0  0.13388018477E+03  0.15223146454E+03  0.13961846159E+04  0.14129839551E+04  0.78063135634E+02 0.  0.
         24    2    4    4    0    0  0.57779412642E+03 -0.21419433103E+02  0.34903589962E+03  0.67982773737E+03  0.77684288190E+02 0.  0.
         13    1    3    3    0    0 -0.21554101849E+03 -0.29705953097E+02  0.60976290637E+02  0.22596124075E+03  0.00000000000E+00 0. -1.
        -13    1    3    3    0    0 -0.49613329270E+03 -0.10110607834E+03  0.80681762960E+01  0.50639488413E+03  0.00000000000E+00 0.  1.
          2    1    6    6  502    0  0.45991120665E+03 -0.37988484949E+02  0.30370367088E+03  0.55244670575E+03  0.00000000000E+00 0. -1.
          1    1    5    5  503    0  0.12903029318E+03  0.11704458263E+03  0.12701066656E+04  0.12819981252E+04  0.00000000000E+00 0. -1.
         -2    1    5    5    0  503  0.48498915877E+01  0.35186881909E+02  0.12607795021E+03  0.13098582991E+03  0.00000000000E+00 0.  1.
         -1    1    6    6    0  502  0.11788291977E+03  0.16569051847E+02  0.45332228735E+02  0.12738103162E+03  0.00000000000E+00 0.  1.
<mgrwt>
<rscale>  0 0.21656444E+04</rscale>
<asrwt>0</asrwt>
<pdfrwt beam="1">  1        2 0.35687944E+00 0.21656444E+04</pdfrwt>
<pdfrwt beam="2">  1       -2 0.77761758E-01 0.21656444E+04</pdfrwt>
<totfact> 0.59658312E+00</totfact>
</mgrwt>
</event>
<event>
12    1  0.2588309E-007  0.2219981E+04  0.7818608E-02  0.8510158E-01
         -2   -1    0    0    0  501 -0.00000000000E+00  0.00000000000E+00  0.12295606524E+04  0.12295606524E+04  0.00000000000E+00 0.  1.
          2   -1    0    0  501    0  0.00000000000E+00 -0.00000000000E+00 -0.10020477224E+04  0.10020477224E+04  0.00000000000E+00 0. -1.
         23    2    1    2    0    0  0.31292194534E+03  0.80481207705E+03  0.43011546256E+03  0.96899093133E+03  0.91112516200E+02 0.  0.
        254    2    1    2    0    0 -0.31292194534E+03 -0.80481207705E+03 -0.20260253262E+03  0.12626174435E+04  0.89861693680E+03 0.  0.
        -24    2    4    4    0    0  0.19247156760E+03 -0.56908349268E+03  0.11399519935E+03  0.61617283341E+03  0.75978478370E+02 0.  0.
         24    2    4    4    0    0 -0.50539351294E+03 -0.23572858437E+03 -0.31659773196E+03  0.64644461008E+03  0.81645217877E+02 0.  0.
         13    1    3    3    0    0  0.36020269420E+02  0.18402419912E+03  0.11281036034E+03  0.21883451069E+03  0.00000000000E+00 0. -1.
        -13    1    3    3    0    0  0.27690167592E+03  0.62078787794E+03  0.31730510222E+03  0.75015642063E+03  0.00000000000E+00 0.  1.
          4    1    6    6  502    0 -0.12284977845E+01  0.62742609394E+00  0.37886754519E+01  0.40319885900E+01  0.00000000000E+00 0. -1.
          3    1    5    5  503    0 -0.37316287140E+01 -0.17933580023E+02  0.13063087268E+02  0.22498502045E+02  0.00000000000E+00 0. -1.
         -4    1    5    5    0  503  0.19620319631E+03 -0.55114991266E+03  0.10093211208E+03  0.59367433136E+03  0.00000000000E+00 0.  1.
         -3    1    6    6    0  502 -0.50416501515E+03 -0.23635601047E+03 -0.32038640741E+03  0.64241262149E+03  0.00000000000E+00 0.  1.
<mgrwt>
<rscale>  0 0.22199806E+04</rscale>
<asrwt>0</asrwt>
<pdfrwt beam="1">  1        2 0.15416119E+00 0.22199806E+04</pdfrwt>
<pdfrwt beam="2">  1       -2 0.18916318E+00 0.22199806E+04</pdfrwt>
<totfact> 0.35975182E+00</totfact>
</mgrwt>
</event>
<event>
12    1  0.2588309E-007  0.1876717E+04  0.7818608E-02  0.8666533E-01
          1   -1    0    0  501    0  0.00000000000E+00  0.00000000000E+00  0.21557886194E+04  0.21557886194E+04  0.00000000000E+00 0. -1.
         -1   -1    0    0    0  501 -0.00000000000E+00 -0.00000000000E+00 -0.40844303222E+03  0.40844303222E+03  0.00000000000E+00 0.  1.
         23    2    1    2    0    0  0.11304752328E+03  0.70451460636E+03  0.55475014409E+03  0.90828082800E+03  0.90032033504E+02 0.  0.
        254    2    1    2    0    0 -0.11304752328E+03 -0.70451460636E+03  0.11925954430E+04  0.16559508236E+04  0.90042693552E+03 0.  0.
        -24    2    4    4    0    0  0.13332090972E+03 -0.18035378786E+03  0.10181080832E+04  0.10456647662E+04  0.81048012679E+02 0.  0.
         24    2    4    4    0    0 -0.24636843301E+03 -0.52416081850E+03  0.17448735983E+03  0.61028605739E+03  0.81001633738E+02 0.  0.
         13    1    3    3    0    0  0.42623085206E+02  0.30529475978E+03  0.18443435742E+03  0.35921810915E+03  0.00000000000E+00 0.  1.
        -13    1    3    3    0    0  0.70424438075E+02  0.39921984658E+03  0.37031578667E+03  0.54906271886E+03  0.00000000000E+00 0. -1.
          2    1    6    6  502    0 -0.11889754194E+03 -0.17567742824E+03  0.85407412144E+02  0.22867796204E+03  0.00000000000E+00 0. -1.
          1    1    5    5  503    0  0.12762572188E+03 -0.15294451312E+03  0.96784258085E+03  0.98812934897E+03  0.00000000000E+00 0. -1.
         -2    1    5    5    0  503  0.56951878406E+01 -0.27409274736E+02  0.50265502362E+02  0.57535417212E+02  0.00000000000E+00 0.  1.
         -3    1    6    6    0  502 -0.12747089106E+03 -0.34848339026E+03  0.89079947687E+02  0.38160809535E+03  0.00000000000E+00 0.  1.
<mgrwt>
<rscale>  0 0.18767172E+04</rscale>
<asrwt>0</asrwt>
<pdfrwt beam="1">  1        1 0.33165978E+00 0.18767172E+04</pdfrwt>
<pdfrwt beam="2">  1       -1 0.62837391E-01 0.18767172E+04</pdfrwt>
<totfact> 0.56242124E+00</totfact>
</mgrwt>
</event>
<event>
12    1  0.2588309E-007  0.1453215E+04  0.7818608E-02  0.8916175E-01
         -2   -1    0    0    0  501 -0.00000000000E+00  0.00000000000E+00  0.22168620512E+03  0.22168620512E+03  0.00000000000E+00 0.  1.
          2   -1    0    0  501    0  0.00000000000E+00 -0.00000000000E+00 -0.23815577363E+04  0.23815577363E+04  0.00000000000E+00 0. -1.
         23    2    1    2    0    0  0.66856709315E+02  0.21904335584E+03 -0.13372079723E+04  0.13598226323E+04  0.92426288258E+02 0.  0.
        254    2    1    2    0    0 -0.66856709315E+02 -0.21904335584E+03 -0.82266355884E+03  0.12434213091E+04  0.90380938786E+03 0.  0.
        -24    2    4    4    0    0 -0.41736618801E+03  0.64575312897E+02 -0.58985348696E+03  0.72980409924E+03  0.79513402997E+02 0.  0.
         24    2    4    4    0    0  0.35050947870E+03 -0.28361866874E+03 -0.23281007188E+03  0.51361720987E+03  0.79408216144E+02 0.  0.
         13    1    3    3    0    0  0.28909918736E+02  0.26542043108E+02 -0.10506839101E+03  0.11215895079E+03  0.00000000000E+00 0.  1.
        -13    1    3    3    0    0  0.37946790579E+02  0.19250131273E+03 -0.12321395813E+04  0.12476636815E+04  0.00000000000E+00 0. -1.
          2    1    6    6  502    0  0.30699152689E+03 -0.21083183009E+03 -0.17918569852E+03  0.41328122715E+03  0.00000000000E+00 0. -1.
          1    1    5    5  503    0 -0.20973865541E+03  0.29179186919E+01 -0.33610833465E+03  0.39619140632E+03  0.00000000000E+00 0. -1.
         -2    1    5    5    0  503 -0.20762753260E+03  0.61657394205E+02 -0.25374515232E+03  0.33361269292E+03  0.00000000000E+00 0.  1.
         -1    1    6    6    0  502  0.43517951808E+02 -0.72786838647E+02 -0.53624373353E+02  0.10033598271E+03  0.00000000000E+00 0.  1.
<mgrwt>
<rscale>  0 0.14532151E+04</rscale>
<asrwt>0</asrwt>
<pdfrwt beam="1">  1        2 0.36639349E+00 0.14532151E+04</pdfrwt>
<pdfrwt beam="2">  1       -2 0.34105570E-01 0.14532151E+04</pdfrwt>
<totfact> 0.31864613E+01</totfact>
</mgrwt>
</event>
<event>
12    1  0.2588309E-007  0.1238995E+04  0.7818608E-02  0.9079392E-01
         -2   -1    0    0    0  501 -0.00000000000E+00  0.00000000000E+00  0.76472201300E+03  0.76472201300E+03  0.00000000000E+00 0.  1.
          2   -1    0    0  501    0  0.00000000000E+00 -0.00000000000E+00 -0.50185216451E+03  0.50185216451E+03  0.00000000000E+00 0. -1.
         23    2    1    2    0    0 -0.13690643324E+03 -0.22081840486E+03  0.17254915646E+03  0.32566031235E+03  0.93687182998E+02 0.  0.
        254    2    1    2    0    0  0.13690643324E+03  0.22081840486E+03  0.90320692037E+02  0.94091386516E+03  0.89980938807E+03 0.  0.
        -24    2    4    4    0    0  0.20003691027E+03 -0.13775316586E+03 -0.30483707075E+03  0.39753316524E+03  0.78206633884E+02 0.  0.
         24    2    4    4    0    0 -0.63130477029E+02  0.35857157072E+03  0.39515776279E+03  0.54338069993E+03  0.80956155422E+02 0.  0.
         13    1    3    3    0    0 -0.27715175581E+02 -0.65291828627E+02  0.99235509722E+02  0.12197885158E+03  0.00000000000E+00 0.  1.
        -13    1    3    3    0    0 -0.10919125766E+03 -0.15552657623E+03  0.73313646737E+02  0.20368146077E+03  0.00000000000E+00 0. -1.
          4    1    6    6  502    0 -0.32928282444E+02  0.76816538154E+02  0.52357809905E+02  0.98622475008E+02  0.00000000000E+00 0. -1.
          1    1    5    5  503    0  0.81471746602E+02 -0.48346740722E+02 -0.63094209645E+02  0.11382412804E+03  0.00000000000E+00 0. -1.
         -2    1    5    5    0  503  0.11856516366E+03 -0.89406425138E+02 -0.24174286111E+03  0.28370903720E+03  0.00000000000E+00 0.  1.
         -3    1    6    6    0  502 -0.30202194584E+02  0.28175503256E+03  0.34279995289E+03  0.44475822492E+03  0.00000000000E+00 0.  1.
<mgrwt>
<rscale>  0 0.12389954E+04</rscale>
<asrwt>0</asrwt>
<pdfrwt beam="1">  1        2 0.77208025E-01 0.12389954E+04</pdfrwt>
<pdfrwt beam="2">  1       -2 0.11764954E+00 0.12389954E+04</pdfrwt>
<totfact> 0.33644930E+01</totfact>
</mgrwt>
</event>
<event>
12    1  0.2588309E-007  0.1479514E+04  0.7818608E-02  0.8898191E-01
          2   -1    0    0  501    0  0.00000000000E+00  0.00000000000E+00  0.85095263588E+03  0.85095263588E+03  0.00000000000E+00 0. -1.
         -2   -1    0    0    0  501 -0.00000000000E+00 -0.00000000000E+00 -0.64309187477E+03  0.64309187477E+03  0.00000000000E+00 0.  1.
         23    2    1    2    0    0 -0.27563361878E+03 -0.35649783563E+03  0.15702117964E+03  0.48613363216E+03  0.92766690412E+02 0.  0.
        254    2    1    2    0    0  0.27563361878E+03  0.35649783563E+03  0.50839581461E+02  0.10079108785E+04  0.90013058904E+03 0.  0.
        -24    2    4    4    0    0  0.45102454660E+03 -0.60406215282E+02 -0.17743278340E+03  0.49493443342E+03  0.80035293982E+02 0.  0.
         24    2    4    4    0    0 -0.17539092781E+03  0.41690405091E+03  0.22827236486E+03  0.51297644507E+03  0.80408926201E+02 0.  0.
         13    1    3    3    0    0 -0.11440123035E+03 -0.14274496726E+03  0.11238552418E+03  0.21469576901E+03  0.00000000000E+00 0. -1.
        -13    1    3    3    0    0 -0.16123238843E+03 -0.21375286836E+03  0.44635655461E+02  0.27143786315E+03  0.00000000000E+00 0.  1.
          2    1    6    6  502    0 -0.72756895634E+02  0.12192847654E+03  0.36957373917E+02  0.14671730212E+03  0.00000000000E+00 0. -1.
          1    1    5    5  503    0  0.87503209315E+02 -0.43915031298E+02 -0.31195802818E+02  0.10275465794E+03  0.00000000000E+00 0. -1.
         -2    1    5    5    0  503  0.36352133728E+03 -0.16491183983E+02 -0.14623698059E+03  0.39217977549E+03  0.00000000000E+00 0.  1.
         -1    1    6    6    0  502 -0.10263403218E+03  0.29497557437E+03  0.19131499095E+03  0.36625914295E+03  0.00000000000E+00 0.  1.
<mgrwt>
<rscale>  0 0.14795144E+04</rscale>
<asrwt>0</asrwt>
<pdfrwt beam="1">  1        2 0.13091579E+00 0.14795144E+04</pdfrwt>
<pdfrwt beam="2">  1       -2 0.98937211E-01 0.14795144E+04</pdfrwt>
<totfact> 0.25984407E+01</totfact>
</mgrwt>
</event>
<event>
12    1  0.2588309E-007  0.1233243E+04  0.7818608E-02  0.9084246E-01
          1   -1    0    0  501    0  0.00000000000E+00  0.00000000000E+00  0.11937295142E+04  0.11937295142E+04  0.00000000000E+00 0. -1.
         -1   -1    0    0    0  501 -0.00000000000E+00 -0.00000000000E+00 -0.31851611761E+03  0.31851611761E+03  0.00000000000E+00 0.  1.
         23    2    1    2    0    0  0.21007563180E+03 -0.14083760288E+03  0.34097995803E+03  0.43521496655E+03  0.95800489927E+02 0.  0.
        254    2    1    2    0    0 -0.21007563180E+03  0.14083760288E+03  0.53423343851E+03  0.10770306652E+04  0.90034586994E+03 0.  0.
        -24    2    4    4    0    0  0.21306731722E+03  0.15125233041E+03  0.58276980638E+03  0.64360809509E+03  0.79597636399E+02 0.  0.
         24    2    4    4    0    0 -0.42314294903E+03 -0.10414727526E+02 -0.48536367865E+02  0.43342257012E+03  0.79629915392E+02 0.  0.
         11    1    3    3    0    0  0.46089974731E+02 -0.50344617995E+02  0.16354134488E+03  0.17721353734E+03  0.00000000000E+00 0. -1.
        -11    1    3    3    0    0  0.16398565707E+03 -0.90492984887E+02  0.17743861315E+03  0.25800142921E+03  0.00000000000E+00 0.  1.
          4    1    6    6  502    0 -0.33748588838E+03 -0.15234533059E+02 -0.65167530683E+01  0.33789241472E+03  0.00000000000E+00 0. -1.
          3    1    5    5  503    0  0.12757471510E+03  0.12533309350E+03  0.32736537783E+03  0.37303053878E+03  0.00000000000E+00 0. -1.
         -4    1    5    5    0  503  0.85492602126E+02  0.25919236909E+02  0.25540442854E+03  0.27057755631E+03  0.00000000000E+00 0.  1.
         -3    1    6    6    0  502 -0.85657060649E+02  0.48198055336E+01 -0.42019614796E+02  0.95530155407E+02  0.00000000000E+00 0.  1.
<mgrwt>
<rscale>  0 0.12332430E+04</rscale>
<asrwt>0</asrwt>
<pdfrwt beam="1">  1        1 0.18365069E+00 0.12332430E+04</pdfrwt>
<pdfrwt beam="2">  1       -1 0.49002480E-01 0.12332430E+04</pdfrwt>
<totfact> 0.44460049E+01</totfact>
</mgrwt>
</event>
<event>
12    1  0.2588309E-007  0.1577986E+04  0.7818608E-02  0.8834188E-01
         -2   -1    0    0    0  501 -0.00000000000E+00  0.00000000000E+00  0.64686796719E+03  0.64686796719E+03  0.00000000000E+00 0.  1.
          2   -1    0    0  501    0  0.00000000000E+00 -0.00000000000E+00 -0.96234408922E+03  0.96234408922E+03  0.00000000000E+00 0. -1.
         23    2    1    2    0    0 -0.18537725192E+03 -0.26316733854E+03  0.31735317620E+03  0.46112290118E+03  0.91101690157E+02 0.  0.
        254    2    1    2    0    0  0.18537725192E+03  0.26316733854E+03 -0.63282929824E+03  0.11480891552E+04  0.90222725188E+03 0.  0.
        -24    2    4    4    0    0  0.35332880717E+03 -0.19777217065E+03 -0.46946102829E+03  0.62510064970E+03  0.80013047135E+02 0.  0.
         24    2    4    4    0    0 -0.16795155526E+03  0.46093950919E+03 -0.16336826995E+03  0.52298850553E+03  0.78452719784E+02 0.  0.
         13    1    3    3    0    0 -0.14215936420E+03 -0.14276383411E+03  0.15370992529E+03  0.25341179588E+03  0.00000000000E+00 0.  1.
        -13    1    3    3    0    0 -0.43217887719E+02 -0.12040350443E+03  0.16364325091E+03  0.20771110530E+03  0.00000000000E+00 0. -1.
          4    1    6    6  502    0 -0.44403927755E+02  0.16487951238E+03 -0.21099709153E+02  0.17205278297E+03  0.00000000000E+00 0. -1.
          1    1    5    5  503    0  0.41386535115E+02 -0.27248733000E+02 -0.10425983437E+03  0.11543592076E+03  0.00000000000E+00 0. -1.
         -2    1    5    5    0  503  0.31194227206E+03 -0.17052343765E+03 -0.36520119391E+03  0.50966472893E+03  0.00000000000E+00 0.  1.
         -1    1    6    6    0  502 -0.12354762750E+03  0.29605999681E+03 -0.14226856080E+03  0.35093572255E+03  0.00000000000E+00 0.  1.
<mgrwt>
<rscale>  0 0.15779855E+04</rscale>
<asrwt>0</asrwt>
<pdfrwt beam="1">  1        2 0.14805294E+00 0.15779855E+04</pdfrwt>
<pdfrwt beam="2">  1       -2 0.99518149E-01 0.15779855E+04</pdfrwt>
<totfact> 0.21389989E+01</totfact>
</mgrwt>
</event>
<event>
12    1  0.2588309E-007  0.1466064E+04  0.7818608E-02  0.8907339E-01
          1   -1    0    0  501    0  0.00000000000E+00  0.00000000000E+00  0.17477396009E+04  0.17477396009E+04  0.00000000000E+00 0. -1.
         -1   -1    0    0    0  501 -0.00000000000E+00 -0.00000000000E+00 -0.30744615781E+03  0.30744615781E+03  0.00000000000E+00 0.  1.
         23    2    1    2    0    0  0.28974338813E+03 -0.55479334488E+02  0.93686926493E+03  0.98641707718E+03  0.90914482106E+02 0.  0.
        254    2    1    2    0    0 -0.28974338813E+03  0.55479334488E+02  0.50342417821E+03  0.10687686816E+04  0.89543364020E+03 0.  0.
        -24    2    4    4    0    0 -0.56511650715E+02 -0.23841607934E+03  0.61698072660E+03  0.66867343467E+03  0.80144567333E+02 0.  0.
         24    2    4    4    0    0 -0.23323173741E+03  0.29389541383E+03 -0.11355654840E+03  0.40009524691E+03  0.80059723407E+02 0.  0.
         13    1    3    3    0    0  0.61000074296E+02 -0.50103325016E+02  0.27557297109E+03  0.28665626565E+03  0.00000000000E+00 0.  1.
        -13    1    3    3    0    0  0.22874331383E+03 -0.53760094729E+01  0.66129629384E+03  0.69976081153E+03  0.00000000000E+00 0. -1.
          2    1    6    6  502    0 -0.16147510018E+03  0.24603648635E+03 -0.10863229958E+03  0.31370230650E+03  0.00000000000E+00 0. -1.
          1    1    5    5  503    0 -0.16788377513E+02 -0.18610946056E+03  0.50980651147E+03  0.54297445619E+03  0.00000000000E+00 0. -1.
         -2    1    5    5    0  503 -0.39723273202E+02 -0.52306618784E+02  0.10717421513E+03  0.12569897848E+03  0.00000000000E+00 0.  1.
         -1    1    6    6    0  502 -0.71756637230E+02  0.47858927481E+02 -0.49242488192E+01  0.86392940410E+02  0.00000000000E+00 0.  1.
<mgrwt>
<rscale>  0 0.14660639E+04</rscale>
<asrwt>0</asrwt>
<pdfrwt beam="1">  1        1 0.26888301E+00 0.14660639E+04</pdfrwt>
<pdfrwt beam="2">  1       -1 0.47299410E-01 0.14660639E+04</pdfrwt>
<totfact> 0.19131024E+01</totfact>
</mgrwt>
</event>
<event>
12    1  0.2588309E-007  0.4045325E+04  0.7818608E-02  0.7995465E-01
         -2   -1    0    0    0  501 -0.00000000000E+00  0.00000000000E+00  0.23575502751E+04  0.23575502751E+04  0.00000000000E+00 0.  1.
          2   -1    0    0  501    0  0.00000000000E+00 -0.00000000000E+00 -0.17353453188E+04  0.17353453188E+04  0.00000000000E+00 0. -1.
         23    2    1    2    0    0 -0.38507802125E+03  0.15930828190E+04 -0.71877614829E+03  0.17920319797E+04  0.92420313155E+02 0.  0.
        254    2    1    2    0    0  0.38507802125E+03 -0.15930828190E+04  0.13409811046E+04  0.23008636142E+04  0.89974724103E+03 0.  0.
        -24    2    4    4    0    0  0.45626897559E+02 -0.13250495638E+04  0.13007082407E+04  0.18590732361E+04  0.80456256723E+02 0.  0.
         24    2    4    4    0    0  0.33945112369E+03 -0.26803325517E+03  0.40272863919E+02  0.44179037817E+03  0.80547771084E+02 0.  0.
         11    1    3    3    0    0 -0.24505586707E+03  0.11151005675E+04 -0.46170007157E+03  0.12315310023E+04  0.00000000000E+00 0.  1.
        -11    1    3    3    0    0 -0.14002215418E+03  0.47798225154E+03 -0.25707607672E+03  0.56050097740E+03  0.00000000000E+00 0. -1.
          2    1    6    6  502    0  0.31437659904E+03 -0.21663470689E+03  0.25050547680E+02  0.38261047058E+03  0.00000000000E+00 0. -1.
          3    1    5    5  503    0  0.72655498679E+01 -0.14921879247E+03  0.11281900926E+03  0.18720888091E+03  0.00000000000E+00 0. -1.
         -4    1    5    5    0  503  0.38361347691E+02 -0.11758307714E+04  0.11878892314E+04  0.16718643552E+04  0.00000000000E+00 0.  1.
         -1    1    6    6    0  502  0.25074524647E+02 -0.51398548279E+02  0.15222316240E+02  0.59179907596E+02  0.00000000000E+00 0.  1.
<mgrwt>
<rscale>  0 0.40453251E+04</rscale>
<asrwt>0</asrwt>
<pdfrwt beam="1">  1        2 0.26697620E+00 0.40453251E+04</pdfrwt>
<pdfrwt beam="2">  1       -2 0.36270004E+00 0.40453251E+04</pdfrwt>
<totfact> 0.95196185E-02</totfact>
</mgrwt>
</event>
<event>
12    1  0.2588309E-007  0.3176388E+04  0.7818608E-02  0.8195081E-01
         -2   -1    0    0    0  501 -0.00000000000E+00  0.00000000000E+00  0.13556447780E+04  0.13556447780E+04  0.00000000000E+00 0.  1.
          2   -1    0    0  501    0  0.00000000000E+00 -0.00000000000E+00 -0.18606344832E+04  0.18606344832E+04  0.00000000000E+00 0. -1.
         23    2    1    2    0    0 -0.19546202998E+03 -0.11685270418E+04 -0.10957233933E+04  0.16156571071E+04  0.77956915091E+02 0.  0.
        254    2    1    2    0    0  0.19546202998E+03  0.11685270418E+04  0.59073368815E+03  0.16006221540E+04  0.89964667339E+03 0.  0.
        -24    2    4    4    0    0  0.50294586442E+03  0.73950605157E+03  0.57553338425E+03  0.10663602471E+04  0.77857288709E+02 0.  0.
         24    2    4    4    0    0 -0.30748383444E+03  0.42902099027E+03  0.15200303895E+02  0.53426190690E+03  0.81236798241E+02 0.  0.
         13    1    3    3    0    0 -0.62981469346E+02 -0.37428888797E+03 -0.40138670963E+03  0.55242205587E+03  0.00000000000E+00 0. -1.
        -13    1    3    3    0    0 -0.13248056063E+03 -0.79423815386E+03 -0.69433668366E+03  0.10632350513E+04  0.00000000000E+00 0.  1.
          2    1    6    6  502    0 -0.16071698885E+02  0.46293691660E+02 -0.17684273392E+02  0.52097398380E+02  0.00000000000E+00 0. -1.
          1    1    5    5  503    0  0.43038671031E+01 -0.12377813075E+01  0.11132143626E+01  0.46146094984E+01  0.00000000000E+00 0. -1.
         -2    1    5    5    0  503  0.49864199731E+03  0.74074383288E+03  0.57442016989E+03  0.10617456376E+04  0.00000000000E+00 0.  1.
         -1    1    6    6    0  502 -0.29141213556E+03  0.38272729861E+03  0.32884577287E+02  0.48216450852E+03  0.00000000000E+00 0.  1.
<mgrwt>
<rscale>  0 0.31763875E+04</rscale>
<asrwt>0</asrwt>
<pdfrwt beam="1">  1        2 0.28625146E+00 0.31763875E+04</pdfrwt>
<pdfrwt beam="2">  1       -2 0.20856073E+00 0.31763875E+04</pdfrwt>
<totfact> 0.78819954E-01</totfact>
</mgrwt>
</event>
<event>
12    1  0.2588309E-007  0.2225914E+04  0.7818608E-02  0.8507719E-01
          2   -1    0    0  501    0  0.00000000000E+00  0.00000000000E+00  0.24264108291E+04  0.24264108291E+04  0.00000000000E+00 0.  1.
         -2   -1    0    0    0  501 -0.00000000000E+00 -0.00000000000E+00 -0.51049615727E+03  0.51049615727E+03  0.00000000000E+00 0. -1.
         23    2    1    2    0    0  0.46203138440E+03 -0.63180728590E+03  0.14394839216E+03  0.80108475946E+03  0.91445095766E+02 0.  0.
        254    2    1    2    0    0 -0.46203138440E+03  0.63180728590E+03  0.17719662797E+04  0.21358222269E+04  0.89956580746E+03 0.  0.
        -24    2    4    4    0    0 -0.49314975853E+03 -0.44517685407E+02  0.87899578550E+03  0.10123723743E+04  0.84176746770E+02 0.  0.
         24    2    4    4    0    0  0.31118374125E+02  0.67632497131E+03  0.89297049418E+03  0.11234498526E+04  0.79746145949E+02 0.  0.
         11    1    3    3    0    0  0.25389361394E+03 -0.29362188176E+03  0.37592286636E+02  0.38998584162E+03  0.00000000000E+00 0. -1.
        -11    1    3    3    0    0  0.20813777046E+03 -0.33818540414E+03  0.10635610552E+03  0.41109891784E+03  0.00000000000E+00 0.  1.
          2    1    6    6  502    0  0.22981536926E+02  0.46060105787E+03  0.54480181965E+03  0.71378603814E+03  0.00000000000E+00 0. -1.
          3    1    5    5  503    0 -0.38551687843E+03 -0.59076662322E+00  0.69376260752E+03  0.79368140217E+03  0.00000000000E+00 0. -1.
         -4    1    5    5    0  503 -0.10763288010E+03 -0.43926918784E+02  0.18523317798E+03  0.21869097215E+03  0.00000000000E+00 0.  1.
         -1    1    6    6    0  502  0.81368371986E+01  0.21572391344E+03  0.34816867453E+03  0.40966381446E+03  0.00000000000E+00 0.  1.
<mgrwt>
<rscale>  0 0.22259141E+04</rscale>
<asrwt>0</asrwt>
<pdfrwt beam="1">  1        2 0.37329397E+00 0.22259141E+04</pdfrwt>
<pdfrwt beam="2">  1       -2 0.78537872E-01 0.22259141E+04</pdfrwt>
<totfact> 0.50449371E+00</totfact>
</mgrwt>
</event>
<event>
12    1  0.2588309E-007  0.3015713E+04  0.7818608E-02  0.8239258E-01
         -2   -1    0    0    0  501 -0.00000000000E+00  0.00000000000E+00  0.17189586366E+04  0.17189586366E+04  0.00000000000E+00 0.  1.
          2   -1    0    0  501    0  0.00000000000E+00 -0.00000000000E+00 -0.13226790645E+04  0.13226790645E+04  0.00000000000E+00 0. -1.
         23    2    1    2    0    0  0.38567023911E+03  0.12824360905E+04  0.48111706842E+03  0.14259688014E+04  0.92355452143E+02 0.  0.
        254    2    1    2    0    0 -0.38567023911E+03 -0.12824360905E+04 -0.84837496334E+02  0.16156688997E+04  0.89989151192E+03 0.  0.
        -24    2    4    4    0    0 -0.14445300651E+03 -0.53873315742E+02 -0.29585446613E+03  0.34346497248E+03  0.81665886111E+02 0.  0.
         24    2    4    4    0    0 -0.24121723259E+03 -0.12285627747E+04  0.21101696979E+03  0.12722039272E+04  0.80140040958E+02 0.  0.
         11    1    3    3    0    0  0.14904242570E+03  0.54547420038E+03  0.24925803835E+03  0.61796870279E+03  0.00000000000E+00 0.  1.
        -11    1    3    3    0    0  0.23662781341E+03  0.73696189007E+03  0.23185903007E+03  0.80800009859E+03  0.00000000000E+00 0. -1.
          4    1    6    6  502    0 -0.80656005406E+02 -0.24932502882E+03  0.53819273930E+02  0.26751612185E+03  0.00000000000E+00 0. -1.
          1    1    5    5  503    0  0.75740043759E+01  0.55681497880E+01 -0.71568500946E+01  0.11814835489E+02  0.00000000000E+00 0. -1.
         -2    1    5    5    0  503 -0.15202701089E+03 -0.59441465530E+02 -0.28869761603E+03  0.33165013699E+03  0.00000000000E+00 0.  1.
         -3    1    6    6    0  502 -0.16056122719E+03 -0.97923774589E+03  0.15719769586E+03  0.10046878054E+04  0.00000000000E+00 0.  1.
<mgrwt>
<rscale>  0 0.30157126E+04</rscale>
<asrwt>0</asrwt>
<pdfrwt beam="1">  1        2 0.20348909E+00 0.30157126E+04</pdfrwt>
<pdfrwt beam="2">  1       -2 0.26445518E+00 0.30157126E+04</pdfrwt>
<totfact> 0.71837385E-01</totfact>
</mgrwt>
</event>
<event>
12    1  0.2588309E-007  0.2038707E+04  0.7818608E-02  0.8588735E-01
          1   -1    0    0  501    0  0.00000000000E+00  0.00000000000E+00  0.80688004426E+03  0.80688004426E+03  0.00000000000E+00 0. -1.
         -1   -1    0    0    0  501 -0.00000000000E+00 -0.00000000000E+00 -0.12877775275E+04  0.12877775275E+04  0.00000000000E+00 0.  1.
         23    2    1    2    0    0  0.61346464751E+03 -0.76531929610E+02  0.35531972869E+03  0.71887474944E+03  0.91284093895E+02 0.  0.
        254    2    1    2    0    0 -0.61346464751E+03  0.76531929610E+02 -0.83621721191E+03  0.13757828223E+04  0.90073477707E+03 0.  0.
        -24    2    4    4    0    0 -0.11416102256E+03  0.35318188614E+03 -0.23023838358E+02  0.37903137315E+03  0.73242753440E+02 0.  0.
         24    2    4    4    0    0 -0.49930362495E+03 -0.27664995653E+03 -0.81319337356E+03  0.99675144914E+03  0.79941730282E+02 0.  0.
         13    1    3    3    0    0  0.10183711732E+03 -0.44268498511E+02  0.46399226473E+02  0.12034694280E+03  0.00000000000E+00 0. -1.
        -13    1    3    3    0    0  0.51162753019E+03 -0.32263431100E+02  0.30892050222E+03  0.59852780665E+03  0.00000000000E+00 0.  1.
          2    1    6    6  502    0 -0.12242928760E+02 -0.17204892062E+02 -0.55599338342E+02  0.59474230046E+02  0.00000000000E+00 0. -1.
          3    1    5    5  503    0 -0.46030976851E+02  0.56430272276E+02  0.65992875230E+01  0.73121659273E+02  0.00000000000E+00 0. -1.
         -4    1    5    5    0  503 -0.68130045714E+02  0.29675161386E+03 -0.29623125881E+02  0.30590971388E+03  0.00000000000E+00 0.  1.
         -1    1    6    6    0  502 -0.48706069618E+03 -0.25944506446E+03 -0.75759403521E+03  0.93727721909E+03  0.00000000000E+00 0.  1.
<mgrwt>
<rscale>  0 0.20387074E+04</rscale>
<asrwt>0</asrwt>
<pdfrwt beam="1">  1        1 0.12413539E+00 0.20387074E+04</pdfrwt>
<pdfrwt beam="2">  1       -1 0.19811962E+00 0.20387074E+04</pdfrwt>
<totfact> 0.31263066E+00</totfact>
</mgrwt>
</event>
<event>
12    1  0.2588309E-007  0.1340166E+04  0.7818608E-02  0.8998306E-01
         -1   -1    0    0    0  501 -0.00000000000E+00  0.00000000000E+00  0.12681911567E+04  0.12681911567E+04  0.00000000000E+00 0.  1.
          1   -1    0    0  501    0  0.00000000000E+00 -0.00000000000E+00 -0.35405617917E+03  0.35405617917E+03  0.00000000000E+00 0. -1.
         23    2    1    2    0    0 -0.18813069345E+02  0.35279824393E+03  0.31226712486E+03  0.48105767681E+03  0.95316308418E+02 0.  0.
        254    2    1    2    0    0  0.18813069345E+02 -0.35279824393E+03  0.60186785271E+03  0.11411896591E+04  0.90291106617E+03 0.  0.
        -24    2    4    4    0    0  0.25769115095E+03 -0.47992164302E+03  0.65368349956E+03  0.85491226016E+03  0.82724496104E+02 0.  0.
         24    2    4    4    0    0 -0.23887808161E+03  0.12712339908E+03 -0.51815646852E+02  0.28627739894E+03  0.77761117660E+02 0.  0.
         13    1    3    3    0    0 -0.30284830906E+02  0.35554165624E+02  0.25251162111E+02  0.53093228044E+02  0.00000000000E+00 0. -1.
        -13    1    3    3    0    0  0.11471761561E+02  0.31724407831E+03  0.28701596275E+03  0.42796444877E+03  0.00000000000E+00 0.  1.
          2    1    6    6  502    0 -0.10934660322E+03  0.86130851624E+02  0.43493531474E+01  0.13926277359E+03  0.00000000000E+00 0. -1.
          1    1    5    5  503    0  0.77848254291E+02 -0.14404629128E+03  0.14044936690E+03  0.21572136981E+03  0.00000000000E+00 0. -1.
         -2    1    5    5    0  503  0.17984289666E+03 -0.33587535174E+03  0.51323413266E+03  0.63919089035E+03  0.00000000000E+00 0.  1.
         -1    1    6    6    0  502 -0.12953147839E+03  0.40992547460E+02 -0.56165000000E+02  0.14701462535E+03  0.00000000000E+00 0.  1.
<mgrwt>
<rscale>  0 0.13401655E+04</rscale>
<asrwt>0</asrwt>
<pdfrwt beam="1">  1        1 0.54470182E-01 0.13401655E+04</pdfrwt>
<pdfrwt beam="2">  1       -1 0.19510633E+00 0.13401655E+04</pdfrwt>
<totfact> 0.11244321E+01</totfact>
</mgrwt>
</event>
<event>
12    1  0.2588309E-007  0.1943205E+04  0.7818608E-02  0.8633644E-01
         -1   -1    0    0    0  501 -0.00000000000E+00  0.00000000000E+00  0.34191470830E+03  0.34191470830E+03  0.00000000000E+00 0.  1.
          1   -1    0    0  501    0  0.00000000000E+00 -0.00000000000E+00 -0.27609565773E+04  0.27609565773E+04  0.00000000000E+00 0. -1.
         23    2    1    2    0    0  0.71314663778E+03  0.23037160098E+03 -0.11602800180E+04  0.13844367586E+04  0.93628076635E+02 0.  0.
        254    2    1    2    0    0 -0.71314663778E+03 -0.23037160098E+03 -0.12587618510E+04  0.17184345270E+04  0.89826868180E+03 0.  0.
        -24    2    4    4    0    0 -0.67815065617E+03 -0.42873015838E+03 -0.54824384492E+03  0.97492060629E+03  0.78746516826E+02 0.  0.
         24    2    4    4    0    0 -0.34995981611E+02  0.19835855741E+03 -0.71051800608E+03  0.74351392075E+03  0.86059731389E+02 0.  0.
         11    1    3    3    0    0  0.33398546079E+03  0.70226090855E+02 -0.58092744963E+03  0.67376159996E+03  0.00000000000E+00 0. -1.
        -11    1    3    3    0    0  0.37916117699E+03  0.16014551012E+03 -0.57935256840E+03  0.71067515860E+03  0.00000000000E+00 0.  1.
          4    1    6    6  502    0  0.75916584999E+01  0.15755415225E+02 -0.17976923646E+03  0.18061795249E+03  0.00000000000E+00 0. -1.
          1    1    5    5  503    0 -0.12431770947E+03 -0.45322320043E+02 -0.99027687336E+02  0.16527397993E+03  0.00000000000E+00 0. -1.
         -2    1    5    5    0  503 -0.55383294670E+03 -0.38340783834E+03 -0.44921615758E+03  0.80964662636E+03  0.00000000000E+00 0.  1.
         -3    1    6    6    0  502 -0.42587640110E+02  0.18260314218E+03 -0.53074876962E+03  0.56289596826E+03  0.00000000000E+00 0.  1.
<mgrwt>
<rscale>  0 0.19432053E+04</rscale>
<asrwt>0</asrwt>
<pdfrwt beam="1">  1        1 0.42476253E+00 0.19432053E+04</pdfrwt>
<pdfrwt beam="2">  1       -1 0.52602265E-01 0.19432053E+04</pdfrwt>
<totfact> 0.30204130E+00</totfact>
</mgrwt>
</event>
<event>
12    1  0.2588309E-007  0.1826389E+04  0.7818608E-02  0.8692391E-01
          2   -1    0    0  501    0  0.00000000000E+00  0.00000000000E+00  0.44773692678E+03  0.44773692678E+03  0.00000000000E+00 0. -1.
         -2   -1    0    0    0  501 -0.00000000000E+00 -0.00000000000E+00 -0.18625308176E+04  0.18625308176E+04  0.00000000000E+00 0.  1.
         23    2    1    2    0    0  0.37935956195E+03 -0.41681264581E+03 -0.10296042724E+04  0.11772613954E+04  0.90625472778E+02 0.  0.
        254    2    1    2    0    0 -0.37935956195E+03  0.41681264581E+03 -0.38518961839E+03  0.11330063490E+04  0.90425985523E+03 0.  0.
        -24    2    4    4    0    0 -0.71561262611E+02 -0.20192784980E+03  0.13444558733E+03  0.26469930766E+03  0.78065592218E+02 0.  0.
         24    2    4    4    0    0 -0.30779829934E+03  0.61874049561E+03 -0.51963520573E+03  0.86830704133E+03  0.79729398701E+02 0.  0.
         13    1    3    3    0    0  0.20687905927E+03 -0.29220237528E+03 -0.65185106853E+03  0.74370087322E+03  0.00000000000E+00 0.  1.
        -13    1    3    3    0    0  0.17248050268E+03 -0.12461027052E+03 -0.37775320386E+03  0.43356052213E+03  0.00000000000E+00 0. -1.
          2    1    6    6  502    0 -0.25669108549E+03  0.52079365016E+03 -0.39767951992E+03  0.70375090762E+03  0.00000000000E+00 0. -1.
          1    1    5    5  503    0  0.22299935922E+00 -0.11089861965E+03  0.79229039018E+02  0.13629304528E+03  0.00000000000E+00 0. -1.
         -2    1    5    5    0  503 -0.71784261970E+02 -0.91029230151E+02  0.55216548316E+02  0.12840626237E+03  0.00000000000E+00 0.  1.
         -1    1    6    6    0  502 -0.51107213845E+02  0.97946845448E+02 -0.12195568581E+03  0.16455613371E+03  0.00000000000E+00 0.  1.
<mgrwt>
<rscale>  0 0.18263886E+04</rscale>
<asrwt>0</asrwt>
<pdfrwt beam="1">  1        2 0.68882603E-01 0.18263886E+04</pdfrwt>
<pdfrwt beam="2">  1       -2 0.28654321E+00 0.18263886E+04</pdfrwt>
<totfact> 0.25341278E+00</totfact>
</mgrwt>
</event>
<event>
12    1  0.2668663E-007  0.3127219E+04  0.7818608E-02  0.8208307E-01
         -1   -1    0    0    0  501 -0.00000000000E+00  0.00000000000E+00  0.12768391658E+04  0.12768391658E+04  0.00000000000E+00 0.  1.
          1   -1    0    0  501    0  0.00000000000E+00 -0.00000000000E+00 -0.19147870666E+04  0.19147870666E+04  0.00000000000E+00 0. -1.
         23    2    1    2    0    0  0.80300145842E+03  0.54424581818E+03  0.78300166195E+03  0.12499044928E+04  0.90303851940E+02 0.  0.
        254    2    1    2    0    0 -0.80300145842E+03 -0.54424581818E+03 -0.14209495628E+04  0.19417217395E+04  0.90009488442E+03 0.  0.
        -24    2    4    4    0    0 -0.65950226438E+02 -0.37395543882E+03 -0.73905130670E+02  0.39477529603E+03  0.78698560484E+02 0.  0.
         24    2    4    4    0    0 -0.73705123198E+03 -0.17029037936E+03 -0.13470444321E+04  0.15469464435E+04  0.79191319713E+02 0.  0.
         11    1    3    3    0    0  0.41493870740E+03  0.33228702632E+03  0.40773996212E+03  0.66995572650E+03  0.00000000000E+00 0. -1.
        -11    1    3    3    0    0  0.38806275102E+03  0.21195879187E+03  0.37526169983E+03  0.57994876630E+03  0.00000000000E+00 0.  1.
          4    1    6    6  502    0 -0.66368311633E+03 -0.12835898938E+03 -0.11887630241E+04  0.13675192271E+04  0.00000000000E+00 0. -1.
          3    1    5    5  503    0 -0.56427963557E+02 -0.36677118529E+03 -0.82407831236E+02  0.38012664742E+03  0.00000000000E+00 0. -1.
         -4    1    5    5    0  503 -0.95222628804E+01 -0.71842535390E+01  0.85027005662E+01  0.14648648613E+02  0.00000000000E+00 0.  1.
         -1    1    6    6    0  502 -0.73368115654E+02 -0.41931389977E+02 -0.15828140799E+03  0.17942721637E+03  0.00000000000E+00 0.  1.
<mgrwt>
<rscale>  0 0.31272193E+04</rscale>
<asrwt>0</asrwt>
<pdfrwt beam="1">  1        1 0.29458263E+00 0.31272193E+04</pdfrwt>
<pdfrwt beam="2">  1       -1 0.19643679E+00 0.31272193E+04</pdfrwt>
<totfact> 0.45661478E-01</totfact>
</mgrwt>
</event>
<event>
12    1  0.2588309E-007  0.1329080E+04  0.7818608E-02  0.9006817E-01
         -2   -1    0    0    0  501 -0.00000000000E+00  0.00000000000E+00  0.19429439563E+03  0.19429439563E+03  0.00000000000E+00 0.  1.
          2   -1    0    0  501    0  0.00000000000E+00 -0.00000000000E+00 -0.22729098590E+04  0.22729098590E+04  0.00000000000E+00 0. -1.
         23    2    1    2    0    0 -0.20756927240E+03 -0.28481733527E+03 -0.56141524469E+03  0.66946599506E+03  0.93764195021E+02 0.  0.
        254    2    1    2    0    0  0.20756927240E+03  0.28481733527E+03 -0.15172002187E+04  0.17977382596E+04  0.89764159273E+03 0.  0.
        -24    2    4    4    0    0  0.27107439214E+03 -0.10305507801E+03 -0.13141092570E+04  0.13480912981E+04  0.79783041136E+02 0.  0.
         24    2    4    4    0    0 -0.63505119744E+02  0.38787241327E+03 -0.20309096169E+03  0.44964696141E+03  0.80365054437E+02 0.  0.
         11    1    3    3    0    0 -0.12433983821E+03 -0.16601275984E+03 -0.41174556822E+03  0.46103692341E+03  0.00000000000E+00 0. -1.
        -11    1    3    3    0    0 -0.83229434189E+02 -0.11880457543E+03 -0.14966967646E+03  0.20842907166E+03  0.00000000000E+00 0.  1.
          4    1    6    6  502    0 -0.51888528531E+01  0.14002798078E+03 -0.11146038280E+03  0.17904797271E+03  0.00000000000E+00 0. -1.
          1    1    5    5  503    0  0.83843990120E+02 -0.57505538340E+02 -0.33046734419E+03  0.34575333288E+03  0.00000000000E+00 0. -1.
         -4    1    5    5    0  503  0.18723040202E+03 -0.45549539668E+02 -0.98364191279E+03  0.10023379653E+04  0.00000000000E+00 0.  1.
         -3    1    6    6    0  502 -0.58316266890E+02  0.24784443249E+03 -0.91630578889E+02  0.27059898871E+03  0.00000000000E+00 0.  1.
<mgrwt>
<rscale>  0 0.13290804E+04</rscale>
<asrwt>0</asrwt>
<pdfrwt beam="1">  1        2 0.34967842E+00 0.13290804E+04</pdfrwt>
<pdfrwt beam="2">  1       -2 0.29891447E-01 0.13290804E+04</pdfrwt>
<totfact> 0.47550326E+01</totfact>
</mgrwt>
</event>
<event>
12    1  0.2588309E-007  0.1794689E+04  0.7818608E-02  0.8709129E-01
         -1   -1    0    0    0  501 -0.00000000000E+00  0.00000000000E+00  0.41291932245E+03  0.41291932245E+03  0.00000000000E+00 0.  1.
          1   -1    0    0  501    0  0.00000000000E+00 -0.00000000000E+00 -0.19500835716E+04  0.19500835716E+04  0.00000000000E+00 0. -1.
         23    2    1    2    0    0 -0.45819093960E+03 -0.48277141904E+03 -0.56917364276E+03  0.88089713851E+03  0.94941839301E+02 0.  0.
        254    2    1    2    0    0  0.45819093960E+03  0.48277141904E+03 -0.96799060640E+03  0.14821057555E+04  0.90367277062E+03 0.  0.
        -24    2    4    4    0    0  0.64825048294E+03  0.54640045747E+03 -0.55590560271E+03  0.10171727274E+04  0.82626688749E+02 0.  0.
         24    2    4    4    0    0 -0.19005954334E+03 -0.63629038428E+02 -0.41208500369E+03  0.46493302814E+03  0.78596347508E+02 0.  0.
         11    1    3    3    0    0 -0.31959145865E+02 -0.73780375555E+02 -0.51818808973E+02  0.95656258472E+02  0.00000000000E+00 0. -1.
        -11    1    3    3    0    0 -0.42623179373E+03 -0.40899104349E+03 -0.51735483379E+03  0.78524088004E+03  0.00000000000E+00 0.  1.
          2    1    6    6  502    0 -0.13253657740E+03 -0.43876135742E+01 -0.24686559120E+03  0.28022814923E+03  0.00000000000E+00 0. -1.
          3    1    5    5  503    0  0.17009198625E+03  0.10883196779E+03 -0.16036017946E+03  0.25785862048E+03  0.00000000000E+00 0. -1.
         -4    1    5    5    0  503  0.47815849669E+03  0.43756848968E+03 -0.39554542325E+03  0.75931410692E+03  0.00000000000E+00 0.  1.
         -1    1    6    6    0  502 -0.57522965939E+02 -0.59241424854E+02 -0.16521941248E+03  0.18470487890E+03  0.00000000000E+00 0.  1.
<mgrwt>
<rscale>  0 0.17946890E+04</rscale>
<asrwt>0</asrwt>
<pdfrwt beam="1">  1        1 0.30001286E+00 0.17946890E+04</pdfrwt>
<pdfrwt beam="2">  1       -1 0.63526049E-01 0.17946890E+04</pdfrwt>
<totfact> 0.76442928E+00</totfact>
</mgrwt>
</event>
<event>
12    1  0.2588309E-007  0.1863360E+04  0.7818608E-02  0.8673312E-01
         -1   -1    0    0    0  501 -0.00000000000E+00  0.00000000000E+00  0.22302491779E+03  0.22302491779E+03  0.00000000000E+00 0.  1.
          1   -1    0    0  501    0  0.00000000000E+00 -0.00000000000E+00 -0.38920667779E+04  0.38920667779E+04  0.00000000000E+00 0. -1.
         23    2    1    2    0    0  0.21652112424E+03 -0.55050294228E+03 -0.22815548348E+04  0.23587180396E+04  0.90130127147E+02 0.  0.
        254    2    1    2    0    0 -0.21652112424E+03  0.55050294228E+03 -0.13874870253E+04  0.17563736560E+04  0.89988515235E+03 0.  0.
        -24    2    4    4    0    0  0.28417715809E+03  0.35641267551E+02 -0.17446517244E+03  0.34445766062E+03  0.78651296442E+02 0.  0.
         24    2    4    4    0    0 -0.50069828233E+03  0.51486167473E+03 -0.12130218529E+04  0.14119159954E+04  0.79394259584E+02 0.  0.
         11    1    3    3    0    0  0.11369567012E+03 -0.36685973301E+03 -0.15971988480E+04  0.16427285013E+04  0.00000000000E+00 0.  1.
        -11    1    3    3    0    0  0.10282545412E+03 -0.18364320927E+03 -0.68435598680E+03  0.71598953833E+03  0.00000000000E+00 0. -1.
          2    1    6    6  502    0 -0.80533808694E+02  0.12577755408E+03 -0.27391881397E+03  0.31198910895E+03  0.00000000000E+00 0. -1.
          3    1    5    5  503    0  0.20463925157E+03 -0.84453183406E+01 -0.10593387393E+03  0.23058736377E+03  0.00000000000E+00 0. -1.
         -4    1    5    5    0  503  0.79537906525E+02  0.44086585892E+02 -0.68531298506E+02  0.11387029685E+03  0.00000000000E+00 0.  1.
         -1    1    6    6    0  502 -0.42016447364E+03  0.38908412065E+03 -0.93910303891E+03  0.10999268865E+04  0.00000000000E+00 0.  1.
<mgrwt>
<rscale>  0 0.18633603E+04</rscale>
<asrwt>0</asrwt>
<pdfrwt beam="1">  1        1 0.59877947E+00 0.18633603E+04</pdfrwt>
<pdfrwt beam="2">  1       -1 0.34311528E-01 0.18633603E+04</pdfrwt>
<totfact> 0.90702090E-01</totfact>
</mgrwt>
</event>
<event>
12    1  0.2588309E-007  0.1578436E+04  0.7818608E-02  0.8833906E-01
          2   -1    0    0  501    0  0.00000000000E+00  0.00000000000E+00  0.10016740606E+04  0.10016740606E+04  0.00000000000E+00 0. -1.
         -2   -1    0    0    0  501 -0.00000000000E+00 -0.00000000000E+00 -0.62182436980E+03  0.62182436980E+03  0.00000000000E+00 0.  1.
         23    2    1    2    0    0  0.49990897370E+03 -0.16768782936E+03  0.14518047562E+03  0.55477902087E+03  0.93135392793E+02 0.  0.
        254    2    1    2    0    0 -0.49990897370E+03  0.16768782936E+03  0.23466921520E+03  0.10687194096E+04  0.89947948598E+03 0.  0.
        -24    2    4    4    0    0  0.40189062921E+02 -0.29814589826E+03  0.15203271037E+03  0.34624604478E+03  0.79159592428E+02 0.  0.
         24    2    4    4    0    0 -0.54009803662E+03  0.46583372762E+03  0.82636504830E+02  0.72247336478E+03  0.80199874935E+02 0.  0.
         11    1    3    3    0    0  0.22618069652E+03 -0.12241078094E+03  0.85156195756E+02  0.27091268786E+03  0.00000000000E+00 0.  1.
        -11    1    3    3    0    0  0.27372827718E+03 -0.45277048424E+02  0.60024279867E+02  0.28386633300E+03  0.00000000000E+00 0. -1.
          4    1    6    6  502    0 -0.29441328206E+03  0.28339832459E+03  0.80237100794E+02  0.41645141778E+03  0.00000000000E+00 0. -1.
          1    1    5    5  503    0  0.28668719865E+02 -0.45512995732E+02  0.57637068804E+01  0.54097584014E+02  0.00000000000E+00 0. -1.
         -2    1    5    5    0  503  0.11520343056E+02 -0.25263290253E+03  0.14626900349E+03  0.29214846076E+03  0.00000000000E+00 0.  1.
         -3    1    6    6    0  502 -0.24568475457E+03  0.18243540303E+03  0.23994040362E+01  0.30602194700E+03  0.00000000000E+00 0.  1.
<mgrwt>
<rscale>  0 0.15784364E+04</rscale>
<asrwt>0</asrwt>
<pdfrwt beam="1">  1        2 0.15410370E+00 0.15784364E+04</pdfrwt>
<pdfrwt beam="2">  1       -2 0.95665288E-01 0.15784364E+04</pdfrwt>
<totfact> 0.22133064E+01</totfact>
</mgrwt>
</event>
<event>
12    1  0.2588309E-007  0.2020269E+04  0.7818608E-02  0.8597203E-01
         -1   -1    0    0    0  501 -0.00000000000E+00  0.00000000000E+00  0.42068677323E+03  0.42068677323E+03  0.00000000000E+00 0.  1.
          1   -1    0    0  501    0  0.00000000000E+00 -0.00000000000E+00 -0.24254899723E+04  0.24254899723E+04  0.00000000000E+00 0. -1.
         23    2    1    2    0    0 -0.26759257569E+03 -0.72294369444E+03 -0.46668748952E+03  0.90563801398E+03  0.90164447512E+02 0.  0.
        254    2    1    2    0    0  0.26759257569E+03  0.72294369444E+03 -0.15381157096E+04  0.19405387316E+04  0.89757298358E+03 0.  0.
        -24    2    4    4    0    0  0.53841012032E+03  0.23704774719E+03 -0.58025366844E+03  0.83010883034E+03  0.79430840118E+02 0.  0.
         24    2    4    4    0    0 -0.27081754463E+03  0.48589594725E+03 -0.95786204115E+03  0.11104299013E+04  0.78216760982E+02 0.  0.
         13    1    3    3    0    0 -0.26224040565E+03 -0.66179527188E+03 -0.40687430046E+03  0.81993274640E+03  0.00000000000E+00 0.  1.
        -13    1    3    3    0    0 -0.53521700350E+01 -0.61148422556E+02 -0.59813189059E+02  0.85705267578E+02  0.00000000000E+00 0. -1.
          2    1    6    6  502    0 -0.25412331133E+03  0.40452818963E+03 -0.79181896329E+03  0.92476969252E+03  0.00000000000E+00 0. -1.
          3    1    5    5  503    0  0.53592040567E+03  0.23466537540E+03 -0.56101999486E+03  0.81056890777E+03  0.00000000000E+00 0. -1.
         -4    1    5    5    0  503  0.24897146535E+01  0.23823717901E+01 -0.19233673585E+02  0.19539922568E+02  0.00000000000E+00 0.  1.
         -1    1    6    6    0  502 -0.16694233298E+02  0.81367757614E+02 -0.16604307786E+03  0.18566020874E+03  0.00000000000E+00 0.  1.
<mgrwt>
<rscale>  0 0.20202688E+04</rscale>
<asrwt>0</asrwt>
<pdfrwt beam="1">  1        1 0.37315231E+00 0.20202688E+04</pdfrwt>
<pdfrwt beam="2">  1       -1 0.64721042E-01 0.20202688E+04</pdfrwt>
<totfact> 0.34208718E+00</totfact>
</mgrwt>
</event>
<event>
12    1  0.2588309E-007  0.1382685E+04  0.7818608E-02  0.8966448E-01
         -2   -1    0    0    0  501 -0.00000000000E+00  0.00000000000E+00  0.28194483952E+03  0.28194483952E+03  0.00000000000E+00 0.  1.
          2   -1    0    0  501    0  0.00000000000E+00 -0.00000000000E+00 -0.16952063804E+04  0.16952063804E+04  0.00000000000E+00 0. -1.
         23    2    1    2    0    0  0.26916904694E+03  0.86043764864E+02 -0.22478311913E+02  0.29762076481E+03  0.90649544050E+02 0.  0.
        254    2    1    2    0    0 -0.26916904694E+03 -0.86043764864E+02 -0.13907832290E+04  0.16795304551E+04  0.89815870223E+03 0.  0.
        -24    2    4    4    0    0 -0.86930176667E+02  0.57113901465E+02  0.10227198268E+03  0.16639611005E+03  0.80057814369E+02 0.  0.
         24    2    4    4    0    0 -0.18223887027E+03 -0.14315766633E+03 -0.14930552117E+04  0.15131343451E+04  0.81587731483E+02 0.  0.
         13    1    3    3    0    0  0.26641307879E+03  0.67887519767E+02 -0.32261780987E+02  0.27681305317E+03  0.00000000000E+00 0. -1.
        -13    1    3    3    0    0  0.27559681426E+01  0.18156245096E+02  0.97834690745E+01  0.20807711636E+02  0.00000000000E+00 0.  1.
          2    1    6    6  502    0 -0.90302316746E+02 -0.87662627869E+02 -0.56273356763E+03  0.57663533786E+03  0.00000000000E+00 0. -1.
          3    1    5    5  503    0 -0.99027739751E+02  0.39828830350E+02  0.97931010228E+02  0.14485617602E+03  0.00000000000E+00 0. -1.
         -4    1    5    5    0  503  0.12097563084E+02  0.17285071116E+02  0.43409724543E+01  0.21539934027E+02  0.00000000000E+00 0.  1.
         -1    1    6    6    0  502 -0.91936553523E+02 -0.55495038460E+02 -0.93032164402E+03  0.93649900721E+03  0.00000000000E+00 0.  1.
<mgrwt>
<rscale>  0 0.13826853E+04</rscale>
<asrwt>0</asrwt>
<pdfrwt beam="1">  1        2 0.26080098E+00 0.13826853E+04</pdfrwt>
<pdfrwt beam="2">  1       -2 0.43376129E-01 0.13826853E+04</pdfrwt>
<totfact> 0.48454448E+01</totfact>
</mgrwt>
</event>
<event>
12    1  0.2588309E-007  0.3577663E+04  0.7818608E-02  0.8095627E-01
         -1   -1    0    0    0  501 -0.00000000000E+00  0.00000000000E+00  0.15207730540E+04  0.15207730540E+04  0.00000000000E+00 0.  1.
          1   -1    0    0  501    0  0.00000000000E+00 -0.00000000000E+00 -0.21041394048E+04  0.21041394048E+04  0.00000000000E+00 0. -1.
         23    2    1    2    0    0  0.15215047020E+04 -0.26432460517E+03 -0.92923845122E+03  0.18044968913E+04  0.88774299554E+02 0.  0.
        254    2    1    2    0    0 -0.15215047020E+04  0.26432460517E+03  0.34587210043E+03  0.18204155675E+04  0.89968954283E+03 0.  0.
        -24    2    4    4    0    0 -0.15559206840E+04  0.14319816654E+03  0.14676817575E+03  0.15713897672E+04  0.79561379188E+02 0.  0.
         24    2    4    4    0    0  0.34415982036E+02  0.12112643863E+03  0.19910392468E+03  0.24902580034E+03  0.80718042953E+02 0.  0.
         11    1    3    3    0    0  0.75799716615E+03 -0.97435970884E+02 -0.42578902873E+03  0.87484271118E+03  0.00000000000E+00 0. -1.
        -11    1    3    3    0    0  0.76350753585E+03 -0.16688863429E+03 -0.50344942249E+03  0.92965418009E+03  0.00000000000E+00 0.  1.
          2    1    6    6  502    0 -0.11124077794E+02  0.97745509285E+02  0.13171166868E+03  0.16439553935E+03  0.00000000000E+00 0. -1.
          3    1    5    5  503    0 -0.85445205534E+03  0.77913470529E+02  0.40818611444E+02  0.85896739333E+03  0.00000000000E+00 0. -1.
         -2    1    5    5    0  503 -0.70146862869E+03  0.65284696015E+02  0.10594956431E+03  0.71242237384E+03  0.00000000000E+00 0.  1.
         -1    1    6    6    0  502  0.45540059831E+02  0.23380929341E+02  0.67392256002E+02  0.84630260990E+02  0.00000000000E+00 0.  1.
<mgrwt>
<rscale>  0 0.35776632E+04</rscale>
<asrwt>0</asrwt>
<pdfrwt beam="1">  1        1 0.32371375E+00 0.35776632E+04</pdfrwt>
<pdfrwt beam="2">  1       -1 0.23396509E+00 0.35776632E+04</pdfrwt>
<totfact> 0.18236934E-01</totfact>
</mgrwt>
</event>
<event>
12    1  0.2588309E-007  0.3029971E+04  0.7818608E-02  0.8235224E-01
         -2   -1    0    0    0  501 -0.00000000000E+00  0.00000000000E+00  0.51093646640E+03  0.51093646640E+03  0.00000000000E+00 0.  1.
          2   -1    0    0  501    0  0.00000000000E+00 -0.00000000000E+00 -0.44921059937E+04  0.44921059937E+04  0.00000000000E+00 0. -1.
         23    2    1    2    0    0 -0.66980484242E+03  0.28591106296E+02  0.17426335715E+03  0.69855645647E+03  0.90318475099E+02 0.  0.
        254    2    1    2    0    0  0.66980484242E+03 -0.28591106296E+02 -0.41554328845E+04  0.43044860037E+04  0.90084478135E+03 0.  0.
        -24    2    4    4    0    0 -0.91261542088E+02 -0.26530727638E+03 -0.71528788170E+03  0.77234353559E+03  0.78493077973E+02 0.  0.
         24    2    4    4    0    0  0.76106638450E+03  0.23671617009E+03 -0.34401450028E+04  0.35321424681E+04  0.78588726144E+02 0.  0.
         11    1    3    3    0    0 -0.29540132620E+03 -0.14523299688E+02  0.39869684469E+02  0.29843334515E+03  0.00000000000E+00 0. -1.
        -11    1    3    3    0    0 -0.37440351621E+03  0.43114405984E+02  0.13439367268E+03  0.40012311132E+03  0.00000000000E+00 0.  1.
          2    1    6    6  502    0  0.44754932657E+01 -0.89167508485E+00 -0.55546484973E+01  0.71888277457E+01  0.00000000000E+00 0. -1.
          1    1    5    5  503    0  0.98095872588E+01 -0.35788399118E+01 -0.19533378366E+02  0.22149243051E+02  0.00000000000E+00 0. -1.
         -2    1    5    5    0  503 -0.10107112935E+03 -0.26172843647E+03 -0.69575450333E+03  0.75019429254E+03  0.00000000000E+00 0.  1.
         -1    1    6    6    0  502  0.75659089124E+03  0.23760784517E+03 -0.34345903543E+04  0.35249536403E+04  0.00000000000E+00 0.  1.
<mgrwt>
<rscale>  0 0.30299708E+04</rscale>
<asrwt>0</asrwt>
<pdfrwt beam="1">  1        2 0.69109323E+00 0.30299708E+04</pdfrwt>
<pdfrwt beam="2">  1       -2 0.78605610E-01 0.30299708E+04</pdfrwt>
<totfact> 0.15367275E-01</totfact>
</mgrwt>
</event>
<event>
12    1  0.2588309E-007  0.3212536E+04  0.7818608E-02  0.8185514E-01
          1   -1    0    0  501    0  0.00000000000E+00  0.00000000000E+00  0.26318461344E+04  0.26318461344E+04  0.00000000000E+00 0. -1.
         -1   -1    0    0    0  501 -0.00000000000E+00 -0.00000000000E+00 -0.98033704573E+03  0.98033704573E+03  0.00000000000E+00 0.  1.
         23    2    1    2    0    0 -0.61580196730E+03 -0.12971171643E+04  0.36575856611E+03  0.14844982883E+04  0.90723968324E+02 0.  0.
        254    2    1    2    0    0  0.61580196730E+03  0.12971171643E+04  0.12857505226E+04  0.21276848918E+04  0.90120119391E+03 0.  0.
        -24    2    4    4    0    0  0.66392291841E+03  0.12853730001E+04  0.13743080824E+04  0.19970130578E+04  0.79756232939E+02 0.  0.
         24    2    4    4    0    0 -0.48120951113E+02  0.11744164158E+02 -0.88557559848E+02  0.13067183402E+03  0.82335505538E+02 0.  0.
         13    1    3    3    0    0 -0.46400817695E+03 -0.88168689270E+03  0.24484643674E+03  0.10259752154E+04  0.00000000000E+00 0. -1.
        -13    1    3    3    0    0 -0.15179379035E+03 -0.41543027158E+03  0.12091212937E+03  0.45852307288E+03  0.00000000000E+00 0.  1.
          4    1    6    6  502    0 -0.36812955931E+02  0.46333864832E+02 -0.61303391920E+02  0.85206376614E+02  0.00000000000E+00 0. -1.
          1    1    5    5  503    0  0.56396153559E+03  0.10712758773E+04  0.11871635655E+04  0.16955948662E+04  0.00000000000E+00 0. -1.
         -2    1    5    5    0  503  0.99961382821E+02  0.21409712279E+03  0.18714451696E+03  0.30141819167E+03  0.00000000000E+00 0.  1.
         -3    1    6    6    0  502 -0.11307995182E+02 -0.34589700674E+02 -0.27254167928E+02  0.45465457407E+02  0.00000000000E+00 0.  1.
<mgrwt>
<rscale>  0 0.32125356E+04</rscale>
<asrwt>0</asrwt>
<pdfrwt beam="1">  1        1 0.40489940E+00 0.32125356E+04</pdfrwt>
<pdfrwt beam="2">  1       -1 0.15082108E+00 0.32125356E+04</pdfrwt>
<totfact> 0.31477700E-01</totfact>
</mgrwt>
</event>
<event>
12    1  0.2588309E-007  0.1892235E+04  0.7818608E-02  0.8658731E-01
          2   -1    0    0  501    0  0.00000000000E+00  0.00000000000E+00  0.10508578618E+04  0.10508578618E+04  0.00000000000E+00 0. -1.
         -2   -1    0    0    0  501 -0.00000000000E+00 -0.00000000000E+00 -0.85181647837E+03  0.85181647837E+03  0.00000000000E+00 0.  1.
         23    2    1    2    0    0 -0.34264800161E+03 -0.58924551920E+03  0.33340469031E+03  0.76411541622E+03  0.89976368487E+02 0.  0.
        254    2    1    2    0    0  0.34264800161E+03  0.58924551920E+03 -0.13436330693E+03  0.11385589239E+04  0.90202272147E+03 0.  0.
        -24    2    4    4    0    0 -0.33114073792E+02  0.71797735354E+03 -0.12348619342E+03  0.73367663958E+03  0.80277950956E+02 0.  0.
         24    2    4    4    0    0  0.37576207540E+03 -0.12873183434E+03 -0.10877113514E+02  0.40488228432E+03  0.77732426167E+02 0.  0.
         13    1    3    3    0    0 -0.26203496292E+03 -0.40329046754E+03  0.19651804590E+03  0.51954293890E+03  0.00000000000E+00 0.  1.
        -13    1    3    3    0    0 -0.80613038688E+02 -0.18595505166E+03  0.13688664441E+03  0.24457247732E+03  0.00000000000E+00 0. -1.
          2    1    6    6  502    0  0.37753461604E+03 -0.12940255747E+03 -0.16003824327E+02  0.39941648762E+03  0.00000000000E+00 0. -1.
          3    1    5    5  503    0 -0.22786830235E+02  0.53598997079E+03 -0.12724340584E+03  0.55135775386E+03  0.00000000000E+00 0. -1.
         -4    1    5    5    0  503 -0.10327243557E+02  0.18198738276E+03  0.37572124206E+01  0.18231888571E+03  0.00000000000E+00 0.  1.
         -3    1    6    6    0  502 -0.17725406409E+01  0.67072312718E+00  0.51267108136E+01  0.54657967034E+01  0.00000000000E+00 0.  1.
<mgrwt>
<rscale>  0 0.18922347E+04</rscale>
<asrwt>0</asrwt>
<pdfrwt beam="1">  1        2 0.16167044E+00 0.18922347E+04</pdfrwt>
<pdfrwt beam="2">  1       -2 0.13104869E+00 0.18922347E+04</pdfrwt>
<totfact> 0.93238588E+00</totfact>
</mgrwt>
</event>
<event>
12    1  0.2588309E-007  0.1130946E+04  0.7818608E-02  0.9175544E-01
         -1   -1    0    0    0  501 -0.00000000000E+00  0.00000000000E+00  0.15769880312E+03  0.15769880312E+03  0.00000000000E+00 0.  1.
          1   -1    0    0  501    0  0.00000000000E+00 -0.00000000000E+00 -0.20276615505E+04  0.20276615505E+04  0.00000000000E+00 0. -1.
         23    2    1    2    0    0 -0.55547595344E+02  0.88268042368E+02 -0.65338684636E+03  0.66816466263E+03  0.93020765109E+02 0.  0.
        254    2    1    2    0    0  0.55547595344E+02 -0.88268042368E+02 -0.12165759011E+04  0.15171956910E+04  0.90052710075E+03 0.  0.
        -24    2    4    4    0    0 -0.30391168457E+03  0.11927108611E+03 -0.14634432697E+03  0.36652678121E+03  0.79607256640E+02 0.  0.
         24    2    4    4    0    0  0.35945927991E+03 -0.20753912848E+03 -0.10702315741E+04  0.11506689098E+04  0.79748693221E+02 0.  0.
         11    1    3    3    0    0 -0.24098220931E+01 -0.13103895105E+02 -0.17162115687E+02  0.21726884827E+02  0.00000000000E+00 0.  1.
        -11    1    3    3    0    0 -0.53137773251E+02  0.10137193747E+03 -0.63622473067E+03  0.64643777780E+03  0.00000000000E+00 0. -1.
          2    1    6    6  502    0  0.24488205639E+03 -0.11631921799E+03 -0.60585237575E+03  0.66374278393E+03  0.00000000000E+00 0. -1.
          1    1    5    5  503    0 -0.28292714005E+03  0.13011235531E+03 -0.14298865393E+03  0.34267002602E+03  0.00000000000E+00 0. -1.
         -2    1    5    5    0  503 -0.20984544519E+02 -0.10841269202E+02 -0.33556730378E+01  0.23856755188E+02  0.00000000000E+00 0.  1.
         -1    1    6    6    0  502  0.11457722353E+03 -0.91219910487E+02 -0.46437919834E+03  0.48692612589E+03  0.00000000000E+00 0.  1.
<mgrwt>
<rscale>  0 0.11309462E+04</rscale>
<asrwt>0</asrwt>
<pdfrwt beam="1">  1        1 0.31194793E+00 0.11309462E+04</pdfrwt>
<pdfrwt beam="2">  1       -1 0.24261354E-01 0.11309462E+04</pdfrwt>
<totfact> 0.41967976E+01</totfact>
</mgrwt>
</event>
<event>
12    1  0.2588309E-007  0.1230565E+04  0.7818608E-02  0.9086516E-01
          2   -1    0    0  501    0  0.00000000000E+00  0.00000000000E+00  0.18436291434E+04  0.18436291434E+04  0.00000000000E+00 0. -1.
         -2   -1    0    0    0  501 -0.00000000000E+00 -0.00000000000E+00 -0.20534098469E+03  0.20534098469E+03  0.00000000000E+00 0.  1.
         23    2    1    2    0    0 -0.93786880162E+02  0.25624965589E+03  0.35151190568E+03  0.45431113591E+03  0.91532089180E+02 0.  0.
        254    2    1    2    0    0  0.93786880162E+02 -0.25624965589E+03  0.12867762530E+04  0.15946589922E+04  0.90149005038E+03 0.  0.
        -24    2    4    4    0    0 -0.55417053371E+02 -0.52242326089E+03  0.11144319482E+04  0.12346496607E+04  0.80025647847E+02 0.  0.
         24    2    4    4    0    0  0.14920393353E+03  0.26617360500E+03  0.17234430485E+03  0.36000933144E+03  0.82425466490E+02 0.  0.
         11    1    3    3    0    0 -0.36695194972E+02  0.17902069898E+02  0.70188461833E+02  0.81200009946E+02  0.00000000000E+00 0. -1.
        -11    1    3    3    0    0 -0.57091685190E+02  0.23834758599E+03  0.28132344384E+03  0.37311112597E+03  0.00000000000E+00 0.  1.
          2    1    6    6  502    0  0.15639824920E+03  0.24250137135E+03  0.14436048226E+03  0.32265659190E+03  0.00000000000E+00 0. -1.
          3    1    5    5  503    0 -0.11255431122E+02 -0.36501399563E+03  0.82554287672E+03  0.90270867008E+03  0.00000000000E+00 0. -1.
         -4    1    5    5    0  503 -0.44161622248E+02 -0.15740926527E+03  0.28888907145E+03  0.33194099065E+03  0.00000000000E+00 0.  1.
         -1    1    6    6    0  502 -0.71943156683E+01  0.23672233654E+02  0.27983822590E+02  0.37352739536E+02  0.00000000000E+00 0.  1.
<mgrwt>
<rscale>  0 0.12305651E+04</rscale>
<asrwt>0</asrwt>
<pdfrwt beam="1">  1        2 0.28363524E+00 0.12305651E+04</pdfrwt>
<pdfrwt beam="2">  1       -2 0.31590922E-01 0.12305651E+04</pdfrwt>
<totfact> 0.74823138E+01</totfact>
</mgrwt>
</event>
<event>
12    1  0.2588309E-007  0.2957263E+04  0.7818608E-02  0.8256041E-01
         -1   -1    0    0    0  501 -0.00000000000E+00  0.00000000000E+00  0.86356820830E+03  0.86356820830E+03  0.00000000000E+00 0.  1.
          1   -1    0    0  501    0  0.00000000000E+00 -0.00000000000E+00 -0.25317647367E+04  0.25317647367E+04  0.00000000000E+00 0. -1.
         23    2    1    2    0    0  0.71506700495E+03  0.11146571725E+04 -0.57732118541E+03  0.14475444602E+04  0.91125075722E+02 0.  0.
        254    2    1    2    0    0 -0.71506700495E+03 -0.11146571725E+04 -0.10908753430E+04  0.19477884848E+04  0.92200300093E+03 0.  0.
        -24    2    4    4    0    0 -0.63399967422E+03 -0.71234472409E+03 -0.11818804629E+04  0.15205747179E+04  0.76911972004E+02 0.  0.
         24    2    4    4    0    0 -0.81067330727E+02 -0.40231244842E+03  0.91005119844E+02  0.42721376687E+03  0.76173830822E+02 0.  0.
         13    1    3    3    0    0  0.41354930498E+03  0.64793845819E+03 -0.38387771548E+03  0.85919111593E+03  0.00000000000E+00 0. -1.
        -13    1    3    3    0    0  0.30151769997E+03  0.46671871432E+03 -0.19344346993E+03  0.58835334430E+03  0.00000000000E+00 0.  1.
          2    1    6    6  502    0  0.11575664764E+02 -0.50810100627E+02 -0.14578597069E+01  0.52132405425E+02  0.00000000000E+00 0. -1.
          3    1    5    5  503    0 -0.19684725900E+03 -0.23322471562E+03 -0.32388255174E+03  0.44501968347E+03  0.00000000000E+00 0. -1.
         -4    1    5    5    0  503 -0.43715241522E+03 -0.47912000846E+03 -0.85799791114E+03  0.10755550345E+04  0.00000000000E+00 0.  1.
         -1    1    6    6    0  502 -0.92642995491E+02 -0.35150234780E+03  0.92462979550E+02  0.37508136145E+03  0.00000000000E+00 0.  1.
<mgrwt>
<rscale>  0 0.29572633E+04</rscale>
<asrwt>0</asrwt>
<pdfrwt beam="1">  1        1 0.38950226E+00 0.29572633E+04</pdfrwt>
<pdfrwt beam="2">  1       -1 0.13285665E+00 0.29572633E+04</pdfrwt>
<totfact> 0.52757203E-01</totfact>
</mgrwt>
</event>
<event>
12    1  0.2588309E-007  0.2289010E+04  0.7818608E-02  0.8482267E-01
          2   -1    0    0  501    0  0.00000000000E+00  0.00000000000E+00  0.34576135465E+04  0.34576135465E+04  0.00000000000E+00 0. -1.
         -2   -1    0    0    0  501 -0.00000000000E+00 -0.00000000000E+00 -0.37884285876E+03  0.37884285876E+03  0.00000000000E+00 0.  1.
         23    2    1    2    0    0 -0.28629204153E+03  0.86876783237E+02 -0.23409218179E+03  0.39062041808E+03  0.90964019988E+02 0.  0.
        254    2    1    2    0    0  0.28629204153E+03 -0.86876783237E+02  0.33128628695E+04  0.34458359872E+04  0.89956353293E+03 0.  0.
        -24    2    4    4    0    0 -0.24160791785E+03  0.93354564141E+02  0.19841248115E+04  0.20025116580E+04  0.78817587996E+02 0.  0.
         24    2    4    4    0    0  0.52789995938E+03 -0.18023134738E+03  0.13287380580E+04  0.14433243292E+04  0.80489668244E+02 0.  0.
         11    1    3    3    0    0 -0.12368538398E+03  0.72046046799E+02 -0.70775436984E+02  0.15968052339E+03  0.00000000000E+00 0. -1.
        -11    1    3    3    0    0 -0.16260665756E+03  0.14830736437E+02 -0.16331674481E+03  0.23093989469E+03  0.00000000000E+00 0.  1.
          2    1    6    6  502    0  0.61143626147E+02 -0.17667153545E+01  0.19435047871E+03  0.20374928926E+03  0.00000000000E+00 0. -1.
          1    1    5    5  503    0 -0.31276853679E+02  0.43821311063E+02  0.46168003848E+03  0.46480857007E+03  0.00000000000E+00 0. -1.
         -2    1    5    5    0  503 -0.21033106417E+03  0.49533253078E+02  0.15224447731E+04  0.15377030880E+04  0.00000000000E+00 0.  1.
         -1    1    6    6    0  502  0.46675633323E+03 -0.17846463202E+03  0.11343875793E+04  0.12395750399E+04  0.00000000000E+00 0.  1.
<mgrwt>
<rscale>  0 0.22890104E+04</rscale>
<asrwt>0</asrwt>
<pdfrwt beam="1">  1        2 0.53194052E+00 0.22890104E+04</pdfrwt>
<pdfrwt beam="2">  1       -2 0.58283519E-01 0.22890104E+04</pdfrwt>
<totfact> 0.21799367E+00</totfact>
</mgrwt>
</event>
<event>
12    1  0.2588309E-007  0.1649108E+04  0.7818608E-02  0.8790934E-01
          2   -1    0    0  501    0  0.00000000000E+00  0.00000000000E+00  0.14312080285E+04  0.14312080285E+04  0.00000000000E+00 0. -1.
         -2   -1    0    0    0  501 -0.00000000000E+00 -0.00000000000E+00 -0.47504577895E+03  0.47504577895E+03  0.00000000000E+00 0.  1.
         23    2    1    2    0    0  0.95956928555E+02  0.54076546321E+03  0.14009736063E+03  0.57377617038E+03  0.89200924349E+02 0.  0.
        254    2    1    2    0    0 -0.95956928555E+02 -0.54076546321E+03  0.81606488892E+03  0.13324776371E+04  0.89883242711E+03 0.  0.
        -24    2    4    4    0    0 -0.14280933193E+03 -0.77336800344E+03  0.52731169724E+03  0.95034605724E+03  0.81286090012E+02 0.  0.
         24    2    4    4    0    0  0.46852403372E+02  0.23260254023E+03  0.28875319168E+03  0.38213157983E+03  0.79668369996E+02 0.  0.
         11    1    3    3    0    0  0.43963982672E+02  0.12815312008E+03  0.17595588092E+01  0.13549594092E+03  0.00000000000E+00 0.  1.
        -11    1    3    3    0    0  0.51992945884E+02  0.41261234313E+03  0.13833780182E+03  0.43828022946E+03  0.00000000000E+00 0. -1.
          4    1    6    6  502    0  0.11952418685E+02  0.66951859565E+02  0.14455681774E+03  0.15975633123E+03  0.00000000000E+00 0. -1.
          3    1    5    5  503    0  0.60838750478E+01 -0.11335236053E+03  0.63960410162E+02  0.13029468616E+03  0.00000000000E+00 0. -1.
         -4    1    5    5    0  503 -0.14889320697E+03 -0.66001564291E+03  0.46335128708E+03  0.82005137108E+03  0.00000000000E+00 0.  1.
         -3    1    6    6    0  502  0.34899984687E+02  0.16565068066E+03  0.14419637394E+03  0.22237524861E+03  0.00000000000E+00 0.  1.
<mgrwt>
<rscale>  0 0.16491080E+04</rscale>
<asrwt>0</asrwt>
<pdfrwt beam="1">  1        2 0.22018585E+00 0.16491080E+04</pdfrwt>
<pdfrwt beam="2">  1       -2 0.73083967E-01 0.16491080E+04</pdfrwt>
<totfact> 0.22434376E+01</totfact>
</mgrwt>
</event>
<event>
12    1  0.2588309E-007  0.3279444E+04  0.7818608E-02  0.8168146E-01
         -2   -1    0    0    0  501 -0.00000000000E+00  0.00000000000E+00  0.15254486740E+04  0.15254486740E+04  0.00000000000E+00 0.  1.
          2   -1    0    0  501    0  0.00000000000E+00 -0.00000000000E+00 -0.17625560265E+04  0.17625560265E+04  0.00000000000E+00 0. -1.
         23    2    1    2    0    0  0.63859813213E+03  0.13717116773E+04 -0.11446114951E+03  0.15212481156E+04  0.10813868152E+03 0.  0.
        254    2    1    2    0    0 -0.63859813213E+03 -0.13717116773E+04 -0.12264620300E+03  0.17667565850E+04  0.90387291114E+03 0.  0.
        -24    2    4    4    0    0 -0.28468379869E+03 -0.44876203102E+03 -0.47220635243E+03  0.71530230067E+03  0.79033640621E+02 0.  0.
         24    2    4    4    0    0 -0.35391433344E+03 -0.92294964628E+03  0.34956014942E+03  0.10514542843E+04  0.79198541429E+02 0.  0.
         11    1    3    3    0    0  0.60115528730E+03  0.12322925029E+04 -0.83775507580E+02  0.13736632876E+04  0.00000000000E+00 0. -1.
        -11    1    3    3    0    0  0.37442844833E+02  0.13941917441E+03 -0.30685641928E+02  0.14758482795E+03  0.00000000000E+00 0.  1.
          2    1    6    6  502    0 -0.24730692247E+03 -0.60004676605E+03  0.26516623298E+03  0.70109198145E+03  0.00000000000E+00 0. -1.
          1    1    5    5  503    0 -0.26233957619E+03 -0.38255789934E+03 -0.43599387588E+03  0.63660290557E+03  0.00000000000E+00 0. -1.
         -2    1    5    5    0  503 -0.22344222497E+02 -0.66204131679E+02 -0.36212476551E+02  0.78699395095E+02  0.00000000000E+00 0.  1.
         -1    1    6    6    0  502 -0.10660741097E+03 -0.32290288024E+03  0.84393916443E+02  0.35036230287E+03  0.00000000000E+00 0.  1.
<mgrwt>
<rscale>  0 0.32794443E+04</rscale>
<asrwt>0</asrwt>
<pdfrwt beam="1">  1        2 0.27116246E+00 0.32794443E+04</pdfrwt>
<pdfrwt beam="2">  1       -2 0.23468441E+00 0.32794443E+04</pdfrwt>
<totfact> 0.60533246E-01</totfact>
</mgrwt>
</event>
<event>
12    1  0.2588309E-007  0.1299744E+04  0.7818608E-02  0.9029768E-01
          2   -1    0    0  501    0  0.00000000000E+00  0.00000000000E+00  0.10114573970E+04  0.10114573970E+04  0.00000000000E+00 0. -1.
         -2   -1    0    0    0  501 -0.00000000000E+00 -0.00000000000E+00 -0.41754950691E+03  0.41754950691E+03  0.00000000000E+00 0.  1.
         23    2    1    2    0    0  0.27978759942E+03  0.14827507970E+03  0.51842257611E+02  0.33353352614E+03  0.91051597100E+02 0.  0.
        254    2    1    2    0    0 -0.27978759942E+03 -0.14827507970E+03  0.54206563245E+03  0.10954733777E+04  0.89775284540E+03 0.  0.
        -24    2    4    4    0    0 -0.40157748181E+02 -0.49301347989E+03  0.41055516397E+03  0.64797662432E+03  0.81505993128E+02 0.  0.
         24    2    4    4    0    0 -0.23962985124E+03  0.34473840018E+03  0.13151046848E+03  0.44749675342E+03  0.81800432994E+02 0.  0.
         11    1    3    3    0    0  0.60684617711E+02  0.34414267794E+02  0.51327619381E+02  0.86611137655E+02  0.00000000000E+00 0. -1.
        -11    1    3    3    0    0  0.21910298171E+03  0.11386081191E+03  0.51463822924E+00  0.24692238848E+03  0.00000000000E+00 0.  1.
          4    1    6    6  502    0 -0.12229415984E+03  0.12298429850E+03  0.81691648591E+02  0.19171469599E+03  0.00000000000E+00 0. -1.
          1    1    5    5  503    0  0.10377369232E+02 -0.83004641782E+02  0.10443766923E+03  0.13380839699E+03  0.00000000000E+00 0. -1.
         -2    1    5    5    0  503 -0.50535117412E+02 -0.41000883811E+03  0.30611749474E+03  0.51416822734E+03  0.00000000000E+00 0.  1.
         -3    1    6    6    0  502 -0.11733569139E+03  0.22175410168E+03  0.49818819886E+02  0.25578205743E+03  0.00000000000E+00 0.  1.
<mgrwt>
<rscale>  0 0.12997439E+04</rscale>
<asrwt>0</asrwt>
<pdfrwt beam="1">  1        2 0.15560883E+00 0.12997439E+04</pdfrwt>
<pdfrwt beam="2">  1       -2 0.64238386E-01 0.12997439E+04</pdfrwt>
<totfact> 0.54365422E+01</totfact>
</mgrwt>
</event>
<event>
12    1  0.2588309E-007  0.1530848E+04  0.7818608E-02  0.8864194E-01
          1   -1    0    0  501    0  0.00000000000E+00  0.00000000000E+00  0.28222800087E+04  0.28222800087E+04  0.00000000000E+00 0. -1.
         -1   -1    0    0    0  501 -0.00000000000E+00 -0.00000000000E+00 -0.20758894969E+03  0.20758894969E+03  0.00000000000E+00 0.  1.
         23    2    1    2    0    0 -0.10361486248E+03 -0.48454753263E+03  0.88118340659E+03  0.10151164770E+04  0.91950610560E+02 0.  0.
        254    2    1    2    0    0  0.10361486248E+03  0.48454753263E+03  0.17335076525E+04  0.20147524814E+04  0.89925326193E+03 0.  0.
        -24    2    4    4    0    0  0.37993364747E+03 -0.64556520258E+02  0.52337449841E+03  0.65494573623E+03  0.80721317078E+02 0.  0.
         24    2    4    4    0    0 -0.27631878498E+03  0.54910405288E+03  0.12101331540E+04  0.13598067452E+04  0.82369908796E+02 0.  0.
         11    1    3    3    0    0 -0.11197127619E+02 -0.14898533338E+03  0.19448336848E+03  0.24524637784E+03  0.00000000000E+00 0. -1.
        -11    1    3    3    0    0 -0.92417734865E+02 -0.33556219925E+03  0.68670003811E+03  0.76987009919E+03  0.00000000000E+00 0.  1.
          2    1    6    6  502    0 -0.21231380800E+03  0.46607272870E+03  0.10525042335E+04  0.11704982285E+04  0.00000000000E+00 0. -1.
          3    1    5    5  503    0  0.24983828841E+03 -0.41330083940E+02  0.40430759256E+03  0.47706600759E+03  0.00000000000E+00 0. -1.
         -4    1    5    5    0  503  0.13009535905E+03 -0.23226436318E+02  0.11906690585E+03  0.17787972864E+03  0.00000000000E+00 0.  1.
         -1    1    6    6    0  502 -0.64004976982E+02  0.83031324184E+02  0.15762892055E+03  0.18930851663E+03  0.00000000000E+00 0.  1.
<mgrwt>
<rscale>  0 0.15308483E+04</rscale>
<asrwt>0</asrwt>
<pdfrwt beam="1">  1        1 0.43419690E+00 0.15308483E+04</pdfrwt>
<pdfrwt beam="2">  1       -1 0.31936764E-01 0.15308483E+04</pdfrwt>
<totfact> 0.71145654E+00</totfact>
</mgrwt>
</event>
<event>
12    1  0.2588309E-007  0.1968541E+04  0.7818608E-02  0.8621471E-01
         -2   -1    0    0    0  501 -0.00000000000E+00  0.00000000000E+00  0.66350336969E+03  0.66350336969E+03  0.00000000000E+00 0.  1.
          2   -1    0    0  501    0  0.00000000000E+00 -0.00000000000E+00 -0.14601114080E+04  0.14601114080E+04  0.00000000000E+00 0. -1.
         23    2    1    2    0    0  0.62628488415E+03 -0.36806967894E+03 -0.23704525067E+02  0.73266314009E+03  0.92332700976E+02 0.  0.
        254    2    1    2    0    0 -0.62628488415E+03  0.36806967894E+03 -0.77290351320E+03  0.13909516376E+04  0.89981029813E+03 0.  0.
        -24    2    4    4    0    0 -0.68749816619E+03  0.56981603693E+03 -0.46809972945E+03  0.10116912832E+04  0.84011019591E+02 0.  0.
         24    2    4    4    0    0  0.61213282041E+02 -0.20174635798E+03 -0.30480378376E+03  0.37926035432E+03  0.80525839991E+02 0.  0.
         11    1    3    3    0    0  0.36287917879E+01  0.48541787174E+01 -0.25177933416E+01  0.65628091677E+01  0.00000000000E+00 0. -1.
        -11    1    3    3    0    0  0.62265609236E+03 -0.37292385766E+03 -0.21186731725E+02  0.72610033092E+03  0.00000000000E+00 0.  1.
          4    1    6    6  502    0  0.89555768771E+01 -0.15510620824E+03 -0.20128443150E+03  0.25427064431E+03  0.00000000000E+00 0. -1.
          3    1    5    5  503    0 -0.27577010434E+03  0.27379531478E+03 -0.22891041746E+03  0.45101330808E+03  0.00000000000E+00 0. -1.
         -4    1    5    5    0  503 -0.41172806186E+03  0.29602072215E+03 -0.23918931198E+03  0.56067797516E+03  0.00000000000E+00 0.  1.
         -3    1    6    6    0  502  0.52257705164E+02 -0.46640149748E+02 -0.10351935226E+03  0.12498971001E+03  0.00000000000E+00 0.  1.
<mgrwt>
<rscale>  0 0.19685414E+04</rscale>
<asrwt>0</asrwt>
<pdfrwt beam="1">  1        2 0.22463252E+00 0.19685414E+04</pdfrwt>
<pdfrwt beam="2">  1       -2 0.10207744E+00 0.19685414E+04</pdfrwt>
<totfact> 0.97972639E+00</totfact>
</mgrwt>
</event>
<event>
12    1  0.2588309E-007  0.1507670E+04  0.7818608E-02  0.8879368E-01
          2   -1    0    0  501    0  0.00000000000E+00  0.00000000000E+00  0.13040163078E+04  0.13040163078E+04  0.00000000000E+00 0. -1.
         -2   -1    0    0    0  501 -0.00000000000E+00 -0.00000000000E+00 -0.43578230445E+03  0.43578230445E+03  0.00000000000E+00 0.  1.
         23    2    1    2    0    0 -0.29845717548E+03 -0.32789724372E+03  0.70565582707E+02  0.45833355474E+03  0.92178402564E+02 0.  0.
        254    2    1    2    0    0  0.29845717548E+03  0.32789724372E+03  0.79766842064E+03  0.12814650575E+04  0.89960241013E+03 0.  0.
        -24    2    4    4    0    0  0.44922858404E+03  0.43752202322E+03  0.86239734105E+03  0.10693799669E+04  0.81317269067E+02 0.  0.
         24    2    4    4    0    0 -0.15077140856E+03 -0.10962477949E+03 -0.64728920413E+02  0.21208509061E+03  0.77721571028E+02 0.  0.
         11    1    3    3    0    0 -0.70898926791E+02 -0.14191173112E+03  0.16296478401E+02  0.15947154121E+03  0.00000000000E+00 0.  1.
        -11    1    3    3    0    0 -0.22755824868E+03 -0.18598551260E+03  0.54269104306E+02  0.29886201352E+03  0.00000000000E+00 0. -1.
          4    1    6    6  502    0 -0.72932438895E+02 -0.93683169047E+02 -0.18492976400E+02  0.12015684326E+03  0.00000000000E+00 0. -1.
          3    1    5    5  503    0  0.31620213846E+03  0.34665389838E+03  0.60325538556E+03  0.76424457985E+03  0.00000000000E+00 0. -1.
         -4    1    5    5    0  503  0.13302644558E+03  0.90868124833E+02  0.25914195549E+03  0.30513538705E+03  0.00000000000E+00 0.  1.
         -3    1    6    6    0  502 -0.77838969669E+02 -0.15941610446E+02 -0.46235944013E+02  0.91928247353E+02  0.00000000000E+00 0.  1.
<mgrwt>
<rscale>  0 0.15076700E+04</rscale>
<asrwt>0</asrwt>
<pdfrwt beam="1">  1        2 0.20061789E+00 0.15076700E+04</pdfrwt>
<pdfrwt beam="2">  1       -2 0.67043432E-01 0.15076700E+04</pdfrwt>
<totfact> 0.32421542E+01</totfact>
</mgrwt>
</event>
<event>
12    1  0.2588309E-007  0.1686474E+04  0.7818608E-02  0.8769116E-01
          2   -1    0    0  501    0  0.00000000000E+00  0.00000000000E+00  0.51086153967E+03  0.51086153967E+03  0.00000000000E+00 0.  1.
         -2   -1    0    0    0  501 -0.00000000000E+00 -0.00000000000E+00 -0.13918619451E+04  0.13918619451E+04  0.00000000000E+00 0. -1.
         23    2    1    2    0    0 -0.27739669790E+03 -0.50290810359E+03 -0.50615910432E+03  0.77084175799E+03  0.90191398176E+02 0.  0.
        254    2    1    2    0    0  0.27739669790E+03  0.50290810359E+03 -0.37484130108E+03  0.11318817268E+04  0.90043586874E+03 0.  0.
        -24    2    4    4    0    0 -0.19739301681E+02 -0.12055628150E+03  0.18748261688E+03  0.23772320119E+03  0.80244200487E+02 0.  0.
         24    2    4    4    0    0  0.29713599958E+03  0.62346438510E+03 -0.56232391796E+03  0.89415852557E+03  0.79458406767E+02 0.  0.
         13    1    3    3    0    0 -0.19926376621E+03 -0.31070946851E+03 -0.37028564189E+03  0.52283637874E+03  0.00000000000E+00 0. -1.
        -13    1    3    3    0    0 -0.78132931686E+02 -0.19219863508E+03 -0.13587346244E+03  0.24800537925E+03  0.00000000000E+00 0.  1.
          2    1    6    6  502    0  0.25168074255E+03  0.57185483071E+03 -0.52394544396E+03  0.81540172420E+03  0.00000000000E+00 0. -1.
          1    1    5    5  503    0 -0.14941341429E+02 -0.58427862806E+01  0.76054251283E+02  0.77727929173E+02  0.00000000000E+00 0. -1.
         -2    1    5    5    0  503 -0.47979602526E+01 -0.11471349522E+03  0.11142836560E+03  0.15999527202E+03  0.00000000000E+00 0.  1.
         -1    1    6    6    0  502  0.45455257026E+02  0.51609554382E+02 -0.38378473995E+02  0.78756801364E+02  0.00000000000E+00 0.  1.
<mgrwt>
<rscale>  0 0.16864741E+04</rscale>
<asrwt>0</asrwt>
<pdfrwt beam="1">  1        2 0.78594084E-01 0.16864741E+04</pdfrwt>
<pdfrwt beam="2">  1       -2 0.21413260E+00 0.16864741E+04</pdfrwt>
<totfact> 0.61571280E+00</totfact>
</mgrwt>
</event>
<event>
12    1  0.2588309E-007  0.1818222E+04  0.7818608E-02  0.8696669E-01
         -2   -1    0    0    0  501 -0.00000000000E+00  0.00000000000E+00  0.43452005451E+03  0.43452005451E+03  0.00000000000E+00 0.  1.
          2   -1    0    0  501    0  0.00000000000E+00 -0.00000000000E+00 -0.19020600828E+04  0.19020600828E+04  0.00000000000E+00 0. -1.
         23    2    1    2    0    0  0.99863989854E+02  0.63249497344E+03 -0.24872416302E+03  0.69291854984E+03  0.90827856631E+02 0.  0.
        254    2    1    2    0    0 -0.99863989854E+02 -0.63249497344E+03 -0.12188158653E+04  0.16436615875E+04  0.89782436636E+03 0.  0.
        -24    2    4    4    0    0 -0.40693517745E+03 -0.35114136564E+03 -0.10598309312E+04  0.11910409219E+04  0.80251962872E+02 0.  0.
         24    2    4    4    0    0  0.30707118760E+03 -0.28135360780E+03 -0.15898493408E+03  0.45262066561E+03  0.78337033358E+02 0.  0.
         11    1    3    3    0    0  0.80744891459E+02  0.43695941810E+03 -0.21477151546E+03  0.49353832112E+03  0.00000000000E+00 0. -1.
        -11    1    3    3    0    0  0.19119098395E+02  0.19553555534E+03 -0.33952647559E+02  0.19938022871E+03  0.00000000000E+00 0.  1.
          4    1    6    6  502    0  0.19183446850E+03 -0.13199471336E+03 -0.64452933455E+02  0.24161384127E+03  0.00000000000E+00 0. -1.
          1    1    5    5  503    0 -0.80440345989E+02 -0.11042183557E+03 -0.30243081297E+03  0.33185543188E+03  0.00000000000E+00 0. -1.
         -2    1    5    5    0  503 -0.32649483146E+03 -0.24071953007E+03 -0.75740011827E+03  0.85918549003E+03  0.00000000000E+00 0.  1.
         -3    1    6    6    0  502  0.11523671910E+03 -0.14935889444E+03 -0.94532000628E+02  0.21100682434E+03  0.00000000000E+00 0.  1.
<mgrwt>
<rscale>  0 0.18182225E+04</rscale>
<asrwt>0</asrwt>
<pdfrwt beam="1">  1        2 0.29262463E+00 0.18182225E+04</pdfrwt>
<pdfrwt beam="2">  1       -2 0.66849239E-01 0.18182225E+04</pdfrwt>
<totfact> 0.14669417E+01</totfact>
</mgrwt>
</event>
<event>
12    1  0.2588309E-007  0.2275620E+04  0.7818608E-02  0.8487596E-01
          2   -1    0    0  501    0  0.00000000000E+00  0.00000000000E+00  0.35985015633E+04  0.35985015633E+04  0.00000000000E+00 0.  1.
         -2   -1    0    0    0  501 -0.00000000000E+00 -0.00000000000E+00 -0.35976418851E+03  0.35976418851E+03  0.00000000000E+00 0. -1.
         23    2    1    2    0    0  0.34139503799E+03 -0.87796509307E+03  0.10793294448E+04  0.14354762219E+04  0.90921155798E+02 0.  0.
        254    2    1    2    0    0 -0.34139503799E+03  0.87796509307E+03  0.21594079300E+04  0.25227895299E+04  0.90224781935E+03 0.  0.
        -24    2    4    4    0    0 -0.22065119721E+03 -0.12259383627E+03  0.69094025793E+03  0.74009182553E+03  0.81371190621E+02 0.  0.
         24    2    4    4    0    0 -0.12074384078E+03  0.10005589293E+04  0.14684676721E+04  0.17826977044E+04  0.76919147020E+02 0.  0.
         11    1    3    3    0    0  0.33819462140E+03 -0.80324458015E+03  0.99819324398E+03  0.13251291295E+04  0.00000000000E+00 0. -1.
        -11    1    3    3    0    0  0.32004165896E+01 -0.74720512927E+02  0.81136200826E+02  0.11034709241E+03  0.00000000000E+00 0.  1.
          2    1    6    6  502    0 -0.99148109733E+02  0.92456643510E+03  0.13218424461E+04  0.16161438342E+04  0.00000000000E+00 0. -1.
          3    1    5    5  503    0 -0.18937696460E+03 -0.81512440202E+02  0.61173387724E+03  0.64554337515E+03  0.00000000000E+00 0. -1.
         -4    1    5    5    0  503 -0.31274232607E+02 -0.41081396064E+02  0.79206380688E+02  0.94548450381E+02  0.00000000000E+00 0.  1.
         -1    1    6    6    0  502 -0.21595731052E+02  0.75992494237E+02  0.14662522594E+03  0.16655387015E+03  0.00000000000E+00 0.  1.
<mgrwt>
<rscale>  0 0.22756204E+04</rscale>
<asrwt>0</asrwt>
<pdfrwt beam="1">  1        2 0.55361560E+00 0.22756204E+04</pdfrwt>
<pdfrwt beam="2">  1       -2 0.55348339E-01 0.22756204E+04</pdfrwt>
<totfact> 0.19357502E+00</totfact>
</mgrwt>
</event>
<event>
12    1  0.2588309E-007  0.4137737E+04  0.7818608E-02  0.7977323E-01
         -1   -1    0    0    0  501 -0.00000000000E+00  0.00000000000E+00  0.37001690774E+04  0.37001690774E+04  0.00000000000E+00 0.  1.
          1   -1    0    0  501    0  0.00000000000E+00 -0.00000000000E+00 -0.11567626949E+04  0.11567626949E+04  0.00000000000E+00 0. -1.
         23    2    1    2    0    0  0.15102957328E+04 -0.12624432666E+04  0.13039024164E+04  0.23628760344E+04  0.90914469174E+02 0.  0.
        254    2    1    2    0    0 -0.15102957328E+04  0.12624432666E+04  0.12395039662E+04  0.24940557379E+04  0.89954863109E+03 0.  0.
        -24    2    4    4    0    0 -0.42292905125E+03  0.50544910663E+02  0.60593658245E+03  0.74511612964E+03  0.81333475979E+02 0.  0.
         24    2    4    4    0    0 -0.10873666815E+04  0.12118983559E+04  0.63356738370E+03  0.17489396082E+04  0.79487095508E+02 0.  0.
         11    1    3    3    0    0  0.11900778651E+04 -0.99010050454E+03  0.10691549816E+04  0.18814028566E+04  0.00000000000E+00 0. -1.
        -11    1    3    3    0    0  0.32021786770E+03 -0.27234276205E+03  0.23474743480E+03  0.48147317784E+03  0.00000000000E+00 0.  1.
          2    1    6    6  502    0 -0.83463012951E+03  0.96596957562E+03  0.52025765021E+03  0.13785400599E+04  0.00000000000E+00 0. -1.
          1    1    5    5  503    0 -0.38812314655E+03  0.38074199597E+02  0.50799292235E+03  0.64042644443E+03  0.00000000000E+00 0. -1.
         -2    1    5    5    0  503 -0.34805904698E+02  0.12470711066E+02  0.97943660099E+02  0.10468968521E+03  0.00000000000E+00 0.  1.
         -1    1    6    6    0  502 -0.25273655204E+03  0.24592878031E+03  0.11330973349E+03  0.37039954836E+03  0.00000000000E+00 0.  1.
<mgrwt>
<rscale>  0 0.41377373E+04</rscale>
<asrwt>0</asrwt>
<pdfrwt beam="1">  1        1 0.17796349E+00 0.41377373E+04</pdfrwt>
<pdfrwt beam="2">  1       -1 0.56925677E+00 0.41377373E+04</pdfrwt>
<totfact> 0.53525839E-03</totfact>
</mgrwt>
</event>
<event>
12    1  0.2588309E-007  0.1579133E+04  0.7818608E-02  0.8833471E-01
          2   -1    0    0  501    0  0.00000000000E+00  0.00000000000E+00  0.15739269100E+04  0.15739269100E+04  0.00000000000E+00 0. -1.
         -2   -1    0    0    0  501 -0.00000000000E+00 -0.00000000000E+00 -0.39608925279E+03  0.39608925279E+03  0.00000000000E+00 0.  1.
         23    2    1    2    0    0  0.45015280848E+03  0.21248263848E+03  0.21569734927E+03  0.55008010165E+03  0.90974442082E+02 0.  0.
        254    2    1    2    0    0 -0.45015280848E+03 -0.21248263848E+03  0.96214030797E+03  0.14199360612E+04  0.91799674453E+03 0.  0.
        -24    2    4    4    0    0 -0.46919584204E+03 -0.25262639860E+03  0.11156603162E+04  0.12389436364E+04  0.79489355006E+02 0.  0.
         24    2    4    4    0    0  0.19043033564E+02  0.40143760121E+02 -0.15352000827E+03  0.18099242474E+03  0.84945313400E+02 0.  0.
         11    1    3    3    0    0  0.15145308489E+03  0.52767361409E+02  0.11279846101E+03  0.19607632228E+03  0.00000000000E+00 0. -1.
        -11    1    3    3    0    0  0.29869972358E+03  0.15971527708E+03  0.10289888826E+03  0.35400377937E+03  0.00000000000E+00 0.  1.
          4    1    6    6  502    0 -0.51238838472E+01  0.15054559798E+02 -0.14400564752E+03  0.14488105630E+03  0.00000000000E+00 0. -1.
          3    1    5    5  503    0 -0.38857004048E+03 -0.18818765871E+03  0.95395952005E+03  0.10471103271E+04  0.00000000000E+00 0. -1.
         -4    1    5    5    0  503 -0.80625801557E+02 -0.64438739890E+02  0.16170079620E+03  0.19183330933E+03  0.00000000000E+00 0.  1.
         -3    1    6    6    0  502  0.24166917412E+02  0.25089200323E+02 -0.95143607515E+01  0.36111368439E+02  0.00000000000E+00 0.  1.
<mgrwt>
<rscale>  0 0.15791333E+04</rscale>
<asrwt>0</asrwt>
<pdfrwt beam="1">  1        2 0.24214260E+00 0.15791333E+04</pdfrwt>
<pdfrwt beam="2">  1       -2 0.60936809E-01 0.15791333E+04</pdfrwt>
<totfact> 0.27759282E+01</totfact>
</mgrwt>
</event>
<event>
12    1  0.2588309E-007  0.2184273E+04  0.7818608E-02  0.8525003E-01
          1   -1    0    0  501    0  0.00000000000E+00  0.00000000000E+00  0.15821401709E+04  0.15821401709E+04  0.00000000000E+00 0. -1.
         -1   -1    0    0    0  501 -0.00000000000E+00 -0.00000000000E+00 -0.75389165875E+03  0.75389165875E+03  0.00000000000E+00 0.  1.
         23    2    1    2    0    0 -0.65310586752E+03 -0.61934009519E+03  0.25642560635E+03  0.94042248591E+03  0.92254716449E+02 0.  0.
        254    2    1    2    0    0  0.65310586752E+03  0.61934009519E+03  0.57182290577E+03  0.13956093437E+04  0.90034136692E+03 0.  0.
        -24    2    4    4    0    0  0.41656693150E+03  0.56568099833E+03 -0.64265611505E+02  0.71021242026E+03  0.82149940831E+02 0.  0.
         24    2    4    4    0    0  0.23653893602E+03  0.53659096869E+02  0.63608851728E+03  0.68539692346E+03  0.79563647119E+02 0.  0.
         13    1    3    3    0    0 -0.23787391562E+03 -0.28744642531E+03  0.11283220144E+03  0.38979552695E+03  0.00000000000E+00 0. -1.
        -13    1    3    3    0    0 -0.41523195191E+03 -0.33189366989E+03  0.14359340491E+03  0.55062695895E+03  0.00000000000E+00 0.  1.
          4    1    6    6  502    0  0.14981025197E+03  0.40640075702E+02  0.29659456808E+03  0.33475821896E+03  0.00000000000E+00 0. -1.
          3    1    5    5  503    0  0.15906406133E+03  0.23449530059E+03 -0.64931133164E+02  0.29069825191E+03  0.00000000000E+00 0. -1.
         -4    1    5    5    0  503  0.25750287017E+03  0.33118569774E+03  0.66552165859E+00  0.41951416835E+03  0.00000000000E+00 0.  1.
         -3    1    6    6    0  502  0.86728684055E+02  0.13019021167E+02  0.33949394920E+03  0.35063870450E+03  0.00000000000E+00 0.  1.
<mgrwt>
<rscale>  0 0.21842731E+04</rscale>
<asrwt>0</asrwt>
<pdfrwt beam="1">  1        1 0.24340618E+00 0.21842731E+04</pdfrwt>
<pdfrwt beam="2">  1       -1 0.11598333E+00 0.21842731E+04</pdfrwt>
<totfact> 0.35241110E+00</totfact>
</mgrwt>
</event>
<event>
12    1  0.2588309E-007  0.1285943E+04  0.7818608E-02  0.9040788E-01
          2   -1    0    0  501    0  0.00000000000E+00  0.00000000000E+00  0.26229557333E+04  0.26229557333E+04  0.00000000000E+00 0. -1.
         -2   -1    0    0    0  501 -0.00000000000E+00 -0.00000000000E+00 -0.15761310624E+03  0.15761310624E+03  0.00000000000E+00 0.  1.
         23    2    1    2    0    0 -0.14360816330E+02 -0.72429055732E+02 -0.35889944773E+02  0.12157650443E+03  0.89669153750E+02 0.  0.
        254    2    1    2    0    0  0.14360816330E+02  0.72429055732E+02  0.25012325718E+04  0.26589923351E+04  0.89923504081E+03 0.  0.
        -24    2    4    4    0    0  0.37792631696E+03 -0.14361339978E+03  0.74970372057E+03  0.85551908160E+03  0.80025750179E+02 0.  0.
         24    2    4    4    0    0 -0.36356550063E+03  0.21604245551E+03  0.17515288512E+04  0.18034732535E+04  0.76211833155E+02 0.  0.
         11    1    3    3    0    0 -0.46060064625E+02 -0.11802739331E+02 -0.11248352147E+02  0.48860614353E+02  0.00000000000E+00 0. -1.
        -11    1    3    3    0    0  0.31699248295E+02 -0.60626316401E+02 -0.24641592626E+02  0.72715890079E+02  0.00000000000E+00 0.  1.
          4    1    6    6  502    0 -0.19165225242E+03  0.12910291437E+03  0.80347909252E+03  0.83604832424E+03  0.00000000000E+00 0. -1.
          3    1    5    5  503    0  0.15250516422E+03 -0.93657091875E+02  0.37245537501E+03  0.41322207389E+03  0.00000000000E+00 0. -1.
         -4    1    5    5    0  503  0.22542115274E+03 -0.49956307906E+02  0.37724834556E+03  0.44229700771E+03  0.00000000000E+00 0.  1.
         -3    1    6    6    0  502 -0.17191324821E+03  0.86939541142E+02  0.94804975871E+03  0.96742492924E+03  0.00000000000E+00 0.  1.
<mgrwt>
<rscale>  0 0.12859428E+04</rscale>
<asrwt>0</asrwt>
<pdfrwt beam="1">  1        2 0.40353162E+00 0.12859428E+04</pdfrwt>
<pdfrwt beam="2">  1       -2 0.24248172E-01 0.12859428E+04</pdfrwt>
<totfact> 0.44164788E+01</totfact>
</mgrwt>
</event>
<event>
12    1  0.2588309E-007  0.2441527E+04  0.7818608E-02  0.8424118E-01
         -1   -1    0    0    0  501 -0.00000000000E+00  0.00000000000E+00  0.19784783637E+04  0.19784783637E+04  0.00000000000E+00 0.  1.
          1   -1    0    0  501    0  0.00000000000E+00 -0.00000000000E+00 -0.75323741386E+03  0.75323741386E+03  0.00000000000E+00 0. -1.
         23    2    1    2    0    0 -0.89031643935E+03  0.56279878775E+03  0.54533559153E+03  0.11898117986E+04  0.94102980362E+02 0.  0.
        254    2    1    2    0    0  0.89031643935E+03 -0.56279878775E+03  0.67990535830E+03  0.15419039790E+04  0.89765847987E+03 0.  0.
        -24    2    4    4    0    0  0.94190815521E+03 -0.51022790421E+03  0.25605598521E+03  0.11043837244E+04  0.81087952596E+02 0.  0.
         24    2    4    4    0    0 -0.51591715857E+02 -0.52570883548E+02  0.42384937309E+03  0.43752025459E+03  0.79688638913E+02 0.  0.
         11    1    3    3    0    0 -0.23881854617E+03  0.11199361407E+03  0.16351540139E+03  0.31034521759E+03  0.00000000000E+00 0.  1.
        -11    1    3    3    0    0 -0.65149789318E+03  0.45080517368E+03  0.38182019014E+03  0.87946658096E+03  0.00000000000E+00 0. -1.
          4    1    6    6  502    0 -0.16861819929E+02  0.12655702220E+02  0.29220709949E+02  0.36032452871E+02  0.00000000000E+00 0. -1.
          3    1    5    5  503    0  0.38944664192E+03 -0.19373768986E+03  0.14190844904E+03  0.45753796267E+03  0.00000000000E+00 0. -1.
         -4    1    5    5    0  503  0.55246151329E+03 -0.31649021434E+03  0.11414753617E+03  0.64684576172E+03  0.00000000000E+00 0.  1.
         -3    1    6    6    0  502 -0.34729895929E+02 -0.65226585769E+02  0.39462866314E+03  0.40148780172E+03  0.00000000000E+00 0.  1.
<mgrwt>
<rscale>  0 0.24415273E+04</rscale>
<asrwt>0</asrwt>
<pdfrwt beam="1">  1        1 0.11588268E+00 0.24415273E+04</pdfrwt>
<pdfrwt beam="2">  1       -1 0.30438129E+00 0.24415273E+04</pdfrwt>
<totfact> 0.67203507E-01</totfact>
</mgrwt>
</event>
<event>
12    1  0.2738641E-007  0.1864355E+04  0.7818608E-02  0.8672806E-01
         -2   -1    0    0    0  501 -0.00000000000E+00  0.00000000000E+00  0.10355759616E+04  0.10355759616E+04  0.00000000000E+00 0.  1.
          2   -1    0    0  501    0  0.00000000000E+00 -0.00000000000E+00 -0.83910264750E+03  0.83910264750E+03  0.00000000000E+00 0. -1.
         23    2    1    2    0    0 -0.18340107489E+03 -0.60675241723E+03 -0.25069939969E+03  0.68670518752E+03  0.83242870433E+02 0.  0.
        254    2    1    2    0    0  0.18340107489E+03  0.60675241723E+03  0.44717271383E+03  0.11879734216E+04  0.89974049837E+03 0.  0.
        -24    2    4    4    0    0  0.37014874964E+03  0.26614985044E+02 -0.68507166295E+02  0.38566178432E+03  0.79519342074E+02 0.  0.
         24    2    4    4    0    0 -0.18674767475E+03  0.58013743218E+03  0.51567988012E+03  0.80231163731E+03  0.79649798176E+02 0.  0.
         13    1    3    3    0    0 -0.13233619905E+03 -0.44670286371E+03 -0.22272344870E+03  0.51639331195E+03  0.00000000000E+00 0. -1.
        -13    1    3    3    0    0 -0.51064875841E+02 -0.16004955351E+03 -0.27975950986E+02  0.17031187556E+03  0.00000000000E+00 0.  1.
          4    1    6    6  502    0 -0.17095499305E+03  0.53829979132E+03  0.50173994391E+03  0.75547021536E+03  0.00000000000E+00 0. -1.
          1    1    5    5  503    0  0.35326980294E+03  0.14466967809E+02 -0.79125792189E+02  0.36231165840E+03  0.00000000000E+00 0. -1.
         -2    1    5    5    0  503  0.16878946699E+02  0.12148017234E+02  0.10618625895E+02  0.23350125916E+02  0.00000000000E+00 0.  1.
         -3    1    6    6    0  502 -0.15792681699E+02  0.41837640862E+02  0.13939936214E+02  0.46841421944E+02  0.00000000000E+00 0.  1.
<mgrwt>
<rscale>  0 0.18643546E+04</rscale>
<asrwt>0</asrwt>
<pdfrwt beam="1">  1        2 0.12909271E+00 0.18643546E+04</pdfrwt>
<pdfrwt beam="2">  1       -2 0.15931938E+00 0.18643546E+04</pdfrwt>
<totfact> 0.77285403E+00</totfact>
</mgrwt>
</event>
<event>
12    1  0.2588309E-007  0.1695442E+04  0.7818608E-02  0.8763968E-01
          2   -1    0    0  501    0  0.00000000000E+00  0.00000000000E+00  0.10983522418E+04  0.10983522418E+04  0.00000000000E+00 0. -1.
         -2   -1    0    0    0  501 -0.00000000000E+00 -0.00000000000E+00 -0.65428105201E+03  0.65428105201E+03  0.00000000000E+00 0.  1.
         23    2    1    2    0    0  0.60049187884E+03 -0.38748730966E+02  0.95680040454E+02  0.61644069554E+03  0.93554798233E+02 0.  0.
        254    2    1    2    0    0 -0.60049187884E+03  0.38748730966E+02  0.34839114933E+03  0.11361925983E+04  0.89859071146E+03 0.  0.
        -24    2    4    4    0    0 -0.23629480036E+03 -0.33002148427E+03  0.44041655356E+03  0.60407758128E+03  0.78699242678E+02 0.  0.
         24    2    4    4    0    0 -0.36419707848E+03  0.36877021524E+03 -0.92025404230E+02  0.53211501699E+03  0.77760739830E+02 0.  0.
         11    1    3    3    0    0  0.48654714091E+03 -0.49580272187E+02  0.10942838260E+03  0.50115955008E+03  0.00000000000E+00 0. -1.
        -11    1    3    3    0    0  0.11394473793E+03  0.10831541222E+02 -0.13748342142E+02  0.11528114546E+03  0.00000000000E+00 0.  1.
          4    1    6    6  502    0 -0.24901440687E+03  0.26757172653E+03 -0.98822711236E+02  0.37864063692E+03  0.00000000000E+00 0. -1.
          3    1    5    5  503    0 -0.22143629483E+03 -0.33135241647E+03  0.42420648147E+03  0.58204776048E+03  0.00000000000E+00 0. -1.
         -4    1    5    5    0  503 -0.14858505527E+02  0.13309321945E+01  0.16210072089E+02  0.22029820792E+02  0.00000000000E+00 0.  1.
         -3    1    6    6    0  502 -0.11518267161E+03  0.10119848871E+03  0.67973070057E+01  0.15347438007E+03  0.00000000000E+00 0.  1.
<mgrwt>
<rscale>  0 0.16954422E+04</rscale>
<asrwt>0</asrwt>
<pdfrwt beam="1">  1        2 0.16897727E+00 0.16954422E+04</pdfrwt>
<pdfrwt beam="2">  1       -2 0.10065862E+00 0.16954422E+04</pdfrwt>
<totfact> 0.16907138E+01</totfact>
</mgrwt>
</event>
<event>
12    1  0.2588309E-007  0.2377652E+04  0.7818608E-02  0.8447918E-01
         -2   -1    0    0    0  501 -0.00000000000E+00  0.00000000000E+00  0.72399373627E+03  0.72399373627E+03  0.00000000000E+00 0. -1.
          2   -1    0    0  501    0  0.00000000000E+00 -0.00000000000E+00 -0.19520991969E+04  0.19520991969E+04  0.00000000000E+00 0.  1.
         23    2    1    2    0    0 -0.53845939393E+03  0.85918942530E+03 -0.45463686379E+03  0.11146715089E+04  0.87480897600E+02 0.  0.
        254    2    1    2    0    0  0.53845939393E+03 -0.85918942530E+03 -0.77346859679E+03  0.15614214242E+04  0.90090965487E+03 0.  0.
        -24    2    4    4    0    0 -0.88965282479E+01  0.14823742130E+03 -0.23916120866E+03  0.29371599880E+03  0.83770656760E+02 0.  0.
         24    2    4    4    0    0  0.54735592218E+03 -0.10074268466E+04 -0.53430738812E+03  0.12677054254E+04  0.84174246499E+02 0.  0.
         13    1    3    3    0    0 -0.35668404665E+03  0.51680528101E+03 -0.31609192178E+03  0.70301160063E+03  0.00000000000E+00 0.  1.
        -13    1    3    3    0    0 -0.18177534728E+03  0.34238414429E+03 -0.13854494202E+03  0.41165990830E+03  0.00000000000E+00 0. -1.
          2    1    6    6  502    0  0.27061221917E+03 -0.45844498146E+03 -0.20671356442E+03  0.57108079280E+03  0.00000000000E+00 0. -1.
          1    1    5    5  503    0 -0.36614281060E+02  0.13396660136E+03 -0.18668747473E+03  0.23267975649E+03  0.00000000000E+00 0. -1.
         -2    1    5    5    0  503  0.27717752812E+02  0.14270819931E+02 -0.52473733932E+02  0.61036242309E+02  0.00000000000E+00 0.  1.
         -1    1    6    6    0  502  0.27674370301E+03 -0.54898186513E+03 -0.32759382370E+03  0.69662463259E+03  0.00000000000E+00 0.  1.
<mgrwt>
<rscale>  0 0.23776523E+04</rscale>
<asrwt>0</asrwt>
<pdfrwt beam="1">  1        2 0.30032295E+00 0.23776523E+04</pdfrwt>
<pdfrwt beam="2">  1       -2 0.11138365E+00 0.23776523E+04</pdfrwt>
<totfact> 0.40790874E+00</totfact>
</mgrwt>
</event>
<event>
12    1  0.2588309E-007  0.1812580E+04  0.7818608E-02  0.8699638E-01
          2   -1    0    0  501    0  0.00000000000E+00  0.00000000000E+00  0.48715819782E+03  0.48715819782E+03  0.00000000000E+00 0. -1.
         -2   -1    0    0    0  501 -0.00000000000E+00 -0.00000000000E+00 -0.16860258111E+04  0.16860258111E+04  0.00000000000E+00 0.  1.
         23    2    1    2    0    0  0.30143060849E+03 -0.30452617874E+03  0.17798455697E+03  0.47296628019E+03  0.91771424768E+02 0.  0.
        254    2    1    2    0    0 -0.30143060849E+03  0.30452617874E+03 -0.13768521703E+04  0.17002177288E+04  0.90078955428E+03 0.  0.
        -24    2    4    4    0    0 -0.36193054178E+03  0.17858518478E+03 -0.14619769913E+04  0.15187666835E+04  0.79932036845E+02 0.  0.
         24    2    4    4    0    0  0.60499933295E+02  0.12594099396E+03  0.85124820990E+02  0.18145104529E+03  0.78465730086E+02 0.  0.
         11    1    3    3    0    0  0.18938077966E+03 -0.13637864378E+03  0.12175515335E+03  0.26322714821E+03  0.00000000000E+00 0. -1.
        -11    1    3    3    0    0  0.11204982882E+03 -0.16814753497E+03  0.56229403619E+02  0.20973913199E+03  0.00000000000E+00 0.  1.
          4    1    6    6  502    0  0.69745273583E+02  0.10579739911E+03  0.42935997036E+02  0.13379459140E+03  0.00000000000E+00 0. -1.
          1    1    5    5  503    0 -0.10544137851E+03  0.64524264685E+02 -0.32682514829E+03  0.34942229836E+03  0.00000000000E+00 0. -1.
         -2    1    5    5    0  503 -0.25648916328E+03  0.11406092010E+03 -0.11351518430E+04  0.11693443851E+04  0.00000000000E+00 0.  1.
         -3    1    6    6    0  502 -0.92453402873E+01  0.20143594849E+02  0.42188823954E+02  0.47656453887E+02  0.00000000000E+00 0.  1.
<mgrwt>
<rscale>  0 0.18125797E+04</rscale>
<asrwt>0</asrwt>
<pdfrwt beam="1">  1        2 0.74947413E-01 0.18125797E+04</pdfrwt>
<pdfrwt beam="2">  1       -2 0.25938859E+00 0.18125797E+04</pdfrwt>
<totfact> 0.33693161E+00</totfact>
</mgrwt>
</event>
<event>
12    1  0.2588309E-007  0.2845928E+04  0.7818608E-02  0.8289150E-01
         -1   -1    0    0    0  501 -0.00000000000E+00  0.00000000000E+00  0.25937579469E+04  0.25937579469E+04  0.00000000000E+00 0.  1.
          1   -1    0    0  501    0  0.00000000000E+00 -0.00000000000E+00 -0.78065367393E+03  0.78065367393E+03  0.00000000000E+00 0. -1.
         23    2    1    2    0    0 -0.67542815159E+03 -0.83134924763E+03  0.16406108566E+04  0.19613288820E+04  0.88669279709E+02 0.  0.
        254    2    1    2    0    0  0.67542815159E+03  0.83134924763E+03  0.17249341638E+03  0.14130827388E+04  0.90537510930E+03 0.  0.
        -24    2    4    4    0    0  0.35688407091E+03 -0.76600680570E+02  0.24243639177E+03  0.44510745847E+03  0.78175067647E+02 0.  0.
         24    2    4    4    0    0  0.31854408068E+03  0.90794992820E+03 -0.69942975395E+02  0.96797528034E+03  0.78998228333E+02 0.  0.
         13    1    3    3    0    0 -0.28027198678E+03 -0.29280265657E+03  0.67062340082E+03  0.78359525777E+03  0.00000000000E+00 0.  1.
        -13    1    3    3    0    0 -0.39515616480E+03 -0.53854659106E+03  0.96998745580E+03  0.11777336243E+04  0.00000000000E+00 0. -1.
          4    1    6    6  502    0  0.14633390424E+03  0.50601049972E+03 -0.64358404588E+02  0.53066207854E+03  0.00000000000E+00 0. -1.
          1    1    5    5  503    0  0.17361986055E+03  0.58853438211E+00  0.98400742500E+02  0.19956680203E+03  0.00000000000E+00 0. -1.
         -2    1    5    5    0  503  0.18326421036E+03 -0.77189214952E+02  0.14403564927E+03  0.24554065644E+03  0.00000000000E+00 0.  1.
         -3    1    6    6    0  502  0.17221017643E+03  0.40193942848E+03 -0.55845708074E+01  0.43731320179E+03  0.00000000000E+00 0.  1.
<mgrwt>
<rscale>  0 0.28459281E+04</rscale>
<asrwt>0</asrwt>
<pdfrwt beam="1">  1        1 0.12010057E+00 0.28459281E+04</pdfrwt>
<pdfrwt beam="2">  1       -1 0.39903968E+00 0.28459281E+04</pdfrwt>
<totfact> 0.14392517E-01</totfact>
</mgrwt>
</event>
<event>
12    1  0.2588309E-007  0.1515382E+04  0.7818608E-02  0.8874288E-01
          2   -1    0    0  501    0  0.00000000000E+00  0.00000000000E+00  0.19267678719E+04  0.19267678719E+04  0.00000000000E+00 0.  1.
         -2   -1    0    0    0  501 -0.00000000000E+00 -0.00000000000E+00 -0.29795774498E+03  0.29795774498E+03  0.00000000000E+00 0. -1.
         23    2    1    2    0    0 -0.77253748217E+02 -0.27959088237E+03 -0.39166200735E+02  0.30702029952E+03  0.92672919032E+02 0.  0.
        254    2    1    2    0    0  0.77253748217E+02  0.27959088237E+03  0.16679763277E+04  0.19177053174E+04  0.90072717929E+03 0.  0.
        -24    2    4    4    0    0  0.81000511437E+02  0.47728809085E+03  0.40203034719E+03  0.63391984607E+03  0.76556950435E+02 0.  0.
         24    2    4    4    0    0 -0.37467632201E+01 -0.19769720849E+03  0.12659459805E+04  0.12837854713E+04  0.79923002606E+02 0.  0.
         11    1    3    3    0    0 -0.97978845414E+02 -0.21014429794E+03 -0.25385500552E+02  0.23324858787E+03  0.00000000000E+00 0. -1.
        -11    1    3    3    0    0  0.20725097197E+02 -0.69446584427E+02 -0.13780700183E+02  0.73771711651E+02  0.00000000000E+00 0.  1.
          4    1    6    6  502    0  0.67366260683E+01 -0.95934274937E+01  0.26530385958E+03  0.26556271178E+03  0.00000000000E+00 0. -1.
          3    1    5    5  503    0 -0.89183248444E+01  0.27062430113E+02  0.40633905713E+02  0.49628882066E+02  0.00000000000E+00 0. -1.
         -4    1    5    5    0  503  0.89918836282E+02  0.45022566074E+03  0.36139644148E+03  0.58429096401E+03  0.00000000000E+00 0.  1.
         -3    1    6    6    0  502 -0.10483389288E+02 -0.18810378100E+03  0.10006421209E+04  0.10182227595E+04  0.00000000000E+00 0.  1.
<mgrwt>
<rscale>  0 0.15153817E+04</rscale>
<asrwt>0</asrwt>
<pdfrwt beam="1">  1        2 0.29642582E+00 0.15153817E+04</pdfrwt>
<pdfrwt beam="2">  1       -2 0.45839654E-01 0.15153817E+04</pdfrwt>
<totfact> 0.31962753E+01</totfact>
</mgrwt>
</event>
<event>
12    1  0.2588309E-007  0.5688326E+04  0.7818608E-02  0.7730294E-01
         -1   -1    0    0    0  501 -0.00000000000E+00  0.00000000000E+00  0.19259135624E+04  0.19259135624E+04  0.00000000000E+00 0.  1.
          1   -1    0    0  501    0  0.00000000000E+00 -0.00000000000E+00 -0.42002209837E+04  0.42002209837E+04  0.00000000000E+00 0. -1.
         23    2    1    2    0    0  0.62062097421E+03  0.24298460025E+04  0.16303460099E+03  0.25148001167E+04  0.91199540023E+02 0.  0.
        254    2    1    2    0    0 -0.62062097421E+03 -0.24298460025E+04 -0.24373420223E+04  0.36113344295E+04  0.90098736863E+03 0.  0.
        -24    2    4    4    0    0  0.16997887738E+03 -0.86521388738E+03 -0.10565383726E+04  0.13783437900E+04  0.77912648297E+02 0.  0.
         24    2    4    4    0    0 -0.79059985159E+03 -0.15646321151E+04 -0.13808036496E+04  0.22329906395E+04  0.80664095627E+02 0.  0.
         13    1    3    3    0    0  0.26749338906E+03  0.12270402086E+04  0.91638502750E+02  0.12591973641E+04  0.00000000000E+00 0.  1.
        -13    1    3    3    0    0  0.35312758515E+03  0.12028057939E+04  0.71396098241E+02  0.12556027525E+04  0.00000000000E+00 0. -1.
          4    1    6    6  502    0 -0.51840388779E+03 -0.98533706288E+03 -0.92004280287E+03  0.14443373835E+04  0.00000000000E+00 0. -1.
          1    1    5    5  503    0  0.15073770939E+03 -0.74843693393E+03 -0.87065294043E+03  0.11579793797E+04  0.00000000000E+00 0. -1.
         -2    1    5    5    0  503  0.19241167993E+02 -0.11677695345E+03 -0.18588543222E+03  0.22036441027E+03  0.00000000000E+00 0.  1.
         -3    1    6    6    0  502 -0.27219596381E+03 -0.57929505225E+03 -0.46076084676E+03  0.78865325599E+03  0.00000000000E+00 0.  1.
<mgrwt>
<rscale>  0 0.56883258E+04</rscale>
<asrwt>0</asrwt>
<pdfrwt beam="1">  1        1 0.64618785E+00 0.56883258E+04</pdfrwt>
<pdfrwt beam="2">  1       -1 0.29629439E+00 0.56883258E+04</pdfrwt>
<totfact> 0.15014339E-03</totfact>
</mgrwt>
</event>
<event>
12    1  0.2588309E-007  0.1479343E+04  0.7818608E-02  0.8898307E-01
         -1   -1    0    0    0  501 -0.00000000000E+00  0.00000000000E+00  0.77882204035E+03  0.77882204035E+03  0.00000000000E+00 0.  1.
          1   -1    0    0  501    0  0.00000000000E+00 -0.00000000000E+00 -0.70248925897E+03  0.70248925897E+03  0.00000000000E+00 0. -1.
         23    2    1    2    0    0 -0.23865030000E+03 -0.32906292288E+03  0.23396382213E+03  0.47790367668E+03  0.91741382219E+02 0.  0.
        254    2    1    2    0    0  0.23865030000E+03  0.32906292288E+03 -0.15763104075E+03  0.10034076226E+04  0.90373831348E+03 0.  0.
        -24    2    4    4    0    0 -0.27686119817E+03  0.32544048016E+03 -0.20361356436E+03  0.47998555226E+03  0.79774793055E+02 0.  0.
         24    2    4    4    0    0  0.51551149817E+03  0.36224427140E+01  0.45982523610E+02  0.52342207038E+03  0.78045143620E+02 0.  0.
         13    1    3    3    0    0 -0.10260291624E+02 -0.20863165705E+02 -0.77417095978E+01  0.24504679858E+02  0.00000000000E+00 0. -1.
        -13    1    3    3    0    0 -0.22839000838E+03 -0.30819975717E+03  0.24170553173E+03  0.45339899682E+03  0.00000000000E+00 0.  1.
          4    1    6    6  502    0  0.83640095706E+02  0.46414671202E+01 -0.21062968043E+02  0.86376255126E+02  0.00000000000E+00 0. -1.
          3    1    5    5  503    0 -0.17223430933E+02  0.59770188422E+02 -0.40863739813E+02  0.74424238179E+02  0.00000000000E+00 0. -1.
         -4    1    5    5    0  503 -0.25963776724E+03  0.26567029174E+03 -0.16274982455E+03  0.40556131408E+03  0.00000000000E+00 0.  1.
         -3    1    6    6    0  502  0.43187140246E+03 -0.10190244062E+01  0.67045491654E+02  0.43704581525E+03  0.00000000000E+00 0.  1.
<mgrwt>
<rscale>  0 0.14793433E+04</rscale>
<asrwt>0</asrwt>
<pdfrwt beam="1">  1        1 0.10807527E+00 0.14793433E+04</pdfrwt>
<pdfrwt beam="2">  1       -1 0.11981878E+00 0.14793433E+04</pdfrwt>
<totfact> 0.16320283E+01</totfact>
</mgrwt>
</event>
<event>
12    1  0.2588309E-007  0.1680501E+04  0.7818608E-02  0.8772564E-01
          1   -1    0    0  501    0  0.00000000000E+00  0.00000000000E+00  0.14731293190E+04  0.14731293190E+04  0.00000000000E+00 0. -1.
         -1   -1    0    0    0  501 -0.00000000000E+00 -0.00000000000E+00 -0.47926601183E+03  0.47926601183E+03  0.00000000000E+00 0.  1.
         23    2    1    2    0    0 -0.56194865044E+03 -0.18950627665E+03  0.30485130479E+03  0.67307440918E+03  0.91629294642E+02 0.  0.
        254    2    1    2    0    0  0.56194865044E+03  0.18950627665E+03  0.68901200238E+03  0.12793209217E+04  0.90012530602E+03 0.  0.
        -24    2    4    4    0    0  0.67913598264E+02  0.13601133936E+03 -0.19652403384E+03  0.26071591182E+03  0.78992085255E+02 0.  0.
         24    2    4    4    0    0  0.49403505218E+03  0.53494937290E+02  0.88553603623E+03  0.10186050098E+04  0.80310357470E+02 0.  0.
         11    1    3    3    0    0 -0.42509810578E+03 -0.10171217738E+03  0.21130695498E+03  0.48549397091E+03  0.00000000000E+00 0. -1.
        -11    1    3    3    0    0 -0.13685054466E+03 -0.87794099264E+02  0.93544349812E+02  0.18758043827E+03  0.00000000000E+00 0.  1.
          4    1    6    6  502    0  0.30376081182E+03  0.62578221567E+02  0.49589166864E+03  0.58488905925E+03  0.00000000000E+00 0. -1.
          3    1    5    5  503    0 -0.13247992789E+02  0.16258077143E+02 -0.52711526898E+02  0.56730410303E+02  0.00000000000E+00 0. -1.
         -4    1    5    5    0  503  0.81161591053E+02  0.11975326222E+03 -0.14381250695E+03  0.20398550151E+03  0.00000000000E+00 0.  1.
         -3    1    6    6    0  502  0.19027424036E+03 -0.90832842774E+01  0.38964436759E+03  0.43371595059E+03  0.00000000000E+00 0.  1.
<mgrwt>
<rscale>  0 0.16805009E+04</rscale>
<asrwt>0</asrwt>
<pdfrwt beam="1">  1        1 0.22663528E+00 0.16805009E+04</pdfrwt>
<pdfrwt beam="2">  1       -1 0.73733233E-01 0.16805009E+04</pdfrwt>
<totfact> 0.12059385E+01</totfact>
</mgrwt>
</event>
<event>
12    1  0.2588309E-007  0.1687539E+04  0.7818608E-02  0.8768503E-01
          1   -1    0    0  501    0  0.00000000000E+00  0.00000000000E+00  0.77011251087E+03  0.77011251087E+03  0.00000000000E+00 0. -1.
         -1   -1    0    0    0  501 -0.00000000000E+00 -0.00000000000E+00 -0.92447175021E+03  0.92447175021E+03  0.00000000000E+00 0.  1.
         23    2    1    2    0    0 -0.26472056562E+03 -0.26875541908E+03  0.41227859248E+03  0.56593306595E+03  0.89443525050E+02 0.  0.
        254    2    1    2    0    0  0.26472056562E+03  0.26875541908E+03 -0.56663783182E+03  0.11286511951E+04  0.90026031495E+03 0.  0.
        -24    2    4    4    0    0  0.41200357083E+03  0.24466803375E+03  0.50978551041E+02  0.48839709469E+03  0.79520565369E+02 0.  0.
         24    2    4    4    0    0 -0.14728300521E+03  0.24087385324E+02 -0.61761638286E+03  0.64025410045E+03  0.78758053595E+02 0.  0.
         11    1    3    3    0    0 -0.94920681678E+02 -0.15749361018E+03  0.17782244496E+03  0.25580264852E+03  0.00000000000E+00 0.  1.
        -11    1    3    3    0    0 -0.16979988394E+03 -0.11126180889E+03  0.23445614753E+03  0.31013041743E+03  0.00000000000E+00 0. -1.
          4    1    6    6  502    0 -0.14995100930E+03  0.12779405032E+02 -0.60344884343E+03  0.62193176878E+03  0.00000000000E+00 0. -1.
          3    1    5    5  503    0  0.41396784367E+03  0.23545515416E+03  0.48878362824E+02  0.47874586115E+03  0.00000000000E+00 0. -1.
         -4    1    5    5    0  503 -0.19642728459E+01  0.92128795943E+01  0.21001882170E+01  0.96512335366E+01  0.00000000000E+00 0.  1.
         -3    1    6    6    0  502  0.26680040927E+01  0.11307980291E+02 -0.14167539430E+02  0.18322331664E+02  0.00000000000E+00 0.  1.
<mgrwt>
<rscale>  0 0.16875393E+04</rscale>
<asrwt>0</asrwt>
<pdfrwt beam="1">  1        1 0.11847885E+00 0.16875393E+04</pdfrwt>
<pdfrwt beam="2">  1       -1 0.14222642E+00 0.16875393E+04</pdfrwt>
<totfact> 0.90012406E+00</totfact>
</mgrwt>
</event>
<event>
12    1  0.2588309E-007  0.2676555E+04  0.7818608E-02  0.8342652E-01
          1   -1    0    0  501    0  0.00000000000E+00  0.00000000000E+00  0.22968981181E+04  0.22968981181E+04  0.00000000000E+00 0. -1.
         -1   -1    0    0    0  501 -0.00000000000E+00 -0.00000000000E+00 -0.77974167061E+03  0.77974167061E+03  0.00000000000E+00 0.  1.
         23    2    1    2    0    0 -0.10196058321E+04 -0.59582049310E+03  0.56754165461E+03  0.13134608034E+04  0.92074098858E+02 0.  0.
        254    2    1    2    0    0  0.10196058321E+04  0.59582049310E+03  0.94961479285E+03  0.17631789852E+04  0.90135107834E+03 0.  0.
        -24    2    4    4    0    0  0.11560843530E+04  0.61044692725E+03  0.75683731125E+03  0.15127520417E+04  0.80246755568E+02 0.  0.
         24    2    4    4    0    0 -0.13647852098E+03 -0.14626434152E+02  0.19277748160E+03  0.25042694349E+03  0.81915672189E+02 0.  0.
         11    1    3    3    0    0 -0.79054214614E+03 -0.42514096500E+03  0.45600416277E+03  0.10067976566E+04  0.00000000000E+00 0. -1.
        -11    1    3    3    0    0 -0.22906368592E+03 -0.17067952810E+03  0.11153749184E+03  0.30666314680E+03  0.00000000000E+00 0.  1.
          2    1    6    6  502    0 -0.10923512718E+03  0.46306478856E+01  0.18692994862E+03  0.21655613960E+03  0.00000000000E+00 0. -1.
          3    1    5    5  503    0  0.94150385459E+03  0.53099527792E+03  0.63089931597E+03  0.12515667942E+04  0.00000000000E+00 0. -1.
         -4    1    5    5    0  503  0.21458049845E+03  0.79451649330E+02  0.12593799527E+03  0.26118524758E+03  0.00000000000E+00 0.  1.
         -1    1    6    6    0  502 -0.27243393800E+02 -0.19257082037E+02  0.58475329876E+01  0.33870803893E+02  0.00000000000E+00 0.  1.
<mgrwt>
<rscale>  0 0.26765554E+04</rscale>
<asrwt>0</asrwt>
<pdfrwt beam="1">  1        1 0.35336894E+00 0.26765554E+04</pdfrwt>
<pdfrwt beam="2">  1       -1 0.11996026E+00 0.26765554E+04</pdfrwt>
<totfact> 0.10135252E+00</totfact>
</mgrwt>
</event>
<event>
12    1  0.2588309E-007  0.2137119E+04  0.7818608E-02  0.8545066E-01
         -2   -1    0    0    0  501 -0.00000000000E+00  0.00000000000E+00  0.58356790524E+03  0.58356790524E+03  0.00000000000E+00 0. -1.
          2   -1    0    0  501    0  0.00000000000E+00 -0.00000000000E+00 -0.19566172794E+04  0.19566172794E+04  0.00000000000E+00 0.  1.
         23    2    1    2    0    0  0.69644888639E+02 -0.60104562099E+03 -0.13197456222E+04  0.14547826542E+04  0.92508457307E+02 0.  0.
        254    2    1    2    0    0 -0.69644888639E+02  0.60104562099E+03 -0.53303751979E+02  0.10854025304E+04  0.89952827308E+03 0.  0.
        -24    2    4    4    0    0  0.20346875000E+03 -0.10838761727E+03  0.15794697617E+03  0.29256079718E+03  0.86586170738E+02 0.  0.
         24    2    4    4    0    0 -0.27311363864E+03  0.70943323826E+03 -0.21125072815E+03  0.79284173325E+03  0.78003619642E+02 0.  0.
         13    1    3    3    0    0  0.70317744643E+02 -0.24157957269E+03 -0.58522747340E+03  0.63702156225E+03  0.00000000000E+00 0.  1.
        -13    1    3    3    0    0 -0.67285600352E+00 -0.35946604830E+03 -0.73451814877E+03  0.81776109194E+03  0.00000000000E+00 0. -1.
          2    1    6    6  502    0 -0.40969593861E+02  0.12995021217E+03 -0.68367757101E+02  0.15244577880E+03  0.00000000000E+00 0. -1.
          3    1    5    5  503    0  0.47360689290E+02 -0.16698153216E+02  0.82166174980E+02  0.96297162583E+02  0.00000000000E+00 0. -1.
         -4    1    5    5    0  503  0.15610806071E+03 -0.91689464052E+02  0.75780801191E+02  0.19626363460E+03  0.00000000000E+00 0.  1.
         -3    1    6    6    0  502 -0.23214404478E+03  0.57948302609E+03 -0.14288297105E+03  0.64039595445E+03  0.00000000000E+00 0.  1.
<mgrwt>
<rscale>  0 0.21371187E+04</rscale>
<asrwt>0</asrwt>
<pdfrwt beam="1">  1        2 0.30101805E+00 0.21371187E+04</pdfrwt>
<pdfrwt beam="2">  1       -2 0.89779677E-01 0.21371187E+04</pdfrwt>
<totfact> 0.68961977E+00</totfact>
</mgrwt>
</event>
<event>
12    1  0.2588309E-007  0.1255361E+04  0.7818608E-02  0.9065733E-01
         -2   -1    0    0    0  501 -0.00000000000E+00  0.00000000000E+00  0.47594738843E+03  0.47594738843E+03  0.00000000000E+00 0.  1.
          2   -1    0    0  501    0  0.00000000000E+00 -0.00000000000E+00 -0.82778638700E+03  0.82778638700E+03  0.00000000000E+00 0. -1.
         23    2    1    2    0    0  0.96150184998E+02  0.23438912236E+03 -0.23329223002E+03  0.36207495674E+03  0.11175818073E+03 0.  0.
        254    2    1    2    0    0 -0.96150184998E+02 -0.23438912236E+03 -0.11854676855E+03  0.94165881868E+03  0.89915787030E+03 0.  0.
        -24    2    4    4    0    0 -0.41205331869E+02 -0.19151390333E+03 -0.50150886783E+03  0.54451012012E+03  0.81269132258E+02 0.  0.
         24    2    4    4    0    0 -0.54944853129E+02 -0.42875219033E+02  0.38296209928E+03  0.39714869857E+03  0.78802906011E+02 0.  0.
         11    1    3    3    0    0  0.61449706209E+02  0.20611062627E+03 -0.23329963953E+03  0.31731116977E+03  0.00000000000E+00 0. -1.
        -11    1    3    3    0    0  0.34700478789E+02  0.28278496089E+02  0.74095172498E-02  0.44763786973E+02  0.00000000000E+00 0.  1.
          4    1    6    6  502    0 -0.46967345102E+02  0.64500759704E+01  0.11203691734E+03  0.12165445258E+03  0.00000000000E+00 0. -1.
          3    1    5    5  503    0  0.16952362793E+02 -0.69434056174E+01 -0.36415724916E+02  0.40763936353E+02  0.00000000000E+00 0. -1.
         -4    1    5    5    0  503 -0.58157694663E+02 -0.18457049771E+03 -0.46509314291E+03  0.50374618377E+03  0.00000000000E+00 0.  1.
         -3    1    6    6    0  502 -0.79775080269E+01 -0.49325295003E+02  0.27092518194E+03  0.27549424599E+03  0.00000000000E+00 0.  1.
<mgrwt>
<rscale>  0 0.12553609E+04</rscale>
<asrwt>0</asrwt>
<pdfrwt beam="1">  1        2 0.12735175E+00 0.12553609E+04</pdfrwt>
<pdfrwt beam="2">  1       -2 0.73222675E-01 0.12553609E+04</pdfrwt>
<totfact> 0.54493039E+01</totfact>
</mgrwt>
</event>
<event>
12    1  0.2588309E-007  0.1255063E+04  0.7818608E-02  0.9065980E-01
         -2   -1    0    0    0  501 -0.00000000000E+00  0.00000000000E+00  0.63585037827E+03  0.63585037827E+03  0.00000000000E+00 0.  1.
          2   -1    0    0  501    0  0.00000000000E+00 -0.00000000000E+00 -0.61932148541E+03  0.61932148541E+03  0.00000000000E+00 0. -1.
         23    2    1    2    0    0 -0.28724314905E+03 -0.19863020499E+02 -0.36911315696E+02  0.30590120112E+03  0.96487995961E+02 0.  0.
        254    2    1    2    0    0  0.28724314905E+03  0.19863020499E+02  0.53440208553E+02  0.94927066255E+03  0.90297052479E+03 0.  0.
        -24    2    4    4    0    0  0.48203747015E+03 -0.13043474728E+03 -0.23643008914E+03  0.55945908337E+03  0.87874529748E+02 0.  0.
         24    2    4    4    0    0 -0.19479432111E+03  0.15029776778E+03  0.28987029769E+03  0.38981157919E+03  0.85988553016E+02 0.  0.
         13    1    3    3    0    0 -0.14810423188E+03 -0.27946846208E+02 -0.64302005746E+02  0.16386164181E+03  0.00000000000E+00 0. -1.
        -13    1    3    3    0    0 -0.13913891717E+03  0.80838257091E+01  0.27390690050E+02  0.14203955931E+03  0.00000000000E+00 0.  1.
          4    1    6    6  502    0 -0.27001918000E+02  0.41667427652E+02  0.18977182241E+02  0.53154600446E+02  0.00000000000E+00 0. -1.
          3    1    5    5  503    0  0.14396190274E+03 -0.73618523324E+02 -0.10229608556E+03  0.19133532224E+03  0.00000000000E+00 0. -1.
         -4    1    5    5    0  503  0.33807556741E+03 -0.56816223959E+02 -0.13413400358E+03  0.36812376112E+03  0.00000000000E+00 0.  1.
         -3    1    6    6    0  502 -0.16779240311E+03  0.10863034013E+03  0.27089311545E+03  0.33665697874E+03  0.00000000000E+00 0.  1.
<mgrwt>
<rscale>  0 0.12550630E+04</rscale>
<asrwt>0</asrwt>
<pdfrwt beam="1">  1        2 0.95280228E-01 0.12550630E+04</pdfrwt>
<pdfrwt beam="2">  1       -2 0.97823135E-01 0.12550630E+04</pdfrwt>
<totfact> 0.40833015E+01</totfact>
</mgrwt>
</event>
<event>
12    1  0.2588309E-007  0.3419315E+04  0.7818608E-02  0.8133182E-01
          1   -1    0    0  501    0  0.00000000000E+00  0.00000000000E+00  0.28083852083E+04  0.28083852083E+04  0.00000000000E+00 0. -1.
         -1   -1    0    0    0  501 -0.00000000000E+00 -0.00000000000E+00 -0.10407861122E+04  0.10407861122E+04  0.00000000000E+00 0.  1.
         23    2    1    2    0    0 -0.50352529783E+03 -0.15000945766E+04  0.99878734149E+03  0.18734655576E+04  0.92062900072E+02 0.  0.
        254    2    1    2    0    0  0.50352529783E+03  0.15000945766E+04  0.76881175457E+03  0.19757057629E+04  0.89917755938E+03 0.  0.
        -24    2    4    4    0    0 -0.12536208861E+03  0.71811745055E+03  0.43108142977E+02  0.73472875192E+03  0.80991980283E+02 0.  0.
         24    2    4    4    0    0  0.62888738644E+03  0.78197712608E+03  0.72570361159E+03  0.12409770110E+04  0.79941474872E+02 0.  0.
         13    1    3    3    0    0 -0.27118605780E+03 -0.94808026398E+03  0.62328546756E+03  0.11665688316E+04  0.00000000000E+00 0. -1.
        -13    1    3    3    0    0 -0.23233924004E+03 -0.55201431265E+03  0.37550187393E+03  0.70689672595E+03  0.00000000000E+00 0.  1.
          2    1    6    6  502    0  0.18424762930E+03  0.28903633429E+03  0.24119382013E+03  0.41912247650E+03  0.00000000000E+00 0. -1.
          1    1    5    5  503    0 -0.20911759200E+02  0.57287320998E+02  0.23656088508E+02  0.65412149815E+02  0.00000000000E+00 0. -1.
         -2    1    5    5    0  503 -0.10445032941E+03  0.66083012955E+03  0.19452054470E+02  0.66931660211E+03  0.00000000000E+00 0.  1.
         -1    1    6    6    0  502  0.44463975714E+03  0.49294079179E+03  0.48450979146E+03  0.82185453449E+03  0.00000000000E+00 0.  1.
<mgrwt>
<rscale>  0 0.34193147E+04</rscale>
<asrwt>0</asrwt>
<pdfrwt beam="1">  1        1 0.43205926E+00 0.34193147E+04</pdfrwt>
<pdfrwt beam="2">  1       -1 0.16012094E+00 0.34193147E+04</pdfrwt>
<totfact> 0.19678292E-01</totfact>
</mgrwt>
</event>
<event>
12    1  0.2588309E-007  0.1799746E+04  0.7818608E-02  0.8706434E-01
         -2   -1    0    0    0  501 -0.00000000000E+00  0.00000000000E+00  0.37255778612E+03  0.37255778612E+03  0.00000000000E+00 0.  1.
          2   -1    0    0  501    0  0.00000000000E+00 -0.00000000000E+00 -0.21735463473E+04  0.21735463473E+04  0.00000000000E+00 0. -1.
         23    2    1    2    0    0  0.67075407779E+03 -0.33744485586E+00 -0.65442070845E+03  0.94138286659E+03  0.89577291313E+02 0.  0.
        254    2    1    2    0    0 -0.67075407779E+03  0.33744485586E+00 -0.11465678527E+04  0.16047212668E+04  0.90033402502E+03 0.  0.
        -24    2    4    4    0    0 -0.76137651219E+03  0.92354211277E+02 -0.12129577102E+04  0.14373413333E+04  0.80375419554E+02 0.  0.
         24    2    4    4    0    0  0.90622434400E+02 -0.92016766421E+02  0.66389857498E+02  0.16737993350E+03  0.83240122789E+02 0.  0.
         11    1    3    3    0    0  0.31353004240E+03 -0.36021575098E+02 -0.26918057020E+03  0.41479732489E+03  0.00000000000E+00 0.  1.
        -11    1    3    3    0    0  0.35722403538E+03  0.35684130242E+02 -0.38524013825E+03  0.52658554170E+03  0.00000000000E+00 0. -1.
          4    1    6    6  502    0  0.71955097254E+02 -0.10686663706E+03  0.48899516660E+02  0.13780122230E+03  0.00000000000E+00 0. -1.
          3    1    5    5  503    0 -0.64755883174E+03  0.80631028204E+02 -0.97389591034E+03  0.11723084268E+04  0.00000000000E+00 0. -1.
         -4    1    5    5    0  503 -0.11381768045E+03  0.11723183072E+02 -0.23906179989E+03  0.26503290658E+03  0.00000000000E+00 0.  1.
         -3    1    6    6    0  502  0.18667337146E+02  0.14849870637E+02  0.17490340838E+02  0.29578711207E+02  0.00000000000E+00 0.  1.
<mgrwt>
<rscale>  0 0.17997462E+04</rscale>
<asrwt>0</asrwt>
<pdfrwt beam="1">  1        2 0.33439174E+00 0.17997462E+04</pdfrwt>
<pdfrwt beam="2">  1       -2 0.57316583E-01 0.17997462E+04</pdfrwt>
<totfact> 0.14392383E+01</totfact>
</mgrwt>
</event>
<event>
12    1  0.2588309E-007  0.3676055E+04  0.7818608E-02  0.8073289E-01
         -2   -1    0    0    0  501 -0.00000000000E+00  0.00000000000E+00  0.11162905521E+04  0.11162905521E+04  0.00000000000E+00 0.  1.
          2   -1    0    0  501    0  0.00000000000E+00 -0.00000000000E+00 -0.30264030961E+04  0.30264030961E+04  0.00000000000E+00 0. -1.
         23    2    1    2    0    0 -0.12803722805E+04  0.11575168905E+04 -0.93434356730E+03  0.19648082977E+04  0.90968215005E+02 0.  0.
        254    2    1    2    0    0  0.12803722805E+04 -0.11575168905E+04 -0.97576897671E+03  0.21778853506E+04  0.90103328218E+03 0.  0.
        -24    2    4    4    0    0 -0.29621309304E+02  0.66361422774E+02  0.40576706526E+02  0.11559538569E+03  0.80215732143E+02 0.  0.
         24    2    4    4    0    0  0.13099935898E+04 -0.12238783133E+04 -0.10163456832E+04  0.20622899649E+04  0.78230557460E+02 0.  0.
         11    1    3    3    0    0 -0.43593588135E+03  0.42377616726E+03 -0.28668601613E+03  0.67217200509E+03  0.00000000000E+00 0. -1.
        -11    1    3    3    0    0 -0.84443639919E+03  0.73374072328E+03 -0.64765755117E+03  0.12926362926E+04  0.00000000000E+00 0.  1.
          4    1    6    6  502    0  0.10259467956E+04 -0.99490555077E+03 -0.82883782874E+03  0.16520823311E+04  0.00000000000E+00 0. -1.
          1    1    5    5  503    0 -0.30860881646E+02  0.77792017797E+02  0.52689399315E+02  0.98894715981E+02  0.00000000000E+00 0. -1.
         -2    1    5    5    0  503  0.12395723416E+01 -0.11430595023E+02 -0.12112692789E+02  0.16700669710E+02  0.00000000000E+00 0.  1.
         -3    1    6    6    0  502  0.28404679426E+03 -0.22897276254E+03 -0.18750785449E+03  0.41020763378E+03  0.00000000000E+00 0.  1.
<mgrwt>
<rscale>  0 0.36760551E+04</rscale>
<asrwt>0</asrwt>
<pdfrwt beam="1">  1        2 0.46560048E+00 0.36760551E+04</pdfrwt>
<pdfrwt beam="2">  1       -2 0.17173701E+00 0.36760551E+04</pdfrwt>
<totfact> 0.28100574E-01</totfact>
</mgrwt>
</event>
<event>
12    1  0.2588309E-007  0.2662184E+04  0.7818608E-02  0.8347380E-01
         -2   -1    0    0    0  501 -0.00000000000E+00  0.00000000000E+00  0.64487396591E+03  0.64487396591E+03  0.00000000000E+00 0.  1.
          2   -1    0    0  501    0  0.00000000000E+00 -0.00000000000E+00 -0.27475234582E+04  0.27475234582E+04  0.00000000000E+00 0. -1.
         23    2    1    2    0    0 -0.95785733899E+03 -0.62752579694E+03 -0.57595398440E+03  0.12850374695E+04  0.91208542883E+02 0.  0.
        254    2    1    2    0    0  0.95785733899E+03  0.62752579694E+03 -0.15266955078E+04  0.21073599545E+04  0.89380506632E+03 0.  0.
        -24    2    4    4    0    0  0.32705635335E+03  0.20905119366E+03 -0.12259360837E+04  0.12885460780E+04  0.82240220151E+02 0.  0.
         24    2    4    4    0    0  0.63080098564E+03  0.41847460328E+03 -0.30075942409E+03  0.81881387654E+03  0.83480873006E+02 0.  0.
         13    1    3    3    0    0 -0.45603320580E+03 -0.28779143949E+03 -0.32117530093E+03  0.62764940163E+03  0.00000000000E+00 0. -1.
        -13    1    3    3    0    0 -0.50182413319E+03 -0.33973435745E+03 -0.25477868347E+03  0.65738806791E+03  0.00000000000E+00 0.  1.
          4    1    6    6  502    0  0.81800647765E+02  0.24075514345E+02 -0.41336775307E+02  0.94761307285E+02  0.00000000000E+00 0. -1.
          1    1    5    5  503    0  0.17146180486E+03  0.11222655316E+03 -0.77885543182E+03  0.80536310658E+03  0.00000000000E+00 0. -1.
         -2    1    5    5    0  503  0.15559454848E+03  0.96824640505E+02 -0.44708065193E+03  0.48318297140E+03  0.00000000000E+00 0.  1.
         -3    1    6    6    0  502  0.54900033788E+03  0.39439908894E+03 -0.25942264879E+03  0.72405256926E+03  0.00000000000E+00 0.  1.
<mgrwt>
<rscale>  0 0.26621843E+04</rscale>
<asrwt>0</asrwt>
<pdfrwt beam="1">  1        2 0.42269591E+00 0.26621843E+04</pdfrwt>
<pdfrwt beam="2">  1       -2 0.99211382E-01 0.26621843E+04</pdfrwt>
<totfact> 0.18416762E+00</totfact>
</mgrwt>
</event>
<event>
12    1  0.2588309E-007  0.2381030E+04  0.7818608E-02  0.8446640E-01
          2   -1    0    0  501    0  0.00000000000E+00  0.00000000000E+00  0.89600173582E+03  0.89600173582E+03  0.00000000000E+00 0.  1.
         -2   -1    0    0    0  501 -0.00000000000E+00 -0.00000000000E+00 -0.15818344828E+04  0.15818344828E+04  0.00000000000E+00 0. -1.
         23    2    1    2    0    0  0.10937728597E+03  0.87544714283E+03  0.23576834128E+03  0.91778245486E+03  0.91470394840E+02 0.  0.
        254    2    1    2    0    0 -0.10937728597E+03 -0.87544714283E+03 -0.92160108824E+03  0.15600537637E+04  0.89780180961E+03 0.  0.
        -24    2    4    4    0    0  0.45090315712E+02 -0.57993271786E+03 -0.10930577765E+02  0.58719418288E+03  0.79513753880E+02 0.  0.
         24    2    4    4    0    0 -0.15446760169E+03 -0.29551442497E+03 -0.91067051048E+03  0.97285958087E+03  0.77110116679E+02 0.  0.
         13    1    3    3    0    0  0.11111917629E+03  0.57308504220E+03  0.13612158115E+03  0.59941890343E+03  0.00000000000E+00 0. -1.
        -13    1    3    3    0    0 -0.17418903154E+01  0.30236210063E+03  0.99646760125E+02  0.31836355143E+03  0.00000000000E+00 0.  1.
          2    1    6    6  502    0  0.28016600383E+01 -0.48110583817E+02 -0.10568173725E+03  0.11615122541E+03  0.00000000000E+00 0. -1.
          1    1    5    5  503    0  0.10637118510E+01 -0.38571298206E+03 -0.31439411005E+02  0.38699363377E+03  0.00000000000E+00 0. -1.
         -2    1    5    5    0  503  0.44026603861E+02 -0.19421973580E+03  0.20508833240E+02  0.20020054911E+03  0.00000000000E+00 0.  1.
         -1    1    6    6    0  502 -0.15726926172E+03 -0.24740384115E+03 -0.80498877323E+03  0.85670835546E+03  0.00000000000E+00 0.  1.
<mgrwt>
<rscale>  0 0.23810304E+04</rscale>
<asrwt>0</asrwt>
<pdfrwt beam="1">  1        2 0.13784642E+00 0.23810304E+04</pdfrwt>
<pdfrwt beam="2">  1       -2 0.24335915E+00 0.23810304E+04</pdfrwt>
<totfact> 0.18761110E+00</totfact>
</mgrwt>
</event>
<event>
12    1  0.3450232E-007  0.3185276E+04  0.7818608E-02  0.8192717E-01
         -2   -1    0    0    0  501 -0.00000000000E+00  0.00000000000E+00  0.10292946568E+04  0.10292946568E+04  0.00000000000E+00 0.  1.
          2   -1    0    0  501    0  0.00000000000E+00 -0.00000000000E+00 -0.24643040757E+04  0.24643040757E+04  0.00000000000E+00 0. -1.
         23    2    1    2    0    0 -0.66774003061E+03 -0.13018576475E+04 -0.60995255430E+03  0.15877431028E+04  0.90421009067E+02 0.  0.
        254    2    1    2    0    0  0.66774003061E+03  0.13018576475E+04 -0.82505686462E+03  0.19058556298E+04  0.90047585690E+03 0.  0.
        -24    2    4    4    0    0  0.59621129933E+03  0.81148139315E+03 -0.95208321143E+03  0.13881334476E+04  0.80511253053E+02 0.  0.
         24    2    4    4    0    0  0.71528731285E+02  0.49037625440E+03  0.12702634681E+03  0.51772218225E+03  0.79469081633E+02 0.  0.
         11    1    3    3    0    0 -0.23931713285E+03 -0.38654311120E+03 -0.16730039895E+03  0.48443543469E+03  0.00000000000E+00 0.  1.
        -11    1    3    3    0    0 -0.42842289776E+03 -0.91531453634E+03 -0.44265215535E+03  0.11033076681E+04  0.00000000000E+00 0. -1.
          2    1    6    6  502    0  0.65075472176E+02  0.49096755769E+03  0.12388566858E+03  0.51052092872E+03  0.00000000000E+00 0. -1.
          3    1    5    5  503    0  0.48594845692E+03  0.68707547481E+03 -0.82894640196E+03  0.11812581209E+04  0.00000000000E+00 0. -1.
         -2    1    5    5    0  503  0.11026284241E+03  0.12440591833E+03 -0.12313680947E+03  0.20687532665E+03  0.00000000000E+00 0.  1.
         -1    1    6    6    0  502  0.64532591084E+01 -0.59130328993E+00  0.31406782301E+01  0.72012535330E+01  0.00000000000E+00 0.  1.
<mgrwt>
<rscale>  0 0.31852755E+04</rscale>
<asrwt>0</asrwt>
<pdfrwt beam="1">  1        2 0.37912371E+00 0.31852755E+04</pdfrwt>
<pdfrwt beam="2">  1       -2 0.15835302E+00 0.31852755E+04</pdfrwt>
<totfact> 0.79729822E-01</totfact>
</mgrwt>
</event>
<event>
12    1  0.2588309E-007  0.2092318E+04  0.7818608E-02  0.8564635E-01
          1   -1    0    0  501    0  0.00000000000E+00  0.00000000000E+00  0.16713166669E+04  0.16713166669E+04  0.00000000000E+00 0. -1.
         -1   -1    0    0    0  501 -0.00000000000E+00 -0.00000000000E+00 -0.65484209536E+03  0.65484209536E+03  0.00000000000E+00 0.  1.
         23    2    1    2    0    0 -0.62818107506E+03 -0.78421354132E+02 -0.21444333864E+03  0.67462202909E+03  0.91474394238E+02 0.  0.
        254    2    1    2    0    0  0.62818107506E+03  0.78421354132E+02  0.12309179101E+04  0.16515367331E+04  0.90091803598E+03 0.  0.
        -24    2    4    4    0    0  0.20930538002E+03 -0.40092007565E+03  0.48730435804E+03  0.66946748190E+03  0.78584494624E+02 0.  0.
         24    2    4    4    0    0  0.41887569504E+03  0.47934142978E+03  0.74361355211E+03  0.98206925124E+03  0.79207607940E+02 0.  0.
         13    1    3    3    0    0 -0.24728492361E+03 -0.69042918620E+02 -0.11178644839E+03  0.28002315636E+03  0.00000000000E+00 0. -1.
        -13    1    3    3    0    0 -0.38089615145E+03 -0.93784355119E+01 -0.10265689025E+03  0.39459887273E+03  0.00000000000E+00 0.  1.
          4    1    6    6  502    0  0.24529960701E+03  0.23477326349E+03  0.35571545224E+03  0.49175590023E+03  0.00000000000E+00 0. -1.
          1    1    5    5  503    0  0.55282891791E+02 -0.16942225405E+03  0.15510280890E+03  0.23625617372E+03  0.00000000000E+00 0. -1.
         -2    1    5    5    0  503  0.15402248823E+03 -0.23149782160E+03  0.33220154913E+03  0.43321130818E+03  0.00000000000E+00 0.  1.
         -3    1    6    6    0  502  0.17357608803E+03  0.24456816629E+03  0.38789809987E+03  0.49031335101E+03  0.00000000000E+00 0.  1.
<mgrwt>
<rscale>  0 0.20923179E+04</rscale>
<asrwt>0</asrwt>
<pdfrwt beam="1">  1        1 0.25712564E+00 0.20923179E+04</pdfrwt>
<pdfrwt beam="2">  1       -1 0.10074494E+00 0.20923179E+04</pdfrwt>
<totfact> 0.42991554E+00</totfact>
</mgrwt>
</event>
<event>
12    1  0.2588309E-007  0.1852298E+04  0.7818608E-02  0.8678972E-01
          2   -1    0    0  501    0  0.00000000000E+00  0.00000000000E+00  0.13622913714E+04  0.13622913714E+04  0.00000000000E+00 0. -1.
         -2   -1    0    0    0  501 -0.00000000000E+00 -0.00000000000E+00 -0.62963926639E+03  0.62963926639E+03  0.00000000000E+00 0.  1.
         23    2    1    2    0    0  0.41440659174E+03  0.53339424966E+03  0.71657705068E+02  0.68539339874E+03  0.91580759357E+02 0.  0.
        254    2    1    2    0    0 -0.41440659174E+03 -0.53339424966E+03  0.66099439993E+03  0.13065372390E+04  0.90215503736E+03 0.  0.
        -24    2    4    4    0    0  0.23912699581E+03 -0.50720837210E+02  0.16767518921E+01  0.25708761242E+03  0.79604682691E+02 0.  0.
         24    2    4    4    0    0 -0.65353358755E+03 -0.48267341245E+03  0.65931764804E+03  0.10494496266E+04  0.81024593029E+02 0.  0.
         13    1    3    3    0    0  0.17475453723E+03  0.20047971417E+03 -0.14086390968E+02  0.26632628576E+03  0.00000000000E+00 0.  1.
        -13    1    3    3    0    0  0.23965205451E+03  0.33291453549E+03  0.85744096036E+02  0.41906711298E+03  0.00000000000E+00 0. -1.
          2    1    6    6  502    0 -0.33542147352E+03 -0.22168132209E+03  0.37043256939E+03  0.54669046262E+03  0.00000000000E+00 0. -1.
          3    1    5    5  503    0  0.13875247939E+03 -0.61782887054E+02 -0.21717776511E+02  0.15343088831E+03  0.00000000000E+00 0. -1.
         -4    1    5    5    0  503  0.10037451642E+03  0.11062049844E+02  0.23394528403E+02  0.10365672411E+03  0.00000000000E+00 0.  1.
         -1    1    6    6    0  502 -0.31811211403E+03 -0.26099209036E+03  0.28888507865E+03  0.50275916401E+03  0.00000000000E+00 0.  1.
<mgrwt>
<rscale>  0 0.18522982E+04</rscale>
<asrwt>0</asrwt>
<pdfrwt beam="1">  1        2 0.20958329E+00 0.18522982E+04</pdfrwt>
<pdfrwt beam="2">  1       -2 0.96867580E-01 0.18522982E+04</pdfrwt>
<totfact> 0.12735296E+01</totfact>
</mgrwt>
</event>
<event>
12    1  0.2588309E-007  0.3176738E+04  0.7818608E-02  0.8194988E-01
         -2   -1    0    0    0  501 -0.00000000000E+00  0.00000000000E+00  0.36271091945E+04  0.36271091945E+04  0.00000000000E+00 0.  1.
          2   -1    0    0  501    0  0.00000000000E+00 -0.00000000000E+00 -0.69557223187E+03  0.69557223187E+03  0.00000000000E+00 0. -1.
         23    2    1    2    0    0 -0.13504871047E+04  0.62021087036E+02  0.20948756072E+04  0.24945995079E+04  0.82830308597E+02 0.  0.
        254    2    1    2    0    0  0.13504871047E+04 -0.62021087036E+02  0.83666135539E+03  0.18280819184E+04  0.90234097856E+03 0.  0.
        -24    2    4    4    0    0  0.10751070756E+03 -0.32417626415E+03  0.14177922275E+03  0.37791647120E+03  0.77914752886E+02 0.  0.
         24    2    4    4    0    0  0.12429763971E+04  0.26215517712E+03  0.69488213264E+03  0.14501654472E+04  0.80018655781E+02 0.  0.
         11    1    3    3    0    0 -0.12205184906E+04  0.42784446085E+02  0.18510739421E+04  0.22176497996E+04  0.00000000000E+00 0. -1.
        -11    1    3    3    0    0 -0.12996861413E+03  0.19236640951E+02  0.24380166511E+03  0.27694970829E+03  0.00000000000E+00 0.  1.
          2    1    6    6  502    0  0.17667294694E+03  0.30640663734E+02  0.12993853152E+03  0.22144119407E+03  0.00000000000E+00 0. -1.
          1    1    5    5  503    0  0.70788061545E+02 -0.96530832271E+02  0.50398406787E+02  0.12988129443E+03  0.00000000000E+00 0. -1.
         -2    1    5    5    0  503  0.36722646015E+02 -0.22764543188E+03  0.91380815960E+02  0.24803517677E+03  0.00000000000E+00 0.  1.
         -1    1    6    6    0  502  0.10663034502E+04  0.23151451338E+03  0.56494360112E+03  0.12287242531E+04  0.00000000000E+00 0.  1.
<mgrwt>
<rscale>  0 0.31767382E+04</rscale>
<asrwt>0</asrwt>
<pdfrwt beam="1">  1        2 0.10701111E+00 0.31767382E+04</pdfrwt>
<pdfrwt beam="2">  1       -2 0.55801679E+00 0.31767382E+04</pdfrwt>
<totfact> 0.26911224E-02</totfact>
</mgrwt>
</event>
<event>
12    1  0.2588309E-007  0.4420288E+04  0.7818608E-02  0.7924742E-01
          2   -1    0    0  501    0  0.00000000000E+00  0.00000000000E+00  0.22982983031E+04  0.22982983031E+04  0.00000000000E+00 0. -1.
         -2   -1    0    0    0  501 -0.00000000000E+00 -0.00000000000E+00 -0.21253711174E+04  0.21253711174E+04  0.00000000000E+00 0.  1.
         23    2    1    2    0    0 -0.18527391363E+04 -0.84319436983E+03  0.66271207264E+03  0.21427311914E+04  0.92144531025E+02 0.  0.
        254    2    1    2    0    0  0.18527391363E+04  0.84319436983E+03 -0.48978488695E+03  0.22809382291E+04  0.90508061360E+03 0.  0.
        -24    2    4    4    0    0  0.14530024364E+04  0.76224236208E+03 -0.73368243680E+03  0.17991611363E+04  0.80382694845E+02 0.  0.
         24    2    4    4    0    0  0.39973669989E+03  0.80952007746E+02  0.24389754985E+03  0.48177709280E+03  0.79249577464E+02 0.  0.
         11    1    3    3    0    0 -0.13408399103E+04 -0.65455468393E+03  0.47897812509E+03  0.15670716459E+04  0.00000000000E+00 0. -1.
        -11    1    3    3    0    0 -0.51189922607E+03 -0.18863968590E+03  0.18373394755E+03  0.57565954542E+03  0.00000000000E+00 0.  1.
          4    1    6    6  502    0  0.34452574150E+03  0.82714625502E+02  0.18034294438E+03  0.39757172110E+03  0.00000000000E+00 0. -1.
          1    1    5    5  503    0  0.14325298114E+04  0.75394510130E+03 -0.73305885473E+03  0.17770622276E+04  0.00000000000E+00 0. -1.
         -2    1    5    5    0  503  0.20472625054E+02  0.82972607808E+01 -0.62358206909E+00  0.22098908743E+02  0.00000000000E+00 0.  1.
         -3    1    6    6    0  502  0.55210958391E+02 -0.17626177565E+01  0.63554605465E+02  0.84205371703E+02  0.00000000000E+00 0.  1.
<mgrwt>
<rscale>  0 0.44202882E+04</rscale>
<asrwt>0</asrwt>
<pdfrwt beam="1">  1        2 0.35358436E+00 0.44202882E+04</pdfrwt>
<pdfrwt beam="2">  1       -2 0.32698017E+00 0.44202882E+04</pdfrwt>
<totfact> 0.75104368E-02</totfact>
</mgrwt>
</event>
<event>
12    1  0.2588309E-007  0.4114279E+04  0.7818608E-02  0.7981881E-01
         -2   -1    0    0    0  501 -0.00000000000E+00  0.00000000000E+00  0.21215502955E+04  0.21215502955E+04  0.00000000000E+00 0.  1.
          2   -1    0    0  501    0  0.00000000000E+00 -0.00000000000E+00 -0.19946841566E+04  0.19946841566E+04  0.00000000000E+00 0. -1.
         23    2    1    2    0    0 -0.17232734269E+04 -0.45432365676E+03  0.87086055382E+03  0.19856121398E+04  0.90422212225E+02 0.  0.
        254    2    1    2    0    0  0.17232734269E+04  0.45432365676E+03 -0.74399441495E+03  0.21306223123E+04  0.89996803245E+03 0.  0.
        -24    2    4    4    0    0  0.11537257496E+04 -0.14363559926E+03 -0.38913091554E+03  0.12285895914E+04  0.79342448477E+02 0.  0.
         24    2    4    4    0    0  0.56954767729E+03  0.59795925602E+03 -0.35486349942E+03  0.90203272090E+03  0.76125539548E+02 0.  0.
         13    1    3    3    0    0 -0.33236946412E+03 -0.11099953617E+03  0.20264388785E+03  0.40478994922E+03  0.00000000000E+00 0. -1.
        -13    1    3    3    0    0 -0.13909039628E+04 -0.34332412060E+03  0.66821666597E+03  0.15808221905E+04  0.00000000000E+00 0.  1.
          4    1    6    6  502    0  0.92935298344E+02  0.14199369802E+03 -0.73142912295E+02  0.18479465786E+03  0.00000000000E+00 0. -1.
          1    1    5    5  503    0  0.81104631941E+03 -0.64293035708E+02 -0.27247542949E+03  0.85800500368E+03  0.00000000000E+00 0. -1.
         -2    1    5    5    0  503  0.34267943018E+03 -0.79342563552E+02 -0.11665548605E+03  0.37058458776E+03  0.00000000000E+00 0.  1.
         -3    1    6    6    0  502  0.47661237895E+03  0.45596555801E+03 -0.28172058712E+03  0.71723806303E+03  0.00000000000E+00 0.  1.
<mgrwt>
<rscale>  0 0.41142789E+04</rscale>
<asrwt>0</asrwt>
<pdfrwt beam="1">  1        2 0.30687448E+00 0.41142789E+04</pdfrwt>
<pdfrwt beam="2">  1       -2 0.32639235E+00 0.41142789E+04</pdfrwt>
<totfact> 0.11492269E-01</totfact>
</mgrwt>
</event>
<event>
12    1  0.2588309E-007  0.2782077E+04  0.7818608E-02  0.8308854E-01
          2   -1    0    0  501    0  0.00000000000E+00  0.00000000000E+00  0.15601034954E+04  0.15601034954E+04  0.00000000000E+00 0. -1.
         -2   -1    0    0    0  501 -0.00000000000E+00 -0.00000000000E+00 -0.12402949226E+04  0.12402949226E+04  0.00000000000E+00 0.  1.
         23    2    1    2    0    0 -0.86250405165E+03  0.35243210052E+03 -0.68483650809E+03  0.11598669211E+04  0.90380347178E+02 0.  0.
        254    2    1    2    0    0  0.86250405165E+03 -0.35243210052E+03  0.10046450809E+04  0.16405314969E+04  0.90216973422E+03 0.  0.
        -24    2    4    4    0    0  0.15730034044E+03  0.21021273403E+03 -0.17220974938E+02  0.27506280933E+03  0.80188505704E+02 0.  0.
         24    2    4    4    0    0  0.70520371121E+03 -0.56264483456E+03  0.10218660558E+04  0.13654686876E+04  0.80081312892E+02 0.  0.
         13    1    3    3    0    0 -0.75313543841E+03  0.28809710460E+03 -0.62135245838E+03  0.10179841884E+04  0.00000000000E+00 0.  1.
        -13    1    3    3    0    0 -0.10936861324E+03  0.64334995923E+02 -0.63484049707E+02  0.14188273267E+03  0.00000000000E+00 0. -1.
          2    1    6    6  502    0  0.62118664519E+03 -0.51669291611E+03  0.88418886966E+03  0.11977622364E+04  0.00000000000E+00 0. -1.
          3    1    5    5  503    0  0.97575979800E+02  0.15691215549E+03  0.21710837850E+02  0.18604799610E+03  0.00000000000E+00 0. -1.
         -4    1    5    5    0  503  0.59724360643E+02  0.53300578547E+02 -0.38931812788E+02  0.89014813231E+02  0.00000000000E+00 0.  1.
         -1    1    6    6    0  502  0.84017066018E+02 -0.45951918447E+02  0.13767718613E+03  0.16770645120E+03  0.00000000000E+00 0.  1.
<mgrwt>
<rscale>  0 0.27820772E+04</rscale>
<asrwt>0</asrwt>
<pdfrwt beam="1">  1        2 0.24001592E+00 0.27820772E+04</pdfrwt>
<pdfrwt beam="2">  1       -2 0.19081460E+00 0.27820772E+04</pdfrwt>
<totfact> 0.15663366E+00</totfact>
</mgrwt>
</event>
<event>
12    1  0.2588309E-007  0.3244458E+04  0.7818608E-02  0.8177174E-01
          2   -1    0    0  501    0  0.00000000000E+00  0.00000000000E+00  0.15635038512E+04  0.15635038512E+04  0.00000000000E+00 0. -1.
         -2   -1    0    0    0  501 -0.00000000000E+00 -0.00000000000E+00 -0.16831594577E+04  0.16831594577E+04  0.00000000000E+00 0.  1.
         23    2    1    2    0    0 -0.62822116605E+03  0.13487897274E+04 -0.20688896019E+03  0.15051182563E+04  0.93179190585E+02 0.  0.
        254    2    1    2    0    0  0.62822116605E+03 -0.13487897274E+04  0.87233353675E+02  0.17415450526E+04  0.90081848901E+03 0.  0.
        -24    2    4    4    0    0  0.45086169566E+03 -0.22129135868E+03  0.28103008549E+03  0.58107185193E+03  0.80127736246E+02 0.  0.
         24    2    4    4    0    0  0.17735947039E+03 -0.11274983687E+04 -0.19379673181E+03  0.11604732007E+04  0.80199271202E+02 0.  0.
         11    1    3    3    0    0 -0.38379585778E+03  0.88364586131E+03 -0.96710232314E+02  0.96823661245E+03  0.00000000000E+00 0. -1.
        -11    1    3    3    0    0 -0.24442530827E+03  0.46514386605E+03 -0.11017872788E+03  0.53688164387E+03  0.00000000000E+00 0.  1.
          4    1    6    6  502    0  0.12184119386E+03 -0.94315871012E+03 -0.14631645486E+03  0.96218612231E+03  0.00000000000E+00 0. -1.
          1    1    5    5  503    0  0.30846015466E+03 -0.12019116503E+03  0.15398741969E+03  0.36511054297E+03  0.00000000000E+00 0. -1.
         -2    1    5    5    0  503  0.14240154100E+03 -0.10110019364E+03  0.12704266580E+03  0.21596130896E+03  0.00000000000E+00 0.  1.
         -3    1    6    6    0  502  0.55518276529E+02 -0.18433965856E+03 -0.47480276954E+02  0.19828707837E+03  0.00000000000E+00 0.  1.
<mgrwt>
<rscale>  0 0.32444576E+04</rscale>
<asrwt>0</asrwt>
<pdfrwt beam="1">  1        2 0.24053905E+00 0.32444576E+04</pdfrwt>
<pdfrwt beam="2">  1       -2 0.25894761E+00 0.32444576E+04</pdfrwt>
<totfact> 0.55539305E-01</totfact>
</mgrwt>
</event>
<event>
12    1  0.2588309E-007  0.1511674E+04  0.7818608E-02  0.8876726E-01
          2   -1    0    0  501    0  0.00000000000E+00  0.00000000000E+00  0.57293587468E+03  0.57293587468E+03  0.00000000000E+00 0. -1.
         -2   -1    0    0    0  501 -0.00000000000E+00 -0.00000000000E+00 -0.99712715717E+03  0.99712715717E+03  0.00000000000E+00 0.  1.
         23    2    1    2    0    0  0.41118526288E+03 -0.21477300407E+03 -0.37250690432E+01  0.47403188212E+03  0.97424768106E+02 0.  0.
        254    2    1    2    0    0 -0.41118526288E+03  0.21477300407E+03 -0.42046621344E+03  0.10960311497E+04  0.89960640330E+03 0.  0.
        -24    2    4    4    0    0 -0.55720409371E+03  0.18741790401E+02 -0.56630066878E+03  0.79945577571E+03  0.87209134247E+02 0.  0.
         24    2    4    4    0    0  0.14601883084E+03  0.19603121367E+03  0.14583445535E+03  0.29657537402E+03  0.83303831938E+02 0.  0.
         11    1    3    3    0    0  0.11427968025E+03 -0.69707914086E+02  0.42314414183E+02  0.14039069860E+03  0.00000000000E+00 0. -1.
        -11    1    3    3    0    0  0.29690558262E+03 -0.14506508998E+03 -0.46039483227E+02  0.33364118352E+03  0.00000000000E+00 0.  1.
          2    1    6    6  502    0  0.48288130194E+02  0.74160556655E+02  0.90869647532E+01  0.88961253416E+02  0.00000000000E+00 0. -1.
          3    1    5    5  503    0  0.86967734843E-02 -0.12552312761E+00  0.27773918229E+01  0.27802404622E+01  0.00000000000E+00 0. -1.
         -4    1    5    5    0  503 -0.55721279049E+03  0.18867313528E+02 -0.56907806061E+03  0.79667553525E+03  0.00000000000E+00 0.  1.
         -1    1    6    6    0  502  0.97730700644E+02  0.12187065701E+03  0.13674749059E+03  0.20761412060E+03  0.00000000000E+00 0.  1.
<mgrwt>
<rscale>  0 0.15116745E+04</rscale>
<asrwt>0</asrwt>
<pdfrwt beam="1">  1        2 0.88143982E-01 0.15116745E+04</pdfrwt>
<pdfrwt beam="2">  1       -2 0.15340418E+00 0.15116745E+04</pdfrwt>
<totfact> 0.14274194E+01</totfact>
</mgrwt>
</event>
<event>
12    1  0.2588309E-007  0.2270036E+04  0.7818608E-02  0.8489830E-01
         -2   -1    0    0    0  501 -0.00000000000E+00  0.00000000000E+00  0.82909521421E+03  0.82909521421E+03  0.00000000000E+00 0.  1.
          2   -1    0    0  501    0  0.00000000000E+00 -0.00000000000E+00 -0.15538208452E+04  0.15538208452E+04  0.00000000000E+00 0. -1.
         23    2    1    2    0    0 -0.67034639331E+03  0.63337005905E+03 -0.56630446529E+03  0.10861910844E+04  0.92673651358E+02 0.  0.
        254    2    1    2    0    0  0.67034639331E+03 -0.63337005905E+03 -0.15842116573E+03  0.12967249751E+04  0.89770623061E+03 0.  0.
        -24    2    4    4    0    0 -0.34343449399E+02 -0.50410213231E+03 -0.25078564486E+03  0.57008893201E+03  0.82519806196E+02 0.  0.
         24    2    4    4    0    0  0.70468984271E+03 -0.12926792673E+03  0.92364479126E+02  0.72663604305E+03  0.78554253621E+02 0.  0.
         11    1    3    3    0    0 -0.33600685964E+03  0.25442317914E+03 -0.26384339926E+03  0.49723747157E+03  0.00000000000E+00 0. -1.
        -11    1    3    3    0    0 -0.33433953367E+03  0.37894687991E+03 -0.30246106603E+03  0.58895361280E+03  0.00000000000E+00 0.  1.
          4    1    6    6  502    0  0.46430984140E+02 -0.20634759483E+02 -0.96533198101E+01  0.51718624986E+02  0.00000000000E+00 0. -1.
          3    1    5    5  503    0 -0.60641441773E+02 -0.39856248032E+03 -0.19427215351E+03  0.44751659725E+03  0.00000000000E+00 0. -1.
         -4    1    5    5    0  503  0.26297992374E+02 -0.10553965199E+03 -0.56513491353E+02  0.12257233476E+03  0.00000000000E+00 0.  1.
         -3    1    6    6    0  502  0.65825885857E+03 -0.10863316725E+03  0.10201779894E+03  0.67491741806E+03  0.00000000000E+00 0.  1.
<mgrwt>
<rscale>  0 0.22700356E+04</rscale>
<asrwt>0</asrwt>
<pdfrwt beam="1">  1        2 0.23904936E+00 0.22700356E+04</pdfrwt>
<pdfrwt beam="2">  1       -2 0.12755311E+00 0.22700356E+04</pdfrwt>
<totfact> 0.49031354E+00</totfact>
</mgrwt>
</event>
<event>
12    1  0.2588309E-007  0.1307645E+04  0.7818608E-02  0.9023524E-01
          2   -1    0    0  501    0  0.00000000000E+00  0.00000000000E+00  0.77698222015E+03  0.77698222015E+03  0.00000000000E+00 0. -1.
         -2   -1    0    0    0  501 -0.00000000000E+00 -0.00000000000E+00 -0.55018524067E+03  0.55018524067E+03  0.00000000000E+00 0.  1.
         23    2    1    2    0    0 -0.10096198193E+03  0.11337354942E+03 -0.24591066295E+03  0.30284222049E+03  0.90523327691E+02 0.  0.
        254    2    1    2    0    0  0.10096198193E+03 -0.11337354942E+03  0.47270764243E+03  0.10243252403E+04  0.89595915044E+03 0.  0.
        -24    2    4    4    0    0 -0.23932718042E+03 -0.36594392849E+03  0.37672278629E+03  0.58256365070E+03  0.79170015315E+02 0.  0.
         24    2    4    4    0    0  0.34028916234E+03  0.25257037907E+03  0.95984856141E+02  0.44176158962E+03  0.79697547430E+02 0.  0.
         13    1    3    3    0    0 -0.56139304785E+02  0.54470734506E+02 -0.48563912099E+02  0.92071363723E+02  0.00000000000E+00 0. -1.
        -13    1    3    3    0    0 -0.44822677141E+02  0.58902814913E+02 -0.19734675085E+03  0.21077085677E+03  0.00000000000E+00 0.  1.
          4    1    6    6  502    0  0.13314163926E+03  0.59921216142E+02  0.11147193617E+02  0.14642919167E+03  0.00000000000E+00 0. -1.
          1    1    5    5  503    0 -0.67060699665E+02 -0.54652886843E+02  0.97131293790E+02  0.13007137930E+03  0.00000000000E+00 0. -1.
         -2    1    5    5    0  503 -0.17226648075E+03 -0.31129104165E+03  0.27959149250E+03  0.45249227140E+03  0.00000000000E+00 0.  1.
         -3    1    6    6    0  502  0.20714752309E+03  0.19264916293E+03  0.84837662524E+02  0.29533239795E+03  0.00000000000E+00 0.  1.
<mgrwt>
<rscale>  0 0.13076454E+04</rscale>
<asrwt>0</asrwt>
<pdfrwt beam="1">  1        2 0.11953573E+00 0.13076454E+04</pdfrwt>
<pdfrwt beam="2">  1       -2 0.84643883E-01 0.13076454E+04</pdfrwt>
<totfact> 0.42687965E+01</totfact>
</mgrwt>
</event>
<event>
12    1  0.2588309E-007  0.1940694E+04  0.7818608E-02  0.8634861E-01
         -2   -1    0    0    0  501 -0.00000000000E+00  0.00000000000E+00  0.37576364330E+03  0.37576364330E+03  0.00000000000E+00 0.  1.
          2   -1    0    0  501    0  0.00000000000E+00 -0.00000000000E+00 -0.25057606821E+04  0.25057606821E+04  0.00000000000E+00 0. -1.
         23    2    1    2    0    0  0.34565113486E+02 -0.50052257350E+03 -0.16762712037E+04  0.17525815130E+04  0.99695624330E+02 0.  0.
        254    2    1    2    0    0 -0.34565113486E+02  0.50052257350E+03 -0.45372583505E+03  0.11289428124E+04  0.90384022186E+03 0.  0.
        -24    2    4    4    0    0 -0.37470348424E+03  0.41634785558E+03 -0.51412777568E+03  0.76456747718E+03  0.80547001764E+02 0.  0.
         24    2    4    4    0    0  0.34013837075E+03  0.84174717927E+02  0.60401940624E+02  0.36437533524E+03  0.79633511179E+02 0.  0.
         13    1    3    3    0    0 -0.18027618753E+02 -0.37323184074E+03 -0.12421077827E+04  0.12970962747E+04  0.00000000000E+00 0. -1.
        -13    1    3    3    0    0  0.52592732239E+02 -0.12729073276E+03 -0.43416342106E+03  0.45548523831E+03  0.00000000000E+00 0.  1.
          2    1    6    6  502    0  0.21119274424E+03  0.27268410622E+02  0.52086789987E+01  0.21300955794E+03  0.00000000000E+00 0. -1.
          3    1    5    5  503    0 -0.19431541667E+03  0.16457260492E+03 -0.20419377956E+03  0.32640116890E+03  0.00000000000E+00 0. -1.
         -4    1    5    5    0  503 -0.18038806756E+03  0.25177525065E+03 -0.30993399612E+03  0.43816630828E+03  0.00000000000E+00 0.  1.
         -1    1    6    6    0  502  0.12894562651E+03  0.56906307305E+02  0.55193261625E+02  0.15136577730E+03  0.00000000000E+00 0.  1.
<mgrwt>
<rscale>  0 0.19406945E+04</rscale>
<asrwt>0</asrwt>
<pdfrwt beam="1">  1        2 0.38550164E+00 0.19406945E+04</pdfrwt>
<pdfrwt beam="2">  1       -2 0.57809793E-01 0.19406945E+04</pdfrwt>
<totfact> 0.90399583E+00</totfact>
</mgrwt>
</event>
<event>
12    1  0.2588309E-007  0.2957325E+04  0.7818608E-02  0.8256023E-01
         -1   -1    0    0    0  501 -0.00000000000E+00  0.00000000000E+00  0.81374095883E+03  0.81374095883E+03  0.00000000000E+00 0.  1.
          1   -1    0    0  501    0  0.00000000000E+00 -0.00000000000E+00 -0.26869027559E+04  0.26869027559E+04  0.00000000000E+00 0. -1.
         23    2    1    2    0    0  0.91308693726E+03 -0.77039282894E+03 -0.13203207017E+03  0.12054435982E+04  0.91809231994E+02 0.  0.
        254    2    1    2    0    0 -0.91308693726E+03  0.77039282894E+03 -0.17411297269E+04  0.22952001165E+04  0.89954320796E+03 0.  0.
        -24    2    4    4    0    0 -0.89522833417E+03  0.39581969020E+03 -0.75990944693E+03  0.12417649954E+04  0.80068339136E+02 0.  0.
         24    2    4    4    0    0 -0.17858603088E+02  0.37457313874E+03 -0.98122027993E+03  0.10534351210E+04  0.79425125018E+02 0.  0.
         13    1    3    3    0    0  0.61505522042E+03 -0.47999015701E+03 -0.53816138479E+02  0.78203558216E+03  0.00000000000E+00 0.  1.
        -13    1    3    3    0    0  0.29803171683E+03 -0.29040267192E+03 -0.78215931690E+02  0.42340801607E+03  0.00000000000E+00 0. -1.
          2    1    6    6  502    0  0.24339318144E+02  0.15634112572E+03 -0.34637163397E+03  0.38079949950E+03  0.00000000000E+00 0. -1.
          3    1    5    5  503    0 -0.44497432110E+03  0.16175805057E+03 -0.39719132141E+03  0.61800385045E+03  0.00000000000E+00 0. -1.
         -4    1    5    5    0  503 -0.45025401306E+03  0.23406163963E+03 -0.36271812552E+03  0.62376114500E+03  0.00000000000E+00 0.  1.
         -1    1    6    6    0  502 -0.42197921232E+02  0.21823201301E+03 -0.63484864595E+03  0.67263562151E+03  0.00000000000E+00 0.  1.
<mgrwt>
<rscale>  0 0.29573250E+04</rscale>
<asrwt>0</asrwt>
<pdfrwt beam="1">  1        1 0.41336966E+00 0.29573250E+04</pdfrwt>
<pdfrwt beam="2">  1       -1 0.12519092E+00 0.29573250E+04</pdfrwt>
<totfact> 0.47712898E-01</totfact>
</mgrwt>
</event>
<event>
12    1  0.2588309E-007  0.2237712E+04  0.7818608E-02  0.8502894E-01
          2   -1    0    0  501    0  0.00000000000E+00  0.00000000000E+00  0.27205938020E+04  0.27205938020E+04  0.00000000000E+00 0. -1.
         -2   -1    0    0    0  501 -0.00000000000E+00 -0.00000000000E+00 -0.46013430893E+03  0.46013430893E+03  0.00000000000E+00 0.  1.
         23    2    1    2    0    0  0.57837473934E+03 -0.18351748112E+03 -0.62331613789E+02  0.61717624572E+03  0.93942978556E+02 0.  0.
        254    2    1    2    0    0 -0.57837473934E+03  0.18351748112E+03  0.23227911069E+04  0.25635518652E+04  0.89902371187E+03 0.  0.
        -24    2    4    4    0    0  0.14044123874E+03  0.26303736239E+03  0.38927085411E+03  0.49785257012E+03  0.86098711771E+02 0.  0.
         24    2    4    4    0    0 -0.71881597809E+03 -0.79519881271E+02  0.19335202528E+04  0.20656992951E+04  0.74787619453E+02 0.  0.
         11    1    3    3    0    0  0.22574508282E+03 -0.87309411486E+02  0.18773289976E+02  0.24276781535E+03  0.00000000000E+00 0. -1.
        -11    1    3    3    0    0  0.35262965652E+03 -0.96208069633E+02 -0.81104903765E+02  0.37440843038E+03  0.00000000000E+00 0.  1.
          2    1    6    6  502    0 -0.18038950708E+03 -0.41493175083E+02  0.42665520565E+03  0.46507711441E+03  0.00000000000E+00 0. -1.
          3    1    5    5  503    0  0.35967517672E+02  0.15852286358E+03  0.20759637216E+03  0.26366534535E+03  0.00000000000E+00 0. -1.
         -4    1    5    5    0  503  0.10447372107E+03  0.10451449881E+03  0.18167448195E+03  0.23418722477E+03  0.00000000000E+00 0.  1.
         -1    1    6    6    0  502 -0.53842647101E+03 -0.38026706188E+02  0.15068650471E+04  0.16006221807E+04  0.00000000000E+00 0.  1.
<mgrwt>
<rscale>  0 0.22377118E+04</rscale>
<asrwt>0</asrwt>
<pdfrwt beam="1">  1        2 0.41855288E+00 0.22377118E+04</pdfrwt>
<pdfrwt beam="2">  1       -2 0.70789895E-01 0.22377118E+04</pdfrwt>
<totfact> 0.42680331E+00</totfact>
</mgrwt>
</event>
<event>
12    1  0.2588309E-007  0.2415497E+04  0.7818608E-02  0.8433725E-01
         -2   -1    0    0    0  501 -0.00000000000E+00  0.00000000000E+00  0.58599875389E+03  0.58599875389E+03  0.00000000000E+00 0.  1.
          2   -1    0    0  501    0  0.00000000000E+00 -0.00000000000E+00 -0.24891791209E+04  0.24891791209E+04  0.00000000000E+00 0. -1.
         23    2    1    2    0    0  0.42118332199E+03  0.55173505965E+03 -0.18037931899E+04  0.19348517844E+04  0.90413434852E+02 0.  0.
        254    2    1    2    0    0 -0.42118332199E+03 -0.55173505965E+03 -0.99387177097E+02  0.11403260903E+04  0.89925458825E+03 0.  0.
        -24    2    4    4    0    0 -0.39764329910E+03 -0.17709028439E+03 -0.44225274862E+03  0.62553063551E+03  0.78866470379E+02 0.  0.
         24    2    4    4    0    0 -0.23540022892E+02 -0.37464477525E+03  0.34286557153E+03  0.51479545479E+03  0.80899442730E+02 0.  0.
         11    1    3    3    0    0  0.24477905321E+03  0.39092905974E+03 -0.11993759427E+04  0.12850077691E+04  0.00000000000E+00 0. -1.
        -11    1    3    3    0    0  0.17640426878E+03  0.16080599991E+03 -0.60441724716E+03  0.64984401537E+03  0.00000000000E+00 0.  1.
          2    1    6    6  502    0  0.29227844240E+02 -0.98145019311E+02  0.86117908539E+02  0.13380211458E+03  0.00000000000E+00 0. -1.
          1    1    5    5  503    0 -0.27228606438E+03 -0.10455897592E+03 -0.24560224215E+03  0.38130400162E+03  0.00000000000E+00 0. -1.
         -2    1    5    5    0  503 -0.12535723472E+03 -0.72531308472E+02 -0.19665050647E+03  0.24422663389E+03  0.00000000000E+00 0.  1.
         -1    1    6    6    0  502 -0.52767867132E+02 -0.27649975594E+03  0.25674766299E+03  0.38099334021E+03  0.00000000000E+00 0.  1.
<mgrwt>
<rscale>  0 0.24154965E+04</rscale>
<asrwt>0</asrwt>
<pdfrwt beam="1">  1        2 0.38295064E+00 0.24154965E+04</pdfrwt>
<pdfrwt beam="2">  1       -2 0.90153653E-01 0.24154965E+04</pdfrwt>
<totfact> 0.33384324E+00</totfact>
</mgrwt>
</event>
<event>
12    1  0.2588309E-007  0.1796847E+04  0.7818608E-02  0.8707978E-01
         -2   -1    0    0    0  501 -0.00000000000E+00  0.00000000000E+00  0.19302681605E+04  0.19302681605E+04  0.00000000000E+00 0.  1.
          2   -1    0    0  501    0  0.00000000000E+00 -0.00000000000E+00 -0.41816203662E+03  0.41816203662E+03  0.00000000000E+00 0. -1.
         23    2    1    2    0    0  0.43725646207E+03  0.89027333413E+02 -0.83215290684E+02  0.46373875203E+03  0.94919786209E+02 0.  0.
        254    2    1    2    0    0 -0.43725646207E+03 -0.89027333413E+02  0.15953214146E+04  0.18846914451E+04  0.89882831940E+03 0.  0.
        -24    2    4    4    0    0 -0.65140417835E+03  0.14288830728E+03  0.97417621713E+03  0.11832911257E+04  0.80088164854E+02 0.  0.
         24    2    4    4    0    0  0.21414771628E+03 -0.23191564070E+03  0.62114519747E+03  0.70140031946E+03  0.80603616589E+02 0.  0.
         11    1    3    3    0    0  0.32816314385E+03  0.31192807286E+02 -0.84330616308E+02  0.34025827404E+03  0.00000000000E+00 0. -1.
        -11    1    3    3    0    0  0.10909331822E+03  0.57834526127E+02  0.11153256238E+01  0.12348047799E+03  0.00000000000E+00 0.  1.
          4    1    6    6  502    0  0.19390239461E+02  0.40673901695E+01  0.36518928318E+02  0.41547047725E+02  0.00000000000E+00 0. -1.
          1    1    5    5  503    0 -0.44658696374E+03  0.63364698587E+02  0.68352849172E+03  0.81894212262E+03  0.00000000000E+00 0. -1.
         -2    1    5    5    0  503 -0.20481721461E+03  0.79523608696E+02  0.29064772541E+03  0.36434900305E+03  0.00000000000E+00 0.  1.
         -3    1    6    6    0  502  0.19475747682E+03 -0.23598303087E+03  0.58462626915E+03  0.65985327173E+03  0.00000000000E+00 0.  1.
<mgrwt>
<rscale>  0 0.17968471E+04</rscale>
<asrwt>0</asrwt>
<pdfrwt beam="1">  1        2 0.64332622E-01 0.17968471E+04</pdfrwt>
<pdfrwt beam="2">  1       -2 0.29696433E+00 0.17968471E+04</pdfrwt>
<totfact> 0.23725807E+00</totfact>
</mgrwt>
</event>
<event>
12    1  0.2588309E-007  0.2649330E+04  0.7818608E-02  0.8351635E-01
          2   -1    0    0  501    0  0.00000000000E+00  0.00000000000E+00  0.14672103649E+04  0.14672103649E+04  0.00000000000E+00 0. -1.
         -2   -1    0    0    0  501 -0.00000000000E+00 -0.00000000000E+00 -0.11959683829E+04  0.11959683829E+04  0.00000000000E+00 0.  1.
         23    2    1    2    0    0 -0.51327735104E+03 -0.11021524479E+03 -0.93015693944E+03  0.10721254819E+04  0.93059538562E+02 0.  0.
        254    2    1    2    0    0  0.51327735104E+03  0.11021524479E+03  0.12013989214E+04  0.15910532659E+04  0.90138232020E+03 0.  0.
        -24    2    4    4    0    0  0.71433578065E+03 -0.57903889854E+02  0.10630145779E+04  0.12843288072E+04  0.76629133956E+02 0.  0.
         24    2    4    4    0    0 -0.20105842961E+03  0.16811913464E+03  0.13838434354E+03  0.30672445870E+03  0.79000832129E+02 0.  0.
         13    1    3    3    0    0 -0.33833649773E+03 -0.11603050836E+03 -0.64482348817E+03  0.73738185187E+03  0.00000000000E+00 0.  1.
        -13    1    3    3    0    0 -0.17494085331E+03  0.58152635699E+01 -0.28533345127E+03  0.33474363005E+03  0.00000000000E+00 0. -1.
          4    1    6    6  502    0 -0.10911224624E+03  0.92971360266E+02  0.11920315029E+03  0.18643644265E+03  0.00000000000E+00 0. -1.
          3    1    5    5  503    0  0.23211833314E+03 -0.48900676225E+02  0.31555134513E+03  0.39476936067E+03  0.00000000000E+00 0. -1.
         -4    1    5    5    0  503  0.48221744751E+03 -0.90032136292E+01  0.74746323276E+03  0.88955944651E+03  0.00000000000E+00 0.  1.
         -3    1    6    6    0  502 -0.91946183369E+02  0.75147774377E+02  0.19181193250E+02  0.12028801605E+03  0.00000000000E+00 0.  1.
<mgrwt>
<rscale>  0 0.26493299E+04</rscale>
<asrwt>0</asrwt>
<pdfrwt beam="1">  1        2 0.22572467E+00 0.26493299E+04</pdfrwt>
<pdfrwt beam="2">  1       -2 0.18399514E+00 0.26493299E+04</pdfrwt>
<totfact> 0.19869310E+00</totfact>
</mgrwt>
</event>
<event>
12    1  0.2588309E-007  0.1691919E+04  0.7818608E-02  0.8765986E-01
          2   -1    0    0  501    0  0.00000000000E+00  0.00000000000E+00  0.18969514111E+04  0.18969514111E+04  0.00000000000E+00 0. -1.
         -2   -1    0    0    0  501 -0.00000000000E+00 -0.00000000000E+00 -0.37726208760E+03  0.37726208760E+03  0.00000000000E+00 0.  1.
         23    2    1    2    0    0  0.17322791514E+02 -0.10284505033E+03  0.13432711953E+04  0.13503530829E+04  0.90547009653E+02 0.  0.
        254    2    1    2    0    0 -0.17322791514E+02  0.10284505033E+03  0.17641812819E+03  0.92386041576E+03  0.90084267682E+03 0.  0.
        -24    2    4    4    0    0  0.89358889654E+02 -0.38254266247E+03  0.11094126977E+03  0.41611877145E+03  0.80764886235E+02 0.  0.
         24    2    4    4    0    0 -0.10668168117E+03  0.48538771280E+03  0.65476858427E+02  0.50774164431E+03  0.80821689792E+02 0.  0.
         13    1    3    3    0    0 -0.14261658946E+02 -0.24334965179E+02  0.92077901132E+02  0.96301221815E+02  0.00000000000E+00 0.  1.
        -13    1    3    3    0    0  0.31584450460E+02 -0.78510085153E+02  0.12511932942E+04  0.12540518611E+04  0.00000000000E+00 0. -1.
          4    1    6    6  502    0 -0.46119055932E+02  0.76103973322E+02  0.89993664796E+00  0.88992089319E+02  0.00000000000E+00 0. -1.
          1    1    5    5  503    0  0.40694545398E+02 -0.53285193071E+02  0.30737301533E+02  0.73757301545E+02  0.00000000000E+00 0. -1.
         -2    1    5    5    0  503  0.48664344256E+02 -0.32925746940E+03  0.80203968233E+02  0.34236146991E+03  0.00000000000E+00 0.  1.
         -3    1    6    6    0  502 -0.60562625237E+02  0.40928373948E+03  0.64576921779E+02  0.41874955499E+03  0.00000000000E+00 0.  1.
<mgrwt>
<rscale>  0 0.16919194E+04</rscale>
<asrwt>0</asrwt>
<pdfrwt beam="1">  1        2 0.29183867E+00 0.16919194E+04</pdfrwt>
<pdfrwt beam="2">  1       -2 0.58040322E-01 0.16919194E+04</pdfrwt>
<totfact> 0.20162831E+01</totfact>
</mgrwt>
</event>
<event>
12    1  0.2588309E-007  0.1468694E+04  0.7818608E-02  0.8905542E-01
          2   -1    0    0  501    0  0.00000000000E+00  0.00000000000E+00  0.15274248479E+04  0.15274248479E+04  0.00000000000E+00 0. -1.
         -2   -1    0    0    0  501 -0.00000000000E+00 -0.00000000000E+00 -0.35305532092E+03  0.35305532092E+03  0.00000000000E+00 0.  1.
         23    2    1    2    0    0 -0.87606948822E+02  0.41687208638E+03  0.17596371424E+03  0.46978032762E+03  0.90956108131E+02 0.  0.
        254    2    1    2    0    0  0.87606948822E+02 -0.41687208638E+03  0.99840581272E+03  0.14106998412E+04  0.90100086634E+03 0.  0.
        -24    2    4    4    0    0  0.38423255198E+03  0.31102511083E+02  0.66752530439E+03  0.77486918461E+03  0.78931622697E+02 0.  0.
         24    2    4    4    0    0 -0.29662560316E+03 -0.44797459747E+03  0.33088050833E+03  0.63583065657E+03  0.78298943917E+02 0.  0.
         13    1    3    3    0    0  0.15711486719E+02  0.25643550929E+02  0.49207072994E+01  0.30473855671E+02  0.00000000000E+00 0.  1.
        -13    1    3    3    0    0 -0.10331843554E+03  0.39122853545E+03  0.17104300694E+03  0.43930647195E+03  0.00000000000E+00 0. -1.
          4    1    6    6  502    0 -0.21519073446E+03 -0.34880602481E+03  0.21444017585E+03  0.46255516877E+03  0.00000000000E+00 0. -1.
          1    1    5    5  503    0  0.12152701838E+03  0.46488202602E+02  0.23306699013E+03  0.26692731420E+03  0.00000000000E+00 0. -1.
         -2    1    5    5    0  503  0.26270553359E+03 -0.15385691519E+02  0.43445831427E+03  0.50794187041E+03  0.00000000000E+00 0.  1.
         -3    1    6    6    0  502 -0.81434868699E+02 -0.99168572653E+02  0.11644033249E+03  0.17327548780E+03  0.00000000000E+00 0.  1.
<mgrwt>
<rscale>  0 0.14686939E+04</rscale>
<asrwt>0</asrwt>
<pdfrwt beam="1">  1        2 0.23498843E+00 0.14686939E+04</pdfrwt>
<pdfrwt beam="2">  1       -2 0.54316204E-01 0.14686939E+04</pdfrwt>
<totfact> 0.37846491E+01</totfact>
</mgrwt>
</event>
<event>
12    1  0.2588309E-007  0.2214279E+04  0.7818608E-02  0.8512508E-01
         -1   -1    0    0    0  501 -0.00000000000E+00  0.00000000000E+00  0.94348382813E+03  0.94348382813E+03  0.00000000000E+00 0.  1.
          1   -1    0    0  501    0  0.00000000000E+00 -0.00000000000E+00 -0.12991830643E+04  0.12991830643E+04  0.00000000000E+00 0. -1.
         23    2    1    2    0    0 -0.29531594675E+03  0.73222626149E+03  0.33250789194E+03  0.86148140163E+03  0.90674697352E+02 0.  0.
        254    2    1    2    0    0  0.29531594675E+03 -0.73222626149E+03 -0.68820712814E+03  0.13811854908E+04  0.90037631157E+03 0.  0.
        -24    2    4    4    0    0  0.30520788652E+03 -0.31569388127E+02  0.88970910943E+02  0.33166838345E+03  0.89104507882E+02 0.  0.
         24    2    4    4    0    0 -0.98919397731E+01 -0.70065687336E+03 -0.77717803908E+03  0.10495171074E+04  0.80389984384E+02 0.  0.
         13    1    3    3    0    0 -0.16055917080E+03  0.44949156331E+03  0.15706657073E+03  0.50248564203E+03  0.00000000000E+00 0. -1.
        -13    1    3    3    0    0 -0.13475677595E+03  0.28273469818E+03  0.17544132121E+03  0.35899575960E+03  0.00000000000E+00 0.  1.
          4    1    6    6  502    0 -0.17190103754E+02 -0.49798877205E+02 -0.40298249605E+02  0.66327797787E+02  0.00000000000E+00 0. -1.
          1    1    5    5  503    0  0.12000862040E+03  0.26562050400E+02  0.14502763489E+02  0.12376567230E+03  0.00000000000E+00 0. -1.
         -2    1    5    5    0  503  0.18519926612E+03 -0.58131438527E+02  0.74468147454E+02  0.20790271115E+03  0.00000000000E+00 0.  1.
         -3    1    6    6    0  502  0.72981639807E+01 -0.65085799616E+03 -0.73687978948E+03  0.98318930959E+03  0.00000000000E+00 0.  1.
<mgrwt>
<rscale>  0 0.22142793E+04</rscale>
<asrwt>0</asrwt>
<pdfrwt beam="1">  1        1 0.19987432E+00 0.22142793E+04</pdfrwt>
<pdfrwt beam="2">  1       -1 0.14515136E+00 0.22142793E+04</pdfrwt>
<totfact> 0.31428792E+00</totfact>
</mgrwt>
</event>
<event>
12    1  0.2588309E-007  0.2039056E+04  0.7818608E-02  0.8588575E-01
          1   -1    0    0  501    0  0.00000000000E+00  0.00000000000E+00  0.16518392851E+04  0.16518392851E+04  0.00000000000E+00 0.  1.
         -1   -1    0    0    0  501 -0.00000000000E+00 -0.00000000000E+00 -0.62926040907E+03  0.62926040907E+03  0.00000000000E+00 0. -1.
         23    2    1    2    0    0  0.56796043112E+03 -0.58597091810E+03  0.47208217109E+03  0.94716035150E+03  0.91160227125E+02 0.  0.
        254    2    1    2    0    0 -0.56796043112E+03  0.58597091810E+03  0.55049670493E+03  0.13339393427E+04  0.90022584922E+03 0.  0.
        -24    2    4    4    0    0 -0.74197783023E+03  0.30658433067E+03  0.58055691978E+03  0.99392860001E+03  0.79515234126E+02 0.  0.
         24    2    4    4    0    0  0.17401739911E+03  0.27938658743E+03 -0.30060214844E+02  0.34001074266E+03  0.79779497211E+02 0.  0.
         13    1    3    3    0    0  0.14284756591E+03 -0.11370085679E+03  0.71886973153E+02  0.19621684135E+03  0.00000000000E+00 0. -1.
        -13    1    3    3    0    0  0.42511286521E+03 -0.47227006131E+03  0.40019519794E+03  0.75094351015E+03  0.00000000000E+00 0.  1.
          4    1    6    6  502    0  0.11180601852E+02  0.31442831114E+02  0.20403280541E+02  0.39114592457E+02  0.00000000000E+00 0. -1.
          3    1    5    5  503    0 -0.46633333705E+03  0.16755755488E+03  0.31918664862E+03  0.58942551022E+03  0.00000000000E+00 0. -1.
         -4    1    5    5    0  503 -0.27564449318E+03  0.13902677579E+03  0.26137027116E+03  0.40450308980E+03  0.00000000000E+00 0.  1.
         -3    1    6    6    0  502  0.16283679726E+03  0.24794375632E+03 -0.50463495385E+02  0.30089615020E+03  0.00000000000E+00 0.  1.
<mgrwt>
<rscale>  0 0.20390557E+04</rscale>
<asrwt>0</asrwt>
<pdfrwt beam="1">  1        1 0.25412912E+00 0.20390557E+04</pdfrwt>
<pdfrwt beam="2">  1       -1 0.96809294E-01 0.20390557E+04</pdfrwt>
<totfact> 0.48772265E+00</totfact>
</mgrwt>
</event>
<event>
12    1  0.2588309E-007  0.2139815E+04  0.7818608E-02  0.8543905E-01
          2   -1    0    0  501    0  0.00000000000E+00  0.00000000000E+00  0.31204235931E+04  0.31204235931E+04  0.00000000000E+00 0. -1.
         -2   -1    0    0    0  501 -0.00000000000E+00 -0.00000000000E+00 -0.36684183391E+03  0.36684183391E+03  0.00000000000E+00 0.  1.
         23    2    1    2    0    0  0.44112528365E+03 -0.75021443836E+03  0.94978656376E+03  0.12914398172E+04  0.91154075267E+02 0.  0.
        254    2    1    2    0    0 -0.44112528365E+03  0.75021443836E+03  0.18037951954E+04  0.21958256098E+04  0.90031093633E+03 0.  0.
        -24    2    4    4    0    0 -0.26420945728E+03  0.90108150350E+03  0.10913049763E+04  0.14419416269E+04  0.80589023691E+02 0.  0.
         24    2    4    4    0    0 -0.17691582637E+03 -0.15086706514E+03  0.71249021907E+03  0.75388398286E+03  0.81478011570E+02 0.  0.
         11    1    3    3    0    0  0.19975198888E+03 -0.25729452904E+03  0.37451805749E+03  0.49635179774E+03  0.00000000000E+00 0. -1.
        -11    1    3    3    0    0  0.24137329477E+03 -0.49291990932E+03  0.57526850627E+03  0.79508801949E+03  0.00000000000E+00 0.  1.
          4    1    6    6  502    0 -0.71147514205E+02 -0.14038384617E+02  0.24112360269E+03  0.25179284500E+03  0.00000000000E+00 0. -1.
          3    1    5    5  503    0 -0.35658116367E+01  0.11232978003E+02  0.29331574375E+01  0.12144884519E+02  0.00000000000E+00 0. -1.
         -4    1    5    5    0  503 -0.26064364564E+03  0.88984852550E+03  0.10883718189E+04  0.14297967424E+04  0.00000000000E+00 0.  1.
         -3    1    6    6    0  502 -0.10576831216E+03 -0.13682868052E+03  0.47136661639E+03  0.50209113786E+03  0.00000000000E+00 0.  1.
<mgrwt>
<rscale>  0 0.21398149E+04</rscale>
<asrwt>0</asrwt>
<pdfrwt beam="1">  1        2 0.48006515E+00 0.21398149E+04</pdfrwt>
<pdfrwt beam="2">  1       -2 0.56437207E-01 0.21398149E+04</pdfrwt>
<totfact> 0.39594930E+00</totfact>
</mgrwt>
</event>
<event>
12    1  0.2588309E-007  0.2098377E+04  0.7818608E-02  0.8561958E-01
         -2   -1    0    0    0  501 -0.00000000000E+00  0.00000000000E+00  0.20627361624E+04  0.20627361624E+04  0.00000000000E+00 0.  1.
          2   -1    0    0  501    0  0.00000000000E+00 -0.00000000000E+00 -0.53365859458E+03  0.53365859458E+03  0.00000000000E+00 0. -1.
         23    2    1    2    0    0  0.81983728807E+03  0.23594228794E+03  0.62573660692E+03  0.10621362628E+04  0.93729383263E+02 0.  0.
        254    2    1    2    0    0 -0.81983728807E+03 -0.23594228794E+03  0.90334096088E+03  0.15342584942E+04  0.90006793813E+03 0.  0.
        -24    2    4    4    0    0 -0.48663624788E+03  0.31962375195E+03  0.39770700964E+03  0.70864706759E+03  0.70962104897E+02 0.  0.
         24    2    4    4    0    0 -0.33320104019E+03 -0.55556603989E+03  0.50563395123E+03  0.82561142659E+03  0.79321984445E+02 0.  0.
         11    1    3    3    0    0  0.20527561914E+03  0.85546546315E+02  0.20384869332E+03  0.30167960018E+03  0.00000000000E+00 0. -1.
        -11    1    3    3    0    0  0.61456166893E+03  0.15039574163E+03  0.42188791361E+03  0.76045666258E+03  0.00000000000E+00 0.  1.
          4    1    6    6  502    0 -0.30531486333E+03 -0.51946941736E+03  0.49229500236E+03  0.77808740556E+03  0.00000000000E+00 0. -1.
          1    1    5    5  503    0 -0.35121394731E+03  0.20827021571E+03  0.24530212441E+03  0.47634110864E+03  0.00000000000E+00 0. -1.
         -2    1    5    5    0  503 -0.13542230056E+03  0.11135353624E+03  0.15240488523E+03  0.23230595895E+03  0.00000000000E+00 0.  1.
         -3    1    6    6    0  502 -0.27886176864E+02 -0.36096622535E+02  0.13338948876E+02  0.47524021038E+02  0.00000000000E+00 0.  1.
<mgrwt>
<rscale>  0 0.20983774E+04</rscale>
<asrwt>0</asrwt>
<pdfrwt beam="1">  1        2 0.82101323E-01 0.20983774E+04</pdfrwt>
<pdfrwt beam="2">  1       -2 0.31734402E+00 0.20983774E+04</pdfrwt>
<totfact> 0.13090750E+00</totfact>
</mgrwt>
</event>
<event>
12    1  0.2588309E-007  0.3051881E+04  0.7818608E-02  0.8229069E-01
         -2   -1    0    0    0  501 -0.00000000000E+00  0.00000000000E+00  0.72988732469E+03  0.72988732469E+03  0.00000000000E+00 0.  1.
          2   -1    0    0  501    0  0.00000000000E+00 -0.00000000000E+00 -0.31902110933E+04  0.31902110933E+04  0.00000000000E+00 0. -1.
         23    2    1    2    0    0 -0.10837619482E+04 -0.14662690519E+03 -0.14855520626E+02  0.10973071862E+04  0.88447525355E+02 0.  0.
        254    2    1    2    0    0  0.10837619482E+04  0.14662690519E+03 -0.24454682480E+04  0.28227912318E+04  0.88982918383E+03 0.  0.
        -24    2    4    4    0    0  0.60299623347E+03  0.50878418440E+03 -0.15472073800E+04  0.17386394451E+04  0.80936020000E+02 0.  0.
         24    2    4    4    0    0  0.48076571476E+03 -0.36215727921E+03 -0.89826086801E+03  0.10841517867E+04  0.78860270453E+02 0.  0.
         13    1    3    3    0    0 -0.32367444251E+03 -0.44274109886E+02 -0.44965400437E+02  0.32976844721E+03  0.00000000000E+00 0. -1.
        -13    1    3    3    0    0 -0.76008750572E+03 -0.10235279531E+03  0.30109879811E+02  0.76753873903E+03  0.00000000000E+00 0.  1.
          4    1    6    6  502    0  0.36059768337E+03 -0.22899824862E+03 -0.61180168599E+03  0.74617168943E+03  0.00000000000E+00 0. -1.
          1    1    5    5  503    0  0.40212884536E+03  0.37964042400E+03 -0.10342435381E+04  0.11728146298E+04  0.00000000000E+00 0. -1.
         -2    1    5    5    0  503  0.20086738811E+03  0.12914376040E+03 -0.51296384189E+03  0.56582481524E+03  0.00000000000E+00 0.  1.
         -3    1    6    6    0  502  0.12016803139E+03 -0.13315903059E+03 -0.28645918202E+03  0.33798009728E+03  0.00000000000E+00 0.  1.
<mgrwt>
<rscale>  0 0.30518812E+04</rscale>
<asrwt>0</asrwt>
<pdfrwt beam="1">  1        2 0.49080173E+00 0.30518812E+04</pdfrwt>
<pdfrwt beam="2">  1       -2 0.11229035E+00 0.30518812E+04</pdfrwt>
<totfact> 0.70046147E-01</totfact>
</mgrwt>
</event>
<event>
12    1  0.2588309E-007  0.1321404E+04  0.7818608E-02  0.9012762E-01
         -2   -1    0    0    0  501 -0.00000000000E+00  0.00000000000E+00  0.22797586257E+03  0.22797586257E+03  0.00000000000E+00 0. -1.
          2   -1    0    0  501    0  0.00000000000E+00 -0.00000000000E+00 -0.19147945748E+04  0.19147945748E+04  0.00000000000E+00 0.  1.
         23    2    1    2    0    0 -0.26443001885E+03 -0.98626134682E+02 -0.13154798534E+03  0.32450934513E+03  0.91384316576E+02 0.  0.
        254    2    1    2    0    0  0.26443001885E+03  0.98626134682E+02 -0.15552707269E+04  0.18182610922E+04  0.89864120555E+03 0.  0.
        -24    2    4    4    0    0  0.20944656395E+03 -0.55333601248E+02  0.21083973723E+02  0.23156363229E+03  0.79041199842E+02 0.  0.
         24    2    4    4    0    0  0.54983454902E+02  0.15395973593E+03 -0.15763547006E+04  0.15866974599E+04  0.77381565451E+02 0.  0.
         13    1    3    3    0    0 -0.54898428968E+02 -0.56998304211E+02 -0.13010936955E+02  0.80199305898E+02  0.00000000000E+00 0. -1.
        -13    1    3    3    0    0 -0.20953158988E+03 -0.41627830472E+02 -0.11853704838E+03  0.24431003923E+03  0.00000000000E+00 0.  1.
          2    1    6    6  502    0 -0.15989668359E+02  0.16481341289E+02 -0.12251445092E+03  0.12464788322E+03  0.00000000000E+00 0. -1.
          1    1    5    5  503    0  0.27733193425E+02 -0.37038119962E+02  0.15668290042E+02  0.48851281055E+02  0.00000000000E+00 0. -1.
         -2    1    5    5    0  503  0.18171337052E+03 -0.18295481285E+02  0.54156836818E+01  0.18271235123E+03  0.00000000000E+00 0.  1.
         -1    1    6    6    0  502  0.70973123261E+02  0.13747839464E+03 -0.14538402497E+04  0.14620495767E+04  0.00000000000E+00 0.  1.
<mgrwt>
<rscale>  0 0.13214037E+04</rscale>
<asrwt>0</asrwt>
<pdfrwt beam="1">  1        2 0.29458378E+00 0.13214037E+04</pdfrwt>
<pdfrwt beam="2">  1       -2 0.35073210E-01 0.13214037E+04</pdfrwt>
<totfact> 0.55670019E+01</totfact>
</mgrwt>
</event>
<event>
12    1  0.2588309E-007  0.2587787E+04  0.7818608E-02  0.8372361E-01
          2   -1    0    0  501    0  0.00000000000E+00  0.00000000000E+00  0.25668850825E+04  0.25668850825E+04  0.00000000000E+00 0. -1.
         -2   -1    0    0    0  501 -0.00000000000E+00 -0.00000000000E+00 -0.65221493959E+03  0.65221493959E+03  0.00000000000E+00 0.  1.
         23    2    1    2    0    0  0.85834840653E+03 -0.61919939210E+02  0.17638483947E+04  0.19646947195E+04  0.90929178001E+02 0.  0.
        254    2    1    2    0    0 -0.85834840653E+03  0.61919939210E+02  0.15082174821E+03  0.12544053026E+04  0.90010521476E+03 0.  0.
        -24    2    4    4    0    0 -0.21958103236E+03 -0.23500505732E+03  0.38377288148E+03  0.50844611425E+03  0.88275816630E+02 0.  0.
         24    2    4    4    0    0 -0.63876737417E+03  0.29692499653E+03 -0.23295113326E+03  0.74595918837E+03  0.77463981025E+02 0.  0.
         13    1    3    3    0    0  0.46271763103E+03 -0.88937401023E+01  0.10332524528E+04  0.11321648890E+04  0.00000000000E+00 0. -1.
        -13    1    3    3    0    0  0.39563077550E+03 -0.53026199108E+02  0.73059594193E+03  0.83252983050E+03  0.00000000000E+00 0.  1.
          2    1    6    6  502    0 -0.21348794445E+02  0.41790693915E+01 -0.21741979631E+02  0.30756289170E+02  0.00000000000E+00 0. -1.
          1    1    5    5  503    0  0.76887616799E+01 -0.18325151808E+01  0.85820543546E+01  0.11667340100E+02  0.00000000000E+00 0. -1.
         -2    1    5    5    0  503 -0.22726979404E+03 -0.23317254214E+03  0.37519082712E+03  0.49677877415E+03  0.00000000000E+00 0.  1.
         -1    1    6    6    0  502 -0.61741857972E+03  0.29274592714E+03 -0.21120915363E+03  0.71520289920E+03  0.00000000000E+00 0.  1.
<mgrwt>
<rscale>  0 0.25877873E+04</rscale>
<asrwt>0</asrwt>
<pdfrwt beam="1">  1        2 0.39490539E+00 0.25877873E+04</pdfrwt>
<pdfrwt beam="2">  1       -2 0.10034076E+00 0.25877873E+04</pdfrwt>
<totfact> 0.23083390E+00</totfact>
</mgrwt>
</event>
<event>
12    1  0.2588309E-007  0.1822293E+04  0.7818608E-02  0.8694533E-01
          1   -1    0    0  501    0  0.00000000000E+00  0.00000000000E+00  0.31451303116E+04  0.31451303116E+04  0.00000000000E+00 0.  1.
         -1   -1    0    0    0  501 -0.00000000000E+00 -0.00000000000E+00 -0.26395975026E+03  0.26395975026E+03  0.00000000000E+00 0. -1.
         23    2    1    2    0    0  0.30244514924E+02  0.12518755800E+03 -0.16562895703E+03  0.22948739945E+03  0.92977737867E+02 0.  0.
        254    2    1    2    0    0 -0.30244514924E+02 -0.12518755800E+03  0.30467995184E+04  0.31796026624E+04  0.90016616814E+03 0.  0.
        -24    2    4    4    0    0  0.15680789517E+03 -0.19160448187E+03  0.20856567114E+03  0.33333555187E+03  0.79447828813E+02 0.  0.
         24    2    4    4    0    0 -0.18705241009E+03  0.66416923869E+02  0.28382338472E+04  0.28462671105E+04  0.79153528430E+02 0.  0.
         11    1    3    3    0    0  0.50313977252E+02  0.11224663017E+03 -0.16473223603E+03  0.20559064152E+03  0.00000000000E+00 0. -1.
        -11    1    3    3    0    0 -0.20069462328E+02  0.12940927824E+02 -0.89672099974E+00  0.23896757932E+02  0.00000000000E+00 0.  1.
          2    1    6    6  502    0 -0.19266881894E+03  0.55683796848E+02  0.27302049857E+04  0.27375611816E+04  0.00000000000E+00 0. -1.
          1    1    5    5  503    0  0.86587788534E+02 -0.16109857984E+03  0.13676302453E+03  0.22837320865E+03  0.00000000000E+00 0. -1.
         -2    1    5    5    0  503  0.70220106634E+02 -0.30505902027E+02  0.71802646610E+02  0.10496234322E+03  0.00000000000E+00 0.  1.
         -1    1    6    6    0  502  0.56164088502E+01  0.10733127021E+02  0.10802886153E+03  0.10870592895E+03  0.00000000000E+00 0.  1.
<mgrwt>
<rscale>  0 0.18222929E+04</rscale>
<asrwt>0</asrwt>
<pdfrwt beam="1">  1        1 0.48386618E+00 0.18222929E+04</pdfrwt>
<pdfrwt beam="2">  1       -1 0.40609195E-01 0.18222929E+04</pdfrwt>
<totfact> 0.26165954E+00</totfact>
</mgrwt>
</event>
<event>
12    1  0.2588309E-007  0.3535143E+04  0.7818608E-02  0.8105512E-01
          2   -1    0    0  501    0  0.00000000000E+00  0.00000000000E+00  0.11991749024E+04  0.11991749024E+04  0.00000000000E+00 0. -1.
         -2   -1    0    0    0  501 -0.00000000000E+00 -0.00000000000E+00 -0.26053823860E+04  0.26053823860E+04  0.00000000000E+00 0.  1.
         23    2    1    2    0    0 -0.64960536188E+02  0.16496357279E+04 -0.70945698568E+03  0.17994920656E+04  0.96563831697E+02 0.  0.
        254    2    1    2    0    0  0.64960536188E+02 -0.16496357279E+04 -0.69675049790E+03  0.20050652227E+04  0.89961513149E+03 0.  0.
        -24    2    4    4    0    0 -0.23788222411E+03 -0.20146053238E+03 -0.36405278498E+03  0.48630079971E+03  0.82339169873E+02 0.  0.
         24    2    4    4    0    0  0.30284276030E+03 -0.14481751956E+04 -0.33269771292E+03  0.15187644230E+04  0.83859822663E+02 0.  0.
         13    1    3    3    0    0 -0.25737774452E+02  0.96388323224E+03 -0.46418651369E+03  0.10701413168E+04  0.00000000000E+00 0. -1.
        -13    1    3    3    0    0 -0.39222761736E+02  0.68575249569E+03 -0.24527047199E+03  0.72935074883E+03  0.00000000000E+00 0.  1.
          2    1    6    6  502    0  0.90033388056E+02 -0.55101333429E+03 -0.92445242024E+02  0.56592210445E+03  0.00000000000E+00 0. -1.
          1    1    5    5  503    0 -0.11486215299E+03 -0.10809080295E+03 -0.24465318659E+03  0.29108781765E+03  0.00000000000E+00 0. -1.
         -2    1    5    5    0  503 -0.12302007112E+03 -0.93369729428E+02 -0.11939959838E+03  0.19521298206E+03  0.00000000000E+00 0.  1.
         -1    1    6    6    0  502  0.21280937225E+03 -0.89716186127E+03 -0.24025247090E+03  0.95284231854E+03  0.00000000000E+00 0.  1.
<mgrwt>
<rscale>  0 0.35351431E+04</rscale>
<asrwt>0</asrwt>
<pdfrwt beam="1">  1        2 0.18448845E+00 0.35351431E+04</pdfrwt>
<pdfrwt beam="2">  1       -2 0.40082806E+00 0.35351431E+04</pdfrwt>
<totfact> 0.11379457E-01</totfact>
</mgrwt>
</event>
<event>
12    1  0.2588309E-007  0.2403229E+04  0.7818608E-02  0.8438296E-01
         -2   -1    0    0    0  501 -0.00000000000E+00  0.00000000000E+00  0.63067208551E+03  0.63067208551E+03  0.00000000000E+00 0.  1.
          2   -1    0    0  501    0  0.00000000000E+00 -0.00000000000E+00 -0.22894263465E+04  0.22894263465E+04  0.00000000000E+00 0. -1.
         23    2    1    2    0    0  0.93523531768E+03  0.82952721016E+02 -0.19791304775E+03  0.96418160967E+03  0.94500521595E+02 0.  0.
        254    2    1    2    0    0 -0.93523531768E+03 -0.82952721016E+02 -0.14608412132E+04  0.19559168223E+04  0.90000406235E+03 0.  0.
        -24    2    4    4    0    0 -0.58692934804E+03  0.13213706667E+03 -0.21785011820E+03  0.64484050908E+03  0.80089600880E+02 0.  0.
         24    2    4    4    0    0 -0.34830596964E+03 -0.21508978768E+03 -0.12429910950E+04  0.13110763133E+04  0.79457986283E+02 0.  0.
         11    1    3    3    0    0  0.84980118357E+03  0.47712492764E+02 -0.17445962381E+03  0.86883525130E+03  0.00000000000E+00 0.  1.
        -11    1    3    3    0    0  0.85434134113E+02  0.35240228252E+02 -0.23453423943E+02  0.95346358365E+02  0.00000000000E+00 0. -1.
          4    1    6    6  502    0 -0.77719023374E+02 -0.80684841667E+02 -0.27202230511E+03  0.29418773724E+03  0.00000000000E+00 0. -1.
          1    1    5    5  503    0 -0.29011152215E+03  0.33206343085E+02 -0.13165943519E+03  0.32031478796E+03  0.00000000000E+00 0. -1.
         -2    1    5    5    0  503 -0.29681782589E+03  0.98930723582E+02 -0.86190683005E+02  0.32452572112E+03  0.00000000000E+00 0.  1.
         -3    1    6    6    0  502 -0.27058694626E+03 -0.13440494602E+03 -0.97096878993E+03  0.10168885760E+04  0.00000000000E+00 0.  1.
<mgrwt>
<rscale>  0 0.24032289E+04</rscale>
<asrwt>0</asrwt>
<pdfrwt beam="1">  1        2 0.35221945E+00 0.24032289E+04</pdfrwt>
<pdfrwt beam="2">  1       -2 0.97026473E-01 0.24032289E+04</pdfrwt>
<totfact> 0.36648886E+00</totfact>
</mgrwt>
</event>
<event>
12    1  0.2588309E-007  0.1881675E+04  0.7818608E-02  0.8664032E-01
          1   -1    0    0  501    0  0.00000000000E+00  0.00000000000E+00  0.14445731544E+04  0.14445731544E+04  0.00000000000E+00 0. -1.
         -1   -1    0    0    0  501 -0.00000000000E+00 -0.00000000000E+00 -0.61275880565E+03  0.61275880565E+03  0.00000000000E+00 0.  1.
         23    2    1    2    0    0 -0.64648932118E+03 -0.31754983051E+03  0.25889084046E+03  0.77019751626E+03  0.85984937772E+02 0.  0.
        254    2    1    2    0    0  0.64648932118E+03  0.31754983051E+03  0.57292350825E+03  0.12871344437E+04  0.89982631252E+03 0.  0.
        -24    2    4    4    0    0  0.26491581442E+03  0.20602511686E+03 -0.21179697683E+03  0.40472627486E+03  0.79490003538E+02 0.  0.
         24    2    4    4    0    0  0.38157350676E+03  0.11152471366E+03  0.78472048508E+03  0.88240816888E+03  0.69439426705E+02 0.  0.
         11    1    3    3    0    0 -0.54135496642E+03 -0.24271361858E+03  0.18479350801E+03  0.62138855873E+03  0.00000000000E+00 0. -1.
        -11    1    3    3    0    0 -0.10513435476E+03 -0.74836211933E+02  0.74097332447E+02  0.14880895754E+03  0.00000000000E+00 0.  1.
          4    1    6    6  502    0  0.24942249490E+03  0.93861136244E+02  0.46413158051E+03  0.53520053988E+03  0.00000000000E+00 0. -1.
          3    1    5    5  503    0  0.19909417676E+03  0.13183015713E+03 -0.18477876751E+03  0.30192859167E+03  0.00000000000E+00 0. -1.
         -4    1    5    5    0  503  0.65821637659E+02  0.74194959731E+02 -0.27018209320E+02  0.10279768319E+03  0.00000000000E+00 0.  1.
         -3    1    6    6    0  502  0.13215101186E+03  0.17663577413E+02  0.32058890456E+03  0.34720762900E+03  0.00000000000E+00 0.  1.
<mgrwt>
<rscale>  0 0.18816747E+04</rscale>
<asrwt>0</asrwt>
<pdfrwt beam="1">  1        1 0.22224202E+00 0.18816747E+04</pdfrwt>
<pdfrwt beam="2">  1       -1 0.94270586E-01 0.18816747E+04</pdfrwt>
<totfact> 0.72989198E+00</totfact>
</mgrwt>
</event>
<event>
12    1  0.2588309E-007  0.1391374E+04  0.7818608E-02  0.8960086E-01
          2   -1    0    0  501    0  0.00000000000E+00  0.00000000000E+00  0.34132216945E+03  0.34132216945E+03  0.00000000000E+00 0. -1.
         -2   -1    0    0    0  501 -0.00000000000E+00 -0.00000000000E+00 -0.14179580871E+04  0.14179580871E+04  0.00000000000E+00 0.  1.
         23    2    1    2    0    0  0.29555896326E+03 -0.36556824224E+02  0.24589528516E+02  0.30679276731E+03  0.69466934595E+02 0.  0.
        254    2    1    2    0    0 -0.29555896326E+03  0.36556824224E+02 -0.11012254462E+04  0.14524874893E+04  0.89907225569E+03 0.  0.
        -24    2    4    4    0    0 -0.52174538304E+03  0.25304227318E+03 -0.89359560243E+03  0.10684570195E+04  0.82696221766E+02 0.  0.
         24    2    4    4    0    0  0.22618641978E+03 -0.21648544896E+03 -0.20762984378E+03  0.38403046977E+03  0.79642975717E+02 0.  0.
         11    1    3    3    0    0  0.15022310854E+03 -0.24992768510E+02  0.46796956532E+02  0.15931596266E+03  0.00000000000E+00 0. -1.
        -11    1    3    3    0    0  0.14533585472E+03 -0.11564055714E+02 -0.22207428016E+02  0.14747680466E+03  0.00000000000E+00 0.  1.
          2    1    6    6  502    0  0.15457685001E+03 -0.16596248934E+03 -0.10756453504E+03  0.25101330568E+03  0.00000000000E+00 0. -1.
          3    1    5    5  503    0 -0.34611361851E+03  0.15965264636E+03 -0.65486944110E+03  0.75771867424E+03  0.00000000000E+00 0. -1.
         -4    1    5    5    0  503 -0.17563176454E+03  0.93389626824E+02 -0.23872616133E+03  0.31073834526E+03  0.00000000000E+00 0.  1.
         -1    1    6    6    0  502  0.71609569772E+02 -0.50522959613E+02 -0.10006530874E+03  0.13301716409E+03  0.00000000000E+00 0.  1.
<mgrwt>
<rscale>  0 0.13913742E+04</rscale>
<asrwt>0</asrwt>
<pdfrwt beam="1">  1        2 0.52511103E-01 0.13913742E+04</pdfrwt>
<pdfrwt beam="2">  1       -2 0.21814740E+00 0.13913742E+04</pdfrwt>
<totfact> 0.93958767E+00</totfact>
</mgrwt>
</event>
<event>
12    1  0.2588309E-007  0.1849354E+04  0.7818608E-02  0.8680485E-01
         -1   -1    0    0    0  501 -0.00000000000E+00  0.00000000000E+00  0.16896822674E+04  0.16896822674E+04  0.00000000000E+00 0.  1.
          1   -1    0    0  501    0  0.00000000000E+00 -0.00000000000E+00 -0.50602840294E+03  0.50602840294E+03  0.00000000000E+00 0. -1.
         23    2    1    2    0    0 -0.24586082224E+03 -0.65771283900E+03  0.43719607121E+03  0.83173430830E+03  0.87222889365E+02 0.  0.
        254    2    1    2    0    0  0.24586082224E+03  0.65771283900E+03  0.74645779330E+03  0.13639763621E+04  0.90011030249E+03 0.  0.
        -24    2    4    4    0    0 -0.11596160997E+03  0.51819672645E+03  0.21095160125E+02  0.53748044961E+03  0.80406999950E+02 0.  0.
         24    2    4    4    0    0  0.36182243221E+03  0.13951611255E+03  0.72536263318E+03  0.82649591247E+03  0.81020525902E+02 0.  0.
         13    1    3    3    0    0  0.49011267774E+01 -0.47657168268E+02  0.32560347049E+02  0.57925839925E+02  0.00000000000E+00 0.  1.
        -13    1    3    3    0    0 -0.25076194902E+03 -0.61005567074E+03  0.40463572416E+03  0.77380846838E+03  0.00000000000E+00 0. -1.
          2    1    6    6  502    0  0.48265866455E+02  0.38387998898E+02  0.16901449398E+03  0.17991423373E+03  0.00000000000E+00 0. -1.
          1    1    5    5  503    0  0.50121770265E+01  0.12154593994E+03  0.16527649539E+02  0.12276685478E+03  0.00000000000E+00 0. -1.
         -2    1    5    5    0  503 -0.12097378700E+03  0.39665078652E+03  0.45675105863E+01  0.41471359483E+03  0.00000000000E+00 0.  1.
         -1    1    6    6    0  502  0.31355656575E+03  0.10112811365E+03  0.55634813920E+03  0.64658167874E+03  0.00000000000E+00 0.  1.
<mgrwt>
<rscale>  0 0.18493536E+04</rscale>
<asrwt>0</asrwt>
<pdfrwt beam="1">  1        1 0.77850524E-01 0.18493536E+04</pdfrwt>
<pdfrwt beam="2">  1       -1 0.25995112E+00 0.18493536E+04</pdfrwt>
<totfact> 0.24600549E+00</totfact>
</mgrwt>
</event>
<event>
12    1  0.2588309E-007  0.1724486E+04  0.7818608E-02  0.8747521E-01
          4   -1    0    0  501    0  0.00000000000E+00  0.00000000000E+00  0.10268849195E+04  0.10268849195E+04  0.00000000000E+00 0. -1.
         -4   -1    0    0    0  501 -0.00000000000E+00 -0.00000000000E+00 -0.72399871884E+03  0.72399871884E+03  0.00000000000E+00 0.  1.
         23    2    1    2    0    0 -0.11225610344E+03 -0.56480441944E+03 -0.13353487470E+03  0.59807039905E+03  0.90835975678E+02 0.  0.
        254    2    1    2    0    0  0.11225610344E+03  0.56480441944E+03  0.43642107536E+03  0.11528132393E+04  0.89828143957E+03 0.  0.
        -24    2    4    4    0    0  0.30653464218E+03 -0.30112701598E+02  0.41136140801E+03  0.52012115222E+03  0.80234302761E+02 0.  0.
         24    2    4    4    0    0 -0.19427853873E+03  0.59491712104E+03  0.25059667349E+02  0.63269208707E+03  0.89446959645E+02 0.  0.
         11    1    3    3    0    0 -0.89342889713E+02 -0.48846334011E+03 -0.14556333385E+03  0.51746233750E+03  0.00000000000E+00 0.  1.
        -11    1    3    3    0    0 -0.22913213728E+02 -0.76341079333E+02  0.12028459145E+02  0.80608061548E+02  0.00000000000E+00 0. -1.
          4    1    6    6  502    0 -0.14857471813E+03  0.53617884920E+03  0.85031286947E+01  0.55644811833E+03  0.00000000000E+00 0. -1.
          1    1    5    5  503    0  0.25526389631E+03 -0.44989550605E+02  0.37368619335E+03  0.45478026290E+03  0.00000000000E+00 0. -1.
         -2    1    5    5    0  503  0.51270745861E+02  0.14876849007E+02  0.37675214656E+02  0.65340889318E+02  0.00000000000E+00 0.  1.
         -1    1    6    6    0  502 -0.45703820600E+02  0.58738271842E+02  0.16556538654E+02  0.76243968736E+02  0.00000000000E+00 0.  1.
<mgrwt>
<rscale>  0 0.17244864E+04</rscale>
<asrwt>0</asrwt>
<pdfrwt beam="1">  1        4 0.15798230E+00 0.17244864E+04</pdfrwt>
<pdfrwt beam="2">  1       -4 0.11138442E+00 0.17244864E+04</pdfrwt>
<totfact> 0.31307718E-01</totfact>
</mgrwt>
</event>
<event>
12    1  0.2588309E-007  0.1202322E+04  0.7818608E-02  0.9110826E-01
         -2   -1    0    0    0  501 -0.00000000000E+00  0.00000000000E+00  0.31619394896E+03  0.31619394896E+03  0.00000000000E+00 0.  1.
          2   -1    0    0  501    0  0.00000000000E+00 -0.00000000000E+00 -0.11429523058E+04  0.11429523058E+04  0.00000000000E+00 0. -1.
         23    2    1    2    0    0 -0.18677570889E+03  0.16103923124E+03 -0.11734460918E+03  0.28836371411E+03  0.92547689775E+02 0.  0.
        254    2    1    2    0    0  0.18677570889E+03 -0.16103923124E+03 -0.70941374762E+03  0.11707825406E+04  0.89813422864E+03 0.  0.
        -24    2    4    4    0    0  0.20065731204E+01 -0.47417262867E+03 -0.16049919909E+03  0.50728525798E+03  0.82064803260E+02 0.  0.
         24    2    4    4    0    0  0.18476913577E+03  0.31313339743E+03 -0.54891454853E+03  0.66349728263E+03  0.82032337247E+02 0.  0.
         13    1    3    3    0    0 -0.12350326854E+03  0.59434247929E+02 -0.94572028932E+02  0.16652133744E+03  0.00000000000E+00 0. -1.
        -13    1    3    3    0    0 -0.63272440355E+02  0.10160498331E+03 -0.22772580245E+02  0.12184237667E+03  0.00000000000E+00 0.  1.
          4    1    6    6  502    0  0.18374155902E+03  0.28473868795E+03 -0.53096376624E+03  0.62988856315E+03  0.00000000000E+00 0. -1.
          3    1    5    5  503    0 -0.10060343744E+02 -0.45420111213E+03 -0.13784763180E+03  0.47476502648E+03  0.00000000000E+00 0. -1.
         -4    1    5    5    0  503  0.12066916864E+02 -0.19971516537E+02 -0.22651567295E+02  0.32520231492E+02  0.00000000000E+00 0.  1.
         -3    1    6    6    0  502  0.10275767523E+01  0.28394709484E+02 -0.17950782289E+02  0.33608719485E+02  0.00000000000E+00 0.  1.
<mgrwt>
<rscale>  0 0.12023221E+04</rscale>
<asrwt>0</asrwt>
<pdfrwt beam="1">  1        2 0.17583881E+00 0.12023221E+04</pdfrwt>
<pdfrwt beam="2">  1       -2 0.48645224E-01 0.12023221E+04</pdfrwt>
<totfact> 0.80933966E+01</totfact>
</mgrwt>
</event>
<event>
12    1  0.2588309E-007  0.1626208E+04  0.7818608E-02  0.8804607E-01
         -2   -1    0    0    0  501 -0.00000000000E+00  0.00000000000E+00  0.61885155442E+03  0.61885155442E+03  0.00000000000E+00 0.  1.
          2   -1    0    0  501    0  0.00000000000E+00 -0.00000000000E+00 -0.10683309886E+04  0.10683309886E+04  0.00000000000E+00 0. -1.
         23    2    1    2    0    0  0.11159123057E+03  0.52241147958E+03 -0.32913323913E+03  0.63413276416E+03  0.91811310577E+02 0.  0.
        254    2    1    2    0    0 -0.11159123057E+03 -0.52241147958E+03 -0.12034619509E+03  0.10530497789E+04  0.89948000169E+03 0.  0.
        -24    2    4    4    0    0  0.88041127473E+02  0.22740531529E+03  0.31316064683E+02  0.25834864536E+03  0.79365667007E+02 0.  0.
         24    2    4    4    0    0 -0.19963235804E+03 -0.74981679487E+03 -0.15166225978E+03  0.79470113355E+03  0.80437220043E+02 0.  0.
         11    1    3    3    0    0  0.58795874767E+02  0.15939584461E+03 -0.64147819844E+02  0.18160102687E+03  0.00000000000E+00 0.  1.
        -11    1    3    3    0    0  0.52795355803E+02  0.36301563497E+03 -0.26498541929E+03  0.45253173730E+03  0.00000000000E+00 0. -1.
          2    1    6    6  502    0 -0.14557864673E+03 -0.47396507462E+03 -0.13106906634E+03  0.51285001169E+03  0.00000000000E+00 0. -1.
          1    1    5    5  503    0  0.60526982920E+02  0.19648665069E+03  0.52011138977E+02  0.21207469943E+03  0.00000000000E+00 0. -1.
         -2    1    5    5    0  503  0.27514144553E+02  0.30918664601E+02 -0.20695074295E+02  0.46273945922E+02  0.00000000000E+00 0.  1.
         -1    1    6    6    0  502 -0.54053711312E+02 -0.27585172025E+03 -0.20593193434E+02  0.28185112185E+03  0.00000000000E+00 0.  1.
<mgrwt>
<rscale>  0 0.16262082E+04</rscale>
<asrwt>0</asrwt>
<pdfrwt beam="1">  1        2 0.16435861E+00 0.16262082E+04</pdfrwt>
<pdfrwt beam="2">  1       -2 0.95207932E-01 0.16262082E+04</pdfrwt>
<totfact> 0.20233279E+01</totfact>
</mgrwt>
</event>
<event>
12    1  0.2588309E-007  0.2767373E+04  0.7818608E-02  0.8313470E-01
          2   -1    0    0  501    0  0.00000000000E+00  0.00000000000E+00  0.27204236045E+04  0.27204236045E+04  0.00000000000E+00 0. -1.
         -2   -1    0    0    0  501 -0.00000000000E+00 -0.00000000000E+00 -0.70378303495E+03  0.70378303495E+03  0.00000000000E+00 0.  1.
         23    2    1    2    0    0 -0.23356829470E+03  0.11909351427E+04  0.11914722273E+04  0.17031702508E+04  0.91116256738E+02 0.  0.
        254    2    1    2    0    0  0.23356829470E+03 -0.11909351427E+04  0.82516834223E+03  0.17210363886E+04  0.89898987511E+03 0.  0.
        -24    2    4    4    0    0 -0.14392592182E+03 -0.22814718078E+02 -0.88704486436E+02  0.18834153247E+03  0.79805166559E+02 0.  0.
         24    2    4    4    0    0  0.37749421652E+03 -0.11681204246E+04  0.91387282866E+03  0.15326948562E+04  0.83562941392E+02 0.  0.
         11    1    3    3    0    0 -0.18858947768E+03  0.82617889927E+03  0.78440849690E+03  0.11547442378E+04  0.00000000000E+00 0.  1.
        -11    1    3    3    0    0 -0.44978817026E+02  0.36475624345E+03  0.40706373039E+03  0.54842601299E+03  0.00000000000E+00 0. -1.
          2    1    6    6  502    0  0.36119607967E+03 -0.11030416183E+04  0.88533812159E+03  0.14597900566E+04  0.00000000000E+00 0. -1.
          3    1    5    5  503    0 -0.13977602794E+03 -0.33635340345E+02 -0.97571424599E+02  0.17374940865E+03  0.00000000000E+00 0. -1.
         -4    1    5    5    0  503 -0.41498938773E+01  0.10820622267E+02  0.88669381637E+01  0.14592123829E+02  0.00000000000E+00 0.  1.
         -1    1    6    6    0  502  0.16298136851E+02 -0.65078806301E+02  0.28534707078E+02  0.72904799584E+02  0.00000000000E+00 0.  1.
<mgrwt>
<rscale>  0 0.27673727E+04</rscale>
<asrwt>0</asrwt>
<pdfrwt beam="1">  1        2 0.41852670E+00 0.27673727E+04</pdfrwt>
<pdfrwt beam="2">  1       -2 0.10827431E+00 0.27673727E+04</pdfrwt>
<totfact> 0.15373067E+00</totfact>
</mgrwt>
</event>
<event>
12    1  0.2588309E-007  0.1806247E+04  0.7818608E-02  0.8702984E-01
          2   -1    0    0  501    0  0.00000000000E+00  0.00000000000E+00  0.19690399053E+04  0.19690399053E+04  0.00000000000E+00 0. -1.
         -2   -1    0    0    0  501 -0.00000000000E+00 -0.00000000000E+00 -0.41422847725E+03  0.41422847725E+03  0.00000000000E+00 0.  1.
         23    2    1    2    0    0  0.47337731773E+03  0.46484006790E+03  0.41833395840E+03  0.78890163649E+03  0.84853506935E+02 0.  0.
        254    2    1    2    0    0 -0.47337731773E+03 -0.46484006790E+03  0.11364774696E+04  0.15943667460E+04  0.90014549279E+03 0.  0.
        -24    2    4    4    0    0 -0.34464563624E+03  0.14347885031E+03  0.79123550121E+03  0.87871262982E+03  0.81947985770E+02 0.  0.
         24    2    4    4    0    0 -0.12873168149E+03 -0.60831891821E+03  0.34524196839E+03  0.71565411618E+03  0.79655792024E+02 0.  0.
         13    1    3    3    0    0  0.19742590019E+03  0.20236397262E+03  0.12974153063E+03  0.31106434745E+03  0.00000000000E+00 0.  1.
        -13    1    3    3    0    0  0.27595141754E+03  0.26247609528E+03  0.28859242778E+03  0.47783728905E+03  0.00000000000E+00 0. -1.
          2    1    6    6  502    0 -0.12296732691E+03 -0.40025064903E+03  0.23250460857E+03  0.47893625729E+03  0.00000000000E+00 0. -1.
          1    1    5    5  503    0 -0.15249386121E+03  0.10601800216E+03  0.35845173532E+03  0.40371009529E+03  0.00000000000E+00 0. -1.
         -2    1    5    5    0  503 -0.19215177503E+03  0.37460848145E+02  0.43278376589E+03  0.47500253453E+03  0.00000000000E+00 0.  1.
         -1    1    6    6    0  502 -0.57643545846E+01 -0.20806826917E+03  0.11273735982E+03  0.23671785889E+03  0.00000000000E+00 0.  1.
<mgrwt>
<rscale>  0 0.18062474E+04</rscale>
<asrwt>0</asrwt>
<pdfrwt beam="1">  1        2 0.30292921E+00 0.18062474E+04</pdfrwt>
<pdfrwt beam="2">  1       -2 0.63727459E-01 0.18062474E+04</pdfrwt>
<totfact> 0.14940998E+01</totfact>
</mgrwt>
</event>
<event>
12    1  0.2588309E-007  0.1228112E+04  0.7818608E-02  0.9088600E-01
         -1   -1    0    0    0  501 -0.00000000000E+00  0.00000000000E+00  0.29076974192E+03  0.29076974192E+03  0.00000000000E+00 0.  1.
          1   -1    0    0  501    0  0.00000000000E+00 -0.00000000000E+00 -0.12967811429E+04  0.12967811429E+04  0.00000000000E+00 0. -1.
         23    2    1    2    0    0  0.99707305087E+02  0.11616841659E+03 -0.51178269537E+03  0.54227821866E+03  0.93313940319E+02 0.  0.
        254    2    1    2    0    0 -0.99707305087E+02 -0.11616841659E+03 -0.49422870556E+03  0.10452726661E+04  0.90823801144E+03 0.  0.
        -24    2    4    4    0    0 -0.28422979436E+03  0.17228525629E+03 -0.58920524284E+03  0.68106522232E+03  0.78855775433E+02 0.  0.
         24    2    4    4    0    0  0.18452248927E+03 -0.28845367288E+03  0.94976537282E+02  0.36420744380E+03  0.79827620792E+02 0.  0.
         13    1    3    3    0    0  0.82780875829E+02  0.11456138664E+03 -0.50424579700E+03  0.52368006312E+03  0.00000000000E+00 0. -1.
        -13    1    3    3    0    0  0.16926429258E+02  0.16070299474E+01 -0.75368983635E+01  0.18598155543E+02  0.00000000000E+00 0.  1.
          4    1    6    6  502    0  0.98778943332E+02 -0.21314115968E+03  0.43063216789E+02  0.23883231405E+03  0.00000000000E+00 0. -1.
          1    1    5    5  503    0 -0.20162940128E+03  0.16007314839E+03 -0.42623817392E+03  0.49795261743E+03  0.00000000000E+00 0. -1.
         -2    1    5    5    0  503 -0.82600393078E+02  0.12212107901E+02 -0.16296706892E+03  0.18311260489E+03  0.00000000000E+00 0.  1.
         -3    1    6    6    0  502  0.85743545939E+02 -0.75312513198E+02  0.51913320493E+02  0.12537512975E+03  0.00000000000E+00 0.  1.
<mgrwt>
<rscale>  0 0.12281119E+04</rscale>
<asrwt>0</asrwt>
<pdfrwt beam="1">  1        1 0.19950480E+00 0.12281119E+04</pdfrwt>
<pdfrwt beam="2">  1       -1 0.44733806E-01 0.12281119E+04</pdfrwt>
<totfact> 0.44464572E+01</totfact>
</mgrwt>
</event>
<event>
12    1  0.2588309E-007  0.1575401E+04  0.7818608E-02  0.8835804E-01
         -1   -1    0    0    0  501 -0.00000000000E+00  0.00000000000E+00  0.32691151198E+03  0.32691151198E+03  0.00000000000E+00 0.  1.
          1   -1    0    0  501    0  0.00000000000E+00 -0.00000000000E+00 -0.18979827796E+04  0.18979827796E+04  0.00000000000E+00 0. -1.
         23    2    1    2    0    0 -0.26113088747E+03  0.45077132019E+03 -0.62904667685E+03  0.82192255829E+03  0.92048067193E+02 0.  0.
        254    2    1    2    0    0  0.26113088747E+03 -0.45077132019E+03 -0.94202459077E+03  0.14029717333E+04  0.89974175812E+03 0.  0.
        -24    2    4    4    0    0  0.52838750808E+03 -0.33803642723E+03 -0.31343537268E+03  0.70546940293E+03  0.77352186721E+02 0.  0.
         24    2    4    4    0    0 -0.26725662061E+03 -0.11273489296E+03 -0.62858921809E+03  0.69750233037E+03  0.85145982958E+02 0.  0.
         11    1    3    3    0    0 -0.22986843572E+03  0.35626881730E+03 -0.45879562272E+03  0.62470824498E+03  0.00000000000E+00 0.  1.
        -11    1    3    3    0    0 -0.31262451751E+02  0.94502502895E+02 -0.17025105413E+03  0.19721431331E+03  0.00000000000E+00 0. -1.
          2    1    6    6  502    0 -0.23563687830E+03 -0.72441769452E+02 -0.56034598730E+03  0.61217658715E+03  0.00000000000E+00 0. -1.
          3    1    5    5  503    0  0.23435679345E+03 -0.19465501294E+03 -0.16078316199E+03  0.34447772915E+03  0.00000000000E+00 0. -1.
         -4    1    5    5    0  503  0.29403071463E+03 -0.14338141429E+03 -0.15265221068E+03  0.36099167378E+03  0.00000000000E+00 0.  1.
         -1    1    6    6    0  502 -0.31619742311E+02 -0.40293123507E+02 -0.68243230791E+02  0.85325743211E+02  0.00000000000E+00 0.  1.
<mgrwt>
<rscale>  0 0.15754014E+04</rscale>
<asrwt>0</asrwt>
<pdfrwt beam="1">  1        1 0.29199735E+00 0.15754014E+04</pdfrwt>
<pdfrwt beam="2">  1       -1 0.50294078E-01 0.15754014E+04</pdfrwt>
<totfact> 0.13341893E+01</totfact>
</mgrwt>
</event>
<event>
12    1  0.2588309E-007  0.1451177E+04  0.7818608E-02  0.8917585E-01
         -1   -1    0    0    0  501 -0.00000000000E+00  0.00000000000E+00  0.66158265125E+03  0.66158265125E+03  0.00000000000E+00 0.  1.
          1   -1    0    0  501    0  0.00000000000E+00 -0.00000000000E+00 -0.79578692152E+03  0.79578692152E+03  0.00000000000E+00 0. -1.
         23    2    1    2    0    0 -0.35350376915E+03  0.68105791495E+02  0.21241913653E+03  0.42791263539E+03  0.91564296123E+02 0.  0.
        254    2    1    2    0    0  0.35350376915E+03 -0.68105791495E+02 -0.34662340680E+03  0.10294569374E+04  0.90001693659E+03 0.  0.
        -24    2    4    4    0    0  0.50655446265E+03  0.27462328972E+03 -0.15786396917E+03  0.60166236085E+03  0.71142032699E+02 0.  0.
         24    2    4    4    0    0 -0.15305069350E+03 -0.34272908121E+03 -0.18875943763E+03  0.42779457653E+03  0.80562624864E+02 0.  0.
         13    1    3    3    0    0 -0.14382848748E+03  0.36967359344E+02  0.13949387615E+03  0.20374435195E+03  0.00000000000E+00 0.  1.
        -13    1    3    3    0    0 -0.20967528167E+03  0.31138432152E+02  0.72925260385E+02  0.22416828345E+03  0.00000000000E+00 0. -1.
          2    1    6    6  502    0 -0.48313124622E+02 -0.11584093264E+03 -0.10679910750E+03  0.16480087696E+03  0.00000000000E+00 0. -1.
          1    1    5    5  503    0  0.24403613749E+03  0.10813835678E+03 -0.43552553703E+02  0.27045215019E+03  0.00000000000E+00 0. -1.
         -2    1    5    5    0  503  0.26251832516E+03  0.16648493294E+03 -0.11431141547E+03  0.33121021066E+03  0.00000000000E+00 0.  1.
         -1    1    6    6    0  502 -0.10473756888E+03 -0.22688814857E+03 -0.81960330135E+02  0.26299369957E+03  0.00000000000E+00 0.  1.
<mgrwt>
<rscale>  0 0.14511772E+04</rscale>
<asrwt>0</asrwt>
<pdfrwt beam="1">  1        1 0.12242876E+00 0.14511772E+04</pdfrwt>
<pdfrwt beam="2">  1       -1 0.10178195E+00 0.14511772E+04</pdfrwt>
<totfact> 0.19824637E+01</totfact>
</mgrwt>
</event>
<event>
12    1  0.2588309E-007  0.1636307E+04  0.7818608E-02  0.8798549E-01
         -1   -1    0    0    0  501 -0.00000000000E+00  0.00000000000E+00  0.20303617427E+03  0.20303617427E+03  0.00000000000E+00 0.  1.
          1   -1    0    0  501    0  0.00000000000E+00 -0.00000000000E+00 -0.32968254662E+04  0.32968254662E+04  0.00000000000E+00 0. -1.
         23    2    1    2    0    0 -0.33314581250E+03  0.44738641920E+03 -0.12823570106E+04  0.14014063326E+04  0.91430115647E+02 0.  0.
        254    2    1    2    0    0  0.33314581250E+03 -0.44738641920E+03 -0.18114322813E+04  0.20984553078E+04  0.90060370235E+03 0.  0.
        -24    2    4    4    0    0 -0.12513267744E+03  0.50191112144E+02 -0.11086840522E+04  0.11196934395E+04  0.79722871117E+02 0.  0.
         24    2    4    4    0    0  0.45827848994E+03 -0.49757753135E+03 -0.70274822913E+03  0.97876186833E+03  0.80728850513E+02 0.  0.
         11    1    3    3    0    0 -0.24852202755E+03  0.32623446978E+03 -0.10346556162E+04  0.11129709662E+04  0.00000000000E+00 0. -1.
        -11    1    3    3    0    0 -0.84623784947E+02  0.12115194942E+03 -0.24770139437E+03  0.28843536642E+03  0.00000000000E+00 0.  1.
          4    1    6    6  502    0  0.30542711094E+03 -0.27845787122E+03 -0.40365942910E+03  0.57772436407E+03  0.00000000000E+00 0. -1.
          3    1    5    5  503    0 -0.11177917360E+03  0.13966236262E+02 -0.93551820665E+03  0.94227594386E+03  0.00000000000E+00 0. -1.
         -4    1    5    5    0  503 -0.13353503838E+02  0.36224875882E+02 -0.17316584556E+03  0.17741749566E+03  0.00000000000E+00 0.  1.
         -3    1    6    6    0  502  0.15285137900E+03 -0.21911966013E+03 -0.29908880003E+03  0.40103750425E+03  0.00000000000E+00 0.  1.
<mgrwt>
<rscale>  0 0.16363066E+04</rscale>
<asrwt>0</asrwt>
<pdfrwt beam="1">  1        1 0.50720392E+00 0.16363066E+04</pdfrwt>
<pdfrwt beam="2">  1       -1 0.31236335E-01 0.16363066E+04</pdfrwt>
<totfact> 0.32877933E+00</totfact>
</mgrwt>
</event>
<event>
12    1  0.2588309E-007  0.1874846E+04  0.7818608E-02  0.8667480E-01
         -2   -1    0    0    0  501 -0.00000000000E+00  0.00000000000E+00  0.57050929804E+03  0.57050929804E+03  0.00000000000E+00 0. -1.
          2   -1    0    0  501    0  0.00000000000E+00 -0.00000000000E+00 -0.15403108088E+04  0.15403108088E+04  0.00000000000E+00 0.  1.
         23    2    1    2    0    0 -0.55371967273E+03 -0.21235882040E+03  0.81944634953E+02  0.60560643142E+03  0.91337188495E+02 0.  0.
        254    2    1    2    0    0  0.55371967273E+03  0.21235882040E+03 -0.10517461457E+04  0.15052136754E+04  0.89877500469E+03 0.  0.
        -24    2    4    4    0    0  0.39125827434E+03  0.55773926045E+03 -0.63890271218E+03  0.93734400812E+03  0.79126443402E+02 0.  0.
         24    2    4    4    0    0  0.16246139840E+03 -0.34538044005E+03 -0.41284343350E+03  0.56786966727E+03  0.79717652264E+02 0.  0.
         13    1    3    3    0    0 -0.42665216096E+03 -0.12184172897E+03  0.69241586252E+02  0.44907891360E+03  0.00000000000E+00 0. -1.
        -13    1    3    3    0    0 -0.12706751177E+03 -0.90517091422E+02  0.12703048702E+02  0.15652751781E+03  0.00000000000E+00 0.  1.
          4    1    6    6  502    0  0.12190413514E+03 -0.19014516692E+03 -0.27871286148E+03  0.35874316972E+03  0.00000000000E+00 0. -1.
          1    1    5    5  503    0  0.13963209491E+03  0.23289772594E+03 -0.30065849985E+03  0.40513455322E+03  0.00000000000E+00 0. -1.
         -2    1    5    5    0  503  0.25162617943E+03  0.32484153451E+03 -0.33824421233E+03  0.53220945490E+03  0.00000000000E+00 0.  1.
         -3    1    6    6    0  502  0.40557263260E+02 -0.15523527313E+03 -0.13413057202E+03  0.20912649755E+03  0.00000000000E+00 0.  1.
<mgrwt>
<rscale>  0 0.18748457E+04</rscale>
<asrwt>0</asrwt>
<pdfrwt beam="1">  1        2 0.23697089E+00 0.18748457E+04</pdfrwt>
<pdfrwt beam="2">  1       -2 0.87770662E-01 0.18748457E+04</pdfrwt>
<totfact> 0.12657832E+01</totfact>
</mgrwt>
</event>
<event>
12    1  0.2588309E-007  0.3028771E+04  0.7818608E-02  0.8235563E-01
          2   -1    0    0  501    0  0.00000000000E+00  0.00000000000E+00  0.25866144830E+04  0.25866144830E+04  0.00000000000E+00 0. -1.
         -2   -1    0    0    0  501 -0.00000000000E+00 -0.00000000000E+00 -0.88662733638E+03  0.88662733638E+03  0.00000000000E+00 0.  1.
         23    2    1    2    0    0 -0.59018917886E+03  0.11027726858E+04  0.14425742222E+04  0.19108354037E+04  0.76424406267E+02 0.  0.
        254    2    1    2    0    0  0.59018917886E+03 -0.11027726858E+04  0.25741292438E+03  0.15624064157E+04  0.90023415322E+03 0.  0.
        -24    2    4    4    0    0  0.48441253048E+02 -0.65165422433E+03  0.48459258116E+03  0.81747821309E+03  0.80255068845E+02 0.  0.
         24    2    4    4    0    0  0.54174792582E+03 -0.45111846151E+03 -0.22717965678E+03  0.74492820259E+03  0.79427634440E+02 0.  0.
         11    1    3    3    0    0 -0.42068805320E+03  0.85511476233E+03  0.10982181681E+04  0.14540573715E+04  0.00000000000E+00 0. -1.
        -11    1    3    3    0    0 -0.16950112567E+03  0.24765792351E+03  0.34435605418E+03  0.45677803223E+03  0.00000000000E+00 0.  1.
          4    1    6    6  502    0  0.18372146123E+03 -0.18710150902E+03 -0.55032236161E+02  0.26793487457E+03  0.00000000000E+00 0. -1.
          3    1    5    5  503    0  0.18510477721E+02 -0.25854596140E+02  0.25586319025E+02  0.40813694372E+02  0.00000000000E+00 0. -1.
         -4    1    5    5    0  503  0.29930775326E+02 -0.62579962819E+03  0.45900626214E+03  0.77666451872E+03  0.00000000000E+00 0.  1.
         -3    1    6    6    0  502  0.35802646459E+03 -0.26401695249E+03 -0.17214742062E+03  0.47699332802E+03  0.00000000000E+00 0.  1.
<mgrwt>
<rscale>  0 0.30287708E+04</rscale>
<asrwt>0</asrwt>
<pdfrwt beam="1">  1        2 0.39794069E+00 0.30287708E+04</pdfrwt>
<pdfrwt beam="2">  1       -2 0.13640421E+00 0.30287708E+04</pdfrwt>
<totfact> 0.10164466E+00</totfact>
</mgrwt>
</event>
<event>
12    1  0.2588309E-007  0.1481300E+04  0.7818608E-02  0.8896985E-01
         -2   -1    0    0    0  501 -0.00000000000E+00  0.00000000000E+00  0.31103966231E+03  0.31103966231E+03  0.00000000000E+00 0.  1.
          2   -1    0    0  501    0  0.00000000000E+00 -0.00000000000E+00 -0.17636402021E+04  0.17636402021E+04  0.00000000000E+00 0. -1.
         23    2    1    2    0    0 -0.12421363687E+03  0.30350257315E+03 -0.93987457434E+03  0.10019955368E+04  0.11440280072E+03 0.  0.
        254    2    1    2    0    0  0.12421363687E+03 -0.30350257315E+03 -0.51272596545E+03  0.10726843276E+04  0.88330114430E+03 0.  0.
        -24    2    4    4    0    0 -0.22498361434E+03  0.18685645663E+03 -0.30515092208E+03  0.43130245174E+03  0.85858939664E+02 0.  0.
         24    2    4    4    0    0  0.34919725122E+03 -0.49035902978E+03 -0.20757504337E+03  0.64138187586E+03  0.76763361723E+02 0.  0.
         11    1    3    3    0    0 -0.12830779639E+03  0.16677222684E+03 -0.55722854394E+03  0.59563370996E+03  0.00000000000E+00 0.  1.
        -11    1    3    3    0    0  0.40941595157E+01  0.13673034631E+03 -0.38264603040E+03  0.40636182685E+03  0.00000000000E+00 0. -1.
          4    1    6    6  502    0  0.11030578288E+03 -0.21747357375E+03 -0.73003921830E+02  0.25454212544E+03  0.00000000000E+00 0. -1.
          1    1    5    5  503    0 -0.92272172342E+02  0.13233306135E+03 -0.16212013666E+03  0.22871189656E+03  0.00000000000E+00 0. -1.
         -2    1    5    5    0  503 -0.13271144200E+03  0.54523395279E+02 -0.14303078542E+03  0.20259055518E+03  0.00000000000E+00 0.  1.
         -3    1    6    6    0  502  0.23889146833E+03 -0.27288545603E+03 -0.13457112154E+03  0.38683975042E+03  0.00000000000E+00 0.  1.
<mgrwt>
<rscale>  0 0.14812995E+04</rscale>
<asrwt>0</asrwt>
<pdfrwt beam="1">  1        2 0.27132926E+00 0.14812995E+04</pdfrwt>
<pdfrwt beam="2">  1       -2 0.47852256E-01 0.14812995E+04</pdfrwt>
<totfact> 0.36187684E+01</totfact>
</mgrwt>
</event>
<event>
12    1  0.2588309E-007  0.2002432E+04  0.7818608E-02  0.8605484E-01
         -2   -1    0    0    0  501 -0.00000000000E+00  0.00000000000E+00  0.58442272796E+03  0.58442272796E+03  0.00000000000E+00 0.  1.
          2   -1    0    0  501    0  0.00000000000E+00 -0.00000000000E+00 -0.17152544383E+04  0.17152544383E+04  0.00000000000E+00 0. -1.
         23    2    1    2    0    0  0.37017683405E+03 -0.66166545774E+03 -0.73033996638E+03  0.10566301789E+04  0.90767846545E+02 0.  0.
        254    2    1    2    0    0 -0.37017683405E+03  0.66166545774E+03 -0.40049174394E+03  0.12430469874E+04  0.89996672683E+03 0.  0.
        -24    2    4    4    0    0 -0.59325939188E+03  0.27909496783E+03 -0.43501745677E+03  0.79071535458E+03  0.78357368232E+02 0.  0.
         24    2    4    4    0    0  0.22308255783E+03  0.38257048992E+03  0.34525712822E+02  0.45233163279E+03  0.85357330143E+02 0.  0.
         11    1    3    3    0    0  0.63096824385E+02 -0.17291330573E+03 -0.21292878827E+03  0.28145850391E+03  0.00000000000E+00 0. -1.
        -11    1    3    3    0    0  0.30708000966E+03 -0.48875215202E+03 -0.51741117810E+03  0.77517167496E+03  0.00000000000E+00 0.  1.
          4    1    6    6  502    0  0.19413452461E+03  0.34067497251E+03  0.57795392025E+02  0.39634323241E+03  0.00000000000E+00 0. -1.
          1    1    5    5  503    0 -0.58677059080E+03  0.26650296942E+03 -0.41622145808E+03  0.76717915842E+03  0.00000000000E+00 0. -1.
         -2    1    5    5    0  503 -0.64888010783E+01  0.12591998406E+02 -0.18795998686E+02  0.23536196164E+02  0.00000000000E+00 0.  1.
         -3    1    6    6    0  502  0.28948033219E+02  0.41895517407E+02 -0.23269679202E+02  0.55988400372E+02  0.00000000000E+00 0.  1.
<mgrwt>
<rscale>  0 0.20024322E+04</rscale>
<asrwt>0</asrwt>
<pdfrwt beam="1">  1        2 0.26388530E+00 0.20024322E+04</pdfrwt>
<pdfrwt beam="2">  1       -2 0.89911188E-01 0.20024322E+04</pdfrwt>
<totfact> 0.94619946E+00</totfact>
</mgrwt>
</event>
<event>
12    1  0.2588309E-007  0.3194876E+04  0.7818608E-02  0.8190172E-01
         -1   -1    0    0    0  501 -0.00000000000E+00  0.00000000000E+00  0.15529944795E+04  0.15529944795E+04  0.00000000000E+00 0.  1.
          1   -1    0    0  501    0  0.00000000000E+00 -0.00000000000E+00 -0.16431533231E+04  0.16431533231E+04  0.00000000000E+00 0. -1.
         23    2    1    2    0    0 -0.13714955845E+04  0.20949267986E+03  0.44163178540E+03  0.14588879056E+04  0.91803954600E+02 0.  0.
        254    2    1    2    0    0  0.13714955845E+04 -0.20949267986E+03 -0.53179062897E+03  0.17372598970E+04  0.90021295010E+03 0.  0.
        -24    2    4    4    0    0  0.75966977915E+03 -0.55432935079E+03 -0.24882487953E+03  0.97609343985E+03  0.80407587596E+02 0.  0.
         24    2    4    4    0    0  0.61182580533E+03  0.34483667092E+03 -0.28296574943E+03  0.76116645716E+03  0.77856370766E+02 0.  0.
         11    1    3    3    0    0 -0.88167285216E+03  0.15139357461E+03  0.32715559657E+03  0.95252181971E+03  0.00000000000E+00 0.  1.
        -11    1    3    3    0    0 -0.48982273233E+03  0.58099105253E+02  0.11447618883E+03  0.50636608590E+03  0.00000000000E+00 0. -1.
          2    1    6    6  502    0  0.22645738420E+03  0.15542706187E+03 -0.79092309474E+02  0.28582531700E+03  0.00000000000E+00 0. -1.
          1    1    5    5  503    0  0.52246898274E+03 -0.41077069763E+03 -0.14658536254E+03  0.68058333250E+03  0.00000000000E+00 0. -1.
         -2    1    5    5    0  503  0.23720079641E+03 -0.14355865315E+03 -0.10223951700E+03  0.29551010736E+03  0.00000000000E+00 0.  1.
         -1    1    6    6    0  502  0.38536842114E+03  0.18940960906E+03 -0.20387343996E+03  0.47534114016E+03  0.00000000000E+00 0.  1.
<mgrwt>
<rscale>  0 0.31948759E+04</rscale>
<asrwt>0</asrwt>
<pdfrwt beam="1">  1        1 0.25279282E+00 0.31948759E+04</pdfrwt>
<pdfrwt beam="2">  1       -1 0.23892223E+00 0.31948759E+04</pdfrwt>
<totfact> 0.35954580E-01</totfact>
</mgrwt>
</event>
<event>
12    1  0.2588309E-007  0.1266757E+04  0.7818608E-02  0.9056351E-01
         -2   -1    0    0    0  501 -0.00000000000E+00  0.00000000000E+00  0.19879431964E+03  0.19879431964E+03  0.00000000000E+00 0.  1.
          2   -1    0    0  501    0  0.00000000000E+00 -0.00000000000E+00 -0.20180071213E+04  0.20180071213E+04  0.00000000000E+00 0. -1.
         23    2    1    2    0    0 -0.35344194883E+02  0.29594633424E+03 -0.56303853142E+03  0.64362585322E+03  0.91697362019E+02 0.  0.
        254    2    1    2    0    0  0.35344194883E+02 -0.29594633424E+03 -0.12561742702E+04  0.15731755877E+04  0.89892946758E+03 0.  0.
        -24    2    4    4    0    0 -0.36070116783E+03  0.38273033239E+02 -0.28010708079E+03  0.46513118926E+03  0.79478858615E+02 0.  0.
         24    2    4    4    0    0  0.39604536271E+03 -0.33421936748E+03 -0.97606718942E+03  0.11080443984E+04  0.80627015895E+02 0.  0.
         13    1    3    3    0    0 -0.20675217774E+02  0.11759528111E+03 -0.32196586761E+03  0.34339210048E+03  0.00000000000E+00 0. -1.
        -13    1    3    3    0    0 -0.14668977109E+02  0.17835105313E+03 -0.24107266381E+03  0.30023375273E+03  0.00000000000E+00 0.  1.
          2    1    6    6  502    0  0.28629130925E+03 -0.19236489955E+03 -0.65600287157E+03  0.74115230273E+03  0.00000000000E+00 0. -1.
          3    1    5    5  503    0 -0.25607149550E+03 -0.89775740172E+01 -0.20197178858E+03  0.32626034241E+03  0.00000000000E+00 0. -1.
         -2    1    5    5    0  503 -0.10462967232E+03  0.47250607256E+02 -0.78135292204E+02  0.13887084685E+03  0.00000000000E+00 0.  1.
         -1    1    6    6    0  502  0.10975405346E+03 -0.14185446794E+03 -0.32006431785E+03  0.36689209570E+03  0.00000000000E+00 0.  1.
<mgrwt>
<rscale>  0 0.12667570E+04</rscale>
<asrwt>0</asrwt>
<pdfrwt beam="1">  1        2 0.31046265E+00 0.12667570E+04</pdfrwt>
<pdfrwt beam="2">  1       -2 0.30583740E-01 0.12667570E+04</pdfrwt>
<totfact> 0.63510961E+01</totfact>
</mgrwt>
</event>
<event>
12    1  0.2588309E-007  0.2986558E+04  0.7818608E-02  0.8247580E-01
          1   -1    0    0  501    0  0.00000000000E+00  0.00000000000E+00  0.13325111512E+04  0.13325111512E+04  0.00000000000E+00 0. -1.
         -1   -1    0    0    0  501 -0.00000000000E+00 -0.00000000000E+00 -0.16734436175E+04  0.16734436175E+04  0.00000000000E+00 0.  1.
         23    2    1    2    0    0 -0.15904266476E+03 -0.11443406038E+04 -0.87089774847E+03  0.14497584484E+04  0.92340043187E+02 0.  0.
        254    2    1    2    0    0  0.15904266476E+03  0.11443406038E+04  0.52996528218E+03  0.15561963204E+04  0.89781612845E+03 0.  0.
        -24    2    4    4    0    0  0.43168401593E+03  0.82330696103E+03  0.82803866154E+02  0.93658511068E+03  0.78420326525E+02 0.  0.
         24    2    4    4    0    0 -0.27264135117E+03  0.32103364278E+03  0.44716141603E+03  0.61961120970E+03  0.81048214280E+02 0.  0.
         11    1    3    3    0    0 -0.12505038293E+03 -0.92746026697E+03 -0.74887709153E+03  0.11985979490E+04  0.00000000000E+00 0.  1.
        -11    1    3    3    0    0 -0.33992281825E+02 -0.21688033684E+03 -0.12202065693E+03  0.25116049938E+03  0.00000000000E+00 0. -1.
          4    1    6    6  502    0 -0.14710336997E+03  0.23168924092E+03  0.27371110518E+03  0.38760427618E+03  0.00000000000E+00 0. -1.
          1    1    5    5  503    0  0.41400576814E+03  0.77504765621E+03  0.61158797192E+02  0.88081782675E+03  0.00000000000E+00 0. -1.
         -2    1    5    5    0  503  0.17678247789E+02  0.48259304817E+02  0.21645068962E+02  0.55767283927E+02  0.00000000000E+00 0.  1.
         -3    1    6    6    0  502 -0.12553798120E+03  0.89344401854E+02  0.17345031085E+03  0.23200693352E+03  0.00000000000E+00 0.  1.
<mgrwt>
<rscale>  0 0.29865581E+04</rscale>
<asrwt>0</asrwt>
<pdfrwt beam="1">  1        1 0.20500172E+00 0.29865581E+04</pdfrwt>
<pdfrwt beam="2">  1       -1 0.25745286E+00 0.29865581E+04</pdfrwt>
<totfact> 0.45542954E-01</totfact>
</mgrwt>
</event>
<event>
12    1  0.2588309E-007  0.1418841E+04  0.7818608E-02  0.8940292E-01
         -2   -1    0    0    0  501 -0.00000000000E+00  0.00000000000E+00  0.39242791882E+03  0.39242791882E+03  0.00000000000E+00 0.  1.
          2   -1    0    0  501    0  0.00000000000E+00 -0.00000000000E+00 -0.12824708073E+04  0.12824708073E+04  0.00000000000E+00 0. -1.
         23    2    1    2    0    0 -0.20602707231E+03  0.35260514540E+03 -0.36984331673E+03  0.55850276982E+03  0.91453386352E+02 0.  0.
        254    2    1    2    0    0  0.20602707231E+03 -0.35260514540E+03 -0.52019957179E+03  0.11163959563E+04  0.89941914242E+03 0.  0.
        -24    2    4    4    0    0  0.44005916252E+03  0.10951438331E+03 -0.19709884709E+03  0.50069105255E+03  0.78728063046E+02 0.  0.
         24    2    4    4    0    0 -0.23403209021E+03 -0.46211952871E+03 -0.32310072470E+03  0.61570490380E+03  0.79830897492E+02 0.  0.
         13    1    3    3    0    0 -0.14865509150E+03  0.29603258925E+03 -0.25417980718E+03  0.41754162009E+03  0.00000000000E+00 0.  1.
        -13    1    3    3    0    0 -0.57371980814E+02  0.56572556151E+02 -0.11566350955E+03  0.14096114973E+03  0.00000000000E+00 0. -1.
          4    1    6    6  502    0 -0.15146667665E+02 -0.98793110802E+02 -0.62461344726E+02  0.11785974660E+03  0.00000000000E+00 0. -1.
          3    1    5    5  503    0  0.57713023035E+02  0.36774489626E+02 -0.49414890166E+02  0.84409640950E+02  0.00000000000E+00 0. -1.
         -4    1    5    5    0  503  0.38234613948E+03  0.72739893680E+02 -0.14768395692E+03  0.41628141160E+03  0.00000000000E+00 0.  1.
         -3    1    6    6    0  502 -0.21888542254E+03 -0.36332641791E+03 -0.26063937998E+03  0.49784515720E+03  0.00000000000E+00 0.  1.
<mgrwt>
<rscale>  0 0.14188409E+04</rscale>
<asrwt>0</asrwt>
<pdfrwt beam="1">  1        2 0.19730320E+00 0.14188409E+04</pdfrwt>
<pdfrwt beam="2">  1       -2 0.60373527E-01 0.14188409E+04</pdfrwt>
<totfact> 0.42051564E+01</totfact>
</mgrwt>
</event>
<event>
12    1  0.2588309E-007  0.1637578E+04  0.7818608E-02  0.8797789E-01
          1   -1    0    0  501    0  0.00000000000E+00  0.00000000000E+00  0.11085931489E+04  0.11085931489E+04  0.00000000000E+00 0. -1.
         -1   -1    0    0    0  501 -0.00000000000E+00 -0.00000000000E+00 -0.60474433682E+03  0.60474433682E+03  0.00000000000E+00 0.  1.
         23    2    1    2    0    0 -0.30652310534E+03 -0.40236222580E+03 -0.90476156067E+02  0.52189396347E+03  0.91299503994E+02 0.  0.
        254    2    1    2    0    0  0.30652310534E+03  0.40236222580E+03  0.59432496813E+03  0.11914435222E+04  0.90025758762E+03 0.  0.
        -24    2    4    4    0    0  0.39834622139E+03 -0.13262713526E+03  0.71034728356E+02  0.43332915987E+03  0.80365160714E+02 0.  0.
         24    2    4    4    0    0 -0.91823116047E+02  0.53498936106E+03  0.52329023977E+03  0.75811436237E+03  0.79117699034E+02 0.  0.
         11    1    3    3    0    0 -0.11167038749E+03 -0.20009116743E+03 -0.73009186265E+02  0.24049343443E+03  0.00000000000E+00 0.  1.
        -11    1    3    3    0    0 -0.19485271785E+03 -0.20227105837E+03 -0.17466969803E+02  0.28140052904E+03  0.00000000000E+00 0. -1.
          4    1    6    6  502    0 -0.99887195449E+02  0.51910970056E+03  0.51645268888E+03  0.73903701726E+03  0.00000000000E+00 0. -1.
          1    1    5    5  503    0  0.34132951183E+03 -0.12937654300E+03  0.84444728133E+02  0.37466656861E+03  0.00000000000E+00 0. -1.
         -4    1    5    5    0  503  0.57016709560E+02 -0.32505922589E+01 -0.13409999776E+02  0.58662591258E+02  0.00000000000E+00 0.  1.
         -3    1    6    6    0  502  0.80640794015E+01  0.15879660498E+02  0.68375508938E+01  0.19077345107E+02  0.00000000000E+00 0.  1.
<mgrwt>
<rscale>  0 0.16375780E+04</rscale>
<asrwt>0</asrwt>
<pdfrwt beam="1">  1        1 0.17055279E+00 0.16375780E+04</pdfrwt>
<pdfrwt beam="2">  1       -1 0.93037591E-01 0.16375780E+04</pdfrwt>
<totfact> 0.13409252E+01</totfact>
</mgrwt>
</event>
<event>
12    1  0.3358610E-007  0.3457830E+04  0.7818608E-02  0.8123857E-01
          2   -1    0    0  501    0  0.00000000000E+00  0.00000000000E+00  0.35940156601E+04  0.35940156601E+04  0.00000000000E+00 0. -1.
         -2   -1    0    0    0  501 -0.00000000000E+00 -0.00000000000E+00 -0.83170120560E+03  0.83170120560E+03  0.00000000000E+00 0.  1.
         23    2    1    2    0    0  0.74272609209E+03  0.13701384962E+04  0.76792416564E+03  0.17399211187E+04  0.93254642717E+02 0.  0.
        254    2    1    2    0    0 -0.74272609209E+03 -0.13701384962E+04  0.19943902888E+04  0.26857957470E+04  0.89832322906E+03 0.  0.
        -24    2    4    4    0    0 -0.80645746764E+03 -0.71091387707E+03  0.15355845868E+04  0.18762190195E+04  0.80034980961E+02 0.  0.
         24    2    4    4    0    0  0.63731375548E+02 -0.65922461913E+03  0.45880570204E+03  0.80957672752E+03  0.79202391605E+02 0.  0.
         13    1    3    3    0    0  0.20865394752E+03  0.45015614806E+03  0.27828662179E+03  0.56887649918E+03  0.00000000000E+00 0. -1.
        -13    1    3    3    0    0  0.53407214457E+03  0.91998234813E+03  0.48963754385E+03  0.11710446195E+04  0.00000000000E+00 0.  1.
          2    1    6    6  502    0  0.55280717021E+01 -0.44303416549E+03  0.29964025483E+03  0.53487766236E+03  0.00000000000E+00 0. -1.
          3    1    5    5  503    0 -0.55670089201E+03 -0.45720509237E+03  0.10756626697E+04  0.12946051748E+04  0.00000000000E+00 0. -1.
         -4    1    5    5    0  503 -0.24975657563E+03 -0.25370878470E+03  0.45992191712E+03  0.58161384470E+03  0.00000000000E+00 0.  1.
         -1    1    6    6    0  502  0.58203303846E+02 -0.21619045363E+03  0.15916544720E+03  0.27469906517E+03  0.00000000000E+00 0.  1.
<mgrwt>
<rscale>  0 0.34578300E+04</rscale>
<asrwt>0</asrwt>
<pdfrwt beam="1">  1        2 0.55292548E+00 0.34578300E+04</pdfrwt>
<pdfrwt beam="2">  1       -2 0.12795403E+00 0.34578300E+04</pdfrwt>
<totfact> 0.25946052E-01</totfact>
</mgrwt>
</event>
<event>
12    1  0.2588309E-007  0.1324362E+04  0.7818608E-02  0.9010466E-01
         -2   -1    0    0    0  501 -0.00000000000E+00  0.00000000000E+00  0.16450102890E+03  0.16450102890E+03  0.00000000000E+00 0.  1.
          2   -1    0    0  501    0  0.00000000000E+00 -0.00000000000E+00 -0.26655366576E+04  0.26655366576E+04  0.00000000000E+00 0. -1.
         23    2    1    2    0    0 -0.22737179721E+03 -0.21888497360E+03 -0.36655181711E+03  0.49235839947E+03  0.91912964616E+02 0.  0.
        254    2    1    2    0    0  0.22737179721E+03  0.21888497360E+03 -0.21344838116E+04  0.23376792870E+04  0.89950805515E+03 0.  0.
        -24    2    4    4    0    0  0.52360148449E+03  0.79344440440E+01 -0.85977074424E+03  0.10098557015E+04  0.79883259607E+02 0.  0.
         24    2    4    4    0    0 -0.29622968728E+03  0.21095052956E+03 -0.12747130674E+04  0.13278235856E+04  0.77265236634E+02 0.  0.
         11    1    3    3    0    0 -0.82793443415E+02 -0.13150307830E+03 -0.13576181844E+03  0.20634700197E+03  0.00000000000E+00 0.  1.
        -11    1    3    3    0    0 -0.14457835379E+03 -0.87381895297E+02 -0.23078999868E+03  0.28601139750E+03  0.00000000000E+00 0. -1.
          4    1    6    6  502    0 -0.89137755210E+02  0.56290315185E+02 -0.25657456765E+03  0.27738898276E+03  0.00000000000E+00 0. -1.
          3    1    5    5  503    0  0.51150238609E+03  0.20586337386E+02 -0.83696128729E+03  0.98110279006E+03  0.00000000000E+00 0. -1.
         -4    1    5    5    0  503  0.12099098403E+02 -0.12651893342E+02 -0.22809456950E+02  0.28752911394E+02  0.00000000000E+00 0.  1.
         -3    1    6    6    0  502 -0.20709193207E+03  0.15466021437E+03 -0.10181384997E+04  0.10504346028E+04  0.00000000000E+00 0.  1.
<mgrwt>
<rscale>  0 0.13243618E+04</rscale>
<asrwt>0</asrwt>
<pdfrwt beam="1">  1        2 0.41008254E+00 0.13243618E+04</pdfrwt>
<pdfrwt beam="2">  1       -2 0.25307852E-01 0.13243618E+04</pdfrwt>
<totfact> 0.38460884E+01</totfact>
</mgrwt>
</event>
<event>
12    1  0.2588309E-007  0.2408526E+04  0.7818608E-02  0.8436318E-01
          1   -1    0    0  501    0  0.00000000000E+00  0.00000000000E+00  0.30728198556E+04  0.30728198556E+04  0.00000000000E+00 0. -1.
         -1   -1    0    0    0  501 -0.00000000000E+00 -0.00000000000E+00 -0.47196057320E+03  0.47196057320E+03  0.00000000000E+00 0.  1.
         23    2    1    2    0    0 -0.53816953066E+03  0.81173287749E+03  0.61219312198E+03  0.11539767708E+04  0.91352399338E+02 0.  0.
        254    2    1    2    0    0  0.53816953066E+03 -0.81173287749E+03  0.19886661604E+04  0.23908036580E+04  0.90145012357E+03 0.  0.
        -24    2    4    4    0    0  0.50089805081E+03 -0.63979598695E+03  0.66484487607E+03  0.10529545240E+04  0.80353955432E+02 0.  0.
         24    2    4    4    0    0  0.37271479849E+02 -0.17193689054E+03  0.13238212843E+04  0.13378491340E+04  0.79912795364E+02 0.  0.
         11    1    3    3    0    0 -0.47565008849E+03  0.72699195685E+03  0.57708715608E+03  0.10429716668E+04  0.00000000000E+00 0. -1.
        -11    1    3    3    0    0 -0.62519442169E+02  0.84740920643E+02  0.35105965903E+02  0.11100510404E+03  0.00000000000E+00 0.  1.
          4    1    6    6  502    0  0.27177520973E+02 -0.16640178978E+03  0.10225040306E+04  0.10363120504E+04  0.00000000000E+00 0. -1.
          1    1    5    5  503    0  0.35772260994E+03 -0.41410082093E+03  0.41134269706E+03  0.68457853457E+03  0.00000000000E+00 0. -1.
         -2    1    5    5    0  503  0.14317544087E+03 -0.22569516602E+03  0.25350217900E+03  0.36837598943E+03  0.00000000000E+00 0.  1.
         -3    1    6    6    0  502  0.10093958877E+02 -0.55351007639E+01  0.30131725375E+03  0.30153708355E+03  0.00000000000E+00 0.  1.
<mgrwt>
<rscale>  0 0.24085264E+04</rscale>
<asrwt>0</asrwt>
<pdfrwt beam="1">  1        1 0.47274150E+00 0.24085264E+04</pdfrwt>
<pdfrwt beam="2">  1       -1 0.72609321E-01 0.24085264E+04</pdfrwt>
<totfact> 0.90566758E-01</totfact>
</mgrwt>
</event>
<event>
12    1  0.2919224E-007  0.4405833E+04  0.7818608E-02  0.7927333E-01
          2   -1    0    0  501    0  0.00000000000E+00  0.00000000000E+00  0.28872109586E+04  0.28872109586E+04  0.00000000000E+00 0. -1.
         -2   -1    0    0    0  501 -0.00000000000E+00 -0.00000000000E+00 -0.16808060341E+04  0.16808060341E+04  0.00000000000E+00 0.  1.
         23    2    1    2    0    0 -0.20994258765E+03  0.12092712297E+04  0.23566432570E+04  0.26586130581E+04  0.89683637388E+02 0.  0.
        254    2    1    2    0    0  0.20994258765E+03 -0.12092712297E+04 -0.11502383325E+04  0.19094039347E+04  0.90352773456E+03 0.  0.
        -24    2    4    4    0    0 -0.17345252487E+02 -0.18377788286E+02 -0.54591880690E+03  0.55234326170E+03  0.80107016758E+02 0.  0.
         24    2    4    4    0    0  0.22728784014E+03 -0.11908934414E+04 -0.60431952558E+03  0.13570606730E+04  0.80775181860E+02 0.  0.
         13    1    3    3    0    0 -0.83716092902E+02  0.73411759959E+03  0.13966411770E+04  0.15800454460E+04  0.00000000000E+00 0. -1.
        -13    1    3    3    0    0 -0.12622649475E+03  0.47515363014E+03  0.96000208000E+03  0.10785676121E+04  0.00000000000E+00 0.  1.
          2    1    6    6  502    0  0.16730299247E+03 -0.10220225018E+04 -0.52471376506E+03  0.11609671919E+04  0.00000000000E+00 0. -1.
          3    1    5    5  503    0 -0.21517685520E+02  0.13549772546E+02 -0.45814005578E+03  0.45884520030E+03  0.00000000000E+00 0. -1.
         -4    1    5    5    0  503  0.41724330326E+01 -0.31927560832E+02 -0.87778751124E+02  0.93498061408E+02  0.00000000000E+00 0.  1.
         -1    1    6    6    0  502  0.59984847664E+02 -0.16887093962E+03 -0.79605760522E+02  0.19609348104E+03  0.00000000000E+00 0.  1.
<mgrwt>
<rscale>  0 0.44058332E+04</rscale>
<asrwt>0</asrwt>
<pdfrwt beam="1">  1        2 0.44418630E+00 0.44058332E+04</pdfrwt>
<pdfrwt beam="2">  1       -2 0.25858554E+00 0.44058332E+04</pdfrwt>
<totfact> 0.88869220E-02</totfact>
</mgrwt>
</event>
<event>
12    1  0.2588309E-007  0.2348353E+04  0.7818608E-02  0.8459097E-01
         -2   -1    0    0    0  501 -0.00000000000E+00  0.00000000000E+00  0.96756911701E+03  0.96756911701E+03  0.00000000000E+00 0. -1.
          2   -1    0    0  501    0  0.00000000000E+00 -0.00000000000E+00 -0.14249009842E+04  0.14249009842E+04  0.00000000000E+00 0.  1.
         23    2    1    2    0    0  0.38318099716E+03 -0.83583433009E+03  0.20301973102E+03  0.94644942160E+03  0.95408555858E+02 0.  0.
        254    2    1    2    0    0 -0.38318099716E+03  0.83583433009E+03 -0.66035159825E+03  0.14460206797E+04  0.89970265574E+03 0.  0.
        -24    2    4    4    0    0 -0.86062031012E+02  0.56694365929E+02 -0.59130280440E+03  0.60551178255E+03  0.79903617017E+02 0.  0.
         24    2    4    4    0    0 -0.29711896615E+03  0.77913996416E+03 -0.69048793858E+02  0.84050889710E+03  0.79678769954E+02 0.  0.
         11    1    3    3    0    0  0.36747121616E+02 -0.16874174166E+03  0.34600016923E+02  0.17612861067E+03  0.00000000000E+00 0. -1.
        -11    1    3    3    0    0  0.34643387555E+03 -0.66709258843E+03  0.16841971409E+03  0.77032081094E+03  0.00000000000E+00 0.  1.
          4    1    6    6  502    0 -0.82697521635E+02  0.22747847531E+03 -0.56293544825E+02  0.24850412472E+03  0.00000000000E+00 0. -1.
          3    1    5    5  503    0 -0.72477604344E+02  0.25827237943E+02 -0.22769995266E+03  0.24034832596E+03  0.00000000000E+00 0. -1.
         -4    1    5    5    0  503 -0.13584426668E+02  0.30867127986E+02 -0.36360285174E+03  0.36516345660E+03  0.00000000000E+00 0.  1.
         -3    1    6    6    0  502 -0.21442144452E+03  0.55166148885E+03 -0.12755249033E+02  0.59200477239E+03  0.00000000000E+00 0.  1.
<mgrwt>
<rscale>  0 0.23483528E+04</rscale>
<asrwt>0</asrwt>
<pdfrwt beam="1">  1        2 0.21921554E+00 0.23483528E+04</pdfrwt>
<pdfrwt beam="2">  1       -2 0.14885679E+00 0.23483528E+04</pdfrwt>
<totfact> 0.38672249E+00</totfact>
</mgrwt>
</event>
<event>
12    1  0.2588309E-007  0.2764920E+04  0.7818608E-02  0.8314243E-01
          1   -1    0    0  501    0  0.00000000000E+00  0.00000000000E+00  0.88191825431E+03  0.88191825431E+03  0.00000000000E+00 0. -1.
         -1   -1    0    0    0  501 -0.00000000000E+00 -0.00000000000E+00 -0.21670891796E+04  0.21670891796E+04  0.00000000000E+00 0.  1.
         23    2    1    2    0    0  0.90355193219E+03 -0.27444562671E+03  0.30329616749E+03  0.99569738022E+03  0.87739452786E+02 0.  0.
        254    2    1    2    0    0 -0.90355193219E+03  0.27444562671E+03 -0.15884670928E+04  0.20533100537E+04  0.89505752638E+03 0.  0.
        -24    2    4    4    0    0 -0.78656453863E+03  0.12510002171E+02 -0.15668181560E+04  0.17550704197E+04  0.80701738651E+02 0.  0.
         24    2    4    4    0    0 -0.11698739356E+03  0.26193562453E+03 -0.21648936776E+02  0.29823963396E+03  0.78624939748E+02 0.  0.
         11    1    3    3    0    0  0.30172858800E+03 -0.11602790836E+03  0.14016299705E+03  0.35234682073E+03  0.00000000000E+00 0. -1.
        -11    1    3    3    0    0  0.60182334419E+03 -0.15841771835E+03  0.16313317044E+03  0.64335055949E+03  0.00000000000E+00 0.  1.
          4    1    6    6  502    0 -0.11893992149E+03  0.24241148584E+03 -0.38024239016E+02  0.27268273899E+03  0.00000000000E+00 0. -1.
          3    1    5    5  503    0 -0.71515031636E+03  0.13398551699E+02 -0.14697450835E+04  0.16345550180E+04  0.00000000000E+00 0. -1.
         -4    1    5    5    0  503 -0.71414222272E+02 -0.88854952760E+00 -0.97073072473E+02  0.12051540176E+03  0.00000000000E+00 0.  1.
         -3    1    6    6    0  502  0.19525279314E+01  0.19524138693E+02  0.16375302240E+02  0.25556894970E+02  0.00000000000E+00 0.  1.
<mgrwt>
<rscale>  0 0.27649199E+04</rscale>
<asrwt>0</asrwt>
<pdfrwt beam="1">  1        1 0.13567973E+00 0.27649199E+04</pdfrwt>
<pdfrwt beam="2">  1       -1 0.33339834E+00 0.27649199E+04</pdfrwt>
<totfact> 0.32699845E-01</totfact>
</mgrwt>
</event>
<event>
12    1  0.2588309E-007  0.1642914E+04  0.7818608E-02  0.8794610E-01
          2   -1    0    0  501    0  0.00000000000E+00  0.00000000000E+00  0.14378312947E+04  0.14378312947E+04  0.00000000000E+00 0. -1.
         -2   -1    0    0    0  501 -0.00000000000E+00 -0.00000000000E+00 -0.46931184708E+03  0.46931184708E+03  0.00000000000E+00 0.  1.
         23    2    1    2    0    0 -0.43053670569E+03 -0.20546431647E+03 -0.35796995278E+02  0.48698177624E+03  0.91062534717E+02 0.  0.
        254    2    1    2    0    0  0.43053670569E+03  0.20546431647E+03  0.10043164429E+04  0.14201613655E+04  0.88353231201E+03 0.  0.
        -24    2    4    4    0    0 -0.16948731851E+03 -0.96097222069E+02  0.35936479822E+01  0.21247098396E+03  0.84678081549E+02 0.  0.
         24    2    4    4    0    0  0.60002402420E+03  0.30156153854E+03  0.10007227949E+04  0.12076903815E+04  0.78113726806E+02 0.  0.
         13    1    3    3    0    0 -0.38980892647E+03 -0.18591988569E+03 -0.59517632304E+02  0.43595819937E+03  0.00000000000E+00 0.  1.
        -13    1    3    3    0    0 -0.40727779222E+02 -0.19544430787E+02  0.23720637026E+02  0.51023576865E+02  0.00000000000E+00 0. -1.
          2    1    6    6  502    0  0.54457745008E+02  0.20728498652E+02  0.53596246734E+02  0.79169907867E+02  0.00000000000E+00 0. -1.
          3    1    5    5  503    0  0.34550727423E+01  0.82822010092E+01 -0.50283573765E+01  0.10286727328E+02  0.00000000000E+00 0. -1.
         -4    1    5    5    0  503 -0.17294239125E+03 -0.10437942308E+03  0.86220053586E+01  0.20218425663E+03  0.00000000000E+00 0.  1.
         -1    1    6    6    0  502  0.54556627919E+03  0.28083303989E+03  0.94712654815E+03  0.11285204737E+04  0.00000000000E+00 0.  1.
<mgrwt>
<rscale>  0 0.16429136E+04</rscale>
<asrwt>0</asrwt>
<pdfrwt beam="1">  1        2 0.22120481E+00 0.16429136E+04</pdfrwt>
<pdfrwt beam="2">  1       -2 0.72201823E-01 0.16429136E+04</pdfrwt>
<totfact> 0.22854249E+01</totfact>
</mgrwt>
</event>
<event>
12    1  0.2588309E-007  0.2468230E+04  0.7818608E-02  0.8414392E-01
         -1   -1    0    0    0  501 -0.00000000000E+00  0.00000000000E+00  0.76850969281E+03  0.76850969281E+03  0.00000000000E+00 0.  1.
          1   -1    0    0  501    0  0.00000000000E+00 -0.00000000000E+00 -0.19818096336E+04  0.19818096336E+04  0.00000000000E+00 0. -1.
         23    2    1    2    0    0 -0.47716763062E+03  0.92451552567E+03 -0.79340889063E+03  0.13114004505E+04  0.88631647940E+02 0.  0.
        254    2    1    2    0    0  0.47716763062E+03 -0.92451552567E+03 -0.41989105017E+03  0.14389188759E+04  0.90097787568E+03 0.  0.
        -24    2    4    4    0    0  0.73556952006E+03 -0.59514012615E+03 -0.31013762246E+03  0.99890610082E+03  0.79835861557E+02 0.  0.
         24    2    4    4    0    0 -0.25840188944E+03 -0.32937539951E+03 -0.10975342770E+03  0.44001277507E+03  0.79408671191E+02 0.  0.
         13    1    3    3    0    0 -0.43229085390E+03  0.88244598484E+03 -0.74555447158E+03  0.12334657549E+04  0.00000000000E+00 0.  1.
        -13    1    3    3    0    0 -0.44876776717E+02  0.42069540830E+02 -0.47854419052E+02  0.77934695592E+02  0.00000000000E+00 0. -1.
          2    1    6    6  502    0 -0.19684669382E+03 -0.18930828829E+03 -0.69440051491E+02  0.28179455218E+03  0.00000000000E+00 0. -1.
          1    1    5    5  503    0  0.40790209423E+03 -0.37801683280E+03 -0.16861733084E+03  0.58113049190E+03  0.00000000000E+00 0. -1.
         -2    1    5    5    0  503  0.32766742583E+03 -0.21712329335E+03 -0.14152029162E+03  0.41777560892E+03  0.00000000000E+00 0.  1.
         -1    1    6    6    0  502 -0.61555195615E+02 -0.14006711122E+03 -0.40313376213E+02  0.15821822289E+03  0.00000000000E+00 0.  1.
<mgrwt>
<rscale>  0 0.24682301E+04</rscale>
<asrwt>0</asrwt>
<pdfrwt beam="1">  1        1 0.30489378E+00 0.24682301E+04</pdfrwt>
<pdfrwt beam="2">  1       -1 0.11823226E+00 0.24682301E+04</pdfrwt>
<totfact> 0.17531169E+00</totfact>
</mgrwt>
</event>
<event>
12    1  0.2588309E-007  0.2564812E+04  0.7818608E-02  0.8380253E-01
          1   -1    0    0  501    0  0.00000000000E+00  0.00000000000E+00  0.23255510722E+04  0.23255510722E+04  0.00000000000E+00 0. -1.
         -1   -1    0    0    0  501 -0.00000000000E+00 -0.00000000000E+00 -0.70717232973E+03  0.70717232973E+03  0.00000000000E+00 0.  1.
         23    2    1    2    0    0 -0.10965869563E+04 -0.10195473041E+03  0.45602863328E+03  0.11956316030E+04  0.93140195851E+02 0.  0.
        254    2    1    2    0    0  0.10965869563E+04  0.10195473041E+03  0.11623501092E+04  0.18370917989E+04  0.90052805708E+03 0.  0.
        -24    2    4    4    0    0  0.78467710390E+03 -0.34428311076E+03  0.81840474792E+03  0.11883428805E+04  0.90130197393E+02 0.  0.
         24    2    4    4    0    0  0.31190985236E+03  0.44623784117E+03  0.34394536126E+03  0.64874891840E+03  0.78490640861E+02 0.  0.
         13    1    3    3    0    0 -0.85119731115E+03 -0.11393895316E+03  0.37305231202E+03  0.93631563858E+03  0.00000000000E+00 0. -1.
        -13    1    3    3    0    0 -0.24538964511E+03  0.11984222755E+02  0.82976321268E+02  0.25931596444E+03  0.00000000000E+00 0.  1.
          4    1    6    6  502    0  0.31590802337E+03  0.44077996814E+03  0.33460932969E+03  0.63721916407E+03  0.00000000000E+00 0. -1.
          3    1    5    5  503    0  0.35864521108E+03 -0.12489242232E+03  0.31596993142E+03  0.49402581122E+03  0.00000000000E+00 0. -1.
         -4    1    5    5    0  503  0.42603189282E+03 -0.21939068844E+03  0.50243481649E+03  0.69431706928E+03  0.00000000000E+00 0.  1.
         -3    1    6    6    0  502 -0.39981710076E+01  0.54578730251E+01  0.93360315746E+01  0.11529754331E+02  0.00000000000E+00 0.  1.
<mgrwt>
<rscale>  0 0.25648122E+04</rscale>
<asrwt>0</asrwt>
<pdfrwt beam="1">  1        1 0.35777708E+00 0.25648122E+04</pdfrwt>
<pdfrwt beam="2">  1       -1 0.10879574E+00 0.25648122E+04</pdfrwt>
<totfact> 0.12365548E+00</totfact>
</mgrwt>
</event>
<event>
12    1  0.2588309E-007  0.2286129E+04  0.7818608E-02  0.8483410E-01
         -4   -1    0    0    0  501 -0.00000000000E+00  0.00000000000E+00  0.10239582942E+04  0.10239582942E+04  0.00000000000E+00 0.  1.
          4   -1    0    0  501    0  0.00000000000E+00 -0.00000000000E+00 -0.12760249374E+04  0.12760249374E+04  0.00000000000E+00 0. -1.
         23    2    1    2    0    0 -0.70710640610E+03 -0.44198170245E+03  0.37977205220E+03  0.92078623718E+03  0.90957067345E+02 0.  0.
        254    2    1    2    0    0  0.70710640610E+03  0.44198170245E+03 -0.63183869544E+03  0.13791969944E+04  0.89867509005E+03 0.  0.
        -24    2    4    4    0    0  0.77855732175E+03  0.23076020397E+03 -0.13239041965E+03  0.82675787958E+03  0.81237880654E+02 0.  0.
         24    2    4    4    0    0 -0.71450915645E+02  0.21122149848E+03 -0.49944827579E+03  0.55243911483E+03  0.77592787254E+02 0.  0.
         13    1    3    3    0    0 -0.25782868543E+03 -0.11308129606E+03  0.14238591620E+03  0.31549446854E+03  0.00000000000E+00 0.  1.
        -13    1    3    3    0    0 -0.44927772067E+03 -0.32890040640E+03  0.23738613601E+03  0.60529176864E+03  0.00000000000E+00 0. -1.
          4    1    6    6  502    0 -0.79950711189E+01  0.76535273428E+02 -0.10024182043E+03  0.12637243293E+03  0.00000000000E+00 0. -1.
          1    1    5    5  503    0  0.41605679590E+03  0.11556455037E+03 -0.11071983845E+03  0.44577719249E+03  0.00000000000E+00 0. -1.
         -2    1    5    5    0  503  0.36250052585E+03  0.11519565359E+03 -0.21670581195E+02  0.38098068709E+03  0.00000000000E+00 0.  1.
         -3    1    6    6    0  502 -0.63455844526E+02  0.13468622505E+03 -0.39920645536E+03  0.42606668190E+03  0.00000000000E+00 0.  1.
<mgrwt>
<rscale>  0 0.22861289E+04</rscale>
<asrwt>0</asrwt>
<pdfrwt beam="1">  1        4 0.19631153E+00 0.22861289E+04</pdfrwt>
<pdfrwt beam="2">  1       -4 0.15753205E+00 0.22861289E+04</pdfrwt>
<totfact> 0.65898372E-02</totfact>
</mgrwt>
</event>
<event>
12    1  0.2588309E-007  0.5663297E+04  0.7818608E-02  0.7733611E-01
         -2   -1    0    0    0  501 -0.00000000000E+00  0.00000000000E+00  0.40222702715E+04  0.40222702715E+04  0.00000000000E+00 0.  1.
          2   -1    0    0  501    0  0.00000000000E+00 -0.00000000000E+00 -0.19934597434E+04  0.19934597434E+04  0.00000000000E+00 0. -1.
         23    2    1    2    0    0 -0.20651914444E+04  0.77007290283E+02  0.29307332642E+04  0.35871798984E+04  0.87842659838E+02 0.  0.
        254    2    1    2    0    0  0.20651914444E+04 -0.77007290283E+02 -0.90192273605E+03  0.24285501165E+04  0.90191198104E+03 0.  0.
        -24    2    4    4    0    0  0.14188361648E+04  0.20703532149E+03 -0.94107120357E+03  0.17169815437E+04  0.80317644881E+02 0.  0.
         24    2    4    4    0    0  0.64635527959E+03 -0.28404261177E+03  0.39148467528E+02  0.71156857282E+03  0.79635912447E+02 0.  0.
         13    1    3    3    0    0 -0.76507294151E+03 -0.13645479273E+02  0.10923466763E+04  0.13336956423E+04  0.00000000000E+00 0. -1.
        -13    1    3    3    0    0 -0.13001185029E+04  0.90652769556E+02  0.18383865879E+04  0.22534842562E+04  0.00000000000E+00 0.  1.
          4    1    6    6  502    0  0.23442347503E+03 -0.11617986127E+03 -0.22033559559E+02  0.26255971427E+03  0.00000000000E+00 0. -1.
          3    1    5    5  503    0  0.99320686725E+03  0.16347361562E+03 -0.62185875393E+03  0.11831702388E+04  0.00000000000E+00 0. -1.
         -4    1    5    5    0  503  0.42562929759E+03  0.43561705869E+02 -0.31921244964E+03  0.53381130485E+03  0.00000000000E+00 0.  1.
         -3    1    6    6    0  502  0.41193180457E+03 -0.16786275050E+03  0.61182027087E+02  0.44900885855E+03  0.00000000000E+00 0.  1.
<mgrwt>
<rscale>  0 0.56632972E+04</rscale>
<asrwt>0</asrwt>
<pdfrwt beam="1">  1        2 0.30668611E+00 0.56632972E+04</pdfrwt>
<pdfrwt beam="2">  1       -2 0.61881081E+00 0.56632972E+04</pdfrwt>
<totfact> 0.20424097E-03</totfact>
</mgrwt>
</event>
<event>
12    1  0.2588309E-007  0.2125110E+04  0.7818608E-02  0.8550262E-01
         -1   -1    0    0    0  501 -0.00000000000E+00  0.00000000000E+00  0.43889190486E+03  0.43889190486E+03  0.00000000000E+00 0.  1.
          1   -1    0    0  501    0  0.00000000000E+00 -0.00000000000E+00 -0.25724389961E+04  0.25724389961E+04  0.00000000000E+00 0. -1.
         23    2    1    2    0    0 -0.72490262293E+03 -0.30535939455E+02 -0.20009013622E+03  0.75812334613E+03  0.91097140509E+02 0.  0.
        254    2    1    2    0    0  0.72490262293E+03  0.30535939455E+02 -0.19334569551E+04  0.22532075549E+04  0.90126146700E+03 0.  0.
        -24    2    4    4    0    0  0.58036340624E+03 -0.23830857670E+03 -0.56266133891E+03  0.84656828936E+03  0.80482452776E+02 0.  0.
         24    2    4    4    0    0  0.14453921669E+03  0.26884451616E+03 -0.13707956161E+04  0.14066392655E+04  0.79902709543E+02 0.  0.
         13    1    3    3    0    0 -0.22243892792E+03 -0.45502968213E+02 -0.84963724364E+02  0.24242201061E+03  0.00000000000E+00 0. -1.
        -13    1    3    3    0    0 -0.50246369501E+03  0.14967028757E+02 -0.11512641186E+03  0.51570133552E+03  0.00000000000E+00 0.  1.
          2    1    6    6  502    0  0.33559135551E+02  0.59447257659E+02 -0.18043977387E+03  0.19292149703E+03  0.00000000000E+00 0. -1.
          3    1    5    5  503    0  0.12384994028E+03 -0.87476093674E+02 -0.14180430031E+03  0.20760379153E+03  0.00000000000E+00 0. -1.
         -4    1    5    5    0  503  0.45651346596E+03 -0.15083248303E+03 -0.42085703861E+03  0.63896449783E+03  0.00000000000E+00 0.  1.
         -1    1    6    6    0  502  0.11098008114E+03  0.20939725850E+03 -0.11903558423E+04  0.12137177685E+04  0.00000000000E+00 0.  1.
<mgrwt>
<rscale>  0 0.21251096E+04</rscale>
<asrwt>0</asrwt>
<pdfrwt beam="1">  1        1 0.39575985E+00 0.21251096E+04</pdfrwt>
<pdfrwt beam="2">  1       -1 0.67521830E-01 0.21251096E+04</pdfrwt>
<totfact> 0.24594713E+00</totfact>
</mgrwt>
</event>
<event>
12    1  0.2588309E-007  0.2431053E+04  0.7818608E-02  0.8427968E-01
          2   -1    0    0  501    0  0.00000000000E+00  0.00000000000E+00  0.27501243144E+04  0.27501243144E+04  0.00000000000E+00 0. -1.
         -2   -1    0    0    0  501 -0.00000000000E+00 -0.00000000000E+00 -0.53725034263E+03  0.53725034263E+03  0.00000000000E+00 0.  1.
         23    2    1    2    0    0  0.94327521840E+03 -0.41999419922E+03  0.71883425118E+03  0.12614819363E+04  0.91927852237E+02 0.  0.
        254    2    1    2    0    0 -0.94327521840E+03  0.41999419922E+03  0.14940397206E+04  0.20258927207E+04  0.89773234545E+03 0.  0.
        -24    2    4    4    0    0  0.49946468224E+02  0.27423014206E+03  0.64944949108E+03  0.71156347638E+03  0.82711057040E+02 0.  0.
         24    2    4    4    0    0 -0.99322168662E+03  0.14576405717E+03  0.84459022957E+03  0.13143292444E+04  0.79951407526E+02 0.  0.
         13    1    3    3    0    0  0.59589432950E+03 -0.27293072744E+03  0.40228796192E+03  0.76903630487E+03  0.00000000000E+00 0.  1.
        -13    1    3    3    0    0  0.34738088890E+03 -0.14706347179E+03  0.31654628926E+03  0.49244563147E+03  0.00000000000E+00 0. -1.
          4    1    6    6  502    0 -0.63399981455E+03  0.11876890863E+03  0.57893277684E+03  0.86673235697E+03  0.00000000000E+00 0. -1.
          1    1    5    5  503    0  0.65021341582E+02  0.20650538159E+03  0.43033637858E+03  0.48172777190E+03  0.00000000000E+00 0. -1.
         -4    1    5    5    0  503 -0.15074873359E+02  0.67724760463E+02  0.21911311249E+03  0.22983570448E+03  0.00000000000E+00 0.  1.
         -3    1    6    6    0  502 -0.35922187207E+03  0.26995148536E+02  0.26565745272E+03  0.44759688739E+03  0.00000000000E+00 0.  1.
<mgrwt>
<rscale>  0 0.24310535E+04</rscale>
<asrwt>0</asrwt>
<pdfrwt beam="1">  1        2 0.42309604E+00 0.24310535E+04</pdfrwt>
<pdfrwt beam="2">  1       -2 0.82653900E-01 0.24310535E+04</pdfrwt>
<totfact> 0.28543485E+00</totfact>
</mgrwt>
</event>
<event>
12    1  0.2588309E-007  0.2260150E+04  0.7818608E-02  0.8493801E-01
          2   -1    0    0  501    0  0.00000000000E+00  0.00000000000E+00  0.46482987628E+03  0.46482987628E+03  0.00000000000E+00 0. -1.
         -2   -1    0    0    0  501 -0.00000000000E+00 -0.00000000000E+00 -0.27473909150E+04  0.27473909150E+04  0.00000000000E+00 0.  1.
         23    2    1    2    0    0  0.34767995220E+03 -0.81255426047E+03 -0.47150144589E+03  0.10056661339E+04  0.89022379735E+02 0.  0.
        254    2    1    2    0    0 -0.34767995220E+03  0.81255426047E+03 -0.18110595928E+04  0.22065546573E+04  0.89878853561E+03 0.  0.
        -24    2    4    4    0    0 -0.17811705457E+03  0.98223506681E+03 -0.15065470737E+04  0.18090040219E+04  0.79372882581E+02 0.  0.
         24    2    4    4    0    0 -0.16956289763E+03 -0.16968080635E+03 -0.30451251914E+03  0.39755063543E+03  0.88178688593E+02 0.  0.
         11    1    3    3    0    0  0.93392169287E+01 -0.89396772718E+02 -0.49088940738E+02  0.10241449140E+03  0.00000000000E+00 0. -1.
        -11    1    3    3    0    0  0.33834073528E+03 -0.72315748775E+03 -0.42241250515E+03  0.90325164253E+03  0.00000000000E+00 0.  1.
          4    1    6    6  502    0 -0.13668268478E+03 -0.15487688099E+03 -0.29522452047E+03  0.36031447663E+03  0.00000000000E+00 0. -1.
          3    1    5    5  503    0 -0.14979821834E+03  0.67674519659E+03 -0.99810595981E+03  0.12151703890E+04  0.00000000000E+00 0. -1.
         -4    1    5    5    0  503 -0.28318836236E+02  0.30548987022E+03 -0.50844111386E+03  0.59383363289E+03  0.00000000000E+00 0.  1.
         -3    1    6    6    0  502 -0.32880212846E+02 -0.14803925355E+02 -0.92879986754E+01  0.37236158799E+02  0.00000000000E+00 0.  1.
<mgrwt>
<rscale>  0 0.22601499E+04</rscale>
<asrwt>0</asrwt>
<pdfrwt beam="1">  1        2 0.71512289E-01 0.22601499E+04</pdfrwt>
<pdfrwt beam="2">  1       -2 0.42267552E+00 0.22601499E+04</pdfrwt>
<totfact> 0.32113027E-01</totfact>
</mgrwt>
</event>
<event>
12    1  0.2588309E-007  0.3378619E+04  0.7818608E-02  0.8143174E-01
         -2   -1    0    0    0  501 -0.00000000000E+00  0.00000000000E+00  0.90627003028E+03  0.90627003028E+03  0.00000000000E+00 0.  1.
          2   -1    0    0  501    0  0.00000000000E+00 -0.00000000000E+00 -0.31489142630E+04  0.31489142630E+04  0.00000000000E+00 0. -1.
         23    2    1    2    0    0 -0.12707131540E+04 -0.90341438605E+03 -0.83857999760E+03  0.17726282842E+04  0.90139607415E+02 0.  0.
        254    2    1    2    0    0  0.12707131540E+04  0.90341438605E+03 -0.14040642351E+04  0.22825560091E+04  0.89877476903E+03 0.  0.
        -24    2    4    4    0    0  0.98875883425E+03  0.70037160946E+03 -0.50457728903E+03  0.13148581998E+04  0.78034744970E+02 0.  0.
         24    2    4    4    0    0  0.28195431978E+03  0.20304277659E+03 -0.89948694611E+03  0.96769780924E+03  0.81471935226E+02 0.  0.
         11    1    3    3    0    0 -0.25878788195E+03 -0.20512852489E+03 -0.14121568946E+03  0.35915282334E+03  0.00000000000E+00 0.  1.
        -11    1    3    3    0    0 -0.10119252721E+04 -0.69828586116E+03 -0.69736430814E+03  0.14134754609E+04  0.00000000000E+00 0. -1.
          4    1    6    6  502    0  0.25899400858E+03  0.18063621838E+03 -0.86382641957E+03  0.91973008161E+03  0.00000000000E+00 0. -1.
          3    1    5    5  503    0  0.61486087463E+03  0.47137689204E+03 -0.34749528302E+03  0.84911897943E+03  0.00000000000E+00 0. -1.
         -4    1    5    5    0  503  0.37389795962E+03  0.22899471741E+03 -0.15708200601E+03  0.46573922041E+03  0.00000000000E+00 0.  1.
         -3    1    6    6    0  502  0.22960311198E+02  0.22406558217E+02 -0.35660526534E+02  0.47967727631E+02  0.00000000000E+00 0.  1.
<mgrwt>
<rscale>  0 0.33786190E+04</rscale>
<asrwt>0</asrwt>
<pdfrwt beam="1">  1        2 0.48444834E+00 0.33786190E+04</pdfrwt>
<pdfrwt beam="2">  1       -2 0.13942616E+00 0.33786190E+04</pdfrwt>
<totfact> 0.42128807E-01</totfact>
</mgrwt>
</event>
<event>
12    1  0.2616083E-007  0.2403581E+04  0.7818608E-02  0.8438164E-01
         -2   -1    0    0    0  501 -0.00000000000E+00  0.00000000000E+00  0.82627079220E+03  0.82627079220E+03  0.00000000000E+00 0.  1.
          2   -1    0    0  501    0  0.00000000000E+00 -0.00000000000E+00 -0.17479748410E+04  0.17479748410E+04  0.00000000000E+00 0. -1.
         23    2    1    2    0    0 -0.75719659076E+03  0.48665085164E+03  0.14126645253E+03  0.91553067737E+03  0.89802461756E+02 0.  0.
        254    2    1    2    0    0  0.75719659076E+03 -0.48665085164E+03 -0.10629705013E+04  0.16587149558E+04  0.90069600285E+03 0.  0.
        -24    2    4    4    0    0  0.85441736916E+03 -0.13556580709E+03 -0.90258074848E+03  0.12527792536E+04  0.79979508849E+02 0.  0.
         24    2    4    4    0    0 -0.97220778399E+02 -0.35108504456E+03 -0.16038975283E+03  0.40593570227E+03  0.79663877010E+02 0.  0.
         13    1    3    3    0    0 -0.52127351509E+03  0.36716180395E+03  0.68648728808E+02  0.64128505033E+03  0.00000000000E+00 0. -1.
        -13    1    3    3    0    0 -0.23592307567E+03  0.11948904770E+03  0.72617723721E+02  0.27424562704E+03  0.00000000000E+00 0.  1.
          4    1    6    6  502    0  0.52286920707E+01 -0.25854315961E+02  0.51753744966E+01  0.26880650583E+02  0.00000000000E+00 0. -1.
          1    1    5    5  503    0  0.84815369020E+02 -0.26273703945E+02 -0.64761707100E+02  0.10990010486E+03  0.00000000000E+00 0. -1.
         -2    1    5    5    0  503  0.76960200014E+03 -0.10929210314E+03 -0.83781904138E+03  0.11428791487E+04  0.00000000000E+00 0.  1.
         -3    1    6    6    0  502 -0.10244947047E+03 -0.32523072859E+03 -0.16556512733E+03  0.37905505169E+03  0.00000000000E+00 0.  1.
<mgrwt>
<rscale>  0 0.24035811E+04</rscale>
<asrwt>0</asrwt>
<pdfrwt beam="1">  1        2 0.26891921E+00 0.24035811E+04</pdfrwt>
<pdfrwt beam="2">  1       -2 0.12711858E+00 0.24035811E+04</pdfrwt>
<totfact> 0.38110339E+00</totfact>
</mgrwt>
</event>
<event>
12    1  0.2588309E-007  0.3825518E+04  0.7818608E-02  0.8040701E-01
         -2   -1    0    0    0  501 -0.00000000000E+00  0.00000000000E+00  0.33653686779E+04  0.33653686779E+04  0.00000000000E+00 0. -1.
          2   -1    0    0  501    0  0.00000000000E+00 -0.00000000000E+00 -0.10871458711E+04  0.10871458711E+04  0.00000000000E+00 0.  1.
         23    2    1    2    0    0  0.46869244674E+03  0.16930472094E+04  0.58936577198E+03  0.18549160761E+04  0.85323932057E+02 0.  0.
        254    2    1    2    0    0 -0.46869244674E+03 -0.16930472094E+04  0.16888570348E+04  0.25975984729E+04  0.89955448941E+03 0.  0.
        -24    2    4    4    0    0  0.29274135060E+02 -0.40042015792E+03  0.93032022579E+03  0.10163855615E+04  0.79690709360E+02 0.  0.
         24    2    4    4    0    0 -0.49796658180E+03 -0.12926270515E+04  0.75853680903E+03  0.15812129115E+04  0.77464635997E+02 0.  0.
         11    1    3    3    0    0  0.25641800125E+03  0.78139243993E+03  0.25681641614E+03  0.86155615496E+03  0.00000000000E+00 0.  1.
        -11    1    3    3    0    0  0.21227444549E+03  0.91165476950E+03  0.33254935584E+03  0.99335992119E+03  0.00000000000E+00 0. -1.
          4    1    6    6  502    0 -0.20263243643E+03 -0.62627270279E+03  0.34397433582E+03  0.74269492138E+03  0.00000000000E+00 0. -1.
          1    1    5    5  503    0 -0.10593862058E+02 -0.30247064468E+03  0.71816312579E+03  0.77933240408E+03  0.00000000000E+00 0. -1.
         -4    1    5    5    0  503  0.39867997118E+02 -0.97949513244E+02  0.21215710000E+03  0.23705315737E+03  0.00000000000E+00 0.  1.
         -3    1    6    6    0  502 -0.29533414537E+03 -0.66635434872E+03  0.41456247321E+03  0.83851799007E+03  0.00000000000E+00 0.  1.
<mgrwt>
<rscale>  0 0.38255178E+04</rscale>
<asrwt>0</asrwt>
<pdfrwt beam="1">  1        2 0.16725321E+00 0.38255178E+04</pdfrwt>
<pdfrwt beam="2">  1       -2 0.51774902E+00 0.38255178E+04</pdfrwt>
<totfact> 0.22870790E-02</totfact>
</mgrwt>
</event>
<event>
12    1  0.2588309E-007  0.2733734E+04  0.7818608E-02  0.8324142E-01
         -2   -1    0    0    0  501 -0.00000000000E+00  0.00000000000E+00  0.11971272318E+04  0.11971272318E+04  0.00000000000E+00 0. -1.
          2   -1    0    0  501    0  0.00000000000E+00 -0.00000000000E+00 -0.15606741937E+04  0.15606741937E+04  0.00000000000E+00 0.  1.
         23    2    1    2    0    0 -0.18649670616E+03 -0.11931997029E+04 -0.13790436371E+02  0.12113416919E+04  0.93015945474E+02 0.  0.
        254    2    1    2    0    0  0.18649670616E+03  0.11931997029E+04 -0.34975652553E+03  0.15464597337E+04  0.90038965362E+03 0.  0.
        -24    2    4    4    0    0 -0.34541321229E+02 -0.10805462430E+03 -0.15682926085E+03  0.21019538828E+03  0.81962061296E+02 0.  0.
         24    2    4    4    0    0  0.22103802739E+03  0.13012543272E+04 -0.19292726468E+03  0.13362643454E+04  0.79125455734E+02 0.  0.
         11    1    3    3    0    0 -0.13513417887E+03 -0.56465161308E+03 -0.10354110056E+02  0.58068915786E+03  0.00000000000E+00 0. -1.
        -11    1    3    3    0    0 -0.51362527291E+02 -0.62854808977E+03 -0.34363263157E+01  0.63065253405E+03  0.00000000000E+00 0.  1.
          2    1    6    6  502    0  0.19771968925E+03  0.96976219939E+03 -0.15544804374E+03  0.10018462423E+04  0.00000000000E+00 0. -1.
          3    1    5    5  503    0 -0.53840928525E+02 -0.94599804643E+02 -0.96591387125E+02  0.14552616497E+03  0.00000000000E+00 0. -1.
         -4    1    5    5    0  503  0.19299607296E+02 -0.13454819660E+02 -0.60237873721E+02  0.64669223316E+02  0.00000000000E+00 0.  1.
         -1    1    6    6    0  502  0.23318338141E+02  0.33149212777E+03 -0.37479220939E+02  0.33441810309E+03  0.00000000000E+00 0.  1.
<mgrwt>
<rscale>  0 0.27337341E+04</rscale>
<asrwt>0</asrwt>
<pdfrwt beam="1">  1        2 0.24010372E+00 0.27337341E+04</pdfrwt>
<pdfrwt beam="2">  1       -2 0.18417342E+00 0.27337341E+04</pdfrwt>
<totfact> 0.17426262E+00</totfact>
</mgrwt>
</event>
<event>
12    1  0.2588309E-007  0.3806619E+04  0.7818608E-02  0.8044736E-01
          2   -1    0    0  501    0  0.00000000000E+00  0.00000000000E+00  0.22384863089E+04  0.22384863089E+04  0.00000000000E+00 0.  1.
         -2   -1    0    0    0  501 -0.00000000000E+00 -0.00000000000E+00 -0.16183200672E+04  0.16183200672E+04  0.00000000000E+00 0. -1.
         23    2    1    2    0    0  0.45962196071E+03  0.17356247657E+04  0.25483830656E+03  0.18158509873E+04  0.93416121029E+02 0.  0.
        254    2    1    2    0    0 -0.45962196071E+03 -0.17356247657E+04  0.36532793515E+03  0.20409553887E+04  0.89910440133E+03 0.  0.
        -24    2    4    4    0    0  0.35286665426E+02 -0.66234036032E+02 -0.18485079621E+03  0.21312149693E+03  0.74959050872E+02 0.  0.
         24    2    4    4    0    0 -0.49490862613E+03 -0.16693907297E+04  0.55017873136E+03  0.18278338918E+04  0.80499335547E+02 0.  0.
         13    1    3    3    0    0  0.36116946743E+03  0.11976295273E+04  0.17127495562E+03  0.12625747420E+04  0.00000000000E+00 0. -1.
        -13    1    3    3    0    0  0.98452493280E+02  0.53799523845E+03  0.83563350936E+02  0.55327624533E+03  0.00000000000E+00 0.  1.
          2    1    6    6  502    0 -0.36515497470E+03 -0.11706985714E+04  0.42118285558E+03  0.12966373042E+04  0.00000000000E+00 0. -1.
          1    1    5    5  503    0  0.48775565911E+02 -0.50776755976E+02 -0.17811903254E+03  0.19152995726E+03  0.00000000000E+00 0. -1.
         -2    1    5    5    0  503 -0.13488900485E+02 -0.15457280056E+02 -0.67317636759E+01  0.21591539668E+02  0.00000000000E+00 0.  1.
         -1    1    6    6    0  502 -0.12975365143E+03 -0.49869215824E+03  0.12899587578E+03  0.53119658764E+03  0.00000000000E+00 0.  1.
<mgrwt>
<rscale>  0 0.38066191E+04</rscale>
<asrwt>0</asrwt>
<pdfrwt beam="1">  1        2 0.34438251E+00 0.38066191E+04</pdfrwt>
<pdfrwt beam="2">  1       -2 0.24897232E+00 0.38066191E+04</pdfrwt>
<totfact> 0.25669575E-01</totfact>
</mgrwt>
</event>
<event>
12    1  0.2588309E-007  0.1542221E+04  0.7818608E-02  0.8856852E-01
          2   -1    0    0  501    0  0.00000000000E+00  0.00000000000E+00  0.62978792828E+03  0.62978792828E+03  0.00000000000E+00 0.  1.
         -2   -1    0    0    0  501 -0.00000000000E+00 -0.00000000000E+00 -0.94414568005E+03  0.94414568005E+03  0.00000000000E+00 0. -1.
         23    2    1    2    0    0 -0.35459771956E+03 -0.21294512616E+03  0.18656198412E+03  0.46349159195E+03  0.94519375870E+02 0.  0.
        254    2    1    2    0    0  0.35459771956E+03  0.21294512616E+03 -0.50091973588E+03  0.11104420164E+04  0.90059742419E+03 0.  0.
        -24    2    4    4    0    0  0.22990613713E+03  0.55182866437E+03 -0.41010647857E+03  0.72954488889E+03  0.81711164625E+02 0.  0.
         24    2    4    4    0    0  0.12469158243E+03 -0.33888353821E+03 -0.90813257316E+02  0.38089712749E+03  0.80284063305E+02 0.  0.
         11    1    3    3    0    0 -0.17745048436E+03 -0.13853014605E+03  0.58546117327E+02  0.23260895000E+03  0.00000000000E+00 0. -1.
        -11    1    3    3    0    0 -0.17714723520E+03 -0.74414980109E+02  0.12801586679E+03  0.23088264195E+03  0.00000000000E+00 0.  1.
          2    1    6    6  502    0 -0.67810472646E+01 -0.71779781126E+02 -0.14099378432E+02  0.73465039663E+02  0.00000000000E+00 0. -1.
          1    1    5    5  503    0  0.42082055196E+02  0.11438228054E+03 -0.12526587344E+03  0.17477340908E+03  0.00000000000E+00 0. -1.
         -2    1    5    5    0  503  0.18782408194E+03  0.43744638384E+03 -0.28484060513E+03  0.55477147981E+03  0.00000000000E+00 0.  1.
         -1    1    6    6    0  502  0.13147262969E+03 -0.26710375709E+03 -0.76713878884E+02  0.30743208782E+03  0.00000000000E+00 0.  1.
<mgrwt>
<rscale>  0 0.15422212E+04</rscale>
<asrwt>0</asrwt>
<pdfrwt beam="1">  1        2 0.96890450E-01 0.15422212E+04</pdfrwt>
<pdfrwt beam="2">  1       -2 0.14525318E+00 0.15422212E+04</pdfrwt>
<totfact> 0.14677493E+01</totfact>
</mgrwt>
</event>
<event>
12    1  0.6608502E-007  0.2697522E+04  0.7818608E-02  0.8335809E-01
          1   -1    0    0  501    0  0.00000000000E+00  0.00000000000E+00  0.20616218114E+04  0.20616218114E+04  0.00000000000E+00 0. -1.
         -1   -1    0    0    0  501 -0.00000000000E+00 -0.00000000000E+00 -0.88239102176E+03  0.88239102176E+03  0.00000000000E+00 0.  1.
         23    2    1    2    0    0  0.11766574341E+04 -0.15499624791E+03  0.69508519620E+03  0.13783643390E+04  0.90544282289E+02 0.  0.
        254    2    1    2    0    0 -0.11766574341E+04  0.15499624791E+03  0.48414559340E+03  0.15656484941E+04  0.89906156495E+03 0.  0.
        -24    2    4    4    0    0 -0.10400332482E+04  0.42941264772E+03  0.21176690111E+03  0.11478615704E+04  0.81710372201E+02 0.  0.
         24    2    4    4    0    0 -0.13662418584E+03 -0.27441639982E+03  0.27237869229E+03  0.41778692375E+03  0.79907652922E+02 0.  0.
         13    1    3    3    0    0  0.59215492112E+03 -0.12317910288E+03  0.34564327623E+03  0.69662745883E+03  0.00000000000E+00 0. -1.
        -13    1    3    3    0    0  0.58450251294E+03 -0.31817145026E+02  0.34944191997E+03  0.68173688017E+03  0.00000000000E+00 0.  1.
          2    1    6    6  502    0 -0.10523539366E+03 -0.14074639771E+03  0.12072648138E+03  0.21321097498E+03  0.00000000000E+00 0. -1.
          3    1    5    5  503    0 -0.50090409301E+03  0.25095069271E+03  0.10740057022E+03  0.57045248974E+03  0.00000000000E+00 0. -1.
         -4    1    5    5    0  503 -0.53912915521E+03  0.17846195501E+03  0.10436633089E+03  0.57740908064E+03  0.00000000000E+00 0.  1.
         -1    1    6    6    0  502 -0.31388792176E+02 -0.13367000211E+03  0.15165221092E+03  0.20457594877E+03  0.00000000000E+00 0.  1.
<mgrwt>
<rscale>  0 0.26975223E+04</rscale>
<asrwt>0</asrwt>
<pdfrwt beam="1">  1        1 0.31717259E+00 0.26975223E+04</pdfrwt>
<pdfrwt beam="2">  1       -1 0.13575247E+00 0.26975223E+04</pdfrwt>
<totfact> 0.10730826E+00</totfact>
</mgrwt>
</event>
<event>
12    1  0.2588309E-007  0.1244415E+04  0.7818608E-02  0.9074845E-01
          2   -1    0    0  501    0  0.00000000000E+00  0.00000000000E+00  0.77954509462E+03  0.77954509462E+03  0.00000000000E+00 0. -1.
         -2   -1    0    0    0  501 -0.00000000000E+00 -0.00000000000E+00 -0.49662540397E+03  0.49662540397E+03  0.00000000000E+00 0.  1.
         23    2    1    2    0    0 -0.18027176491E+03 -0.57375477121E+00  0.29759942673E+03  0.36009348016E+03  0.92755901413E+02 0.  0.
        254    2    1    2    0    0  0.18027176491E+03  0.57375477121E+00 -0.14679736080E+02  0.91607701843E+03  0.89804419191E+03 0.  0.
        -24    2    4    4    0    0  0.49539031806E+03  0.19173988157E+03 -0.25657644111E+02  0.53862282721E+03  0.85325763253E+02 0.  0.
         24    2    4    4    0    0 -0.31511855315E+03 -0.19116612680E+03  0.10977908031E+02  0.37745419122E+03  0.80665738894E+02 0.  0.
         11    1    3    3    0    0 -0.10605696330E+03 -0.22386898473E+02  0.24096807414E+03  0.26422502804E+03  0.00000000000E+00 0. -1.
        -11    1    3    3    0    0 -0.74214801610E+02  0.21813143701E+02  0.56631352589E+02  0.95868452122E+02  0.00000000000E+00 0.  1.
          4    1    6    6  502    0 -0.26425148428E+03 -0.12380589990E+03 -0.33633549403E+01  0.29183567285E+03  0.00000000000E+00 0. -1.
          1    1    5    5  503    0  0.19535972883E+03  0.38565686739E+02 -0.32053098965E+02  0.20169317538E+03  0.00000000000E+00 0. -1.
         -4    1    5    5    0  503  0.30003058923E+03  0.15317419484E+03  0.63954548540E+01  0.33692965182E+03  0.00000000000E+00 0.  1.
         -3    1    6    6    0  502 -0.50867068869E+02 -0.67360226905E+02  0.14341262972E+02  0.85618518369E+02  0.00000000000E+00 0.  1.
<mgrwt>
<rscale>  0 0.12444146E+04</rscale>
<asrwt>0</asrwt>
<pdfrwt beam="1">  1        2 0.11993001E+00 0.12444146E+04</pdfrwt>
<pdfrwt beam="2">  1       -2 0.76403909E-01 0.12444146E+04</pdfrwt>
<totfact> 0.53769498E+01</totfact>
</mgrwt>
</event>
<event>
12    1  0.2588309E-007  0.1813848E+04  0.7818608E-02  0.8698970E-01
          2   -1    0    0  501    0  0.00000000000E+00  0.00000000000E+00  0.84713384550E+03  0.84713384550E+03  0.00000000000E+00 0. -1.
         -2   -1    0    0    0  501 -0.00000000000E+00 -0.00000000000E+00 -0.97093430231E+03  0.97093430231E+03  0.00000000000E+00 0.  1.
         23    2    1    2    0    0  0.48017013587E+03 -0.29960643922E+03 -0.42470714236E+03  0.71345855377E+03  0.91211695349E+02 0.  0.
        254    2    1    2    0    0 -0.48017013587E+03  0.29960643922E+03  0.30090668555E+03  0.11046095940E+04  0.89960554914E+03 0.  0.
        -24    2    4    4    0    0 -0.63368023560E+03  0.33939072629E+03 -0.35188075956E+02  0.72428789055E+03  0.81351346718E+02 0.  0.
         24    2    4    4    0    0  0.15351009973E+03 -0.39784287073E+02  0.33609476151E+03  0.38032170350E+03  0.80850288942E+02 0.  0.
         13    1    3    3    0    0  0.27141319476E+03 -0.12206198415E+03 -0.24793936190E+03  0.38734761835E+03  0.00000000000E+00 0.  1.
        -13    1    3    3    0    0  0.20875694111E+03 -0.17754445507E+03 -0.17676778047E+03  0.32611093542E+03  0.00000000000E+00 0. -1.
          2    1    6    6  502    0  0.10547585617E+02 -0.32511167105E+02  0.78654413707E+02  0.85759806112E+02  0.00000000000E+00 0. -1.
          3    1    5    5  503    0 -0.14451935497E+03  0.49160919197E+02 -0.29512352142E+02  0.15547867656E+03  0.00000000000E+00 0. -1.
         -4    1    5    5    0  503 -0.48916088064E+03  0.29022980710E+03 -0.56757238132E+01  0.56880921398E+03  0.00000000000E+00 0.  1.
         -1    1    6    6    0  502  0.14296251412E+03 -0.72731199682E+01  0.25744034780E+03  0.29456189739E+03  0.00000000000E+00 0.  1.
<mgrwt>
<rscale>  0 0.18138482E+04</rscale>
<asrwt>0</asrwt>
<pdfrwt beam="1">  1        2 0.13032828E+00 0.18138482E+04</pdfrwt>
<pdfrwt beam="2">  1       -2 0.14937451E+00 0.18138482E+04</pdfrwt>
<totfact> 0.91068014E+00</totfact>
</mgrwt>
</event>
<event>
12    1  0.2588309E-007  0.1517141E+04  0.7818608E-02  0.8873133E-01
          1   -1    0    0  501    0  0.00000000000E+00  0.00000000000E+00  0.67390418895E+03  0.67390418895E+03  0.00000000000E+00 0. -1.
         -1   -1    0    0    0  501 -0.00000000000E+00 -0.00000000000E+00 -0.85387441479E+03  0.85387441479E+03  0.00000000000E+00 0.  1.
         23    2    1    2    0    0  0.31855529269E+03  0.34533437551E+03  0.70253968439E+02  0.48387654902E+03  0.92019504434E+02 0.  0.
        254    2    1    2    0    0 -0.31855529269E+03 -0.34533437551E+03 -0.25022419428E+03  0.10439020547E+04  0.89799000387E+03 0.  0.
        -24    2    4    4    0    0  0.11255627427E+03 -0.43003618663E+03  0.11664355500E+03  0.46616108672E+03  0.78105077691E+02 0.  0.
         24    2    4    4    0    0 -0.43111156697E+03  0.84701811127E+02 -0.36686774928E+03  0.57774096800E+03  0.78492679080E+02 0.  0.
         13    1    3    3    0    0  0.13834954058E+03  0.15274981490E+03 -0.15149717522E+02  0.20664611120E+03  0.00000000000E+00 0.  1.
        -13    1    3    3    0    0  0.18020575211E+03  0.19258456060E+03  0.85403685961E+02  0.27723043782E+03  0.00000000000E+00 0. -1.
          2    1    6    6  502    0 -0.23816356803E+03  0.41008875072E+02 -0.15115400645E+03  0.28504586760E+03  0.00000000000E+00 0. -1.
          3    1    5    5  503    0  0.71424436002E+02 -0.26583547643E+03  0.32647491520E+02  0.27719272951E+03  0.00000000000E+00 0. -1.
         -4    1    5    5    0  503  0.41131838271E+02 -0.16420071020E+03  0.83996063480E+02  0.18896835722E+03  0.00000000000E+00 0.  1.
         -1    1    6    6    0  502 -0.19294799894E+03  0.43692936054E+02 -0.21571374282E+03  0.29269510040E+03  0.00000000000E+00 0.  1.
<mgrwt>
<rscale>  0 0.15171415E+04</rscale>
<asrwt>0</asrwt>
<pdfrwt beam="1">  1        1 0.10367757E+00 0.15171415E+04</pdfrwt>
<pdfrwt beam="2">  1       -1 0.13136529E+00 0.15171415E+04</pdfrwt>
<totfact> 0.13770714E+01</totfact>
</mgrwt>
</event>
<event>
12    1  0.2588309E-007  0.2049682E+04  0.7818608E-02  0.8583738E-01
         -1   -1    0    0    0  501 -0.00000000000E+00  0.00000000000E+00  0.14221744566E+04  0.14221744566E+04  0.00000000000E+00 0.  1.
          1   -1    0    0  501    0  0.00000000000E+00 -0.00000000000E+00 -0.73851665573E+03  0.73851665573E+03  0.00000000000E+00 0. -1.
         23    2    1    2    0    0 -0.35155066616E+03  0.37229291121E+03 -0.40464209622E+03  0.65907316822E+03  0.91936567393E+02 0.  0.
        254    2    1    2    0    0  0.35155066616E+03 -0.37229291121E+03  0.10882998971E+04  0.15016179441E+04  0.89903832035E+03 0.  0.
        -24    2    4    4    0    0 -0.18693617330E+03  0.16818067845E+03  0.33419122455E+03  0.42564328405E+03  0.79111043455E+02 0.  0.
         24    2    4    4    0    0  0.53848683946E+03 -0.54047358966E+03  0.75410867257E+03  0.10759746601E+04  0.83437411957E+02 0.  0.
         11    1    3    3    0    0 -0.28493542140E+03  0.29943572650E+03 -0.36909112132E+03  0.55414637463E+03  0.00000000000E+00 0. -1.
        -11    1    3    3    0    0 -0.66615244758E+02  0.72857184712E+02 -0.35550974898E+02  0.10492679360E+03  0.00000000000E+00 0.  1.
          4    1    6    6  502    0  0.11181183694E+03 -0.16385986083E+03  0.19333413296E+03  0.27700185530E+03  0.00000000000E+00 0. -1.
          3    1    5    5  503    0 -0.19724823477E+02  0.59359586178E+02  0.61091191269E+02  0.87434334120E+02  0.00000000000E+00 0. -1.
         -4    1    5    5    0  503 -0.16721134982E+03  0.10882109227E+03  0.27310003328E+03  0.33820894993E+03  0.00000000000E+00 0.  1.
         -3    1    6    6    0  502  0.42667500252E+03 -0.37661372883E+03  0.56077453961E+03  0.79897280479E+03  0.00000000000E+00 0.  1.
<mgrwt>
<rscale>  0 0.20496824E+04</rscale>
<asrwt>0</asrwt>
<pdfrwt beam="1">  1        1 0.11361795E+00 0.20496824E+04</pdfrwt>
<pdfrwt beam="2">  1       -1 0.21879607E+00 0.20496824E+04</pdfrwt>
<totfact> 0.25978924E+00</totfact>
</mgrwt>
</event>
<event>
12    1  0.2588309E-007  0.3052500E+04  0.7818608E-02  0.8228896E-01
         -2   -1    0    0    0  501 -0.00000000000E+00  0.00000000000E+00  0.10602492236E+04  0.10602492236E+04  0.00000000000E+00 0.  1.
          2   -1    0    0  501    0  0.00000000000E+00 -0.00000000000E+00 -0.21970669430E+04  0.21970669430E+04  0.00000000000E+00 0. -1.
         23    2    1    2    0    0 -0.10935535484E+04 -0.83638057858E+03 -0.30844241616E+03  0.14137164490E+04  0.89808900587E+02 0.  0.
        254    2    1    2    0    0  0.10935535484E+04  0.83638057858E+03 -0.82837530321E+03  0.18435997176E+04  0.90402568566E+03 0.  0.
        -24    2    4    4    0    0  0.10579136691E+04  0.55771447279E+03 -0.29320890117E+03  0.12340457783E+04  0.81674713635E+02 0.  0.
         24    2    4    4    0    0  0.35639879248E+02  0.27866610579E+03 -0.53516640205E+03  0.60955393924E+03  0.78917219009E+02 0.  0.
         11    1    3    3    0    0 -0.72672598858E+03 -0.60631071818E+03 -0.20002751689E+03  0.96734397035E+03  0.00000000000E+00 0.  1.
        -11    1    3    3    0    0 -0.36682755980E+03 -0.23006986040E+03 -0.10841489928E+03  0.44637247863E+03  0.00000000000E+00 0. -1.
          2    1    6    6  502    0  0.35458444771E+02  0.28204992351E+03 -0.53536861595E+03  0.60615923287E+03  0.00000000000E+00 0. -1.
          3    1    5    5  503    0  0.87743496877E+03  0.42960894113E+03 -0.22628549010E+03  0.10028265502E+04  0.00000000000E+00 0. -1.
         -4    1    5    5    0  503  0.18047870036E+03  0.12810553166E+03 -0.66923411064E+02  0.23121922816E+03  0.00000000000E+00 0.  1.
         -1    1    6    6    0  502  0.18143447640E+00 -0.33838177217E+01  0.20221390180E+00  0.33947063651E+01  0.00000000000E+00 0.  1.
<mgrwt>
<rscale>  0 0.30524996E+04</rscale>
<asrwt>0</asrwt>
<pdfrwt beam="1">  1        2 0.33801030E+00 0.30524996E+04</pdfrwt>
<pdfrwt beam="2">  1       -2 0.16311527E+00 0.30524996E+04</pdfrwt>
<totfact> 0.10556882E+00</totfact>
</mgrwt>
</event>
<event>
12    1  0.2588309E-007  0.1606878E+04  0.7818608E-02  0.8816334E-01
          1   -1    0    0  501    0  0.00000000000E+00  0.00000000000E+00  0.87817905759E+03  0.87817905759E+03  0.00000000000E+00 0. -1.
         -1   -1    0    0    0  501 -0.00000000000E+00 -0.00000000000E+00 -0.73505962468E+03  0.73505962468E+03  0.00000000000E+00 0.  1.
         23    2    1    2    0    0  0.15153433733E+03 -0.49355297852E+03 -0.13147850050E+03  0.54022043218E+03  0.89410968285E+02 0.  0.
        254    2    1    2    0    0 -0.15153433733E+03  0.49355297852E+03  0.27459793342E+03  0.10730182501E+04  0.89967046299E+03 0.  0.
        -24    2    4    4    0    0 -0.18924195053E+03 -0.56504748446E+02  0.44263156343E+03  0.49124106750E+03  0.79936118338E+02 0.  0.
         24    2    4    4    0    0  0.37707613193E+02  0.55005772697E+03 -0.16803363002E+03  0.58177718258E+03  0.79019125969E+02 0.  0.
         11    1    3    3    0    0  0.10390117656E+03 -0.31660180599E+03 -0.40618277743E+02  0.33568140034E+03  0.00000000000E+00 0. -1.
        -11    1    3    3    0    0  0.47633160769E+02 -0.17695117254E+03 -0.90860222762E+02  0.20453903184E+03  0.00000000000E+00 0.  1.
          4    1    6    6  502    0  0.61059205457E+01  0.20293724702E+03 -0.10127208220E+03  0.22688508794E+03  0.00000000000E+00 0. -1.
          1    1    5    5  503    0 -0.95316321728E+02  0.84081431852E+01  0.24465512043E+03  0.26270140085E+03  0.00000000000E+00 0. -1.
         -2    1    5    5    0  503 -0.93925628798E+02 -0.64912891631E+02  0.19797644301E+03  0.22853966665E+03  0.00000000000E+00 0.  1.
         -3    1    6    6    0  502  0.31601692647E+02  0.34712047994E+03 -0.66761547812E+02  0.35489209464E+03  0.00000000000E+00 0.  1.
<mgrwt>
<rscale>  0 0.16068777E+04</rscale>
<asrwt>0</asrwt>
<pdfrwt beam="1">  1        1 0.13510447E+00 0.16068777E+04</pdfrwt>
<pdfrwt beam="2">  1       -1 0.11308610E+00 0.16068777E+04</pdfrwt>
<totfact> 0.13001543E+01</totfact>
</mgrwt>
</event>
<event>
12    1  0.2588309E-007  0.1842482E+04  0.7818608E-02  0.8684029E-01
          2   -1    0    0  501    0  0.00000000000E+00  0.00000000000E+00  0.12637266020E+04  0.12637266020E+04  0.00000000000E+00 0. -1.
         -2   -1    0    0    0  501 -0.00000000000E+00 -0.00000000000E+00 -0.67157289024E+03  0.67157289024E+03  0.00000000000E+00 0.  1.
         23    2    1    2    0    0 -0.46358668792E+03  0.37532176236E+03 -0.16233785597E+03  0.62494072462E+03  0.91751225033E+02 0.  0.
        254    2    1    2    0    0  0.46358668792E+03 -0.37532176236E+03  0.75449156776E+03  0.13103587676E+04  0.88994580263E+03 0.  0.
        -24    2    4    4    0    0  0.24240327919E+03 -0.42885329516E+03 -0.19954626078E+02  0.49933933556E+03  0.79164931660E+02 0.  0.
         24    2    4    4    0    0  0.22118340873E+03  0.53531532804E+02  0.77444619384E+03  0.81101943208E+03  0.78726658556E+02 0.  0.
         13    1    3    3    0    0 -0.29237947428E+03  0.20738725578E+03 -0.56837983001E+02  0.36294047329E+03  0.00000000000E+00 0. -1.
        -13    1    3    3    0    0 -0.17120721364E+03  0.16793450658E+03 -0.10549987297E+03  0.26200025134E+03  0.00000000000E+00 0.  1.
          4    1    6    6  502    0  0.21877822492E+03  0.64141727176E+02  0.71134191716E+03  0.74698420062E+03  0.00000000000E+00 0. -1.
          3    1    5    5  503    0  0.10549175055E+03 -0.21636066927E+03  0.27058666570E+02  0.24222431768E+03  0.00000000000E+00 0. -1.
         -4    1    5    5    0  503  0.13691152864E+03 -0.21249262590E+03 -0.47013292648E+02  0.25711501788E+03  0.00000000000E+00 0.  1.
         -3    1    6    6    0  502  0.24051838040E+01 -0.10610194372E+02  0.63104276674E+02  0.64035231461E+02  0.00000000000E+00 0.  1.
<mgrwt>
<rscale>  0 0.18424815E+04</rscale>
<asrwt>0</asrwt>
<pdfrwt beam="1">  1        2 0.19441948E+00 0.18424815E+04</pdfrwt>
<pdfrwt beam="2">  1       -2 0.10331891E+00 0.18424815E+04</pdfrwt>
<totfact> 0.12483349E+01</totfact>
</mgrwt>
</event>
<event>
12    1  0.2588309E-007  0.2158532E+04  0.7818608E-02  0.8535889E-01
         -2   -1    0    0    0  501 -0.00000000000E+00  0.00000000000E+00  0.38256324052E+03  0.38256324052E+03  0.00000000000E+00 0.  1.
          2   -1    0    0  501    0  0.00000000000E+00 -0.00000000000E+00 -0.30447652521E+04  0.30447652521E+04  0.00000000000E+00 0. -1.
         23    2    1    2    0    0 -0.10712651522E+03 -0.49898823555E+03 -0.22541795043E+04  0.23130475814E+04  0.91643477838E+02 0.  0.
        254    2    1    2    0    0  0.10712651522E+03  0.49898823555E+03 -0.40802250733E+03  0.11142809112E+04  0.90259306064E+03 0.  0.
        -24    2    4    4    0    0  0.55408595996E+02  0.15438198967E+03  0.28283036486E+03  0.33643197187E+03  0.79306652698E+02 0.  0.
         24    2    4    4    0    0  0.51717919221E+02  0.34460624587E+03 -0.69085287218E+03  0.77784893934E+03  0.79643415064E+02 0.  0.
         13    1    3    3    0    0 -0.85153307260E+02 -0.45617925809E+03 -0.21278273637E+04  0.21778429445E+04  0.00000000000E+00 0. -1.
        -13    1    3    3    0    0 -0.21973207957E+02 -0.42808977461E+02 -0.12635214059E+03  0.13520463694E+03  0.00000000000E+00 0.  1.
          4    1    6    6  502    0  0.69876802474E+02  0.28103778842E+03 -0.59029612836E+03  0.65750629290E+03  0.00000000000E+00 0. -1.
          1    1    5    5  503    0  0.85674609313E+01  0.12551552336E+03  0.21486306340E+03  0.24898530881E+03  0.00000000000E+00 0. -1.
         -2    1    5    5    0  503  0.46841135064E+02  0.28866466311E+02  0.67967301461E+02  0.87446663054E+02  0.00000000000E+00 0.  1.
         -3    1    6    6    0  502 -0.18158883253E+02  0.63568457451E+02 -0.10055674382E+03  0.12034264644E+03  0.00000000000E+00 0.  1.
<mgrwt>
<rscale>  0 0.21585322E+04</rscale>
<asrwt>0</asrwt>
<pdfrwt beam="1">  1        2 0.46842543E+00 0.21585322E+04</pdfrwt>
<pdfrwt beam="2">  1       -2 0.58855883E-01 0.21585322E+04</pdfrwt>
<totfact> 0.40433332E+00</totfact>
</mgrwt>
</event>
<event>
12    1  0.2588309E-007  0.2416695E+04  0.7818608E-02  0.8433280E-01
          2   -1    0    0  501    0  0.00000000000E+00  0.00000000000E+00  0.22707290250E+04  0.22707290250E+04  0.00000000000E+00 0. -1.
         -2   -1    0    0    0  501 -0.00000000000E+00 -0.00000000000E+00 -0.64301074011E+03  0.64301074011E+03  0.00000000000E+00 0.  1.
         23    2    1    2    0    0 -0.87180173933E+03 -0.40052318488E+03  0.22101704214E+03  0.98879793682E+03  0.91737302191E+02 0.  0.
        254    2    1    2    0    0  0.87180173933E+03  0.40052318488E+03  0.14067012428E+04  0.19249418283E+04  0.89785052299E+03 0.  0.
        -24    2    4    4    0    0  0.82450078450E+02  0.49453171100E+03  0.46330747765E+03  0.68855105449E+03  0.89939463947E+02 0.  0.
         24    2    4    4    0    0  0.78935166088E+03 -0.94008526124E+02  0.94339376512E+03  0.12363907738E+04  0.82199160551E+02 0.  0.
         11    1    3    3    0    0 -0.42838559076E+02 -0.22237287644E+01  0.20331683439E+02  0.47470669522E+02  0.00000000000E+00 0. -1.
        -11    1    3    3    0    0 -0.82896318026E+03 -0.39829945611E+03  0.20068535870E+03  0.94132726730E+03  0.00000000000E+00 0.  1.
          2    1    6    6  502    0  0.70679677406E+03 -0.81086649276E+02  0.87939787501E+03  0.11311398442E+04  0.00000000000E+00 0. -1.
          1    1    5    5  503    0  0.56576737103E+02  0.47062682606E+03  0.42737422166E+03  0.63823135455E+03  0.00000000000E+00 0. -1.
         -2    1    5    5    0  503  0.25873341347E+02  0.23904884940E+02  0.35933255991E+02  0.50319699945E+02  0.00000000000E+00 0.  1.
         -1    1    6    6    0  502  0.82554886822E+02 -0.12921876848E+02  0.63995890109E+02  0.10525092964E+03  0.00000000000E+00 0.  1.
<mgrwt>
<rscale>  0 0.24166946E+04</rscale>
<asrwt>0</asrwt>
<pdfrwt beam="1">  1        2 0.34934292E+00 0.24166946E+04</pdfrwt>
<pdfrwt beam="2">  1       -2 0.98924730E-01 0.24166946E+04</pdfrwt>
<totfact> 0.35838486E+00</totfact>
</mgrwt>
</event>
<event>
12    1  0.2588309E-007  0.1409215E+04  0.7818608E-02  0.8947175E-01
          2   -1    0    0  501    0  0.00000000000E+00  0.00000000000E+00  0.14423281075E+04  0.14423281075E+04  0.00000000000E+00 0. -1.
         -2   -1    0    0    0  501 -0.00000000000E+00 -0.00000000000E+00 -0.34421557891E+03  0.34421557891E+03  0.00000000000E+00 0.  1.
         23    2    1    2    0    0  0.40386225231E+03  0.32741868313E+02  0.40171315308E+03  0.57762366798E+03  0.89993864618E+02 0.  0.
        254    2    1    2    0    0 -0.40386225231E+03 -0.32741868313E+02  0.69639937550E+03  0.12089200184E+04  0.90129838121E+03 0.  0.
        -24    2    4    4    0    0 -0.66719948650E+03 -0.10590390504E+03  0.36837562018E+03  0.77370659667E+03  0.80935210518E+02 0.  0.
         24    2    4    4    0    0  0.26333723419E+03  0.73162036731E+02  0.32802375531E+03  0.43521342175E+03  0.84332413062E+02 0.  0.
         11    1    3    3    0    0  0.11430644309E+03  0.45523714004E+02  0.93462227135E+02  0.15451070956E+03  0.00000000000E+00 0. -1.
        -11    1    3    3    0    0  0.28955580922E+03 -0.12781845691E+02  0.30825092595E+03  0.42311295842E+03  0.00000000000E+00 0.  1.
          2    1    6    6  502    0  0.14416147949E+02  0.28534932798E+02  0.50321464521E+02  0.59618097110E+02  0.00000000000E+00 0. -1.
          1    1    5    5  503    0 -0.26680019799E+02 -0.14139814434E+02  0.33596979433E+02  0.45172058130E+02  0.00000000000E+00 0. -1.
         -2    1    5    5    0  503 -0.64051946670E+03 -0.91764090610E+02  0.33477864075E+03  0.72853453854E+03  0.00000000000E+00 0.  1.
         -1    1    6    6    0  502  0.24892108624E+03  0.44627103933E+02  0.27770229079E+03  0.37559532464E+03  0.00000000000E+00 0.  1.
<mgrwt>
<rscale>  0 0.14092151E+04</rscale>
<asrwt>0</asrwt>
<pdfrwt beam="1">  1        2 0.22189663E+00 0.14092151E+04</pdfrwt>
<pdfrwt beam="2">  1       -2 0.52956244E-01 0.14092151E+04</pdfrwt>
<totfact> 0.44761904E+01</totfact>
</mgrwt>
</event>
<event>
12    1  0.2588309E-007  0.2402246E+04  0.7818608E-02  0.8438663E-01
         -2   -1    0    0    0  501 -0.00000000000E+00  0.00000000000E+00  0.69455677332E+03  0.69455677332E+03  0.00000000000E+00 0.  1.
          2   -1    0    0  501    0  0.00000000000E+00 -0.00000000000E+00 -0.20771460702E+04  0.20771460702E+04  0.00000000000E+00 0. -1.
         23    2    1    2    0    0  0.60955787863E+03  0.82436040806E+03 -0.71878400720E+03  0.12550948288E+04  0.86496765531E+02 0.  0.
        254    2    1    2    0    0 -0.60955787863E+03 -0.82436040806E+03 -0.66380528971E+03  0.15166080148E+04  0.89907258774E+03 0.  0.
        -24    2    4    4    0    0 -0.43449670000E+03  0.88700679995E+01 -0.45915039771E+03  0.63730204040E+03  0.80428493459E+02 0.  0.
         24    2    4    4    0    0 -0.17506117863E+03 -0.83323047606E+03 -0.20465489199E+03  0.87930597436E+03  0.79849416002E+02 0.  0.
         13    1    3    3    0    0  0.40233079827E+03  0.53737869632E+03 -0.51979117501E+03  0.84901637211E+03  0.00000000000E+00 0.  1.
        -13    1    3    3    0    0  0.20722708036E+03  0.28698171174E+03 -0.19899283220E+03  0.40607845667E+03  0.00000000000E+00 0. -1.
          4    1    6    6  502    0 -0.15077360770E+03 -0.79272858072E+03 -0.20285116666E+03  0.83204559928E+03  0.00000000000E+00 0. -1.
          3    1    5    5  503    0 -0.39930712833E+03  0.80357770011E+01 -0.38273726608E+03  0.55317137606E+03  0.00000000000E+00 0. -1.
         -4    1    5    5    0  503 -0.35189571665E+02  0.83429099833E+00 -0.76413131633E+02  0.84130664335E+02  0.00000000000E+00 0.  1.
         -3    1    6    6    0  502 -0.24287570932E+02 -0.40501895345E+02 -0.18037253369E+01  0.47260375087E+02  0.00000000000E+00 0.  1.
<mgrwt>
<rscale>  0 0.24022455E+04</rscale>
<asrwt>0</asrwt>
<pdfrwt beam="1">  1        2 0.31956094E+00 0.24022455E+04</pdfrwt>
<pdfrwt beam="2">  1       -2 0.10685489E+00 0.24022455E+04</pdfrwt>
<totfact> 0.38338522E+00</totfact>
</mgrwt>
</event>
<event>
12    1  0.2588309E-007  0.1407843E+04  0.7818608E-02  0.8948161E-01
          1   -1    0    0  501    0  0.00000000000E+00  0.00000000000E+00  0.67370553662E+03  0.67370553662E+03  0.00000000000E+00 0. -1.
         -1   -1    0    0    0  501 -0.00000000000E+00 -0.00000000000E+00 -0.73549214128E+03  0.73549214128E+03  0.00000000000E+00 0.  1.
         23    2    1    2    0    0  0.27664311269E+03 -0.29982138752E+03  0.66839016436E+01  0.41731751989E+03  0.87663913048E+02 0.  0.
        254    2    1    2    0    0 -0.27664311269E+03  0.29982138752E+03 -0.68470506305E+02  0.99188015801E+03  0.90150638456E+03 0.  0.
        -24    2    4    4    0    0  0.19937012210E+03 -0.39828720435E+01  0.25737640147E+03  0.33509844091E+03  0.79271963590E+02 0.  0.
         24    2    4    4    0    0 -0.47601323480E+03  0.30380425957E+03 -0.32584690778E+03  0.65678171709E+03  0.79374988325E+02 0.  0.
         13    1    3    3    0    0  0.19795922944E+03 -0.16594164102E+03 -0.22574539642E+02  0.25929538095E+03  0.00000000000E+00 0.  1.
        -13    1    3    3    0    0  0.78683883254E+02 -0.13387974650E+03  0.29258441285E+02  0.15802213894E+03  0.00000000000E+00 0. -1.
          4    1    6    6  502    0 -0.27487185331E+03  0.20513943176E+03 -0.23085783576E+03  0.41343930938E+03  0.00000000000E+00 0. -1.
          3    1    5    5  503    0  0.76978047768E+02 -0.39430062803E+01  0.16381021244E+03  0.18103853965E+03  0.00000000000E+00 0. -1.
         -4    1    5    5    0  503  0.12239207433E+03 -0.39865763193E-01  0.93566189028E+02  0.15405990127E+03  0.00000000000E+00 0.  1.
         -3    1    6    6    0  502 -0.20114138148E+03  0.98664827804E+02 -0.94989072010E+02  0.24334240771E+03  0.00000000000E+00 0.  1.
<mgrwt>
<rscale>  0 0.14078425E+04</rscale>
<asrwt>0</asrwt>
<pdfrwt beam="1">  1        1 0.10364701E+00 0.14078425E+04</pdfrwt>
<pdfrwt beam="2">  1       -1 0.11315264E+00 0.14078425E+04</pdfrwt>
<totfact> 0.20082061E+01</totfact>
</mgrwt>
</event>
<event>
12    1  0.2588309E-007  0.2130285E+04  0.7818608E-02  0.8548019E-01
          2   -1    0    0  501    0  0.00000000000E+00  0.00000000000E+00  0.19864613021E+04  0.19864613021E+04  0.00000000000E+00 0. -1.
         -2   -1    0    0    0  501 -0.00000000000E+00 -0.00000000000E+00 -0.57113024800E+03  0.57113024800E+03  0.00000000000E+00 0.  1.
         23    2    1    2    0    0 -0.11385995984E+03 -0.85457719924E+03  0.73475851437E+03  0.11364968715E+04  0.92134600062E+02 0.  0.
        254    2    1    2    0    0  0.11385995984E+03  0.85457719924E+03  0.68057253968E+03  0.14210946786E+04  0.90170107229E+03 0.  0.
        -24    2    4    4    0    0  0.44256752167E+02  0.58698622940E+03  0.88611741369E+03  0.10667819725E+04  0.79424255426E+02 0.  0.
         24    2    4    4    0    0  0.69603207671E+02  0.26759096984E+03 -0.20554487401E+03  0.35431270609E+03  0.82699847678E+02 0.  0.
         13    1    3    3    0    0 -0.19747506333E+02 -0.47293019665E+03  0.42269131453E+03  0.63460293278E+03  0.00000000000E+00 0. -1.
        -13    1    3    3    0    0 -0.94112453505E+02 -0.38164700259E+03  0.31206719984E+03  0.50189393870E+03  0.00000000000E+00 0.  1.
          4    1    6    6  502    0  0.32953978936E+01  0.74611215178E+02 -0.17235745224E+02  0.76647009016E+02  0.00000000000E+00 0. -1.
          3    1    5    5  503    0  0.58674243103E+02  0.28976644794E+03  0.41447944082E+03  0.50911734209E+03  0.00000000000E+00 0. -1.
         -4    1    5    5    0  503 -0.14417490936E+02  0.29721978146E+03  0.47163797287E+03  0.55766463039E+03  0.00000000000E+00 0.  1.
         -3    1    6    6    0  502  0.66307809778E+02  0.19297975466E+03 -0.18830912879E+03  0.27766569707E+03  0.00000000000E+00 0.  1.
<mgrwt>
<rscale>  0 0.21302846E+04</rscale>
<asrwt>0</asrwt>
<pdfrwt beam="1">  1        2 0.30560943E+00 0.21302846E+04</pdfrwt>
<pdfrwt beam="2">  1       -2 0.87866193E-01 0.21302846E+04</pdfrwt>
<totfact> 0.69790304E+00</totfact>
</mgrwt>
</event>
<event>
12    1  0.2588309E-007  0.1982302E+04  0.7818608E-02  0.8614940E-01
         -1   -1    0    0    0  501 -0.00000000000E+00  0.00000000000E+00  0.49070794528E+03  0.49070794528E+03  0.00000000000E+00 0.  1.
          1   -1    0    0  501    0  0.00000000000E+00 -0.00000000000E+00 -0.20019653143E+04  0.20019653143E+04  0.00000000000E+00 0. -1.
         23    2    1    2    0    0 -0.67379195191E+03 -0.39462257735E+02 -0.11001804973E+04  0.12950858632E+04  0.10628923853E+03 0.  0.
        254    2    1    2    0    0  0.67379195191E+03  0.39462257735E+02 -0.41107687172E+03  0.11975873963E+04  0.89982137849E+03 0.  0.
        -24    2    4    4    0    0  0.67303960459E+03 -0.58412192065E+02 -0.64183089387E+03  0.93527472173E+03  0.79985094036E+02 0.  0.
         24    2    4    4    0    0  0.75234732311E+00  0.97874449800E+02  0.23075402214E+03  0.26231267461E+03  0.77333993676E+02 0.  0.
         11    1    3    3    0    0 -0.21364128103E+03  0.19111812715E+02 -0.42288463376E+03  0.47417219638E+03  0.00000000000E+00 0. -1.
        -11    1    3    3    0    0 -0.46015067088E+03 -0.58574070450E+02 -0.67729586350E+03  0.82091366681E+03  0.00000000000E+00 0.  1.
          2    1    6    6  502    0 -0.80970289092E+01  0.95351728169E+02  0.13150442801E+03  0.16263741429E+03  0.00000000000E+00 0. -1.
          3    1    5    5  503    0  0.66879666782E+03 -0.52613080662E+02 -0.62463715971E+03  0.91663989682E+03  0.00000000000E+00 0. -1.
         -4    1    5    5    0  503  0.42429367671E+01 -0.57991114029E+01 -0.17193734157E+02  0.18634824918E+02  0.00000000000E+00 0.  1.
         -1    1    6    6    0  502  0.88493762323E+01  0.25227216303E+01  0.99249594137E+02  0.99675260323E+02  0.00000000000E+00 0.  1.
<mgrwt>
<rscale>  0 0.19823020E+04</rscale>
<asrwt>0</asrwt>
<pdfrwt beam="1">  1        1 0.30799467E+00 0.19823020E+04</pdfrwt>
<pdfrwt beam="2">  1       -1 0.75493529E-01 0.19823020E+04</pdfrwt>
<totfact> 0.48671181E+00</totfact>
</mgrwt>
</event>
<event>
12    1  0.2588309E-007  0.1229159E+04  0.7818608E-02  0.9087710E-01
         -2   -1    0    0    0  501 -0.00000000000E+00  0.00000000000E+00  0.57839742769E+03  0.57839742769E+03  0.00000000000E+00 0.  1.
          2   -1    0    0  501    0  0.00000000000E+00 -0.00000000000E+00 -0.65302510982E+03  0.65302510982E+03  0.00000000000E+00 0. -1.
         23    2    1    2    0    0 -0.23711068087E+03  0.32263557097E+02  0.10886454327E+03  0.27739781856E+03  0.88519200528E+02 0.  0.
        254    2    1    2    0    0  0.23711068087E+03 -0.32263557097E+02 -0.18349222540E+03  0.95402471894E+03  0.90511400137E+03 0.  0.
        -24    2    4    4    0    0 -0.15292206551E+03  0.21612395733E+03  0.20525530636E+03  0.34465713792E+03  0.81019003206E+02 0.  0.
         24    2    4    4    0    0  0.39003274638E+03 -0.24838751443E+03 -0.38874753176E+03  0.60936758102E+03  0.79889328363E+02 0.  0.
         11    1    3    3    0    0 -0.10065334266E+03  0.53107586692E+02  0.27199314541E+02  0.11700988789E+03  0.00000000000E+00 0. -1.
        -11    1    3    3    0    0 -0.13645733821E+03 -0.20844029595E+02  0.81665228731E+02  0.16038793067E+03  0.00000000000E+00 0.  1.
          4    1    6    6  502    0  0.34075426678E+03 -0.18927504754E+03 -0.29981560409E+03  0.49176001302E+03  0.00000000000E+00 0. -1.
          3    1    5    5  503    0 -0.15741078921E+03  0.17658277924E+03  0.16799531565E+03  0.29014144924E+03  0.00000000000E+00 0. -1.
         -4    1    5    5    0  503  0.44887237041E+01  0.39541178092E+02  0.37259990704E+02  0.54515688683E+02  0.00000000000E+00 0.  1.
         -3    1    6    6    0  502  0.49278479593E+02 -0.59112466890E+02 -0.88931927666E+02  0.11760756800E+03  0.00000000000E+00 0.  1.
<mgrwt>
<rscale>  0 0.12291591E+04</rscale>
<asrwt>0</asrwt>
<pdfrwt beam="1">  1        2 0.10046540E+00 0.12291591E+04</pdfrwt>
<pdfrwt beam="2">  1       -2 0.88984219E-01 0.12291591E+04</pdfrwt>
<totfact> 0.47783804E+01</totfact>
</mgrwt>
</event>
<event>
12    1  0.2588309E-007  0.1063827E+04  0.7818608E-02  0.9241184E-01
         -1   -1    0    0    0  501 -0.00000000000E+00  0.00000000000E+00  0.12554386495E+03  0.12554386495E+03  0.00000000000E+00 0.  1.
          1   -1    0    0  501    0  0.00000000000E+00 -0.00000000000E+00 -0.22536514933E+04  0.22536514933E+04  0.00000000000E+00 0. -1.
         23    2    1    2    0    0 -0.90504637502E+02 -0.18940927761E+02 -0.11690734131E+03  0.17424377306E+03  0.90242550083E+02 0.  0.
        254    2    1    2    0    0  0.90504637502E+02  0.18940927761E+02 -0.20112002871E+04  0.22049515852E+04  0.89907455212E+03 0.  0.
        -24    2    4    4    0    0  0.22138237332E+03  0.32965835331E+03 -0.16689323226E+04  0.17174616244E+04  0.81575417444E+02 0.  0.
         24    2    4    4    0    0 -0.13087773582E+03 -0.31071742555E+03 -0.34226796451E+03  0.48748996085E+03  0.82612360645E+02 0.  0.
         13    1    3    3    0    0 -0.35703704298E+01 -0.20290006890E+02 -0.74902310600E+02  0.77683898318E+02  0.00000000000E+00 0. -1.
        -13    1    3    3    0    0 -0.86934267072E+02  0.13490791290E+01 -0.42005030707E+02  0.96559874744E+02  0.00000000000E+00 0.  1.
          2    1    6    6  502    0 -0.19226824061E+02 -0.66364752943E+02 -0.12147028935E+03  0.13974613551E+03  0.00000000000E+00 0. -1.
          1    1    5    5  503    0  0.39370909055E+01 -0.11046136808E+00 -0.20984672884E+01  0.44627851699E+01  0.00000000000E+00 0. -1.
         -2    1    5    5    0  503  0.21744528241E+03  0.32976881468E+03 -0.16668338553E+04  0.17129988392E+04  0.00000000000E+00 0.  1.
         -1    1    6    6    0  502 -0.11165091176E+03 -0.24435267261E+03 -0.22079767516E+03  0.34774382534E+03  0.00000000000E+00 0.  1.
<mgrwt>
<rscale>  0 0.10638273E+04</rscale>
<asrwt>0</asrwt>
<pdfrwt beam="1">  1        1 0.34671557E+00 0.10638273E+04</pdfrwt>
<pdfrwt beam="2">  1       -1 0.19314443E-01 0.10638273E+04</pdfrwt>
<totfact> 0.43645602E+01</totfact>
</mgrwt>
</event>
<event>
12    1  0.2588309E-007  0.1748277E+04  0.7818608E-02  0.8734299E-01
         -2   -1    0    0    0  501 -0.00000000000E+00  0.00000000000E+00  0.37974857841E+03  0.37974857841E+03  0.00000000000E+00 0.  1.
          2   -1    0    0  501    0  0.00000000000E+00 -0.00000000000E+00 -0.20121685247E+04  0.20121685247E+04  0.00000000000E+00 0. -1.
         23    2    1    2    0    0  0.33348901570E+03  0.49134196630E+03 -0.89695998372E+03  0.10795389631E+04  0.90748603944E+02 0.  0.
        254    2    1    2    0    0 -0.33348901570E+03 -0.49134196630E+03 -0.73545996261E+03  0.13123781400E+04  0.91038627753E+03 0.  0.
        -24    2    4    4    0    0 -0.34700633027E+03  0.93955751398E+02 -0.60298763059E+03  0.70664685019E+03  0.80713144945E+02 0.  0.
         24    2    4    4    0    0  0.13517314573E+02 -0.58529771770E+03 -0.13247233201E+03  0.60573128981E+03  0.81273246335E+02 0.  0.
         13    1    3    3    0    0  0.23619376068E+03  0.27214539988E+03 -0.56109592800E+03  0.66684274884E+03  0.00000000000E+00 0. -1.
        -13    1    3    3    0    0  0.97295255019E+02  0.21919656643E+03 -0.33586405572E+03  0.41269621431E+03  0.00000000000E+00 0.  1.
          2    1    6    6  502    0  0.45518321896E+00 -0.38672999241E+02 -0.31108950898E+02  0.49634412337E+02  0.00000000000E+00 0. -1.
          1    1    5    5  503    0 -0.29401646348E+02 -0.14551815718E+02 -0.51835670171E+02  0.61344509540E+02  0.00000000000E+00 0. -1.
         -2    1    5    5    0  503 -0.31760468392E+03  0.10850756712E+03 -0.55115196042E+03  0.64530234065E+03  0.00000000000E+00 0.  1.
         -1    1    6    6    0  502  0.13062131354E+02 -0.54662471846E+03 -0.10136338112E+03  0.55609687748E+03  0.00000000000E+00 0.  1.
<mgrwt>
<rscale>  0 0.17482770E+04</rscale>
<asrwt>0</asrwt>
<pdfrwt beam="1">  1        2 0.30956439E+00 0.17482770E+04</pdfrwt>
<pdfrwt beam="2">  1       -2 0.58422858E-01 0.17482770E+04</pdfrwt>
<totfact> 0.17084822E+01</totfact>
</mgrwt>
</event>
<event>
12    1  0.2588309E-007  0.1957402E+04  0.7818608E-02  0.8626800E-01
         -2   -1    0    0    0  501 -0.00000000000E+00  0.00000000000E+00  0.53520831502E+03  0.53520831502E+03  0.00000000000E+00 0. -1.
          2   -1    0    0  501    0  0.00000000000E+00 -0.00000000000E+00 -0.17896867951E+04  0.17896867951E+04  0.00000000000E+00 0.  1.
         23    2    1    2    0    0 -0.68941576338E+03 -0.23932608669E+03 -0.20826709312E+03  0.76433107676E+03  0.90861115281E+02 0.  0.
        254    2    1    2    0    0  0.68941576338E+03  0.23932608669E+03 -0.10462113870E+04  0.15605640334E+04  0.89901655459E+03 0.  0.
        -24    2    4    4    0    0  0.18683584771E+02 -0.28692956812E+03 -0.27335612982E+03  0.40684915184E+03  0.90138810975E+02 0.  0.
         24    2    4    4    0    0  0.67073217860E+03  0.52625565480E+03 -0.77285525715E+03  0.11537148815E+04  0.83223252190E+02 0.  0.
         13    1    3    3    0    0 -0.64668338811E+03 -0.20212339078E+03 -0.18012636584E+03  0.70106973778E+03  0.00000000000E+00 0. -1.
        -13    1    3    3    0    0 -0.42732375268E+02 -0.37202695908E+02 -0.28140727272E+02  0.63261338985E+02  0.00000000000E+00 0.  1.
          4    1    6    6  502    0  0.37004259003E+03  0.31934719267E+03 -0.39593433966E+03  0.62902952969E+03  0.00000000000E+00 0. -1.
          3    1    5    5  503    0  0.10039075128E+02 -0.63302724377E+02 -0.11843233017E+03  0.13466341289E+03  0.00000000000E+00 0. -1.
         -4    1    5    5    0  503  0.86445096426E+01 -0.22362684374E+03 -0.15492379965E+03  0.27218573895E+03  0.00000000000E+00 0.  1.
         -3    1    6    6    0  502  0.30068958857E+03  0.20690846213E+03 -0.37692091750E+03  0.52468535183E+03  0.00000000000E+00 0.  1.
<mgrwt>
<rscale>  0 0.19574016E+04</rscale>
<asrwt>0</asrwt>
<pdfrwt beam="1">  1        2 0.27533642E+00 0.19574016E+04</pdfrwt>
<pdfrwt beam="2">  1       -2 0.82339742E-01 0.19574016E+04</pdfrwt>
<totfact> 0.10556329E+01</totfact>
</mgrwt>
</event>
<event>
12    1  0.2588309E-007  0.1621074E+04  0.7818608E-02  0.8807705E-01
         -2   -1    0    0    0  501 -0.00000000000E+00  0.00000000000E+00  0.47578896877E+03  0.47578896877E+03  0.00000000000E+00 0.  1.
          2   -1    0    0  501    0  0.00000000000E+00 -0.00000000000E+00 -0.13808008871E+04  0.13808008871E+04  0.00000000000E+00 0. -1.
         23    2    1    2    0    0  0.54745549941E+03 -0.71187970351E+02 -0.40170983171E+03  0.68923820730E+03  0.94357122420E+02 0.  0.
        254    2    1    2    0    0 -0.54745549941E+03  0.71187970351E+02 -0.50330208663E+03  0.11673516486E+04  0.89700704015E+03 0.  0.
        -24    2    4    4    0    0 -0.61298375523E+03  0.17006618209E+03 -0.68388178469E+03  0.93716203481E+03  0.76855667309E+02 0.  0.
         24    2    4    4    0    0  0.65528255815E+02 -0.98878211740E+02  0.18057969806E+03  0.23018961377E+03  0.79419001955E+02 0.  0.
         13    1    3    3    0    0  0.21885037504E+03  0.15929465338E+02 -0.17430804950E+03  0.28023656193E+03  0.00000000000E+00 0.  1.
        -13    1    3    3    0    0  0.32860512438E+03 -0.87117435689E+02 -0.22740178221E+03  0.40900164537E+03  0.00000000000E+00 0. -1.
          4    1    6    6  502    0  0.22396611875E+02 -0.91469291726E+02  0.14883503199E+03  0.17612525741E+03  0.00000000000E+00 0. -1.
          1    1    5    5  503    0 -0.56215028768E+03  0.17522752228E+03 -0.61546535184E+03  0.85177181793E+03  0.00000000000E+00 0. -1.
         -2    1    5    5    0  503 -0.50833467549E+02 -0.51613401861E+01 -0.68416432847E+02  0.85390216882E+02  0.00000000000E+00 0.  1.
         -3    1    6    6    0  502  0.43131643940E+02 -0.74089200140E+01  0.31744666072E+02  0.54064356361E+02  0.00000000000E+00 0.  1.
<mgrwt>
<rscale>  0 0.16210735E+04</rscale>
<asrwt>0</asrwt>
<pdfrwt beam="1">  1        2 0.21243090E+00 0.16210735E+04</pdfrwt>
<pdfrwt beam="2">  1       -2 0.73198303E-01 0.16210735E+04</pdfrwt>
<totfact> 0.23945507E+01</totfact>
</mgrwt>
</event>
<event>
12    1  0.2588309E-007  0.1557017E+04  0.7818608E-02  0.8847398E-01
         -2   -1    0    0    0  501 -0.00000000000E+00  0.00000000000E+00  0.24962304003E+03  0.24962304003E+03  0.00000000000E+00 0.  1.
          2   -1    0    0  501    0  0.00000000000E+00 -0.00000000000E+00 -0.24279629504E+04  0.24279629504E+04  0.00000000000E+00 0. -1.
         23    2    1    2    0    0 -0.50666296619E+03 -0.63803588726E+02 -0.75854582533E+03  0.91900325552E+03  0.91634902088E+02 0.  0.
        254    2    1    2    0    0  0.50666296619E+03  0.63803588726E+02 -0.14197940850E+04  0.17585827349E+04  0.90333810522E+03 0.  0.
        -24    2    4    4    0    0  0.26436699441E+02 -0.19269049266E+03  0.22398313719E+02  0.21502746886E+03  0.88919080458E+02 0.  0.
         24    2    4    4    0    0  0.48022626675E+03  0.25649408138E+03 -0.14421923987E+04  0.15435552660E+04  0.78977612289E+02 0.  0.
         13    1    3    3    0    0 -0.25168046153E+03 -0.51580060795E+02 -0.45370058990E+03  0.52139024029E+03  0.00000000000E+00 0. -1.
        -13    1    3    3    0    0 -0.25498250466E+03 -0.12223527931E+02 -0.30484523543E+03  0.39761301523E+03  0.00000000000E+00 0.  1.
          2    1    6    6  502    0  0.43129797439E+03  0.21700144388E+03 -0.12038709844E+04  0.12970786084E+04  0.00000000000E+00 0. -1.
          3    1    5    5  503    0  0.52866598193E+02 -0.12894110598E+03  0.37643129127E+02  0.14435266256E+03  0.00000000000E+00 0. -1.
         -4    1    5    5    0  503 -0.26429898752E+02 -0.63749386674E+02 -0.15244815408E+02  0.70674806305E+02  0.00000000000E+00 0.  1.
         -1    1    6    6    0  502  0.48928292361E+02  0.39492637503E+02 -0.23832141432E+03  0.24647665758E+03  0.00000000000E+00 0.  1.
<mgrwt>
<rscale>  0 0.15570170E+04</rscale>
<asrwt>0</asrwt>
<pdfrwt beam="1">  1        2 0.37353275E+00 0.15570170E+04</pdfrwt>
<pdfrwt beam="2">  1       -2 0.38403546E-01 0.15570170E+04</pdfrwt>
<totfact> 0.23650778E+01</totfact>
</mgrwt>
</event>
<event>
12    1  0.2588309E-007  0.2547964E+04  0.7818608E-02  0.8386095E-01
          2   -1    0    0  501    0  0.00000000000E+00  0.00000000000E+00  0.71528790842E+03  0.71528790842E+03  0.00000000000E+00 0.  1.
         -2   -1    0    0    0  501 -0.00000000000E+00 -0.00000000000E+00 -0.22690583082E+04  0.22690583082E+04  0.00000000000E+00 0. -1.
         23    2    1    2    0    0 -0.23075526826E+03 -0.10142151489E+04 -0.21768137041E+03  0.10666186734E+04  0.91705252839E+02 0.  0.
        254    2    1    2    0    0  0.23075526826E+03  0.10142151489E+04 -0.13360890294E+04  0.19177275432E+04  0.90036918736E+03 0.  0.
        -24    2    4    4    0    0  0.19504175084E+03  0.44495993714E+03 -0.34761495065E+02  0.49467143877E+03  0.86376157361E+02 0.  0.
         24    2    4    4    0    0  0.35713517423E+02  0.56925521174E+03 -0.13013275343E+04  0.14230561044E+04  0.79425269561E+02 0.  0.
         13    1    3    3    0    0 -0.84267787330E+02 -0.20254627275E+03 -0.43708760324E+02  0.22368841792E+03  0.00000000000E+00 0. -1.
        -13    1    3    3    0    0 -0.14648748093E+03 -0.81166887613E+03 -0.17397261009E+03  0.84293025549E+03  0.00000000000E+00 0.  1.
          2    1    6    6  502    0  0.30338549914E+02  0.88803808130E+02 -0.25369625359E+03  0.27049645660E+03  0.00000000000E+00 0. -1.
          1    1    5    5  503    0  0.15151453586E+02  0.21184567011E+01 -0.33139553444E+01  0.15653648283E+02  0.00000000000E+00 0. -1.
         -2    1    5    5    0  503  0.17989029726E+03  0.44284148044E+03 -0.31447539721E+02  0.47901779048E+03  0.00000000000E+00 0.  1.
         -1    1    6    6    0  502  0.53749675088E+01  0.48045140361E+03 -0.10476312807E+04  0.11525596478E+04  0.00000000000E+00 0.  1.
<mgrwt>
<rscale>  0 0.25479639E+04</rscale>
<asrwt>0</asrwt>
<pdfrwt beam="1">  1        2 0.11004430E+00 0.25479639E+04</pdfrwt>
<pdfrwt beam="2">  1       -2 0.34908588E+00 0.25479639E+04</pdfrwt>
<totfact> 0.55851166E-01</totfact>
</mgrwt>
</event>
<event>
12    1  0.2588309E-007  0.1729700E+04  0.7818608E-02  0.8744604E-01
         -2   -1    0    0    0  501 -0.00000000000E+00  0.00000000000E+00  0.55439252851E+03  0.55439252851E+03  0.00000000000E+00 0.  1.
          2   -1    0    0  501    0  0.00000000000E+00 -0.00000000000E+00 -0.13491627286E+04  0.13491627286E+04  0.00000000000E+00 0. -1.
         23    2    1    2    0    0  0.19425417551E+03 -0.56074570990E+03 -0.51392742652E+03  0.79123852568E+03  0.98825952641E+02 0.  0.
        254    2    1    2    0    0 -0.19425417551E+03  0.56074570990E+03 -0.28084277355E+03  0.11123167314E+04  0.89788942060E+03 0.  0.
        -24    2    4    4    0    0  0.25498408651E+03 -0.78306953328E+02  0.48711049823E+01  0.27659548806E+03  0.73023784064E+02 0.  0.
         24    2    4    4    0    0 -0.44923826202E+03  0.63905266323E+03 -0.28571387853E+03  0.83572124335E+03  0.81205010630E+02 0.  0.
         13    1    3    3    0    0  0.10509668476E+03 -0.22288029244E+03 -0.15955583617E+03  0.29356260450E+03  0.00000000000E+00 0.  1.
        -13    1    3    3    0    0  0.89157490748E+02 -0.33786541746E+03 -0.35437159036E+03  0.49767592118E+03  0.00000000000E+00 0. -1.
          2    1    6    6  502    0 -0.76596814346E+02  0.10205782682E+03 -0.15877124611E+02  0.12858831623E+03  0.00000000000E+00 0. -1.
          3    1    5    5  503    0  0.21951087715E+02  0.32581801655E+01 -0.18095842675E+02  0.28634341480E+02  0.00000000000E+00 0. -1.
         -4    1    5    5    0  503  0.23303299879E+03 -0.81565133493E+02  0.22966947657E+02  0.24796114658E+03  0.00000000000E+00 0.  1.
         -1    1    6    6    0  502 -0.37264144767E+03  0.53699483640E+03 -0.26983675392E+03  0.70713292712E+03  0.00000000000E+00 0.  1.
<mgrwt>
<rscale>  0 0.17297002E+04</rscale>
<asrwt>0</asrwt>
<pdfrwt beam="1">  1        2 0.20756349E+00 0.17297002E+04</pdfrwt>
<pdfrwt beam="2">  1       -2 0.85291160E-01 0.17297002E+04</pdfrwt>
<totfact> 0.17569948E+01</totfact>
</mgrwt>
</event>
<event>
12    1  0.2588309E-007  0.3304195E+04  0.7818608E-02  0.8161829E-01
          1   -1    0    0  501    0  0.00000000000E+00  0.00000000000E+00  0.38451477096E+04  0.38451477096E+04  0.00000000000E+00 0. -1.
         -1   -1    0    0    0  501 -0.00000000000E+00 -0.00000000000E+00 -0.70983669128E+03  0.70983669128E+03  0.00000000000E+00 0.  1.
         23    2    1    2    0    0 -0.77505909658E+03  0.12976915027E+04  0.17559601021E+04  0.23187719641E+04  0.92669854435E+02 0.  0.
        254    2    1    2    0    0  0.77505909658E+03 -0.12976915027E+04  0.13793509163E+04  0.22362124368E+04  0.90184104639E+03 0.  0.
        -24    2    4    4    0    0 -0.18691915044E+03 -0.14600006277E+03  0.12603974399E+03  0.27953541479E+03  0.77454786336E+02 0.  0.
         24    2    4    4    0    0  0.96197824702E+03 -0.11516914400E+04  0.12533111723E+04  0.19566770220E+04  0.77464529903E+02 0.  0.
         13    1    3    3    0    0 -0.46934136072E+03  0.70180823932E+03  0.10039588170E+04  0.13117733889E+04  0.00000000000E+00 0. -1.
        -13    1    3    3    0    0 -0.30571773586E+03  0.59588326340E+03  0.75200128510E+03  0.10069985752E+04  0.00000000000E+00 0.  1.
          2    1    6    6  502    0  0.48357347721E+03 -0.54243193705E+03  0.64682978199E+03  0.97286406094E+03  0.00000000000E+00 0. -1.
          1    1    5    5  503    0 -0.10105073536E+03 -0.11320139750E+03  0.10697616508E+03  0.18566019339E+03  0.00000000000E+00 0. -1.
         -2    1    5    5    0  503 -0.85868415085E+02 -0.32798665264E+02  0.19063578905E+02  0.93875221400E+02  0.00000000000E+00 0.  1.
         -1    1    6    6    0  502  0.47840476981E+03 -0.60925950290E+03  0.60648139028E+03  0.98381296109E+03  0.00000000000E+00 0.  1.
<mgrwt>
<rscale>  0 0.33041955E+04</rscale>
<asrwt>0</asrwt>
<pdfrwt beam="1">  1        1 0.59156118E+00 0.33041955E+04</pdfrwt>
<pdfrwt beam="2">  1       -1 0.10920565E+00 0.33041955E+04</pdfrwt>
<totfact> 0.83912833E-02</totfact>
</mgrwt>
</event>
<event>
12    1  0.2588309E-007  0.4314020E+04  0.7818608E-02  0.7944031E-01
         -2   -1    0    0    0  501 -0.00000000000E+00  0.00000000000E+00  0.18077008088E+04  0.18077008088E+04  0.00000000000E+00 0.  1.
          2   -1    0    0  501    0  0.00000000000E+00 -0.00000000000E+00 -0.25738180458E+04  0.25738180458E+04  0.00000000000E+00 0. -1.
         23    2    1    2    0    0  0.68821206068E+03  0.19433091760E+04 -0.37233620684E+03  0.20968966348E+04  0.90856218086E+02 0.  0.
        254    2    1    2    0    0 -0.68821206068E+03 -0.19433091760E+04 -0.39378103020E+03  0.22846222197E+04  0.90241276206E+03 0.  0.
        -24    2    4    4    0    0 -0.29577899308E+03 -0.79497898227E+02  0.66634810521E+02  0.32351465799E+03  0.80102480562E+02 0.  0.
         24    2    4    4    0    0 -0.39243306760E+03 -0.18638112778E+04 -0.46041584072E+03  0.19611075617E+04  0.78510703922E+02 0.  0.
         13    1    3    3    0    0  0.32440403710E+03  0.95538951612E+03 -0.13804187250E+03  0.10183627376E+04  0.00000000000E+00 0. -1.
        -13    1    3    3    0    0  0.36380802357E+03  0.98791965986E+03 -0.23429433434E+03  0.10785338972E+04  0.00000000000E+00 0.  1.
          4    1    6    6  502    0 -0.19798388724E+03 -0.97570078123E+03 -0.20099907788E+03  0.10156723209E+04  0.00000000000E+00 0. -1.
          1    1    5    5  503    0 -0.27295293554E+03 -0.47626023492E+02  0.53694613085E+02  0.28223156204E+03  0.00000000000E+00 0. -1.
         -2    1    5    5    0  503 -0.22826057532E+02 -0.31871874734E+02  0.12940197436E+02  0.41283095950E+02  0.00000000000E+00 0.  1.
         -3    1    6    6    0  502 -0.19444918036E+03 -0.88811049653E+03 -0.25941676284E+03  0.94543524084E+03  0.00000000000E+00 0.  1.
<mgrwt>
<rscale>  0 0.43140204E+04</rscale>
<asrwt>0</asrwt>
<pdfrwt beam="1">  1        2 0.39597201E+00 0.43140204E+04</pdfrwt>
<pdfrwt beam="2">  1       -2 0.27810782E+00 0.43140204E+04</pdfrwt>
<totfact> 0.10487097E-01</totfact>
</mgrwt>
</event>
<event>
12    1  0.2588309E-007  0.1792196E+04  0.7818608E-02  0.8710461E-01
          1   -1    0    0  501    0  0.00000000000E+00  0.00000000000E+00  0.19024350863E+04  0.19024350863E+04  0.00000000000E+00 0. -1.
         -1   -1    0    0    0  501 -0.00000000000E+00 -0.00000000000E+00 -0.42208623534E+03  0.42208623534E+03  0.00000000000E+00 0.  1.
         23    2    1    2    0    0  0.34128214539E+03  0.25522588722E+03 -0.10894582303E+03  0.44892744291E+03  0.89737953908E+02 0.  0.
        254    2    1    2    0    0 -0.34128214539E+03 -0.25522588722E+03  0.15892946740E+04  0.18755938787E+04  0.90021168671E+03 0.  0.
        -24    2    4    4    0    0  0.19836143298E+03 -0.36356950434E+03  0.51371476208E+03  0.66475024442E+03  0.80374051150E+02 0.  0.
         24    2    4    4    0    0 -0.53964357837E+03  0.10834361712E+03  0.10755799119E+04  0.12108436343E+04  0.79477221908E+02 0.  0.
         11    1    3    3    0    0  0.27082100288E+03  0.24225873235E+03 -0.98895847495E+02  0.37658159494E+03  0.00000000000E+00 0. -1.
        -11    1    3    3    0    0  0.70461142509E+02  0.12967154872E+02 -0.10049975535E+02  0.72345847963E+02  0.00000000000E+00 0.  1.
          4    1    6    6  502    0 -0.82781160712E+02  0.13688321183E+01  0.21968795040E+03  0.23477093052E+03  0.00000000000E+00 0. -1.
          1    1    5    5  503    0  0.18653219385E+01 -0.60439254835E+02  0.67106170350E+02  0.90330620778E+02  0.00000000000E+00 0. -1.
         -2    1    5    5    0  503  0.19649611104E+03 -0.30313024950E+03  0.44660859173E+03  0.57441962364E+03  0.00000000000E+00 0.  1.
         -3    1    6    6    0  502 -0.45686241765E+03  0.10697478500E+03  0.85589196152E+03  0.97607270379E+03  0.00000000000E+00 0.  1.
<mgrwt>
<rscale>  0 0.17921960E+04</rscale>
<asrwt>0</asrwt>
<pdfrwt beam="1">  1        1 0.29268232E+00 0.17921960E+04</pdfrwt>
<pdfrwt beam="2">  1       -1 0.64936345E-01 0.17921960E+04</pdfrwt>
<totfact> 0.78803641E+00</totfact>
</mgrwt>
</event>
<event>
12    1  0.2588309E-007  0.1369750E+04  0.7818608E-02  0.8976011E-01
          1   -1    0    0  501    0  0.00000000000E+00  0.00000000000E+00  0.95480186460E+03  0.95480186460E+03  0.00000000000E+00 0. -1.
         -1   -1    0    0    0  501 -0.00000000000E+00 -0.00000000000E+00 -0.49125791624E+03  0.49125791624E+03  0.00000000000E+00 0.  1.
         23    2    1    2    0    0 -0.34033676834E+03  0.15340662221E+02  0.31305062714E+03  0.47178904804E+03  0.92302540032E+02 0.  0.
        254    2    1    2    0    0  0.34033676834E+03 -0.15340662221E+02  0.15049332122E+03  0.97427073280E+03  0.90027260830E+03 0.  0.
        -24    2    4    4    0    0 -0.75461702854E+02 -0.17218691418E+03  0.40688155207E+03  0.45503086487E+03  0.78470940827E+02 0.  0.
         24    2    4    4    0    0  0.41579847119E+03  0.15684625196E+03 -0.25638823086E+03  0.51923986793E+03  0.79912452851E+02 0.  0.
         13    1    3    3    0    0 -0.29615014015E+03 -0.15203126804E+02  0.24221109397E+03  0.38288673863E+03  0.00000000000E+00 0. -1.
        -13    1    3    3    0    0 -0.44186628190E+02  0.30543789025E+02  0.70839533177E+02  0.88902309416E+02  0.00000000000E+00 0.  1.
          4    1    6    6  502    0  0.40676345320E+03  0.16338879219E+03 -0.25687888515E+03  0.50807397681E+03  0.00000000000E+00 0. -1.
          1    1    5    5  503    0 -0.26327599974E+02 -0.14300866697E+03  0.31293713605E+03  0.34507140198E+03  0.00000000000E+00 0. -1.
         -4    1    5    5    0  503 -0.49134102880E+02 -0.29178247214E+02  0.93944416026E+02  0.10995946289E+03  0.00000000000E+00 0.  1.
         -3    1    6    6    0  502  0.90350179920E+01 -0.65425402287E+01  0.49065429798E+00  0.11165891115E+02  0.00000000000E+00 0.  1.
<mgrwt>
<rscale>  0 0.13697503E+04</rscale>
<asrwt>0</asrwt>
<pdfrwt beam="1">  1        1 0.14689259E+00 0.13697503E+04</pdfrwt>
<pdfrwt beam="2">  1       -1 0.75578141E-01 0.13697503E+04</pdfrwt>
<totfact> 0.28256185E+01</totfact>
</mgrwt>
</event>
<event>
12    1  0.2588309E-007  0.1934195E+04  0.7818608E-02  0.8638020E-01
         -2   -1    0    0    0  501 -0.00000000000E+00  0.00000000000E+00  0.43569495131E+03  0.43569495131E+03  0.00000000000E+00 0.  1.
          2   -1    0    0  501    0  0.00000000000E+00 -0.00000000000E+00 -0.21466345659E+04  0.21466345659E+04  0.00000000000E+00 0. -1.
         23    2    1    2    0    0 -0.69711947225E+03 -0.26664410039E+03 -0.53810612572E+03  0.92500627977E+03  0.94888251196E+02 0.  0.
        254    2    1    2    0    0  0.69711947225E+03  0.26664410039E+03 -0.11728334889E+04  0.16573232375E+04  0.90227894020E+03 0.  0.
        -24    2    4    4    0    0  0.82744610341E+03  0.23396031285E+03 -0.12193505784E+04  0.14941551038E+04  0.79241145693E+02 0.  0.
         24    2    4    4    0    0 -0.13032663116E+03  0.32683787546E+02  0.46517089517E+02  0.16316813365E+03  0.80042110562E+02 0.  0.
         11    1    3    3    0    0 -0.56031957090E+03 -0.23016928434E+03 -0.39182383021E+03  0.72143040891E+03  0.00000000000E+00 0.  1.
        -11    1    3    3    0    0 -0.13679990135E+03 -0.36474816056E+02 -0.14628229551E+03  0.20357587086E+03  0.00000000000E+00 0. -1.
          4    1    6    6  502    0 -0.68390551587E+01 -0.94211059123E+01 -0.14947708816E+02  0.18946342944E+02  0.00000000000E+00 0. -1.
          1    1    5    5  503    0  0.44740709568E+03  0.10765918613E+03 -0.59091753487E+03  0.74896404630E+03  0.00000000000E+00 0. -1.
         -2    1    5    5    0  503  0.38003900773E+03  0.12630112672E+03 -0.62843304355E+03  0.74519105753E+03  0.00000000000E+00 0.  1.
         -3    1    6    6    0  502 -0.12348757600E+03  0.42104893458E+02  0.61464798333E+02  0.14422179071E+03  0.00000000000E+00 0.  1.
<mgrwt>
<rscale>  0 0.19341953E+04</rscale>
<asrwt>0</asrwt>
<pdfrwt beam="1">  1        2 0.33025147E+00 0.19341953E+04</pdfrwt>
<pdfrwt beam="2">  1       -2 0.67029994E-01 0.19341953E+04</pdfrwt>
<totfact> 0.10557461E+01</totfact>
</mgrwt>
</event>
<event>
12    1  0.2588309E-007  0.1551928E+04  0.7818608E-02  0.8850637E-01
          2   -1    0    0  501    0  0.00000000000E+00  0.00000000000E+00  0.25992436189E+04  0.25992436189E+04  0.00000000000E+00 0. -1.
         -2   -1    0    0    0  501 -0.00000000000E+00 -0.00000000000E+00 -0.23165217540E+03  0.23165217540E+03  0.00000000000E+00 0.  1.
         23    2    1    2    0    0 -0.10631923920E+03  0.37215392229E+03  0.18560800306E+03  0.43889114683E+03  0.91502925992E+02 0.  0.
        254    2    1    2    0    0  0.10631923920E+03 -0.37215392229E+03  0.21819834405E+04  0.23920046475E+04  0.90046220172E+03 0.  0.
        -24    2    4    4    0    0 -0.19489583013E+03 -0.33429070028E+03  0.33239551476E+03  0.51616377453E+03  0.78762979978E+02 0.  0.
         24    2    4    4    0    0  0.30121506933E+03 -0.37863222011E+02  0.18495879257E+04  0.18758408730E+04  0.75095567207E+02 0.  0.
         11    1    3    3    0    0 -0.39799920792E+02  0.26037034781E+03  0.15368755728E+03  0.30495346691E+03  0.00000000000E+00 0.  1.
        -11    1    3    3    0    0 -0.66519318408E+02  0.11178357448E+03  0.31920445781E+02  0.13393767992E+03  0.00000000000E+00 0. -1.
          4    1    6    6  502    0  0.14727062313E+03 -0.14986123484E+02  0.67878922045E+03  0.69474313680E+03  0.00000000000E+00 0. -1.
          1    1    5    5  503    0 -0.63497304834E+02 -0.50747588976E+02  0.84726444536E+02  0.11741292907E+03  0.00000000000E+00 0. -1.
         -2    1    5    5    0  503 -0.13139852530E+03 -0.28354311130E+03  0.24766907022E+03  0.39875084547E+03  0.00000000000E+00 0.  1.
         -3    1    6    6    0  502  0.15394444620E+03 -0.22877098527E+02  0.11707987052E+04  0.11810977362E+04  0.00000000000E+00 0.  1.
<mgrwt>
<rscale>  0 0.15519284E+04</rscale>
<asrwt>0</asrwt>
<pdfrwt beam="1">  1        2 0.39988361E+00 0.15519284E+04</pdfrwt>
<pdfrwt beam="2">  1       -2 0.35638798E-01 0.15519284E+04</pdfrwt>
<totfact> 0.21761968E+01</totfact>
</mgrwt>
</event>
<event>
12    1  0.2588309E-007  0.1250280E+04  0.7818608E-02  0.9069950E-01
          1   -1    0    0  501    0  0.00000000000E+00  0.00000000000E+00  0.19768415440E+04  0.19768415440E+04  0.00000000000E+00 0. -1.
         -1   -1    0    0    0  501 -0.00000000000E+00 -0.00000000000E+00 -0.19768906698E+03  0.19768906698E+03  0.00000000000E+00 0.  1.
         23    2    1    2    0    0  0.10091049103E+03  0.26872580492E+03  0.35791413808E+03  0.46796629511E+03  0.92159848617E+02 0.  0.
        254    2    1    2    0    0 -0.10091049103E+03 -0.26872580492E+03  0.14212383389E+04  0.17065643159E+04  0.90002603446E+03 0.  0.
        -24    2    4    4    0    0  0.25081729012E+03 -0.11436138464E+03  0.12444076302E+04  0.12771362042E+04  0.80862195835E+02 0.  0.
         24    2    4    4    0    0 -0.35172778115E+03 -0.15436442028E+03  0.17683070875E+03  0.42942811166E+03  0.74823774565E+02 0.  0.
         11    1    3    3    0    0  0.11167690928E+03  0.19618852540E+03  0.29413571131E+03  0.37077956555E+03  0.00000000000E+00 0. -1.
        -11    1    3    3    0    0 -0.10766418247E+02  0.72537279514E+02  0.63778426771E+02  0.97186729560E+02  0.00000000000E+00 0.  1.
          2    1    6    6  502    0 -0.25047792099E+03 -0.14353484973E+03  0.11838638909E+03  0.31202047868E+03  0.00000000000E+00 0. -1.
          1    1    5    5  503    0  0.20230893434E+02 -0.24422869616E+02  0.26704635048E+03  0.26892288656E+03  0.00000000000E+00 0. -1.
         -2    1    5    5    0  503  0.23058639669E+03 -0.89938515023E+02  0.97736127971E+03  0.10082133177E+04  0.00000000000E+00 0.  1.
         -1    1    6    6    0  502 -0.10124986016E+03 -0.10829570546E+02  0.58444319665E+02  0.11740763298E+03  0.00000000000E+00 0.  1.
<mgrwt>
<rscale>  0 0.12502799E+04</rscale>
<asrwt>0</asrwt>
<pdfrwt beam="1">  1        1 0.30412945E+00 0.12502799E+04</pdfrwt>
<pdfrwt beam="2">  1       -1 0.30413704E-01 0.12502799E+04</pdfrwt>
<totfact> 0.30393905E+01</totfact>
</mgrwt>
</event>
<event>
12    1  0.2588309E-007  0.2892831E+04  0.7818608E-02  0.8275014E-01
          1   -1    0    0  501    0  0.00000000000E+00  0.00000000000E+00  0.15923546063E+04  0.15923546063E+04  0.00000000000E+00 0. -1.
         -1   -1    0    0    0  501 -0.00000000000E+00 -0.00000000000E+00 -0.13138514581E+04  0.13138514581E+04  0.00000000000E+00 0.  1.
         23    2    1    2    0    0 -0.81285298544E+03  0.10119246831E+04  0.26027725736E+03  0.13261328653E+04  0.78502137128E+02 0.  0.
        254    2    1    2    0    0  0.81285298544E+03 -0.10119246831E+04  0.18225890837E+02  0.15800731990E+04  0.90087601306E+03 0.  0.
        -24    2    4    4    0    0  0.21375873342E+03  0.50251953187E+02 -0.23546399827E+03  0.33189328290E+03  0.80571718635E+02 0.  0.
         24    2    4    4    0    0  0.59909425202E+03 -0.10621766363E+04  0.25368988911E+03  0.12481799161E+04  0.80382918702E+02 0.  0.
         11    1    3    3    0    0 -0.46290864149E+03  0.54688349703E+03  0.17869101585E+03  0.73844190620E+03  0.00000000000E+00 0. -1.
        -11    1    3    3    0    0 -0.34994434395E+03  0.46504118610E+03  0.81586241502E+02  0.58769095912E+03  0.00000000000E+00 0.  1.
          2    1    6    6  502    0  0.48912271684E+03 -0.81405949391E+03  0.21848551362E+03  0.97451003659E+03  0.00000000000E+00 0. -1.
          1    1    5    5  503    0  0.21731861250E+03  0.58246045025E+02 -0.22414659244E+03  0.31758727305E+03  0.00000000000E+00 0. -1.
         -2    1    5    5    0  503 -0.35598790770E+01 -0.79940918380E+01 -0.11317405829E+02  0.14306009858E+02  0.00000000000E+00 0.  1.
         -1    1    6    6    0  502  0.10997153518E+03 -0.24811714241E+03  0.35204375490E+02  0.27366987953E+03  0.00000000000E+00 0.  1.
<mgrwt>
<rscale>  0 0.28928307E+04</rscale>
<asrwt>0</asrwt>
<pdfrwt beam="1">  1        1 0.24497763E+00 0.28928307E+04</pdfrwt>
<pdfrwt beam="2">  1       -1 0.20213099E+00 0.28928307E+04</pdfrwt>
<totfact> 0.70586466E-01</totfact>
</mgrwt>
</event>
<event>
12    1  0.2588309E-007  0.1725989E+04  0.7818608E-02  0.8746679E-01
          1   -1    0    0  501    0  0.00000000000E+00  0.00000000000E+00  0.17110259423E+04  0.17110259423E+04  0.00000000000E+00 0. -1.
         -1   -1    0    0    0  501 -0.00000000000E+00 -0.00000000000E+00 -0.43527086559E+03  0.43527086559E+03  0.00000000000E+00 0.  1.
         23    2    1    2    0    0  0.10783725966E+03  0.49968179413E+03  0.91228096628E+03  0.10498614839E+04  0.92961303311E+02 0.  0.
        254    2    1    2    0    0 -0.10783725966E+03 -0.49968179413E+03  0.36347411039E+03  0.10964353240E+04  0.89930318625E+03 0.  0.
        -24    2    4    4    0    0 -0.15598642301E+03  0.17972925872E+03  0.32399968146E+03  0.40963559021E+03  0.78683877466E+02 0.  0.
         24    2    4    4    0    0  0.48149163350E+02 -0.67941105285E+03  0.39474428925E+02  0.68679973378E+03  0.78853808476E+02 0.  0.
         11    1    3    3    0    0  0.52713396795E+02  0.10515084320E+03  0.15959372106E+03  0.19825629329E+03  0.00000000000E+00 0.  1.
        -11    1    3    3    0    0  0.55123862861E+02  0.39453095093E+03  0.75268724522E+03  0.85160519058E+03  0.00000000000E+00 0. -1.
          4    1    6    6  502    0  0.40744778973E+02 -0.15212551820E+03 -0.51994803336E+01  0.15757330007E+03  0.00000000000E+00 0. -1.
          3    1    5    5  503    0  0.40689492844E+00 -0.43466019023E+00  0.34470105921E+02  0.34475247572E+02  0.00000000000E+00 0. -1.
         -4    1    5    5    0  503 -0.15639331794E+03  0.18016391891E+03  0.28952957554E+03  0.37516034263E+03  0.00000000000E+00 0.  1.
         -3    1    6    6    0  502  0.74043843773E+01 -0.52728553465E+03  0.44673909259E+02  0.52922643370E+03  0.00000000000E+00 0.  1.
<mgrwt>
<rscale>  0 0.17259893E+04</rscale>
<asrwt>0</asrwt>
<pdfrwt beam="1">  1        1 0.26323476E+00 0.17259893E+04</pdfrwt>
<pdfrwt beam="2">  1       -1 0.66964749E-01 0.17259893E+04</pdfrwt>
<totfact> 0.10047598E+01</totfact>
</mgrwt>
</event>
<event>
12    1  0.2588309E-007  0.1513849E+04  0.7818608E-02  0.8875295E-01
          2   -1    0    0  501    0  0.00000000000E+00  0.00000000000E+00  0.19873588213E+04  0.19873588213E+04  0.00000000000E+00 0.  1.
         -2   -1    0    0    0  501 -0.00000000000E+00 -0.00000000000E+00 -0.28828964674E+03  0.28828964674E+03  0.00000000000E+00 0. -1.
         23    2    1    2    0    0 -0.40428631144E+03  0.25834864215E+03  0.44985650757E+03  0.66408380412E+03  0.91896566700E+02 0.  0.
        254    2    1    2    0    0  0.40428631144E+03 -0.25834864215E+03  0.12492126670E+04  0.16115646640E+04  0.89800720271E+03 0.  0.
        -24    2    4    4    0    0  0.19777637571E+03 -0.78402701874E+02  0.13014158452E+04  0.13209384856E+04  0.77024685066E+02 0.  0.
         24    2    4    4    0    0  0.20650993573E+03 -0.17994594028E+03 -0.52203178174E+02  0.29062617836E+03  0.81923798506E+02 0.  0.
         13    1    3    3    0    0 -0.23982612332E+03  0.19453984716E+03  0.32252072970E+03  0.44652205169E+03  0.00000000000E+00 0.  1.
        -13    1    3    3    0    0 -0.16446018812E+03  0.63808794998E+02  0.12733577787E+03  0.21756175243E+03  0.00000000000E+00 0. -1.
          2    1    6    6  502    0  0.94900959925E+02 -0.33257249048E+02 -0.30201292873E+02  0.10499692805E+03  0.00000000000E+00 0. -1.
          3    1    5    5  503    0  0.11424515438E+03 -0.82391778835E+02  0.89402495958E+03  0.90505303097E+03  0.00000000000E+00 0. -1.
         -4    1    5    5    0  503  0.83531221333E+02  0.39890769612E+01  0.40739088563E+03  0.41588545463E+03  0.00000000000E+00 0.  1.
         -1    1    6    6    0  502  0.11160897580E+03 -0.14668869123E+03 -0.22001885301E+02  0.18562925031E+03  0.00000000000E+00 0.  1.
<mgrwt>
<rscale>  0 0.15138494E+04</rscale>
<asrwt>0</asrwt>
<pdfrwt beam="1">  1        2 0.30574750E+00 0.15138494E+04</pdfrwt>
<pdfrwt beam="2">  1       -2 0.44352255E-01 0.15138494E+04</pdfrwt>
<totfact> 0.31606562E+01</totfact>
</mgrwt>
</event>
<event>
12    1  0.2588309E-007  0.1705855E+04  0.7818608E-02  0.8758032E-01
          2   -1    0    0  501    0  0.00000000000E+00  0.00000000000E+00  0.32422733545E+04  0.32422733545E+04  0.00000000000E+00 0. -1.
         -2   -1    0    0    0  501 -0.00000000000E+00 -0.00000000000E+00 -0.22437518449E+03  0.22437518449E+03  0.00000000000E+00 0.  1.
         23    2    1    2    0    0  0.42543574691E+01 -0.41372281735E+03  0.17590612868E+03  0.45900551997E+03  0.92511794390E+02 0.  0.
        254    2    1    2    0    0 -0.42543574691E+01  0.41372281735E+03  0.28419920413E+04  0.30076430190E+04  0.89320383884E+03 0.  0.
        -24    2    4    4    0    0  0.10174614114E+03  0.60500848108E+03  0.25973302043E+04  0.26699835534E+04  0.79375349833E+02 0.  0.
         24    2    4    4    0    0 -0.10600049861E+03 -0.19128566373E+03  0.24466183709E+03  0.33765946561E+03  0.79549917270E+02 0.  0.
         13    1    3    3    0    0 -0.33663416823E+02 -0.76014253604E+02  0.22313471086E+02  0.86077194280E+02  0.00000000000E+00 0.  1.
        -13    1    3    3    0    0  0.37917774292E+02 -0.33770856375E+03  0.15359265759E+03  0.37292832569E+03  0.00000000000E+00 0. -1.
          4    1    6    6  502    0 -0.11898687257E+03 -0.17667827072E+03  0.22739975535E+03  0.31158263097E+03  0.00000000000E+00 0. -1.
          3    1    5    5  503    0  0.81063897563E+02  0.57891463897E+03  0.24245250275E+04  0.24939998243E+04  0.00000000000E+00 0. -1.
         -4    1    5    5    0  503  0.20682243576E+02  0.26093842107E+02  0.17280517675E+03  0.17598372910E+03  0.00000000000E+00 0.  1.
         -3    1    6    6    0  502  0.12986373960E+02 -0.14607393007E+02  0.17262081732E+02  0.26076834639E+02  0.00000000000E+00 0.  1.
<mgrwt>
<rscale>  0 0.17058554E+04</rscale>
<asrwt>0</asrwt>
<pdfrwt beam="1">  1        2 0.49881125E+00 0.17058554E+04</pdfrwt>
<pdfrwt beam="2">  1       -2 0.34519261E-01 0.17058554E+04</pdfrwt>
<totfact> 0.91655879E+00</totfact>
</mgrwt>
</event>
<event>
12    1  0.2588309E-007  0.1796207E+04  0.7818608E-02  0.8708319E-01
         -1   -1    0    0    0  501 -0.00000000000E+00  0.00000000000E+00  0.10215312408E+04  0.10215312408E+04  0.00000000000E+00 0.  1.
          1   -1    0    0  501    0  0.00000000000E+00 -0.00000000000E+00 -0.78958909936E+03  0.78958909936E+03  0.00000000000E+00 0. -1.
         23    2    1    2    0    0 -0.14648640461E+03  0.64736777862E+03  0.16837339856E+03  0.69087367964E+03  0.91725309196E+02 0.  0.
        254    2    1    2    0    0  0.14648640461E+03 -0.64736777862E+03  0.63568742895E+02  0.11202466605E+04  0.90020458110E+03 0.  0.
        -24    2    4    4    0    0  0.23144335370E+03 -0.22629361295E+03  0.43409633160E+03  0.54736892368E+03  0.79989300985E+02 0.  0.
         24    2    4    4    0    0 -0.84956949088E+02 -0.42107416568E+03 -0.37052758870E+03  0.57287773686E+03  0.79856566433E+02 0.  0.
         11    1    3    3    0    0 -0.24399947967E+00  0.12528313375E+03  0.55711953600E+02  0.13711216179E+03  0.00000000000E+00 0. -1.
        -11    1    3    3    0    0 -0.14624240513E+03  0.52208464488E+03  0.11266144496E+03  0.55376151785E+03  0.00000000000E+00 0.  1.
          4    1    6    6  502    0 -0.99738270265E+01 -0.24905592705E+03 -0.20921001312E+03  0.32541844080E+03  0.00000000000E+00 0. -1.
          1    1    5    5  503    0  0.23807216450E+03 -0.22184971570E+03  0.42478513913E+03  0.53510565900E+03  0.00000000000E+00 0. -1.
         -2    1    5    5    0  503 -0.66288108055E+01 -0.44438972450E+01  0.93111924640E+01  0.12263264676E+02  0.00000000000E+00 0.  1.
         -3    1    6    6    0  502 -0.74983122062E+02 -0.17201823863E+03 -0.16131757558E+03  0.24745929606E+03  0.00000000000E+00 0.  1.
<mgrwt>
<rscale>  0 0.17962070E+04</rscale>
<asrwt>0</asrwt>
<pdfrwt beam="1">  1        1 0.12147525E+00 0.17962070E+04</pdfrwt>
<pdfrwt beam="2">  1       -1 0.15715865E+00 0.17962070E+04</pdfrwt>
<totfact> 0.65469805E+00</totfact>
</mgrwt>
</event>
<event>
12    1  0.2588309E-007  0.1398835E+04  0.7818608E-02  0.8954662E-01
          2   -1    0    0  501    0  0.00000000000E+00  0.00000000000E+00  0.19722776656E+04  0.19722776656E+04  0.00000000000E+00 0. -1.
         -2   -1    0    0    0  501 -0.00000000000E+00 -0.00000000000E+00 -0.24803039373E+03  0.24803039373E+03  0.00000000000E+00 0.  1.
         23    2    1    2    0    0  0.46523877882E+02 -0.37996583534E+03  0.30822536888E+03  0.49977602714E+03  0.90745203955E+02 0.  0.
        254    2    1    2    0    0 -0.46523877882E+02  0.37996583534E+03  0.14160219030E+04  0.17205320322E+04  0.89920739368E+03 0.  0.
        -24    2    4    4    0    0  0.18325778964E+03  0.11867919672E+03 -0.27273489309E+02  0.23369523255E+03  0.78749281239E+02 0.  0.
         24    2    4    4    0    0 -0.22978166753E+03  0.26128663862E+03  0.14432953923E+04  0.14868367997E+04  0.80695458999E+02 0.  0.
         13    1    3    3    0    0  0.45681837000E+02 -0.16881937416E+03  0.18812357156E+03  0.25686044752E+03  0.00000000000E+00 0. -1.
        -13    1    3    3    0    0  0.84204088158E+00 -0.21114646118E+03  0.12010179732E+03  0.24291557962E+03  0.00000000000E+00 0.  1.
          2    1    6    6  502    0 -0.25243142019E+02  0.59376830139E+01  0.59751344112E+02  0.65135976402E+02  0.00000000000E+00 0. -1.
          1    1    5    5  503    0  0.85329601319E+02  0.27957040808E+02  0.20154991996E+02  0.92026956346E+02  0.00000000000E+00 0. -1.
         -2    1    5    5    0  503  0.97928188326E+02  0.90722155916E+02 -0.47428481306E+02  0.14166827620E+03  0.00000000000E+00 0.  1.
         -1    1    6    6    0  502 -0.20453852551E+03  0.25534895561E+03  0.13835440482E+04  0.14217008233E+04  0.00000000000E+00 0.  1.
<mgrwt>
<rscale>  0 0.13988350E+04</rscale>
<asrwt>0</asrwt>
<pdfrwt beam="1">  1        2 0.30342732E+00 0.13988350E+04</pdfrwt>
<pdfrwt beam="2">  1       -2 0.38158523E-01 0.13988350E+04</pdfrwt>
<totfact> 0.43716848E+01</totfact>
</mgrwt>
</event>
<event>
12    1  0.2588309E-007  0.2956091E+04  0.7818608E-02  0.8256382E-01
         -1   -1    0    0    0  501 -0.00000000000E+00  0.00000000000E+00  0.10017865507E+04  0.10017865507E+04  0.00000000000E+00 0.  1.
          1   -1    0    0  501    0  0.00000000000E+00 -0.00000000000E+00 -0.21807219638E+04  0.21807219638E+04  0.00000000000E+00 0. -1.
         23    2    1    2    0    0 -0.13333940063E+04 -0.11793668422E+03 -0.58562322304E+03  0.14639661139E+04  0.91616515018E+02 0.  0.
        254    2    1    2    0    0  0.13333940063E+04  0.11793668422E+03 -0.59331219006E+03  0.17185424007E+04  0.89973328852E+03 0.  0.
        -24    2    4    4    0    0  0.40290843372E+03  0.44783068900E+03 -0.33812612066E+03  0.69568575061E+03  0.82230518391E+02 0.  0.
         24    2    4    4    0    0  0.93048557258E+03 -0.32989400478E+03 -0.25518606941E+03  0.10228566501E+04  0.80512988775E+02 0.  0.
         11    1    3    3    0    0 -0.34674332823E+03 -0.19125685711E+02 -0.19450642958E+03  0.39803200710E+03  0.00000000000E+00 0. -1.
        -11    1    3    3    0    0 -0.98665067807E+03 -0.98810998514E+02 -0.39111679346E+03  0.10659341068E+04  0.00000000000E+00 0.  1.
          4    1    6    6  502    0  0.35528571059E+03 -0.14628939045E+03 -0.13476002828E+03  0.40717169244E+03  0.00000000000E+00 0. -1.
          3    1    5    5  503    0  0.30555791780E+02  0.23017056581E+02 -0.19129488708E+01  0.38302750271E+02  0.00000000000E+00 0. -1.
         -4    1    5    5    0  503  0.37235264194E+03  0.42481363242E+03 -0.33621317179E+03  0.65738300034E+03  0.00000000000E+00 0.  1.
         -3    1    6    6    0  502  0.57519986200E+03 -0.18360461433E+03 -0.12042604113E+03  0.61568495761E+03  0.00000000000E+00 0.  1.
<mgrwt>
<rscale>  0 0.29560906E+04</rscale>
<asrwt>0</asrwt>
<pdfrwt beam="1">  1        1 0.33549569E+00 0.29560906E+04</pdfrwt>
<pdfrwt beam="2">  1       -1 0.15412101E+00 0.29560906E+04</pdfrwt>
<totfact> 0.62167001E-01</totfact>
</mgrwt>
</event>
<event>
12    1  0.2588309E-007  0.1505252E+04  0.7818608E-02  0.8880968E-01
          2   -1    0    0  501    0  0.00000000000E+00  0.00000000000E+00  0.42558616043E+03  0.42558616043E+03  0.00000000000E+00 0. -1.
         -2   -1    0    0    0  501 -0.00000000000E+00 -0.00000000000E+00 -0.13309783292E+04  0.13309783292E+04  0.00000000000E+00 0.  1.
         23    2    1    2    0    0  0.10662241037E+03  0.17777293327E+03 -0.79134248567E+03  0.82704470278E+03  0.12169000195E+03 0.  0.
        254    2    1    2    0    0 -0.10662241037E+03 -0.17777293327E+03 -0.11404968310E+03  0.92951978685E+03  0.89890386011E+03 0.  0.
        -24    2    4    4    0    0 -0.83934516329E+02 -0.49969816346E+03  0.11529171738E+03  0.52562573078E+03  0.79037783116E+02 0.  0.
         24    2    4    4    0    0 -0.22687894038E+02  0.32192523019E+03 -0.22934140048E+03  0.40389405607E+03  0.79889524891E+02 0.  0.
         11    1    3    3    0    0  0.22935368329E+02  0.10337025310E+03 -0.21190756645E+03  0.23688870185E+03  0.00000000000E+00 0. -1.
        -11    1    3    3    0    0  0.83687042038E+02  0.74402680174E+02 -0.57943491922E+03  0.59015600093E+03  0.00000000000E+00 0.  1.
          4    1    6    6  502    0 -0.78546438350E+01  0.21966854036E+03 -0.10922620780E+03  0.24545127322E+03  0.00000000000E+00 0. -1.
          1    1    5    5  503    0 -0.80285535792E+02 -0.45311863501E+03  0.80013601046E+02  0.46708076496E+03  0.00000000000E+00 0. -1.
         -2    1    5    5    0  503 -0.36489805378E+01 -0.46579528456E+02  0.35278116330E+02  0.58544965812E+02  0.00000000000E+00 0.  1.
         -3    1    6    6    0  502 -0.14833250203E+02  0.10225668983E+03 -0.12011519267E+03  0.15844278285E+03  0.00000000000E+00 0.  1.
<mgrwt>
<rscale>  0 0.15052521E+04</rscale>
<asrwt>0</asrwt>
<pdfrwt beam="1">  1        2 0.65474795E-01 0.15052521E+04</pdfrwt>
<pdfrwt beam="2">  1       -2 0.20476589E+00 0.15052521E+04</pdfrwt>
<totfact> 0.88536127E+00</totfact>
</mgrwt>
</event>
<event>
12    1  0.2588309E-007  0.1884357E+04  0.7818608E-02  0.8662682E-01
          2   -1    0    0  501    0  0.00000000000E+00  0.00000000000E+00  0.16282032274E+04  0.16282032274E+04  0.00000000000E+00 0. -1.
         -2   -1    0    0    0  501 -0.00000000000E+00 -0.00000000000E+00 -0.54520251649E+03  0.54520251649E+03  0.00000000000E+00 0.  1.
         23    2    1    2    0    0  0.46872931790E+03  0.36683330878E+03  0.89380697986E+03  0.10783397439E+04  0.98243758512E+02 0.  0.
        254    2    1    2    0    0 -0.46872931790E+03 -0.36683330878E+03  0.18919373101E+03  0.10950660000E+04  0.89950065400E+03 0.  0.
        -24    2    4    4    0    0 -0.47658266582E+03 -0.91622927047E+02  0.47978811732E+03  0.68689913874E+03  0.78153638141E+02 0.  0.
         24    2    4    4    0    0  0.78533479159E+01 -0.27521038173E+03 -0.29059438631E+03  0.40816686123E+03  0.79703575603E+02 0.  0.
         13    1    3    3    0    0  0.16616141139E+03  0.93304017130E+02  0.22376289548E+03  0.29391340161E+03  0.00000000000E+00 0.  1.
        -13    1    3    3    0    0  0.30256790651E+03  0.27352929165E+03  0.67004408438E+03  0.78442634227E+03  0.00000000000E+00 0. -1.
          2    1    6    6  502    0  0.53565212267E+01 -0.27731242959E+03 -0.29348123205E+03  0.40380949654E+03  0.00000000000E+00 0. -1.
          3    1    5    5  503    0 -0.18063693621E+03 -0.11687213929E+02  0.22138628102E+03  0.28596884291E+03  0.00000000000E+00 0. -1.
         -4    1    5    5    0  503 -0.29594572961E+03 -0.79935713118E+02  0.25840183630E+03  0.40093029582E+03  0.00000000000E+00 0.  1.
         -1    1    6    6    0  502  0.24968266891E+01  0.21020478630E+01  0.28868457401E+01  0.43573646922E+01  0.00000000000E+00 0.  1.
<mgrwt>
<rscale>  0 0.18843572E+04</rscale>
<asrwt>0</asrwt>
<pdfrwt beam="1">  1        2 0.25049280E+00 0.18843572E+04</pdfrwt>
<pdfrwt beam="2">  1       -2 0.83877311E-01 0.18843572E+04</pdfrwt>
<totfact> 0.12523883E+01</totfact>
</mgrwt>
</event>
<event>
12    1  0.2588309E-007  0.1442592E+04  0.7818608E-02  0.8923552E-01
          1   -1    0    0  501    0  0.00000000000E+00  0.00000000000E+00  0.25788918401E+04  0.25788918401E+04  0.00000000000E+00 0. -1.
         -1   -1    0    0    0  501 -0.00000000000E+00 -0.00000000000E+00 -0.20174087061E+03  0.20174087061E+03  0.00000000000E+00 0.  1.
         23    2    1    2    0    0  0.28909628537E+01 -0.18585271926E+03 -0.24228748596E+02  0.20948615662E+03  0.93529816812E+02 0.  0.
        254    2    1    2    0    0 -0.28909628537E+01  0.18585271926E+03  0.24013797181E+04  0.25711465541E+04  0.89978912046E+03 0.  0.
        -24    2    4    4    0    0 -0.15145781665E+03 -0.80808065680E+02  0.47032848740E+02  0.19574015530E+03  0.81441425785E+02 0.  0.
         24    2    4    4    0    0  0.14856685380E+03  0.26666078494E+03  0.23543468694E+04  0.23754063988E+04  0.80164168858E+02 0.  0.
         11    1    3    3    0    0  0.10561264744E+02 -0.18714048860E+03 -0.40219054510E+02  0.19170465600E+03  0.00000000000E+00 0.  1.
        -11    1    3    3    0    0 -0.76703018900E+01  0.12877693397E+01  0.15990305914E+02  0.17781500616E+02  0.00000000000E+00 0. -1.
          2    1    6    6  502    0  0.15117188642E+02  0.80588907416E+02  0.81636706483E+03  0.82047442734E+03  0.00000000000E+00 0. -1.
          3    1    5    5  503    0 -0.94622495307E+02 -0.91559576479E+02  0.26132112060E+02  0.13423658199E+03  0.00000000000E+00 0. -1.
         -4    1    5    5    0  503 -0.56835321344E+02  0.10751510799E+02  0.20900736680E+02  0.61503573315E+02  0.00000000000E+00 0.  1.
         -1    1    6    6    0  502  0.13344966516E+03  0.18607187753E+03  0.15379798045E+04  0.15549319715E+04  0.00000000000E+00 0.  1.
<mgrwt>
<rscale>  0 0.14425920E+04</rscale>
<asrwt>0</asrwt>
<pdfrwt beam="1">  1        1 0.39675257E+00 0.14425920E+04</pdfrwt>
<pdfrwt beam="2">  1       -1 0.31037059E-01 0.14425920E+04</pdfrwt>
<totfact> 0.11189969E+01</totfact>
</mgrwt>
</event>
<event>
12    1  0.2588309E-007  0.2264964E+04  0.7818608E-02  0.8491865E-01
         -2   -1    0    0    0  501 -0.00000000000E+00  0.00000000000E+00  0.44375345791E+03  0.44375345791E+03  0.00000000000E+00 0.  1.
          2   -1    0    0  501    0  0.00000000000E+00 -0.00000000000E+00 -0.28901529438E+04  0.28901529438E+04  0.00000000000E+00 0. -1.
         23    2    1    2    0    0  0.92840884781E+03  0.14966490232E+03 -0.82058394684E+03  0.12512760607E+04  0.89393482005E+02 0.  0.
        254    2    1    2    0    0 -0.92840884781E+03 -0.14966490232E+03 -0.16258155391E+04  0.20826303410E+04  0.89985020895E+03 0.  0.
        -24    2    4    4    0    0 -0.68283496477E+03  0.31357712504E+03 -0.79207052921E+03  0.10945789901E+04  0.78315004551E+02 0.  0.
         24    2    4    4    0    0 -0.24557388305E+03 -0.46324202736E+03 -0.83374500989E+03  0.98805135090E+03  0.78835414373E+02 0.  0.
         11    1    3    3    0    0  0.30432312500E+03  0.86110142969E+02 -0.24750567615E+03  0.40160500602E+03  0.00000000000E+00 0. -1.
        -11    1    3    3    0    0  0.62408572282E+03  0.63554759353E+02 -0.57307827069E+03  0.84967105470E+03  0.00000000000E+00 0.  1.
          2    1    6    6  502    0 -0.17791458502E+03 -0.27897390396E+03 -0.57307739789E+03  0.66173842463E+03  0.00000000000E+00 0. -1.
          1    1    5    5  503    0 -0.12665861289E+03  0.92095988202E+02 -0.15390295012E+03  0.21956819742E+03  0.00000000000E+00 0. -1.
         -2    1    5    5    0  503 -0.55617635188E+03  0.22148113684E+03 -0.63816757909E+03  0.87501079271E+03  0.00000000000E+00 0.  1.
         -3    1    6    6    0  502 -0.67659298029E+02 -0.18426812340E+03 -0.26066761200E+03  0.32631292628E+03  0.00000000000E+00 0.  1.
<mgrwt>
<rscale>  0 0.22649639E+04</rscale>
<asrwt>0</asrwt>
<pdfrwt beam="1">  1        2 0.44463891E+00 0.22649639E+04</pdfrwt>
<pdfrwt beam="2">  1       -2 0.68269763E-01 0.22649639E+04</pdfrwt>
<totfact> 0.36388658E+00</totfact>
</mgrwt>
</event>
<event>
12    1  0.2588309E-007  0.2178060E+04  0.7818608E-02  0.8527616E-01
          2   -1    0    0  501    0  0.00000000000E+00  0.00000000000E+00  0.21898684488E+04  0.21898684488E+04  0.00000000000E+00 0. -1.
         -2   -1    0    0    0  501 -0.00000000000E+00 -0.00000000000E+00 -0.54157858951E+03  0.54157858951E+03  0.00000000000E+00 0.  1.
         23    2    1    2    0    0 -0.32060107696E+03  0.83531703142E+03  0.81903146400E+03  0.12170223407E+04  0.98950720860E+02 0.  0.
        254    2    1    2    0    0  0.32060107696E+03 -0.83531703142E+03  0.82925839526E+03  0.15144246976E+04  0.89737009370E+03 0.  0.
        -24    2    4    4    0    0  0.25428676320E+03 -0.73014681688E+02  0.67629552147E+03  0.73005404690E+03  0.74902452231E+02 0.  0.
         24    2    4    4    0    0  0.66314313767E+02 -0.76230234973E+03  0.15296287379E+03  0.78437065070E+03  0.79606634846E+02 0.  0.
         13    1    3    3    0    0 -0.16742323594E+03  0.30834031149E+03  0.29908601146E+03  0.46103875095E+03  0.00000000000E+00 0.  1.
        -13    1    3    3    0    0 -0.15317784102E+03  0.52697671992E+03  0.51994545254E+03  0.75598358973E+03  0.00000000000E+00 0. -1.
          2    1    6    6  502    0  0.28184008102E+02 -0.76037474466E+02  0.27926494598E+02  0.85766688968E+02  0.00000000000E+00 0. -1.
          3    1    5    5  503    0  0.64758932571E+02 -0.37475446594E+02  0.27238691526E+03  0.28247612297E+03  0.00000000000E+00 0. -1.
         -4    1    5    5    0  503  0.18952783063E+03 -0.35539235095E+02  0.40390860621E+03  0.44757792392E+03  0.00000000000E+00 0.  1.
         -1    1    6    6    0  502  0.38130305665E+02 -0.68626487526E+03  0.12503637919E+03  0.69860396173E+03  0.00000000000E+00 0.  1.
<mgrwt>
<rscale>  0 0.21780596E+04</rscale>
<asrwt>0</asrwt>
<pdfrwt beam="1">  1        2 0.33690283E+00 0.21780596E+04</pdfrwt>
<pdfrwt beam="2">  1       -2 0.83319784E-01 0.21780596E+04</pdfrwt>
<totfact> 0.60401638E+00</totfact>
</mgrwt>
</event>
<event>
12    1  0.2588309E-007  0.2028150E+04  0.7818608E-02  0.8593571E-01
          2   -1    0    0  501    0  0.00000000000E+00  0.00000000000E+00  0.12859281369E+04  0.12859281369E+04  0.00000000000E+00 0.  1.
         -2   -1    0    0    0  501 -0.00000000000E+00 -0.00000000000E+00 -0.79969365276E+03  0.79969365276E+03  0.00000000000E+00 0. -1.
         23    2    1    2    0    0 -0.26189213811E+03  0.54625838925E+03 -0.35612826031E+03  0.70851184606E+03  0.90421116922E+02 0.  0.
        254    2    1    2    0    0  0.26189213811E+03 -0.54625838925E+03  0.84236274444E+03  0.13771099436E+04  0.90546732887E+03 0.  0.
        -24    2    4    4    0    0  0.40242911977E+03 -0.71281297390E+02  0.25264322236E+02  0.41794619983E+03  0.83728849095E+02 0.  0.
         24    2    4    4    0    0 -0.14053698166E+03 -0.47497709186E+03  0.81709842220E+03  0.95916374375E+03  0.83614441090E+02 0.  0.
         11    1    3    3    0    0 -0.14283729787E+03  0.26067704729E+03 -0.12570828805E+03  0.32273455088E+03  0.00000000000E+00 0.  1.
        -11    1    3    3    0    0 -0.11905484025E+03  0.28558134196E+03 -0.23041997227E+03  0.38577729519E+03  0.00000000000E+00 0. -1.
          4    1    6    6  502    0 -0.38153188058E+02 -0.11965677120E+03  0.14313401687E+03  0.19042257072E+03  0.00000000000E+00 0. -1.
          3    1    5    5  503    0  0.23105902091E+03 -0.53563028774E+02  0.54069787754E+02  0.24327106516E+03  0.00000000000E+00 0. -1.
         -4    1    5    5    0  503  0.17137009886E+03 -0.17718268615E+02 -0.28805465518E+02  0.17467513466E+03  0.00000000000E+00 0.  1.
         -1    1    6    6    0  502 -0.10238379360E+03 -0.35532032066E+03  0.67396440533E+03  0.76874117304E+03  0.00000000000E+00 0.  1.
<mgrwt>
<rscale>  0 0.20281505E+04</rscale>
<asrwt>0</asrwt>
<pdfrwt beam="1">  1        2 0.19783510E+00 0.20281505E+04</pdfrwt>
<pdfrwt beam="2">  1       -2 0.12302979E+00 0.20281505E+04</pdfrwt>
<totfact> 0.77936807E+00</totfact>
</mgrwt>
</event>
<event>
12    1  0.2588309E-007  0.1786500E+04  0.7818608E-02  0.8713512E-01
          1   -1    0    0  501    0  0.00000000000E+00  0.00000000000E+00  0.51531874666E+03  0.51531874666E+03  0.00000000000E+00 0. -1.
         -1   -1    0    0    0  501 -0.00000000000E+00 -0.00000000000E+00 -0.15483529712E+04  0.15483529712E+04  0.00000000000E+00 0.  1.
         23    2    1    2    0    0 -0.51574056999E+03 -0.26815548400E+01 -0.87003586152E+03  0.10154143473E+04  0.90046488671E+02 0.  0.
        254    2    1    2    0    0  0.51574056999E+03  0.26815548400E+01 -0.16299836305E+03  0.10482573706E+04  0.89793068905E+03 0.  0.
        -24    2    4    4    0    0 -0.20608414608E+03  0.15142680361E+03  0.57785732229E+02  0.27480098975E+03  0.82314281865E+02 0.  0.
         24    2    4    4    0    0  0.72182471608E+03 -0.14874524877E+03 -0.22078409528E+03  0.77345638083E+03  0.79580692006E+02 0.  0.
         11    1    3    3    0    0 -0.22425929729E+03 -0.45353501860E+02 -0.36785427359E+03  0.43320426955E+03  0.00000000000E+00 0. -1.
        -11    1    3    3    0    0 -0.29148127270E+03  0.42671947020E+02 -0.50218158793E+03  0.58221007777E+03  0.00000000000E+00 0.  1.
          4    1    6    6  502    0  0.14041917604E+03  0.27367739121E+01 -0.39967142019E+02  0.14602194140E+03  0.00000000000E+00 0. -1.
          1    1    5    5  503    0 -0.16048685153E+02  0.37786786846E+02 -0.11776878414E+02  0.42709441819E+02  0.00000000000E+00 0. -1.
         -2    1    5    5    0  503 -0.19003546093E+03  0.11364001677E+03  0.69562610643E+02  0.23209154793E+03  0.00000000000E+00 0.  1.
         -3    1    6    6    0  502  0.58140554004E+03 -0.15148202269E+03 -0.18081695326E+03  0.62743443942E+03  0.00000000000E+00 0.  1.
<mgrwt>
<rscale>  0 0.17864997E+04</rscale>
<asrwt>0</asrwt>
<pdfrwt beam="1">  1        1 0.79279809E-01 0.17864997E+04</pdfrwt>
<pdfrwt beam="2">  1       -1 0.23820814E+00 0.17864997E+04</pdfrwt>
<totfact> 0.33449261E+00</totfact>
</mgrwt>
</event>
<event>
12    1  0.2588309E-007  0.1849557E+04  0.7818608E-02  0.8680381E-01
         -1   -1    0    0    0  501 -0.00000000000E+00  0.00000000000E+00  0.37426925258E+03  0.37426925258E+03  0.00000000000E+00 0.  1.
          1   -1    0    0  501    0  0.00000000000E+00 -0.00000000000E+00 -0.22850261070E+04  0.22850261070E+04  0.00000000000E+00 0. -1.
         23    2    1    2    0    0  0.33080732874E+03  0.61840502314E+03 -0.78472766786E+03  0.10564316297E+04  0.91607937167E+02 0.  0.
        254    2    1    2    0    0 -0.33080732874E+03 -0.61840502314E+03 -0.11260291865E+04  0.16028637299E+04  0.89965112470E+03 0.  0.
        -24    2    4    4    0    0 -0.43985861325E+03 -0.71233915682E+03 -0.11618417637E+04  0.14342988766E+04  0.80214149205E+02 0.  0.
         24    2    4    4    0    0  0.10905128451E+03  0.93934133683E+02  0.35812577124E+02  0.16856485322E+03  0.80098470260E+02 0.  0.
         11    1    3    3    0    0  0.13435308050E+03  0.34719276816E+03 -0.42255694897E+03  0.56315889731E+03  0.00000000000E+00 0.  1.
        -11    1    3    3    0    0  0.19645424824E+03  0.27121225498E+03 -0.36217071889E+03  0.49327273240E+03  0.00000000000E+00 0. -1.
          4    1    6    6  502    0 -0.39344565952E+01  0.21530485159E+02 -0.13363343195E+02  0.25644115918E+02  0.00000000000E+00 0. -1.
          3    1    5    5  503    0 -0.17246576977E+03 -0.32712287026E+03 -0.45994191680E+03  0.59016978983E+03  0.00000000000E+00 0. -1.
         -4    1    5    5    0  503 -0.26739284348E+03 -0.38521628656E+03 -0.70189984686E+03  0.84412908681E+03  0.00000000000E+00 0.  1.
         -3    1    6    6    0  502  0.11298574111E+03  0.72403648524E+02  0.49175920318E+02  0.14292073731E+03  0.00000000000E+00 0.  1.
<mgrwt>
<rscale>  0 0.18495567E+04</rscale>
<asrwt>0</asrwt>
<pdfrwt beam="1">  1        1 0.35154248E+00 0.18495567E+04</pdfrwt>
<pdfrwt beam="2">  1       -1 0.57579885E-01 0.18495567E+04</pdfrwt>
<totfact> 0.54725126E+00</totfact>
</mgrwt>
</event>
<event>
12    1  0.2588309E-007  0.4220558E+04  0.7818608E-02  0.7961473E-01
         -2   -1    0    0    0  501 -0.00000000000E+00  0.00000000000E+00  0.11900647149E+04  0.11900647149E+04  0.00000000000E+00 0.  1.
          2   -1    0    0  501    0  0.00000000000E+00 -0.00000000000E+00 -0.37420458214E+04  0.37420458214E+04  0.00000000000E+00 0. -1.
         23    2    1    2    0    0  0.16100044990E+04  0.11767985241E+04 -0.15345276351E+04  0.25179324899E+04  0.90772835815E+02 0.  0.
        254    2    1    2    0    0 -0.16100044990E+04 -0.11767985241E+04 -0.10174534713E+04  0.24141780464E+04  0.90336859608E+03 0.  0.
        -24    2    4    4    0    0 -0.52940754435E+03  0.60350649542E+02 -0.17878010230E+03  0.56780987020E+03  0.80815684167E+02 0.  0.
         24    2    4    4    0    0 -0.10805969546E+04 -0.12371491737E+04 -0.83867336905E+03  0.18463681762E+04  0.86455572231E+02 0.  0.
         13    1    3    3    0    0  0.52805963339E+03  0.41785393313E+03 -0.56162582304E+03  0.87685372267E+03  0.00000000000E+00 0.  1.
        -13    1    3    3    0    0  0.10819448656E+04  0.75894459099E+03 -0.97290181204E+03  0.16410787672E+04  0.00000000000E+00 0. -1.
          4    1    6    6  502    0 -0.81793583353E+02 -0.11127142451E+03 -0.94845360552E+02  0.16753257178E+03  0.00000000000E+00 0. -1.
          3    1    5    5  503    0 -0.50792789832E+02  0.30793216555E+02 -0.18899496812E+02  0.62332340438E+02  0.00000000000E+00 0. -1.
         -4    1    5    5    0  503 -0.47861475451E+03  0.29557432988E+02 -0.15988060548E+03  0.50547752976E+03  0.00000000000E+00 0.  1.
         -3    1    6    6    0  502 -0.99880337126E+03 -0.11258777492E+04 -0.74382800850E+03  0.16788356044E+04  0.00000000000E+00 0.  1.
<mgrwt>
<rscale>  0 0.42205576E+04</rscale>
<asrwt>0</asrwt>
<pdfrwt beam="1">  1        2 0.57569936E+00 0.42205576E+04</pdfrwt>
<pdfrwt beam="2">  1       -2 0.18308688E+00 0.42205576E+04</pdfrwt>
<totfact> 0.72483009E-02</totfact>
</mgrwt>
</event>
<event>
12    1  0.2588309E-007  0.1880323E+04  0.7818608E-02  0.8664713E-01
          2   -1    0    0  501    0  0.00000000000E+00  0.00000000000E+00  0.21326598468E+04  0.21326598468E+04  0.00000000000E+00 0. -1.
         -2   -1    0    0    0  501 -0.00000000000E+00 -0.00000000000E+00 -0.41446076979E+03  0.41446076979E+03  0.00000000000E+00 0.  1.
         23    2    1    2    0    0  0.55748223672E+03  0.29357421978E+03  0.11393393145E+04  0.13051396267E+04  0.91231051718E+02 0.  0.
        254    2    1    2    0    0 -0.55748223672E+03 -0.29357421978E+03  0.57885976247E+03  0.12419809899E+04  0.90025878936E+03 0.  0.
        -24    2    4    4    0    0  0.13505655928E+02 -0.45097773764E+03  0.83137183237E+02  0.46543035402E+03  0.78423852333E+02 0.  0.
         24    2    4    4    0    0 -0.57098789265E+03  0.15740351786E+03  0.49572257923E+03  0.77655063586E+03  0.80541750080E+02 0.  0.
         13    1    3    3    0    0  0.71991038492E+02  0.71943441777E+02  0.21287072383E+03  0.23595023522E+03  0.00000000000E+00 0. -1.
        -13    1    3    3    0    0  0.48549119823E+03  0.22163077800E+03  0.92646859071E+03  0.10691893915E+04  0.00000000000E+00 0.  1.
          4    1    6    6  502    0 -0.19491238458E+03  0.41328250750E+02  0.12097078987E+03  0.23309395955E+03  0.00000000000E+00 0. -1.
          1    1    5    5  503    0  0.31472952693E+02 -0.10744482045E+03  0.39247404912E+02  0.11863934838E+03  0.00000000000E+00 0. -1.
         -2    1    5    5    0  503 -0.17967296764E+02 -0.34353291719E+03  0.43889778326E+02  0.34679100564E+03  0.00000000000E+00 0.  1.
         -3    1    6    6    0  502 -0.37607550806E+03  0.11607526711E+03  0.37475178936E+03  0.54345667631E+03  0.00000000000E+00 0.  1.
<mgrwt>
<rscale>  0 0.18803232E+04</rscale>
<asrwt>0</asrwt>
<pdfrwt beam="1">  1        2 0.32810151E+00 0.18803232E+04</pdfrwt>
<pdfrwt beam="2">  1       -2 0.63763196E-01 0.18803232E+04</pdfrwt>
<totfact> 0.12023894E+01</totfact>
</mgrwt>
</event>
<event>
12    1  0.2588309E-007  0.2541494E+04  0.7818608E-02  0.8388351E-01
         -2   -1    0    0    0  501 -0.00000000000E+00  0.00000000000E+00  0.80628202502E+03  0.80628202502E+03  0.00000000000E+00 0.  1.
          2   -1    0    0  501    0  0.00000000000E+00 -0.00000000000E+00 -0.20027699249E+04  0.20027699249E+04  0.00000000000E+00 0. -1.
         23    2    1    2    0    0 -0.15645415348E+03 -0.10824973758E+04 -0.73225629890E+03  0.13194101587E+04  0.91462609410E+02 0.  0.
        254    2    1    2    0    0  0.15645415348E+03  0.10824973758E+04 -0.46423160099E+03  0.14896417912E+04  0.89846714807E+03 0.  0.
        -24    2    4    4    0    0 -0.15751831570E+03  0.93273635205E+03 -0.60994396930E+02  0.95126225362E+03  0.79815014103E+02 0.  0.
         24    2    4    4    0    0  0.31397246919E+03  0.14976102371E+03 -0.40323720406E+03  0.53837953761E+03  0.79026629413E+02 0.  0.
         11    1    3    3    0    0 -0.35563199533E+02 -0.37714220271E+03 -0.20687335274E+03  0.43162201785E+03  0.00000000000E+00 0.  1.
        -11    1    3    3    0    0 -0.12089095395E+03 -0.70535517305E+03 -0.52538294616E+03  0.88778814084E+03  0.00000000000E+00 0. -1.
          2    1    6    6  502    0  0.26825993063E+02  0.19077203800E+02 -0.80918198440E+02  0.87357475051E+02  0.00000000000E+00 0. -1.
          1    1    5    5  503    0 -0.57143821419E+02  0.41584340124E+03  0.10497181594E+02  0.41988253298E+03  0.00000000000E+00 0. -1.
         -2    1    5    5    0  503 -0.10037449428E+03  0.51689295081E+03 -0.71491578524E+02  0.53137972063E+03  0.00000000000E+00 0.  1.
         -1    1    6    6    0  502  0.28714647612E+03  0.13068381991E+03 -0.32231900562E+03  0.45102206256E+03  0.00000000000E+00 0.  1.
<mgrwt>
<rscale>  0 0.25414936E+04</rscale>
<asrwt>0</asrwt>
<pdfrwt beam="1">  1        2 0.30811845E+00 0.25414936E+04</pdfrwt>
<pdfrwt beam="2">  1       -2 0.12404339E+00 0.25414936E+04</pdfrwt>
<totfact> 0.28925931E+00</totfact>
</mgrwt>
</event>
<event>
12    1  0.2588309E-007  0.1486559E+04  0.7818608E-02  0.8893440E-01
          1   -1    0    0  501    0  0.00000000000E+00  0.00000000000E+00  0.18776738758E+04  0.18776738758E+04  0.00000000000E+00 0. -1.
         -1   -1    0    0    0  501 -0.00000000000E+00 -0.00000000000E+00 -0.29422817149E+03  0.29422817149E+03  0.00000000000E+00 0.  1.
         23    2    1    2    0    0 -0.64525776819E+02  0.11110782276E+03  0.11566937668E+04  0.11679365561E+04  0.98116281609E+02 0.  0.
        254    2    1    2    0    0  0.64525776819E+02 -0.11110782276E+03  0.42675193751E+03  0.10039654912E+04  0.89962268048E+03 0.  0.
        -24    2    4    4    0    0  0.82137670866E+02 -0.42461414210E+02 -0.27076401592E+03  0.29830810452E+03  0.84409740154E+02 0.  0.
         24    2    4    4    0    0 -0.17611894048E+02 -0.68646408552E+02  0.69751595343E+03  0.70565738671E+03  0.80008336455E+02 0.  0.
         13    1    3    3    0    0 -0.12126538908E+02  0.35801384677E+02  0.75305190653E+03  0.75399997747E+03  0.00000000000E+00 0. -1.
        -13    1    3    3    0    0 -0.52399237911E+02  0.75306438085E+02  0.40364186027E+03  0.41393657861E+03  0.00000000000E+00 0.  1.
          2    1    6    6  502    0 -0.17581050880E+02 -0.80516297669E+02  0.42695728475E+03  0.43483846488E+03  0.00000000000E+00 0. -1.
          1    1    5    5  503    0  0.16419614319E+02  0.70984009286E+01 -0.15630991920E+03  0.15733016834E+03  0.00000000000E+00 0. -1.
         -2    1    5    5    0  503  0.65718056547E+02 -0.49559815138E+02 -0.11445409672E+03  0.14097793618E+03  0.00000000000E+00 0.  1.
         -1    1    6    6    0  502 -0.30843168056E-01  0.11869889116E+02  0.27055866868E+03  0.27081892182E+03  0.00000000000E+00 0.  1.
<mgrwt>
<rscale>  0 0.14865592E+04</rscale>
<asrwt>0</asrwt>
<pdfrwt beam="1">  1        1 0.28887290E+00 0.14865592E+04</pdfrwt>
<pdfrwt beam="2">  1       -1 0.45265874E-01 0.14865592E+04</pdfrwt>
<totfact> 0.16929441E+01</totfact>
</mgrwt>
</event>
<event>
12    1  0.2588309E-007  0.2136575E+04  0.7818608E-02  0.8545301E-01
          1   -1    0    0  501    0  0.00000000000E+00  0.00000000000E+00  0.10181996062E+04  0.10181996062E+04  0.00000000000E+00 0. -1.
         -1   -1    0    0    0  501 -0.00000000000E+00 -0.00000000000E+00 -0.11208394351E+04  0.11208394351E+04  0.00000000000E+00 0.  1.
         23    2    1    2    0    0 -0.48199548694E+03 -0.73109101035E+03 -0.50537178171E+02  0.88199823485E+03  0.92483323113E+02 0.  0.
        254    2    1    2    0    0  0.48199548694E+03  0.73109101035E+03 -0.52102650767E+02  0.12570408065E+04  0.90034614901E+03 0.  0.
        -24    2    4    4    0    0  0.26795933915E+03  0.68010818895E+03 -0.40115374551E+03  0.83762837084E+03  0.79671852009E+02 0.  0.
         24    2    4    4    0    0  0.21403614779E+03  0.50982821403E+02  0.34905109474E+03  0.41941243561E+03  0.75229008816E+02 0.  0.
         13    1    3    3    0    0 -0.26531643841E+03 -0.35908959705E+03 -0.65393642066E+02  0.45123661158E+03  0.00000000000E+00 0.  1.
        -13    1    3    3    0    0 -0.21667904853E+03 -0.37200141329E+03  0.14856463895E+02  0.43076162327E+03  0.00000000000E+00 0. -1.
          4    1    6    6  502    0  0.20118771805E+03  0.58632274564E+02  0.34543353389E+03  0.40402792954E+03  0.00000000000E+00 0. -1.
          1    1    5    5  503    0  0.25816590846E+03  0.66910166752E+03 -0.40320725982E+03  0.82275316599E+03  0.00000000000E+00 0. -1.
         -2    1    5    5    0  503  0.97934306862E+01  0.11006521425E+02  0.20535143148E+01  0.14875204857E+02  0.00000000000E+00 0.  1.
         -3    1    6    6    0  502  0.12848429749E+02 -0.76494531610E+01  0.36175608527E+01  0.15384506076E+02  0.00000000000E+00 0.  1.
<mgrwt>
<rscale>  0 0.21365751E+04</rscale>
<asrwt>0</asrwt>
<pdfrwt beam="1">  1        1 0.15664609E+00 0.21365751E+04</pdfrwt>
<pdfrwt beam="2">  1       -1 0.17243684E+00 0.21365751E+04</pdfrwt>
<totfact> 0.31704224E+00</totfact>
</mgrwt>
</event>
<event>
12    1  0.2588309E-007  0.3149829E+04  0.7818608E-02  0.8202194E-01
          2   -1    0    0  501    0  0.00000000000E+00  0.00000000000E+00  0.16488309342E+04  0.16488309342E+04  0.00000000000E+00 0. -1.
         -2   -1    0    0    0  501 -0.00000000000E+00 -0.00000000000E+00 -0.15043115753E+04  0.15043115753E+04  0.00000000000E+00 0.  1.
         23    2    1    2    0    0  0.44650610321E+03  0.76709078251E+03 -0.10748394069E+04  0.13969104325E+04  0.91011190870E+02 0.  0.
        254    2    1    2    0    0 -0.44650610321E+03 -0.76709078251E+03  0.12193587658E+04  0.17562320771E+04  0.89984406428E+03 0.  0.
        -24    2    4    4    0    0 -0.19902560713E+03  0.16667983661E+03  0.14351944497E+03  0.30830450420E+03  0.84026638666E+02 0.  0.
         24    2    4    4    0    0 -0.24748049609E+03 -0.93377061911E+03  0.10758393208E+04  0.14479275729E+04  0.76745338539E+02 0.  0.
         11    1    3    3    0    0  0.14443157088E+03  0.21264869237E+03 -0.37121045024E+03  0.45152756660E+03  0.00000000000E+00 0.  1.
        -11    1    3    3    0    0  0.30207453233E+03  0.55444209014E+03 -0.70362895666E+03  0.94538286586E+03  0.00000000000E+00 0. -1.
          2    1    6    6  502    0 -0.19487896742E+03 -0.72581177087E+03  0.78749476644E+03  0.10885442324E+04  0.00000000000E+00 0. -1.
          1    1    5    5  503    0 -0.18026654591E+03  0.17541224853E+03  0.13796743964E+03  0.28688063530E+03  0.00000000000E+00 0. -1.
         -2    1    5    5    0  503 -0.18759061219E+02 -0.87324119229E+01  0.55520053296E+01  0.21423868908E+02  0.00000000000E+00 0.  1.
         -1    1    6    6    0  502 -0.52601528663E+02 -0.20795884824E+03  0.28834455437E+03  0.35938334048E+03  0.00000000000E+00 0.  1.
<mgrwt>
<rscale>  0 0.31498289E+04</rscale>
<asrwt>0</asrwt>
<pdfrwt beam="1">  1        2 0.25366630E+00 0.31498289E+04</pdfrwt>
<pdfrwt beam="2">  1       -2 0.23143255E+00 0.31498289E+04</pdfrwt>
<totfact> 0.74167504E-01</totfact>
</mgrwt>
</event>
<event>
12    1  0.2588309E-007  0.2151720E+04  0.7818608E-02  0.8538796E-01
         -2   -1    0    0    0  501 -0.00000000000E+00  0.00000000000E+00  0.63268568701E+03  0.63268568701E+03  0.00000000000E+00 0.  1.
          2   -1    0    0  501    0  0.00000000000E+00 -0.00000000000E+00 -0.18294627079E+04  0.18294627079E+04  0.00000000000E+00 0. -1.
         23    2    1    2    0    0 -0.68379384470E+02 -0.66012137959E+03 -0.11658542098E+04  0.13445598643E+04  0.90494276994E+02 0.  0.
        254    2    1    2    0    0  0.68379384470E+02  0.66012137959E+03 -0.30922811074E+02  0.11175885306E+04  0.89867231373E+03 0.  0.
        -24    2    4    4    0    0  0.22967959973E+03 -0.92134418232E+02 -0.19735157509E+03  0.32642239585E+03  0.79765072373E+02 0.  0.
         24    2    4    4    0    0 -0.16130021526E+03  0.75225579782E+03  0.16642876402E+03  0.79116613474E+03  0.79616420857E+02 0.  0.
         13    1    3    3    0    0 -0.10791642941E+02 -0.19411854879E+03 -0.42625289593E+03  0.46849760067E+03  0.00000000000E+00 0. -1.
        -13    1    3    3    0    0 -0.57587741528E+02 -0.46600283080E+03 -0.73960131390E+03  0.87606226366E+03  0.00000000000E+00 0.  1.
          2    1    6    6  502    0 -0.10439973700E+03  0.37217471072E+03  0.51005338088E+02  0.38989083716E+03  0.00000000000E+00 0. -1.
          1    1    5    5  503    0  0.12791236921E+03 -0.39530622905E+02 -0.57676198174E+02  0.14577650078E+03  0.00000000000E+00 0. -1.
         -2    1    5    5    0  503  0.10176723052E+03 -0.52603795327E+02 -0.13967537692E+03  0.18064589507E+03  0.00000000000E+00 0.  1.
         -1    1    6    6    0  502 -0.56900478259E+02  0.38008108710E+03  0.11542342593E+03  0.40127529759E+03  0.00000000000E+00 0.  1.
<mgrwt>
<rscale>  0 0.21517201E+04</rscale>
<asrwt>0</asrwt>
<pdfrwt beam="1">  1        2 0.28145580E+00 0.21517201E+04</pdfrwt>
<pdfrwt beam="2">  1       -2 0.97336261E-01 0.21517201E+04</pdfrwt>
<totfact> 0.67133483E+00</totfact>
</mgrwt>
</event>
<event>
12    1  0.2588309E-007  0.1537709E+04  0.7818608E-02  0.8859757E-01
         -2   -1    0    0    0  501 -0.00000000000E+00  0.00000000000E+00  0.33566034269E+03  0.33566034269E+03  0.00000000000E+00 0.  1.
          2   -1    0    0  501    0  0.00000000000E+00 -0.00000000000E+00 -0.17611162740E+04  0.17611162740E+04  0.00000000000E+00 0. -1.
         23    2    1    2    0    0 -0.24476627508E+03  0.31493897517E+03 -0.59643037186E+02  0.41333391989E+03  0.90501657175E+02 0.  0.
        254    2    1    2    0    0  0.24476627508E+03 -0.31493897517E+03 -0.13658128941E+04  0.16834426968E+04  0.89968737021E+03 0.  0.
        -24    2    4    4    0    0 -0.16891306697E+03  0.79914698196E+02 -0.95151584666E+03  0.97282907300E+03  0.78076985414E+02 0.  0.
         24    2    4    4    0    0  0.41367934204E+03 -0.39485367336E+03 -0.41429704743E+03  0.71061362376E+03  0.79307360070E+02 0.  0.
         11    1    3    3    0    0 -0.62278781524E+02  0.15225245247E+03 -0.21363036871E+02  0.16587897774E+03  0.00000000000E+00 0.  1.
        -11    1    3    3    0    0 -0.18248749355E+03  0.16268652270E+03 -0.38280000315E+02  0.24745494215E+03  0.00000000000E+00 0. -1.
          2    1    6    6  502    0  0.67181137598E+02 -0.67179815123E+02 -0.10792185879E+03  0.14378303242E+03  0.00000000000E+00 0. -1.
          1    1    5    5  503    0 -0.46233501963E+02  0.54646562738E+02 -0.24286800483E+03  0.25319686272E+03  0.00000000000E+00 0. -1.
         -2    1    5    5    0  503 -0.12267956501E+03  0.25268135458E+02 -0.70864784183E+03  0.71963221028E+03  0.00000000000E+00 0.  1.
         -1    1    6    6    0  502  0.34649820445E+03 -0.32767385824E+03 -0.30637518865E+03  0.56683059134E+03  0.00000000000E+00 0.  1.
<mgrwt>
<rscale>  0 0.15377085E+04</rscale>
<asrwt>0</asrwt>
<pdfrwt beam="1">  1        2 0.27094096E+00 0.15377085E+04</pdfrwt>
<pdfrwt beam="2">  1       -2 0.51640053E-01 0.15377085E+04</pdfrwt>
<totfact> 0.30945409E+01</totfact>
</mgrwt>
</event>
<event>
12    1  0.2588309E-007  0.1522773E+04  0.7818608E-02  0.8869449E-01
         -1   -1    0    0    0  501 -0.00000000000E+00  0.00000000000E+00  0.35080667403E+03  0.35080667403E+03  0.00000000000E+00 0.  1.
          1   -1    0    0  501    0  0.00000000000E+00 -0.00000000000E+00 -0.16525037370E+04  0.16525037370E+04  0.00000000000E+00 0. -1.
         23    2    1    2    0    0 -0.48892259136E+03  0.18631429370E+02 -0.57536415552E+03  0.76067068132E+03  0.90462939696E+02 0.  0.
        254    2    1    2    0    0  0.48892259136E+03 -0.18631429370E+02 -0.72633290740E+03  0.12426397297E+04  0.88159036681E+03 0.  0.
        -24    2    4    4    0    0  0.28319706425E+03  0.13635857380E+03 -0.87640323195E+03  0.93432299593E+03  0.77991011681E+02 0.  0.
         24    2    4    4    0    0  0.20572552711E+03 -0.15499000317E+03  0.15007032455E+03  0.30831673373E+03  0.78696965636E+02 0.  0.
         11    1    3    3    0    0 -0.17448208590E+03  0.47938663269E+02 -0.23083605096E+03  0.29330427231E+03  0.00000000000E+00 0. -1.
        -11    1    3    3    0    0 -0.31444050546E+03 -0.29307233898E+02 -0.34452810456E+03  0.46736640901E+03  0.00000000000E+00 0.  1.
          2    1    6    6  502    0  0.28748824101E+02 -0.32965259519E+02  0.62300847394E+02  0.76122262239E+02  0.00000000000E+00 0. -1.
          3    1    5    5  503    0  0.93118056267E+02  0.59554621692E+01 -0.25816432186E+03  0.27450912009E+03  0.00000000000E+00 0. -1.
         -4    1    5    5    0  503  0.19007900798E+03  0.13040311163E+03 -0.61823891010E+03  0.65981387585E+03  0.00000000000E+00 0.  1.
         -1    1    6    6    0  502  0.17697670301E+03 -0.12202474365E+03  0.87769477157E+02  0.23219447149E+03  0.00000000000E+00 0.  1.
<mgrwt>
<rscale>  0 0.15227729E+04</rscale>
<asrwt>0</asrwt>
<pdfrwt beam="1">  1        1 0.25423135E+00 0.15227729E+04</pdfrwt>
<pdfrwt beam="2">  1       -1 0.53970257E-01 0.15227729E+04</pdfrwt>
<totfact> 0.17187881E+01</totfact>
</mgrwt>
</event>
<event>
12    1  0.2588309E-007  0.1207646E+04  0.7818608E-02  0.9106190E-01
          2   -1    0    0  501    0  0.00000000000E+00  0.00000000000E+00  0.13727603150E+04  0.13727603150E+04  0.00000000000E+00 0. -1.
         -2   -1    0    0    0  501 -0.00000000000E+00 -0.00000000000E+00 -0.26559796324E+03  0.26559796324E+03  0.00000000000E+00 0.  1.
         23    2    1    2    0    0 -0.44475057353E+02  0.20674119724E+03  0.44811402339E+03  0.50297726826E+03  0.86371297700E+02 0.  0.
        254    2    1    2    0    0  0.44475057353E+02 -0.20674119724E+03  0.65904832842E+03  0.11353810100E+04  0.90001410287E+03 0.  0.
        -24    2    4    4    0    0  0.26538505630E+02  0.22447945549E+03 -0.98783094075E+02  0.25980712375E+03  0.81524987923E+02 0.  0.
         24    2    4    4    0    0  0.17936551723E+02 -0.43122065273E+03  0.75783142249E+03  0.87557388627E+03  0.77770136808E+02 0.  0.
         13    1    3    3    0    0 -0.43095310193E+02  0.14727685164E+03  0.39296618067E+03  0.42186502099E+03  0.00000000000E+00 0. -1.
        -13    1    3    3    0    0 -0.13797471596E+01  0.59464345601E+02  0.55147842725E+02  0.81112247270E+02  0.00000000000E+00 0.  1.
          4    1    6    6  502    0 -0.21598465012E+02 -0.30862370183E+03  0.51882477257E+03  0.60406475452E+03  0.00000000000E+00 0. -1.
          1    1    5    5  503    0  0.53277831754E+02  0.17010891586E+03 -0.61016855672E+02  0.18841079398E+03  0.00000000000E+00 0. -1.
         -2    1    5    5    0  503 -0.26739326124E+02  0.54370539634E+02 -0.37766238403E+02  0.71396329770E+02  0.00000000000E+00 0.  1.
         -3    1    6    6    0  502  0.39535016736E+02 -0.12259695091E+03  0.23900664992E+03  0.27150913175E+03  0.00000000000E+00 0.  1.
<mgrwt>
<rscale>  0 0.12076462E+04</rscale>
<asrwt>0</asrwt>
<pdfrwt beam="1">  1        2 0.21119389E+00 0.12076462E+04</pdfrwt>
<pdfrwt beam="2">  1       -2 0.40861226E-01 0.12076462E+04</pdfrwt>
<totfact> 0.83868169E+01</totfact>
</mgrwt>
</event>
<event>
12    1  0.2588309E-007  0.2525517E+04  0.7818608E-02  0.8393951E-01
         -2   -1    0    0    0  501 -0.00000000000E+00  0.00000000000E+00  0.26318658711E+04  0.26318658711E+04  0.00000000000E+00 0.  1.
          2   -1    0    0  501    0  0.00000000000E+00 -0.00000000000E+00 -0.60586620597E+03  0.60586620597E+03  0.00000000000E+00 0. -1.
         23    2    1    2    0    0 -0.80716584191E+03  0.73186890954E+03  0.10789176934E+04  0.15361168823E+04  0.91885199604E+02 0.  0.
        254    2    1    2    0    0  0.80716584191E+03 -0.73186890954E+03  0.94708197174E+03  0.17016151948E+04  0.90076701355E+03 0.  0.
        -24    2    4    4    0    0 -0.18643973335E+03 -0.63782734260E+02  0.13396285178E+03  0.25204463428E+03  0.82173235622E+02 0.  0.
         24    2    4    4    0    0  0.99360557526E+03 -0.66808617528E+03  0.81311911997E+03  0.14495705605E+04  0.80628343229E+02 0.  0.
         13    1    3    3    0    0 -0.62315073967E+03  0.53492919966E+03  0.85706929876E+03  0.11870273273E+04  0.00000000000E+00 0.  1.
        -13    1    3    3    0    0 -0.18401510224E+03  0.19693970988E+03  0.22184839461E+03  0.34908955495E+03  0.00000000000E+00 0. -1.
          4    1    6    6  502    0  0.82110371145E+03 -0.57583510027E+03  0.70672586377E+03  0.12268898949E+04  0.00000000000E+00 0. -1.
          1    1    5    5  503    0 -0.17194472908E+03 -0.73967251595E+02  0.96469065203E+02  0.21057641062E+03  0.00000000000E+00 0. -1.
         -2    1    5    5    0  503 -0.14495004266E+02  0.10184517336E+02  0.37493786573E+02  0.41468223662E+02  0.00000000000E+00 0.  1.
         -3    1    6    6    0  502  0.17250186381E+03 -0.92251075016E+02  0.10639325620E+03  0.22268066558E+03  0.00000000000E+00 0.  1.
<mgrwt>
<rscale>  0 0.25255167E+04</rscale>
<asrwt>0</asrwt>
<pdfrwt beam="1">  1        2 0.93210187E-01 0.25255167E+04</pdfrwt>
<pdfrwt beam="2">  1       -2 0.40490243E+00 0.25255167E+04</pdfrwt>
<totfact> 0.30075880E-01</totfact>
</mgrwt>
</event>
<event>
12    1  0.2588309E-007  0.1407717E+04  0.7818608E-02  0.8948251E-01
          2   -1    0    0  501    0  0.00000000000E+00  0.00000000000E+00  0.10146889994E+04  0.10146889994E+04  0.00000000000E+00 0.  1.
         -2   -1    0    0    0  501 -0.00000000000E+00 -0.00000000000E+00 -0.48824503492E+03  0.48824503492E+03  0.00000000000E+00 0. -1.
         23    2    1    2    0    0  0.33266665851E+03  0.23178648566E+03  0.21765217456E+03  0.46971753548E+03  0.94180748712E+02 0.  0.
        254    2    1    2    0    0 -0.33266665851E+03 -0.23178648566E+03  0.30879178994E+03  0.10332164989E+04  0.89877243135E+03 0.  0.
        -24    2    4    4    0    0 -0.13201619603E+03 -0.34890660851E+03 -0.22723393233E+03  0.44411003481E+03  0.80214497083E+02 0.  0.
         24    2    4    4    0    0 -0.20065046249E+03  0.11712012285E+03  0.53602572227E+03  0.58910646405E+03  0.75796568415E+02 0.  0.
         13    1    3    3    0    0  0.67649087594E+02  0.36450183216E+02  0.34104263805E+01  0.76919736848E+02  0.00000000000E+00 0. -1.
        -13    1    3    3    0    0  0.26501757092E+03  0.19533630244E+03  0.21424174818E+03  0.39279779864E+03  0.00000000000E+00 0.  1.
          2    1    6    6  502    0 -0.11334794868E+03  0.90693323803E+02  0.25232746078E+03  0.29110510802E+03  0.00000000000E+00 0. -1.
          1    1    5    5  503    0 -0.48959731775E+01 -0.97575690732E+01  0.68234796028E+01  0.12874027399E+02  0.00000000000E+00 0. -1.
         -2    1    5    5    0  503 -0.12712022285E+03 -0.33914903943E+03 -0.23405741193E+03  0.43123600741E+03  0.00000000000E+00 0.  1.
         -1    1    6    6    0  502 -0.87302513804E+02  0.26426799043E+02  0.28369826149E+03  0.29800135603E+03  0.00000000000E+00 0.  1.
<mgrwt>
<rscale>  0 0.14077171E+04</rscale>
<asrwt>0</asrwt>
<pdfrwt beam="1">  1        2 0.15610600E+00 0.14077171E+04</pdfrwt>
<pdfrwt beam="2">  1       -2 0.75114621E-01 0.14077171E+04</pdfrwt>
<totfact> 0.38165689E+01</totfact>
</mgrwt>
</event>
<event>
12    1  0.2588309E-007  0.2260304E+04  0.7818608E-02  0.8493739E-01
         -2   -1    0    0    0  501 -0.00000000000E+00  0.00000000000E+00  0.12317630227E+04  0.12317630227E+04  0.00000000000E+00 0.  1.
          2   -1    0    0  501    0  0.00000000000E+00 -0.00000000000E+00 -0.10369232217E+04  0.10369232217E+04  0.00000000000E+00 0. -1.
         23    2    1    2    0    0 -0.58300836310E+03 -0.46736981527E+03 -0.50428899360E+03  0.90659594552E+03  0.96309520357E+02 0.  0.
        254    2    1    2    0    0  0.58300836310E+03  0.46736981527E+03  0.69912879463E+03  0.13620902988E+04  0.89898588144E+03 0.  0.
        -24    2    4    4    0    0  0.57722175835E+03  0.52623491129E+03  0.14493803620E+03  0.79827093043E+03  0.78238761871E+02 0.  0.
         24    2    4    4    0    0  0.57866047501E+01 -0.58865096023E+02  0.55419075843E+03  0.56381936840E+03  0.85242589924E+02 0.  0.
         13    1    3    3    0    0 -0.52284357192E+03 -0.37637274184E+03 -0.42634510679E+03  0.77252313337E+03  0.00000000000E+00 0.  1.
        -13    1    3    3    0    0 -0.60164791174E+02 -0.90997073424E+02 -0.77943886803E+02  0.13407281215E+03  0.00000000000E+00 0. -1.
          2    1    6    6  502    0 -0.54805646277E+01 -0.72946612769E+02  0.52040842783E+03  0.52552466798E+03  0.00000000000E+00 0. -1.
          3    1    5    5  503    0  0.57244690413E+03  0.50551819514E+03  0.13971733475E+03  0.77637944157E+03  0.00000000000E+00 0. -1.
         -4    1    5    5    0  503  0.47748542232E+01  0.20716716151E+02  0.52207014510E+01  0.21891488861E+02  0.00000000000E+00 0.  1.
         -1    1    6    6    0  502  0.11267169378E+02  0.14081516746E+02  0.33782330596E+02  0.38294700419E+02  0.00000000000E+00 0.  1.
<mgrwt>
<rscale>  0 0.22603041E+04</rscale>
<asrwt>0</asrwt>
<pdfrwt beam="1">  1        2 0.15952665E+00 0.22603041E+04</pdfrwt>
<pdfrwt beam="2">  1       -2 0.18950200E+00 0.22603041E+04</pdfrwt>
<totfact> 0.33889234E+00</totfact>
</mgrwt>
</event>
<event>
12    1  0.2588309E-007  0.2259386E+04  0.7818608E-02  0.8494109E-01
          2   -1    0    0  501    0  0.00000000000E+00  0.00000000000E+00  0.13062882584E+04  0.13062882584E+04  0.00000000000E+00 0. -1.
         -2   -1    0    0    0  501 -0.00000000000E+00 -0.00000000000E+00 -0.97697163556E+03  0.97697163556E+03  0.00000000000E+00 0.  1.
         23    2    1    2    0    0 -0.80185521676E+03 -0.27121759684E+03  0.57088345352E+03  0.10247298960E+04  0.87365146768E+02 0.  0.
        254    2    1    2    0    0  0.80185521676E+03  0.27121759684E+03 -0.24156683071E+03  0.12585299979E+04  0.89945119289E+03 0.  0.
        -24    2    4    4    0    0  0.39144618768E+03 -0.85694262663E+02 -0.50396019291E+03  0.64893847831E+03  0.81065702338E+02 0.  0.
         24    2    4    4    0    0  0.41040902908E+03  0.35691185950E+03  0.26239336220E+03  0.60959151957E+03  0.83246006525E+02 0.  0.
         13    1    3    3    0    0 -0.40193489095E+03 -0.11838236600E+03  0.23376335642E+03  0.47980344720E+03  0.00000000000E+00 0.  1.
        -13    1    3    3    0    0 -0.39992032581E+03 -0.15283523083E+03  0.33712009710E+03  0.54492644885E+03  0.00000000000E+00 0. -1.
          4    1    6    6  502    0  0.13581460415E+03  0.14620996598E+03  0.58819738057E+02  0.20804500100E+03  0.00000000000E+00 0. -1.
          1    1    5    5  503    0  0.31951959331E+03 -0.85291125718E+02 -0.36548003218E+03  0.49289248377E+03  0.00000000000E+00 0. -1.
         -2    1    5    5    0  503  0.71926594367E+02 -0.40313694489E+00 -0.13848016073E+03  0.15604599454E+03  0.00000000000E+00 0.  1.
         -3    1    6    6    0  502  0.27459442493E+03  0.21070189352E+03  0.20357362414E+03  0.40154651858E+03  0.00000000000E+00 0.  1.
<mgrwt>
<rscale>  0 0.22593863E+04</rscale>
<asrwt>0</asrwt>
<pdfrwt beam="1">  1        2 0.20096743E+00 0.22593863E+04</pdfrwt>
<pdfrwt beam="2">  1       -2 0.15030333E+00 0.22593863E+04</pdfrwt>
<totfact> 0.44442474E+00</totfact>
</mgrwt>
</event>
<event>
12    1  0.2588309E-007  0.2016651E+04  0.7818608E-02  0.8598875E-01
         -2   -1    0    0    0  501 -0.00000000000E+00  0.00000000000E+00  0.75031371597E+03  0.75031371597E+03  0.00000000000E+00 0.  1.
          2   -1    0    0  501    0  0.00000000000E+00 -0.00000000000E+00 -0.13550608039E+04  0.13550608039E+04  0.00000000000E+00 0. -1.
         23    2    1    2    0    0 -0.14932135527E+01  0.78865807681E+03 -0.67993815901E+02  0.79671764759E+03  0.90288754429E+02 0.  0.
        254    2    1    2    0    0  0.14932135527E+01 -0.78865807681E+03 -0.53675327208E+03  0.13086568723E+04  0.89582082059E+03 0.  0.
        -24    2    4    4    0    0  0.28430720632E+03 -0.76476489984E+03 -0.58843669710E+03  0.10091525446E+04  0.80219524933E+02 0.  0.
         24    2    4    4    0    0 -0.28281399277E+03 -0.23893176968E+02  0.51683425017E+02  0.29950432773E+03  0.80479981973E+02 0.  0.
         13    1    3    3    0    0  0.18765334680E+02  0.21653588118E+03  0.16779817956E+02  0.21799423826E+03  0.00000000000E+00 0. -1.
        -13    1    3    3    0    0 -0.20258548232E+02  0.57212219563E+03 -0.84773633857E+02  0.57872340933E+03  0.00000000000E+00 0.  1.
          4    1    6    6  502    0  0.39115798241E+01 -0.66611637508E+01  0.21844670266E+01  0.80276681188E+01  0.00000000000E+00 0. -1.
          1    1    5    5  503    0  0.50699989653E+02 -0.73910656453E+02 -0.79916440725E+02  0.12008293628E+03  0.00000000000E+00 0. -1.
         -2    1    5    5    0  503  0.23360721667E+03 -0.69085424339E+03 -0.50852025637E+03  0.88906960831E+03  0.00000000000E+00 0.  1.
         -3    1    6    6    0  502 -0.28672557259E+03 -0.17232013217E+02  0.49498957990E+02  0.29147665961E+03  0.00000000000E+00 0.  1.
<mgrwt>
<rscale>  0 0.20166514E+04</rscale>
<asrwt>0</asrwt>
<pdfrwt beam="1">  1        2 0.20847089E+00 0.20166514E+04</pdfrwt>
<pdfrwt beam="2">  1       -2 0.11543288E+00 0.20166514E+04</pdfrwt>
<totfact> 0.83268254E+00</totfact>
</mgrwt>
</event>
<event>
12    1  0.2588309E-007  0.2256206E+04  0.7818608E-02  0.8495391E-01
         -2   -1    0    0    0  501 -0.00000000000E+00  0.00000000000E+00  0.19724766618E+04  0.19724766618E+04  0.00000000000E+00 0.  1.
          2   -1    0    0  501    0  0.00000000000E+00 -0.00000000000E+00 -0.64518716754E+03  0.64518716754E+03  0.00000000000E+00 0. -1.
         23    2    1    2    0    0 -0.10521422656E+03  0.88433323768E+03  0.19344084156E+03  0.91592577798E+03  0.91571626868E+02 0.  0.
        254    2    1    2    0    0  0.10521422656E+03 -0.88433323768E+03  0.11338486527E+04  0.17017380514E+04  0.90398247742E+03 0.  0.
        -24    2    4    4    0    0  0.34297654188E+03 -0.15597720284E+03  0.74552016723E+03  0.83913443149E+03  0.79902930398E+02 0.  0.
         24    2    4    4    0    0 -0.23776231532E+03 -0.72835603484E+03  0.38832848547E+03  0.86260361987E+03  0.79073132632E+02 0.  0.
         13    1    3    3    0    0 -0.85483148301E+02  0.61075941321E+03  0.92266897890E+02  0.62357646677E+03  0.00000000000E+00 0. -1.
        -13    1    3    3    0    0 -0.19731078258E+02  0.27357382447E+03  0.10117394367E+03  0.29234931121E+03  0.00000000000E+00 0.  1.
          2    1    6    6  502    0 -0.49035765635E+02 -0.26143230390E+03  0.15099329855E+03  0.30585998764E+03  0.00000000000E+00 0. -1.
          3    1    5    5  503    0  0.28358888102E+03 -0.12110029513E+03  0.66608009961E+03  0.73399634469E+03  0.00000000000E+00 0. -1.
         -4    1    5    5    0  503  0.59387660857E+02 -0.34876907706E+02  0.79440067615E+02  0.10513808680E+03  0.00000000000E+00 0.  1.
         -1    1    6    6    0  502 -0.18872654968E+03 -0.46692373095E+03  0.23733518692E+03  0.55674363223E+03  0.00000000000E+00 0.  1.
<mgrwt>
<rscale>  0 0.22562062E+04</rscale>
<asrwt>0</asrwt>
<pdfrwt beam="1">  1        2 0.99259565E-01 0.22562062E+04</pdfrwt>
<pdfrwt beam="2">  1       -2 0.30345794E+00 0.22562062E+04</pdfrwt>
<totfact> 0.12504215E+00</totfact>
</mgrwt>
</event>
<event>
12    1  0.2588309E-007  0.2337387E+04  0.7818608E-02  0.8463324E-01
          1   -1    0    0  501    0  0.00000000000E+00  0.00000000000E+00  0.18105174437E+04  0.18105174437E+04  0.00000000000E+00 0. -1.
         -1   -1    0    0    0  501 -0.00000000000E+00 -0.00000000000E+00 -0.75439469335E+03  0.75439469335E+03  0.00000000000E+00 0.  1.
         23    2    1    2    0    0 -0.69213246406E+03  0.10738954572E+03 -0.32180358975E+03  0.77635547860E+03  0.92684499476E+02 0.  0.
        254    2    1    2    0    0  0.69213246406E+03 -0.10738954572E+03  0.13779263401E+04  0.17885566584E+04  0.89981890366E+03 0.  0.
        -24    2    4    4    0    0  0.64232750501E+01 -0.97645749795E+02 -0.97579999866E+02  0.15951783886E+03  0.79675175717E+02 0.  0.
         24    2    4    4    0    0  0.68570918901E+03 -0.97437959207E+01  0.14755063399E+04  0.16290388196E+04  0.79727554727E+02 0.  0.
         11    1    3    3    0    0 -0.11460444564E+03 -0.14610088230E+02 -0.39967340556E+02  0.12224983415E+03  0.00000000000E+00 0. -1.
        -11    1    3    3    0    0 -0.57752801841E+03  0.12199963395E+03 -0.28183624920E+03  0.65410564445E+03  0.00000000000E+00 0.  1.
          4    1    6    6  502    0  0.13114412293E+03  0.71979071590E+01  0.35911593004E+03  0.38238049382E+03  0.00000000000E+00 0. -1.
          1    1    5    5  503    0  0.41360017891E+02 -0.60397658230E+02 -0.70863376464E+02  0.10188300311E+03  0.00000000000E+00 0. -1.
         -2    1    5    5    0  503 -0.34936742841E+02 -0.37248091565E+02 -0.26716623402E+02  0.57634835747E+02  0.00000000000E+00 0.  1.
         -3    1    6    6    0  502  0.55456506608E+03 -0.16941703080E+02  0.11163904099E+04  0.12466583257E+04  0.00000000000E+00 0.  1.
<mgrwt>
<rscale>  0 0.23373872E+04</rscale>
<asrwt>0</asrwt>
<pdfrwt beam="1">  1        1 0.27854114E+00 0.23373872E+04</pdfrwt>
<pdfrwt beam="2">  1       -1 0.11606072E+00 0.23373872E+04</pdfrwt>
<totfact> 0.24239277E+00</totfact>
</mgrwt>
</event>
<event>
12    1  0.2588309E-007  0.2709512E+04  0.7818608E-02  0.8331925E-01
          1   -1    0    0  501    0  0.00000000000E+00  0.00000000000E+00  0.76061639233E+03  0.76061639233E+03  0.00000000000E+00 0. -1.
         -1   -1    0    0    0  501 -0.00000000000E+00 -0.00000000000E+00 -0.24129949132E+04  0.24129949132E+04  0.00000000000E+00 0.  1.
         23    2    1    2    0    0  0.11298159450E+04 -0.35694351890E+03 -0.98170481642E+03  0.15414674040E+04  0.92112245072E+02 0.  0.
        254    2    1    2    0    0 -0.11298159450E+04  0.35694351890E+03 -0.67067370445E+03  0.16321439015E+04  0.90010985557E+03 0.  0.
        -24    2    4    4    0    0 -0.60675108971E+02  0.36846598765E+03 -0.30569505033E+02  0.38342725995E+03  0.81445172550E+02 0.  0.
         24    2    4    4    0    0 -0.10691408361E+04 -0.11522468748E+02 -0.64010419942E+03  0.12487166416E+04  0.79780763435E+02 0.  0.
         13    1    3    3    0    0  0.10793070024E+04 -0.31986318986E+03 -0.92617015500E+03  0.14577404507E+04  0.00000000000E+00 0. -1.
        -13    1    3    3    0    0  0.50508942653E+02 -0.37080329037E+02 -0.55534661426E+02  0.83726953301E+02  0.00000000000E+00 0.  1.
          2    1    6    6  502    0 -0.21149236405E+03 -0.30946373792E+02 -0.11171247009E+03  0.24117705959E+03  0.00000000000E+00 0. -1.
          3    1    5    5  503    0 -0.26845541134E+02  0.23352542133E+03 -0.56873566980E+02  0.24184583541E+03  0.00000000000E+00 0. -1.
         -4    1    5    5    0  503 -0.33829567838E+02  0.13494056632E+03  0.26304061947E+02  0.14158142453E+03  0.00000000000E+00 0.  1.
         -1    1    6    6    0  502 -0.85764847202E+03  0.19423905043E+02 -0.52839172933E+03  0.10075395820E+04  0.00000000000E+00 0.  1.
<mgrwt>
<rscale>  0 0.27095118E+04</rscale>
<asrwt>0</asrwt>
<pdfrwt beam="1">  1        1 0.11701791E+00 0.27095118E+04</pdfrwt>
<pdfrwt beam="2">  1       -1 0.37122999E+00 0.27095118E+04</pdfrwt>
<totfact> 0.23430488E-01</totfact>
</mgrwt>
</event>
<event>
12    1  0.2588309E-007  0.1744213E+04  0.7818608E-02  0.8736542E-01
          2   -1    0    0  501    0  0.00000000000E+00  0.00000000000E+00  0.22649216238E+04  0.22649216238E+04  0.00000000000E+00 0. -1.
         -2   -1    0    0    0  501 -0.00000000000E+00 -0.00000000000E+00 -0.33580395829E+03  0.33580395829E+03  0.00000000000E+00 0.  1.
         23    2    1    2    0    0  0.59015091755E+03 -0.59948283697E+02  0.10486387918E+04  0.12083782242E+04  0.93073705846E+02 0.  0.
        254    2    1    2    0    0 -0.59015091755E+03  0.59948283697E+02  0.88047887367E+03  0.13923473579E+04  0.90084194834E+03 0.  0.
        -24    2    4    4    0    0 -0.23325042262E+01 -0.20959779775E+02 -0.16682213860E+03  0.18606240771E+03  0.79654508297E+02 0.  0.
         24    2    4    4    0    0 -0.58781841332E+03  0.80908063472E+02  0.10473010123E+04  0.12062849502E+04  0.78786858023E+02 0.  0.
         13    1    3    3    0    0  0.34821647804E+03 -0.13293052518E+02  0.69363287818E+03  0.77624608890E+03  0.00000000000E+00 0. -1.
        -13    1    3    3    0    0  0.24193443950E+03 -0.46655231179E+02  0.35500591363E+03  0.43213213526E+03  0.00000000000E+00 0.  1.
          4    1    6    6  502    0 -0.27175185225E+03  0.34639163460E+00  0.50394943315E+03  0.57255062689E+03  0.00000000000E+00 0. -1.
          3    1    5    5  503    0 -0.20359244151E+02 -0.56718353757E+01 -0.16009953091E+03  0.16148847741E+03  0.00000000000E+00 0. -1.
         -4    1    5    5    0  503  0.18026739925E+02 -0.15287944399E+02 -0.67226076901E+01  0.24573930301E+02  0.00000000000E+00 0.  1.
         -3    1    6    6    0  502 -0.31606656107E+03  0.80561671837E+02  0.54335157912E+03  0.63373432330E+03  0.00000000000E+00 0.  1.
<mgrwt>
<rscale>  0 0.17442129E+04</rscale>
<asrwt>0</asrwt>
<pdfrwt beam="1">  1        2 0.34844947E+00 0.17442129E+04</pdfrwt>
<pdfrwt beam="2">  1       -2 0.51662149E-01 0.17442129E+04</pdfrwt>
<totfact> 0.15935859E+01</totfact>
</mgrwt>
</event>
<event>
12    1  0.2588309E-007  0.1283630E+04  0.7818608E-02  0.9042649E-01
          2   -1    0    0  501    0  0.00000000000E+00  0.00000000000E+00  0.10129877165E+04  0.10129877165E+04  0.00000000000E+00 0. -1.
         -2   -1    0    0    0  501 -0.00000000000E+00 -0.00000000000E+00 -0.40664491095E+03  0.40664491095E+03  0.00000000000E+00 0.  1.
         23    2    1    2    0    0  0.38749929986E+02 -0.31006440263E+03  0.10010570776E+03  0.34067528701E+03  0.91635187547E+02 0.  0.
        254    2    1    2    0    0 -0.38749929986E+02  0.31006440263E+03  0.50623709774E+03  0.10789573404E+04  0.90012857550E+03 0.  0.
        -24    2    4    4    0    0  0.38636086118E+03  0.37318690076E+02  0.38675142122E+03  0.55387979963E+03  0.80862667198E+02 0.  0.
         24    2    4    4    0    0 -0.42511079116E+03  0.27274571256E+03  0.11948567653E+03  0.52507754077E+03  0.79499612881E+02 0.  0.
         11    1    3    3    0    0  0.42123789860E+02 -0.20257704629E+03  0.10695142191E+03  0.23291732440E+03  0.00000000000E+00 0. -1.
        -11    1    3    3    0    0 -0.33738598737E+01 -0.10748735634E+03 -0.68457141458E+01  0.10775796261E+03  0.00000000000E+00 0.  1.
          2    1    6    6  502    0 -0.12642609186E+03  0.10061857150E+03  0.43862138986E+01  0.16163815300E+03  0.00000000000E+00 0. -1.
          1    1    5    5  503    0  0.29003734116E+02 -0.96236904175E+01  0.92087434352E+01  0.31916029916E+02  0.00000000000E+00 0. -1.
         -2    1    5    5    0  503  0.35735712706E+03  0.46942380494E+02  0.37754267778E+03  0.52196376972E+03  0.00000000000E+00 0.  1.
         -1    1    6    6    0  502 -0.29868469930E+03  0.17212714106E+03  0.11509946263E+03  0.36343938777E+03  0.00000000000E+00 0.  1.
<mgrwt>
<rscale>  0 0.12836297E+04</rscale>
<asrwt>0</asrwt>
<pdfrwt beam="1">  1        2 0.15584426E+00 0.12836297E+04</pdfrwt>
<pdfrwt beam="2">  1       -2 0.62560756E-01 0.12836297E+04</pdfrwt>
<totfact> 0.57467150E+01</totfact>
</mgrwt>
</event>
<event>
12    1  0.2588309E-007  0.1463209E+04  0.7818608E-02  0.8909294E-01
          1   -1    0    0  501    0  0.00000000000E+00  0.00000000000E+00  0.67994530938E+03  0.67994530938E+03  0.00000000000E+00 0. -1.
         -1   -1    0    0    0  501 -0.00000000000E+00 -0.00000000000E+00 -0.78718888141E+03  0.78718888141E+03  0.00000000000E+00 0.  1.
         23    2    1    2    0    0  0.43207286754E+03 -0.12223613889E+03 -0.25210105750E+02  0.45856959448E+03  0.89564987772E+02 0.  0.
        254    2    1    2    0    0 -0.43207286754E+03  0.12223613889E+03 -0.82033466279E+02  0.10085645963E+04  0.89935778131E+03 0.  0.
        -24    2    4    4    0    0 -0.17669730912E+02  0.34487955059E+03  0.24433667503E+03  0.43036929162E+03  0.79140334847E+02 0.  0.
         24    2    4    4    0    0 -0.41440313663E+03 -0.22264341170E+03 -0.32637014131E+03  0.57819530468E+03  0.80574765260E+02 0.  0.
         11    1    3    3    0    0  0.86764516926E+02 -0.31153673404E+02  0.30562048322E+02  0.97121941710E+02  0.00000000000E+00 0. -1.
        -11    1    3    3    0    0  0.34530835062E+03 -0.91082465483E+02 -0.55772154072E+02  0.36144765277E+03  0.00000000000E+00 0.  1.
          4    1    6    6  502    0 -0.31394513662E+03 -0.12766298556E+03 -0.23757679108E+03  0.41388660083E+03  0.00000000000E+00 0. -1.
          1    1    5    5  503    0  0.24562075423E+02  0.13566946539E+03  0.69126645779E+02  0.15423356491E+03  0.00000000000E+00 0. -1.
         -2    1    5    5    0  503 -0.42231806335E+02  0.20921008520E+03  0.17521002925E+03  0.27613572671E+03  0.00000000000E+00 0.  1.
         -3    1    6    6    0  502 -0.10045800001E+03 -0.94980426141E+02 -0.88793350228E+02  0.16430870385E+03  0.00000000000E+00 0.  1.
<mgrwt>
<rscale>  0 0.14632093E+04</rscale>
<asrwt>0</asrwt>
<pdfrwt beam="1">  1        1 0.10460697E+00 0.14632093E+04</pdfrwt>
<pdfrwt beam="2">  1       -1 0.12110598E+00 0.14632093E+04</pdfrwt>
<totfact> 0.16725015E+01</totfact>
</mgrwt>
</event>
<event>
12    1  0.2588309E-007  0.1773104E+04  0.7818608E-02  0.8720734E-01
          2   -1    0    0  501    0  0.00000000000E+00  0.00000000000E+00  0.98094475062E+03  0.98094475062E+03  0.00000000000E+00 0. -1.
         -2   -1    0    0    0  501 -0.00000000000E+00 -0.00000000000E+00 -0.80124275383E+03  0.80124275383E+03  0.00000000000E+00 0.  1.
         23    2    1    2    0    0  0.19077102051E+03 -0.46843688418E+01  0.69615713437E+03  0.72771898763E+03  0.92328996756E+02 0.  0.
        254    2    1    2    0    0 -0.19077102051E+03  0.46843688418E+01 -0.51645513758E+03  0.10544685168E+04  0.89931219177E+03 0.  0.
        -24    2    4    4    0    0 -0.14424799610E+03 -0.24675124118E+02 -0.76773995863E+03  0.78544451651E+03  0.77987808675E+02 0.  0.
         24    2    4    4    0    0 -0.46523024413E+02  0.29359492959E+02  0.25128482106E+03  0.26902400032E+03  0.78762172542E+02 0.  0.
         11    1    3    3    0    0  0.62063021396E+02  0.55954446353E+00  0.99156304476E+02  0.11697907690E+03  0.00000000000E+00 0.  1.
        -11    1    3    3    0    0  0.12870799911E+03 -0.52439133053E+01  0.59700082989E+03  0.61073991073E+03  0.00000000000E+00 0. -1.
          4    1    6    6  502    0  0.16649276947E+02  0.38574568359E+00  0.11337586382E+03  0.11459246799E+03  0.00000000000E+00 0. -1.
          1    1    5    5  503    0 -0.33108938077E+02 -0.31964907179E+02 -0.12666680675E+03  0.13476808600E+03  0.00000000000E+00 0. -1.
         -2    1    5    5    0  503 -0.11113905802E+03  0.72897830618E+01 -0.64107315188E+03  0.65067643051E+03  0.00000000000E+00 0.  1.
         -3    1    6    6    0  502 -0.63172301360E+02  0.28973747276E+02  0.13790895724E+03  0.15443153233E+03  0.00000000000E+00 0.  1.
<mgrwt>
<rscale>  0 0.17731045E+04</rscale>
<asrwt>0</asrwt>
<pdfrwt beam="1">  1        2 0.15091458E+00 0.17731045E+04</pdfrwt>
<pdfrwt beam="2">  1       -2 0.12326812E+00 0.17731045E+04</pdfrwt>
<totfact> 0.12174043E+01</totfact>
</mgrwt>
</event>
<event>
12    1  0.2588309E-007  0.1688825E+04  0.7818608E-02  0.8767764E-01
         -2   -1    0    0    0  501 -0.00000000000E+00  0.00000000000E+00  0.26168737280E+03  0.26168737280E+03  0.00000000000E+00 0.  1.
          2   -1    0    0  501    0  0.00000000000E+00 -0.00000000000E+00 -0.27247482417E+04  0.27247482417E+04  0.00000000000E+00 0. -1.
         23    2    1    2    0    0  0.47052545556E+03  0.65181531723E+02 -0.23772419174E+03  0.53915597725E+03  0.92377162041E+02 0.  0.
        254    2    1    2    0    0 -0.47052545556E+03 -0.65181531723E+02 -0.22253366772E+04  0.24472796373E+04  0.90078380302E+03 0.  0.
        -24    2    4    4    0    0 -0.81099666118E+02 -0.34694076525E+03 -0.33687491961E+03  0.49692396596E+03  0.80645310102E+02 0.  0.
         24    2    4    4    0    0 -0.38942578944E+03  0.28175923353E+03 -0.18884617576E+04  0.19503556713E+04  0.80985947317E+02 0.  0.
         11    1    3    3    0    0  0.90299996151E+02  0.15464340666E+02 -0.89403057911E+02  0.12800836653E+03  0.00000000000E+00 0. -1.
        -11    1    3    3    0    0  0.38022545940E+03  0.49717191057E+02 -0.14832113383E+03  0.41114761073E+03  0.00000000000E+00 0.  1.
          4    1    6    6  502    0 -0.18889684223E+03  0.95969049672E+02 -0.73391797246E+03  0.76388982569E+03  0.00000000000E+00 0. -1.
          1    1    5    5  503    0 -0.19359073083E+02 -0.22648723717E+03 -0.23937939910E+03  0.33011170689E+03  0.00000000000E+00 0. -1.
         -2    1    5    5    0  503 -0.61740593035E+02 -0.12045352808E+03 -0.97495520511E+02  0.16681225907E+03  0.00000000000E+00 0.  1.
         -3    1    6    6    0  502 -0.20052894721E+03  0.18579018386E+03 -0.11545437851E+04  0.11864658456E+04  0.00000000000E+00 0.  1.
<mgrwt>
<rscale>  0 0.16888247E+04</rscale>
<asrwt>0</asrwt>
<pdfrwt beam="1">  1        2 0.41919205E+00 0.16888247E+04</pdfrwt>
<pdfrwt beam="2">  1       -2 0.40259594E-01 0.16888247E+04</pdfrwt>
<totfact> 0.14316731E+01</totfact>
</mgrwt>
</event>
<event>
12    1  0.2588309E-007  0.1508365E+04  0.7818608E-02  0.8878909E-01
          2   -1    0    0  501    0  0.00000000000E+00  0.00000000000E+00  0.13886648232E+04  0.13886648232E+04  0.00000000000E+00 0. -1.
         -2   -1    0    0    0  501 -0.00000000000E+00 -0.00000000000E+00 -0.40959590151E+03  0.40959590151E+03  0.00000000000E+00 0.  1.
         23    2    1    2    0    0 -0.25974965829E+03  0.28809335639E+03  0.65174644962E+03  0.76410376583E+03  0.92808746260E+02 0.  0.
        254    2    1    2    0    0  0.25974965829E+03 -0.28809335639E+03  0.32732247204E+03  0.10341569589E+04  0.90103992580E+03 0.  0.
        -24    2    4    4    0    0 -0.20874373821E+02  0.19001660971E+03  0.41837422472E+03  0.46672356948E+03  0.79068621751E+02 0.  0.
         24    2    4    4    0    0  0.28062403211E+03 -0.47810996609E+03 -0.91051752677E+02  0.56743338938E+03  0.79694683923E+02 0.  0.
         11    1    3    3    0    0 -0.24395041908E+03  0.22380542094E+03  0.56688224123E+03  0.65647250425E+03  0.00000000000E+00 0.  1.
        -11    1    3    3    0    0 -0.15799239212E+02  0.64287935444E+02  0.84864208390E+02  0.10763126158E+03  0.00000000000E+00 0. -1.
          2    1    6    6  502    0  0.85085873002E+02 -0.21381437365E+03 -0.19313069130E+02  0.23093113000E+03  0.00000000000E+00 0. -1.
          1    1    5    5  503    0  0.28170930584E+02  0.59252245689E+02  0.10784198811E+03  0.12623123365E+03  0.00000000000E+00 0. -1.
         -2    1    5    5    0  503 -0.49045304405E+02  0.13076436402E+03  0.31053223661E+03  0.34049233583E+03  0.00000000000E+00 0.  1.
         -1    1    6    6    0  502  0.19553815911E+03 -0.26429559244E+03 -0.71738683547E+02  0.33650225938E+03  0.00000000000E+00 0.  1.
<mgrwt>
<rscale>  0 0.15083652E+04</rscale>
<asrwt>0</asrwt>
<pdfrwt beam="1">  1        2 0.21364074E+00 0.15083652E+04</pdfrwt>
<pdfrwt beam="2">  1       -2 0.63014755E-01 0.15083652E+04</pdfrwt>
<totfact> 0.33092891E+01</totfact>
</mgrwt>
</event>
<event>
12    1  0.2588309E-007  0.1608448E+04  0.7818608E-02  0.8815375E-01
          1   -1    0    0  501    0  0.00000000000E+00  0.00000000000E+00  0.49465686125E+03  0.49465686125E+03  0.00000000000E+00 0. -1.
         -1   -1    0    0    0  501 -0.00000000000E+00 -0.00000000000E+00 -0.13075258240E+04  0.13075258240E+04  0.00000000000E+00 0.  1.
         23    2    1    2    0    0 -0.49972106697E+03 -0.12919602289E+03 -0.70884612454E+02  0.52896593335E+03  0.91474440451E+02 0.  0.
        254    2    1    2    0    0  0.49972106697E+03  0.12919602289E+03 -0.74198435027E+03  0.12732167519E+04  0.89673148941E+03 0.  0.
        -24    2    4    4    0    0  0.43835747757E+03  0.35432609247E+03 -0.83450130588E+03  0.10102488389E+04  0.80659959223E+02 0.  0.
         24    2    4    4    0    0  0.61363589402E+02 -0.22513006958E+03  0.92516955606E+02  0.26296791299E+03  0.78381744388E+02 0.  0.
         11    1    3    3    0    0 -0.43128149839E+03 -0.12633912449E+03 -0.32823035527E+02  0.45060254870E+03  0.00000000000E+00 0. -1.
        -11    1    3    3    0    0 -0.68439568577E+02 -0.28568984015E+01 -0.38061576927E+02  0.78363384649E+02  0.00000000000E+00 0.  1.
          2    1    6    6  502    0  0.41054676974E+02 -0.15724225841E+03  0.23776066120E+02  0.16424346457E+03  0.00000000000E+00 0. -1.
          1    1    5    5  503    0  0.15590743375E+03  0.16268286283E+03 -0.38109257693E+03  0.44272383486E+03  0.00000000000E+00 0. -1.
         -2    1    5    5    0  503  0.28245004381E+03  0.19164322964E+03 -0.45340872894E+03  0.56752500403E+03  0.00000000000E+00 0.  1.
         -1    1    6    6    0  502  0.20308912428E+02 -0.67887811165E+02  0.68740889485E+02  0.98724448421E+02  0.00000000000E+00 0.  1.
<mgrwt>
<rscale>  0 0.16084485E+04</rscale>
<asrwt>0</asrwt>
<pdfrwt beam="1">  1        1 0.76101056E-01 0.16084485E+04</pdfrwt>
<pdfrwt beam="2">  1       -1 0.20115782E+00 0.16084485E+04</pdfrwt>
<totfact> 0.63725494E+00</totfact>
</mgrwt>
</event>
<event>
12    1  0.2588309E-007  0.2508145E+04  0.7818608E-02  0.8400090E-01
         -1   -1    0    0    0  501 -0.00000000000E+00  0.00000000000E+00  0.12513469606E+04  0.12513469606E+04  0.00000000000E+00 0.  1.
          1   -1    0    0  501    0  0.00000000000E+00 -0.00000000000E+00 -0.12568039346E+04  0.12568039346E+04  0.00000000000E+00 0. -1.
         23    2    1    2    0    0 -0.10339686236E+03 -0.10822479572E+04  0.12745443013E+02  0.10912697226E+04  0.93571411022E+02 0.  0.
        254    2    1    2    0    0  0.10339686236E+03  0.10822479572E+04 -0.18202417000E+02  0.14168811726E+04  0.90844338135E+03 0.  0.
        -24    2    4    4    0    0  0.44387314951E+03  0.27064528703E+03 -0.76747237246E+02  0.53125285753E+03  0.77892335697E+02 0.  0.
         24    2    4    4    0    0 -0.34047628715E+03  0.81160267022E+03  0.58544820247E+02  0.88562831505E+03  0.79290731075E+02 0.  0.
         13    1    3    3    0    0 -0.82306512542E+02 -0.48228023924E+03  0.35144269849E+02  0.49051372139E+03  0.00000000000E+00 0. -1.
        -13    1    3    3    0    0 -0.21090349816E+02 -0.59996771800E+03 -0.22398826836E+02  0.60075600117E+03  0.00000000000E+00 0.  1.
          2    1    6    6  502    0 -0.25140080156E+03  0.65899975842E+03  0.24954130918E+02  0.70576607546E+03  0.00000000000E+00 0. -1.
          3    1    5    5  503    0  0.44211194262E+03  0.27002993619E+03 -0.83060606399E+02  0.52466961088E+03  0.00000000000E+00 0. -1.
         -4    1    5    5    0  503  0.17612068851E+01  0.61535084562E+00  0.63133691531E+01  0.65832466473E+01  0.00000000000E+00 0.  1.
         -1    1    6    6    0  502 -0.89075485587E+02  0.15260291180E+03  0.33590689329E+02  0.17986223959E+03  0.00000000000E+00 0.  1.
<mgrwt>
<rscale>  0 0.25081450E+04</rscale>
<asrwt>0</asrwt>
<pdfrwt beam="1">  1        1 0.19335445E+00 0.25081450E+04</pdfrwt>
<pdfrwt beam="2">  1       -1 0.19251492E+00 0.25081450E+04</pdfrwt>
<totfact> 0.14635830E+00</totfact>
</mgrwt>
</event>
<event>
12    1  0.2588309E-007  0.1970950E+04  0.7818608E-02  0.8620324E-01
         -2   -1    0    0    0  501 -0.00000000000E+00  0.00000000000E+00  0.20124940455E+04  0.20124940455E+04  0.00000000000E+00 0.  1.
          2   -1    0    0  501    0  0.00000000000E+00 -0.00000000000E+00 -0.48256605681E+03  0.48256605681E+03  0.00000000000E+00 0. -1.
         23    2    1    2    0    0 -0.46003403309E+03 -0.62150269737E+03  0.69897067452E+03  0.10462684958E+04  0.90668886993E+02 0.  0.
        254    2    1    2    0    0  0.46003403309E+03  0.62150269737E+03  0.83095731414E+03  0.14487916065E+04  0.90033890650E+03 0.  0.
        -24    2    4    4    0    0  0.16220268344E+03  0.58966803322E+03  0.93652029643E+03  0.11212724587E+04  0.78508349890E+02 0.  0.
         24    2    4    4    0    0  0.29783134965E+03  0.31834664146E+02 -0.10556298229E+03  0.32751914779E+03  0.80051797391E+02 0.  0.
         11    1    3    3    0    0 -0.21522222469E+03 -0.21835425096E+03  0.26159335312E+03  0.40302638538E+03  0.00000000000E+00 0. -1.
        -11    1    3    3    0    0 -0.24481180840E+03 -0.40314844641E+03  0.43737732139E+03  0.64324211044E+03  0.00000000000E+00 0.  1.
          2    1    6    6  502    0  0.29647618369E+03  0.19513246164E+02 -0.97391434883E+02  0.31267232986E+03  0.00000000000E+00 0. -1.
          1    1    5    5  503    0  0.92899799971E+02  0.45279420753E+03  0.67558190841E+03  0.81857429851E+03  0.00000000000E+00 0. -1.
         -2    1    5    5    0  503  0.69302883465E+02  0.13687382570E+03  0.26093838802E+03  0.30269816015E+03  0.00000000000E+00 0.  1.
         -1    1    6    6    0  502  0.13551659648E+01  0.12321417981E+02 -0.81715474056E+01  0.14846817937E+02  0.00000000000E+00 0.  1.
<mgrwt>
<rscale>  0 0.19709503E+04</rscale>
<asrwt>0</asrwt>
<pdfrwt beam="1">  1        2 0.74240933E-01 0.19709503E+04</pdfrwt>
<pdfrwt beam="2">  1       -2 0.30961446E+00 0.19709503E+04</pdfrwt>
<totfact> 0.16604184E+00</totfact>
</mgrwt>
</event>
<event>
12    1  0.2588309E-007  0.1602824E+04  0.7818608E-02  0.8818815E-01
         -2   -1    0    0    0  501 -0.00000000000E+00  0.00000000000E+00  0.48715515372E+03  0.48715515372E+03  0.00000000000E+00 0.  1.
          2   -1    0    0  501    0  0.00000000000E+00 -0.00000000000E+00 -0.13183912733E+04  0.13183912733E+04  0.00000000000E+00 0. -1.
         23    2    1    2    0    0  0.43628537321E+03  0.14302709624E+02  0.79335850528E+02  0.45288460567E+03  0.90888912952E+02 0.  0.
        254    2    1    2    0    0 -0.43628537321E+03 -0.14302709624E+02 -0.91057197008E+03  0.13526618213E+04  0.90000177543E+03 0.  0.
        -24    2    4    4    0    0 -0.25731199803E+02  0.34574748891E+03 -0.95223694624E+02  0.36809857320E+03  0.78902388053E+02 0.  0.
         24    2    4    4    0    0 -0.41055417341E+03 -0.36005019854E+03 -0.81534827545E+03  0.98456324811E+03  0.79881815747E+02 0.  0.
         13    1    3    3    0    0  0.16126012090E+03  0.35194403058E+02 -0.28574329053E+01  0.16508070003E+03  0.00000000000E+00 0. -1.
        -13    1    3    3    0    0  0.27502525231E+03 -0.20891693434E+02  0.82193283433E+02  0.28780390564E+03  0.00000000000E+00 0.  1.
          4    1    6    6  502    0 -0.15257873504E+03 -0.15677686576E+03 -0.26468159026E+03  0.34338841018E+03  0.00000000000E+00 0. -1.
          1    1    5    5  503    0 -0.11505919701E+02  0.33684008337E+03 -0.98203731482E+02  0.35105213407E+03  0.00000000000E+00 0. -1.
         -2    1    5    5    0  503 -0.14225280102E+02  0.89074055389E+01  0.29800368588E+01  0.17046439133E+02  0.00000000000E+00 0.  1.
         -3    1    6    6    0  502 -0.25797543837E+03 -0.20327333277E+03 -0.55066668519E+03  0.64117483793E+03  0.00000000000E+00 0.  1.
<mgrwt>
<rscale>  0 0.16028239E+04</rscale>
<asrwt>0</asrwt>
<pdfrwt beam="1">  1        2 0.20282943E+00 0.16028239E+04</pdfrwt>
<pdfrwt beam="2">  1       -2 0.74946947E-01 0.16028239E+04</pdfrwt>
<totfact> 0.24730868E+01</totfact>
</mgrwt>
</event>
<event>
12    1  0.2588309E-007  0.3289040E+04  0.7818608E-02  0.8165690E-01
          2   -1    0    0  501    0  0.00000000000E+00  0.00000000000E+00  0.15291281278E+04  0.15291281278E+04  0.00000000000E+00 0.  1.
         -2   -1    0    0    0  501 -0.00000000000E+00 -0.00000000000E+00 -0.17686196723E+04  0.17686196723E+04  0.00000000000E+00 0. -1.
         23    2    1    2    0    0  0.73926916423E+03  0.84599105407E+03  0.91510449929E+03  0.14518726333E+04  0.91094116485E+02 0.  0.
        254    2    1    2    0    0 -0.73926916423E+03 -0.84599105407E+03 -0.11545960437E+04  0.18458751668E+04  0.90107899004E+03 0.  0.
        -24    2    4    4    0    0  0.47305282604E+01 -0.39407680839E+03 -0.56234448105E+01  0.40232450563E+03  0.80712303208E+02 0.  0.
         24    2    4    4    0    0 -0.74399969249E+03 -0.45191424568E+03 -0.11489725989E+04  0.14435506611E+04  0.77061341136E+02 0.  0.
         13    1    3    3    0    0  0.46908295011E+03  0.56630812282E+03  0.64773800048E+03  0.97995317302E+03  0.00000000000E+00 0. -1.
        -13    1    3    3    0    0  0.27018621413E+03  0.27968293125E+03  0.26736649881E+03  0.47191946032E+03  0.00000000000E+00 0.  1.
          4    1    6    6  502    0 -0.14316106952E+03 -0.57616742135E+02 -0.22910378071E+03  0.27623056155E+03  0.00000000000E+00 0. -1.
          1    1    5    5  503    0 -0.29143651474E+02 -0.94450663625E+02 -0.18294646571E+02  0.10052350160E+03  0.00000000000E+00 0. -1.
         -2    1    5    5    0  503  0.33874179735E+02 -0.29962614476E+03  0.12671201760E+02  0.30180100403E+03  0.00000000000E+00 0.  1.
         -3    1    6    6    0  502 -0.60083862297E+03 -0.39429750355E+03 -0.91986881822E+03  0.11673200996E+04  0.00000000000E+00 0.  1.
<mgrwt>
<rscale>  0 0.32890400E+04</rscale>
<asrwt>0</asrwt>
<pdfrwt beam="1">  1        2 0.23525048E+00 0.32890400E+04</pdfrwt>
<pdfrwt beam="2">  1       -2 0.27209533E+00 0.32890400E+04</pdfrwt>
<totfact> 0.48081373E-01</totfact>
</mgrwt>
</event>
<event>
12    1  0.4095053E-007  0.3105490E+04  0.7818608E-02  0.8214233E-01
         -1   -1    0    0    0  501 -0.00000000000E+00  0.00000000000E+00  0.17596277356E+04  0.17596277356E+04  0.00000000000E+00 0.  1.
          1   -1    0    0  501    0  0.00000000000E+00 -0.00000000000E+00 -0.13701854634E+04  0.13701854634E+04  0.00000000000E+00 0. -1.
         23    2    1    2    0    0 -0.13071928752E+04  0.48425398592E+03  0.45520457214E+03  0.14692852009E+04  0.91283423778E+02 0.  0.
        254    2    1    2    0    0  0.13071928752E+04 -0.48425398592E+03 -0.65762299877E+02  0.16605279981E+04  0.89987411151E+03 0.  0.
        -24    2    4    4    0    0  0.61319797227E+03 -0.41094099656E+03 -0.44143155503E+03  0.86380010005E+03  0.80028365119E+02 0.  0.
         24    2    4    4    0    0  0.69399490290E+03 -0.73312989357E+02  0.37566925515E+03  0.79672789803E+03  0.81512174432E+02 0.  0.
         11    1    3    3    0    0 -0.72558927373E+03  0.22153991969E+03  0.23650822677E+03  0.79466714510E+03  0.00000000000E+00 0. -1.
        -11    1    3    3    0    0 -0.58160360144E+03  0.26271406623E+03  0.21869634537E+03  0.67461805585E+03  0.00000000000E+00 0.  1.
          4    1    6    6  502    0  0.55930858107E+03 -0.27798117505E+02  0.31071081494E+03  0.64042176315E+03  0.00000000000E+00 0. -1.
          1    1    5    5  503    0  0.39752926601E+03 -0.29487437303E+03 -0.26067336251E+03  0.55940237319E+03  0.00000000000E+00 0. -1.
         -2    1    5    5    0  503  0.21566870626E+03 -0.11606662353E+03 -0.18075819252E+03  0.30439772686E+03  0.00000000000E+00 0.  1.
         -3    1    6    6    0  502  0.13468632184E+03 -0.45514871852E+02  0.64958440209E+02  0.15630613489E+03  0.00000000000E+00 0.  1.
<mgrwt>
<rscale>  0 0.31054896E+04</rscale>
<asrwt>0</asrwt>
<pdfrwt beam="1">  1        1 0.21079776E+00 0.31054896E+04</pdfrwt>
<pdfrwt beam="2">  1       -1 0.27071196E+00 0.31054896E+04</pdfrwt>
<totfact> 0.34767328E-01</totfact>
</mgrwt>
</event>
<event>
12    1  0.2588309E-007  0.2908048E+04  0.7818608E-02  0.8270487E-01
          2   -1    0    0  501    0  0.00000000000E+00  0.00000000000E+00  0.39638439998E+04  0.39638439998E+04  0.00000000000E+00 0. -1.
         -2   -1    0    0    0  501 -0.00000000000E+00 -0.00000000000E+00 -0.53336762039E+03  0.53336762039E+03  0.00000000000E+00 0.  1.
         23    2    1    2    0    0 -0.10974724878E+04  0.25434774955E+02  0.26691994343E+04  0.28875994834E+04  0.92262489761E+02 0.  0.
        254    2    1    2    0    0  0.10974724878E+04 -0.25434774955E+02  0.76127694509E+03  0.16096121368E+04  0.89789523581E+03 0.  0.
        -24    2    4    4    0    0  0.10654307843E+04 -0.22419844629E+03  0.84161336260E+03  0.13786714181E+04  0.83750388753E+02 0.  0.
         24    2    4    4    0    0  0.32041703519E+02  0.19876367134E+03 -0.80336417512E+02  0.23094071866E+03  0.79661833693E+02 0.  0.
         13    1    3    3    0    0 -0.54125214386E+03  0.17259952732E+02  0.14370634838E+04  0.15357093623E+04  0.00000000000E+00 0. -1.
        -13    1    3    3    0    0 -0.55622034397E+03  0.81748222228E+01  0.12321359505E+04  0.13518901210E+04  0.00000000000E+00 0.  1.
          4    1    6    6  502    0  0.11639761097E+02  0.11017716346E+03 -0.85414842581E+02  0.13989348347E+03  0.00000000000E+00 0. -1.
          1    1    5    5  503    0  0.79216470459E+03 -0.13429675195E+03  0.64322362045E+03  0.10292216295E+04  0.00000000000E+00 0. -1.
         -2    1    5    5    0  503  0.27326607972E+03 -0.89901694349E+02  0.19838974215E+03  0.34944978862E+03  0.00000000000E+00 0.  1.
         -3    1    6    6    0  502  0.20401942422E+02  0.88586507882E+02  0.50784250684E+01  0.91047235184E+02  0.00000000000E+00 0.  1.
<mgrwt>
<rscale>  0 0.29080482E+04</rscale>
<asrwt>0</asrwt>
<pdfrwt beam="1">  1        2 0.60982214E+00 0.29080482E+04</pdfrwt>
<pdfrwt beam="2">  1       -2 0.82056559E-01 0.29080482E+04</pdfrwt>
<totfact> 0.41186058E-01</totfact>
</mgrwt>
</event>
<event>
12    1  0.2588309E-007  0.3997651E+04  0.7818608E-02  0.8005021E-01
         -1   -1    0    0    0  501 -0.00000000000E+00  0.00000000000E+00  0.17664045088E+04  0.17664045088E+04  0.00000000000E+00 0.  1.
          1   -1    0    0  501    0  0.00000000000E+00 -0.00000000000E+00 -0.22618275887E+04  0.22618275887E+04  0.00000000000E+00 0. -1.
         23    2    1    2    0    0 -0.10797410727E+04 -0.86406256275E+03 -0.15428339179E+04  0.20739226686E+04  0.91508693112E+02 0.  0.
        254    2    1    2    0    0  0.10797410727E+04  0.86406256275E+03  0.10474108380E+04  0.19543094289E+04  0.89989498497E+03 0.  0.
        -24    2    4    4    0    0  0.73508876946E+03  0.19603716850E+03  0.90547863100E+03  0.11852672551E+04  0.78618346988E+02 0.  0.
         24    2    4    4    0    0  0.34465230323E+03  0.66802539425E+03  0.14193220698E+03  0.76904217376E+03  0.78980859469E+02 0.  0.
         13    1    3    3    0    0 -0.81621585063E+03 -0.62380421019E+03 -0.10950791900E+04  0.15015120512E+04  0.00000000000E+00 0.  1.
        -13    1    3    3    0    0 -0.26352522207E+03 -0.24025835256E+03 -0.44775472785E+03  0.57241061743E+03  0.00000000000E+00 0. -1.
          2    1    6    6  502    0  0.16398811589E+03  0.30515691310E+03  0.10508115629E+03  0.36201504551E+03  0.00000000000E+00 0. -1.
          3    1    5    5  503    0  0.10682320553E+02  0.14041244500E+02  0.25944594565E+02  0.31374998114E+02  0.00000000000E+00 0. -1.
         -4    1    5    5    0  503  0.72440644891E+03  0.18199592400E+03  0.87953403644E+03  0.11538922570E+04  0.00000000000E+00 0.  1.
         -1    1    6    6    0  502  0.18066418734E+03  0.36286848115E+03  0.36851050690E+02  0.40702712825E+03  0.00000000000E+00 0.  1.
<mgrwt>
<rscale>  0 0.39976505E+04</rscale>
<asrwt>0</asrwt>
<pdfrwt beam="1">  1        1 0.34797348E+00 0.39976505E+04</pdfrwt>
<pdfrwt beam="2">  1       -1 0.27175454E+00 0.39976505E+04</pdfrwt>
<totfact> 0.77884130E-02</totfact>
</mgrwt>
</event>
<event>
12    1  0.2588309E-007  0.1690184E+04  0.7818608E-02  0.8766983E-01
         -1   -1    0    0    0  501 -0.00000000000E+00  0.00000000000E+00  0.87842635094E+03  0.87842635094E+03  0.00000000000E+00 0.  1.
          1   -1    0    0  501    0  0.00000000000E+00 -0.00000000000E+00 -0.81302287002E+03  0.81302287002E+03  0.00000000000E+00 0. -1.
         23    2    1    2    0    0  0.52416274624E+03  0.28292992529E+03 -0.55531226903E+02  0.60429990706E+03  0.85432624572E+02 0.  0.
        254    2    1    2    0    0 -0.52416274624E+03 -0.28292992529E+03  0.12093470782E+03  0.10871493139E+04  0.90137256447E+03 0.  0.
        -24    2    4    4    0    0  0.11475989540E+03 -0.16912199318E+03  0.33401414838E+03  0.39949306984E+03  0.79102334770E+02 0.  0.
         24    2    4    4    0    0 -0.63892264164E+03 -0.11380793211E+03 -0.21307944056E+03  0.68765624405E+03  0.79333943465E+02 0.  0.
         13    1    3    3    0    0  0.38125467421E+03  0.19985776583E+03 -0.17314509496E+01  0.43046631818E+03  0.00000000000E+00 0.  1.
        -13    1    3    3    0    0  0.14290807203E+03  0.83072159461E+02 -0.53799775953E+02  0.17383358888E+03  0.00000000000E+00 0. -1.
          4    1    6    6  502    0 -0.58785460750E+03 -0.82060117018E+02 -0.19731769634E+03  0.62549274628E+03  0.00000000000E+00 0. -1.
          3    1    5    5  503    0  0.29345605041E+02 -0.80622892599E+02  0.19981917826E+03  0.21746015577E+03  0.00000000000E+00 0. -1.
         -4    1    5    5    0  503  0.85414290359E+02 -0.88499100580E+02  0.13419497011E+03  0.18203291407E+03  0.00000000000E+00 0.  1.
         -1    1    6    6    0  502 -0.51068034140E+02 -0.31747815097E+02 -0.15761744219E+02  0.62163497771E+02  0.00000000000E+00 0.  1.
<mgrwt>
<rscale>  0 0.16901843E+04</rscale>
<asrwt>0</asrwt>
<pdfrwt beam="1">  1        1 0.12508044E+00 0.16901843E+04</pdfrwt>
<pdfrwt beam="2">  1       -1 0.13514252E+00 0.16901843E+04</pdfrwt>
<totfact> 0.94260704E+00</totfact>
</mgrwt>
</event>
<event>
12    1  0.2588309E-007  0.2011378E+04  0.7818608E-02  0.8601319E-01
          2   -1    0    0  501    0  0.00000000000E+00  0.00000000000E+00  0.90050380796E+03  0.90050380796E+03  0.00000000000E+00 0. -1.
         -2   -1    0    0    0  501 -0.00000000000E+00 -0.00000000000E+00 -0.11231609279E+04  0.11231609279E+04  0.00000000000E+00 0.  1.
         23    2    1    2    0    0 -0.27980488954E+03  0.51545417241E+03 -0.63773154299E+03  0.87134351397E+03  0.92489017495E+02 0.  0.
        254    2    1    2    0    0  0.27980488954E+03 -0.51545417241E+03  0.41507442308E+03  0.11523212218E+04  0.90087382111E+03 0.  0.
        -24    2    4    4    0    0  0.46992731791E+03 -0.66086289043E+03  0.37546310487E+03  0.89717484176E+03  0.79866823465E+02 0.  0.
         24    2    4    4    0    0 -0.19012242837E+03  0.14540871802E+03  0.39611318210E+02  0.25514638009E+03  0.78996111895E+02 0.  0.
         13    1    3    3    0    0 -0.96945866797E+02  0.13563131427E+03 -0.23663737628E+03  0.28946779156E+03  0.00000000000E+00 0.  1.
        -13    1    3    3    0    0 -0.18285902275E+03  0.37982285814E+03 -0.40109416671E+03  0.58187572242E+03  0.00000000000E+00 0. -1.
          4    1    6    6  502    0 -0.16969881176E+03  0.12862234639E+03  0.60600464858E+02  0.22139062998E+03  0.00000000000E+00 0. -1.
          3    1    5    5  503    0  0.37367132149E+03 -0.57291969454E+03  0.30437343835E+03  0.74867244030E+03  0.00000000000E+00 0. -1.
         -4    1    5    5    0  503  0.96255996427E+02 -0.87943195891E+02  0.71089666529E+02  0.14850240146E+03  0.00000000000E+00 0.  1.
         -3    1    6    6    0  502 -0.20423616614E+02  0.16786371631E+02 -0.20989146648E+02  0.33755750104E+02  0.00000000000E+00 0.  1.
<mgrwt>
<rscale>  0 0.20113783E+04</rscale>
<asrwt>0</asrwt>
<pdfrwt beam="1">  1        2 0.13853905E+00 0.20113783E+04</pdfrwt>
<pdfrwt beam="2">  1       -2 0.17279399E+00 0.20113783E+04</pdfrwt>
<totfact> 0.55360139E+00</totfact>
</mgrwt>
</event>
<event>
12    1  0.2588309E-007  0.1853130E+04  0.7818608E-02  0.8678545E-01
         -2   -1    0    0    0  501 -0.00000000000E+00  0.00000000000E+00  0.13760440238E+04  0.13760440238E+04  0.00000000000E+00 0.  1.
          2   -1    0    0  501    0  0.00000000000E+00 -0.00000000000E+00 -0.62390646830E+03  0.62390646830E+03  0.00000000000E+00 0. -1.
         23    2    1    2    0    0  0.50766005097E+03  0.11390575114E+03  0.79965437651E+03  0.95845551782E+03  0.92177059366E+02 0.  0.
        254    2    1    2    0    0 -0.50766005097E+03 -0.11390575114E+03 -0.47516820987E+02  0.10414949743E+04  0.90097762776E+03 0.  0.
        -24    2    4    4    0    0 -0.44914219105E+03  0.17322371380E+02 -0.42846259004E+03  0.62654164395E+03  0.83339475701E+02 0.  0.
         24    2    4    4    0    0 -0.58517859917E+02 -0.13122812252E+03  0.38094576905E+03  0.41495333035E+03  0.80133808950E+02 0.  0.
         11    1    3    3    0    0  0.16261363426E+03  0.62864121031E+02  0.33267857468E+03  0.37559303217E+03  0.00000000000E+00 0.  1.
        -11    1    3    3    0    0  0.34504641671E+03  0.51041630112E+02  0.46697580183E+03  0.58286248566E+03  0.00000000000E+00 0. -1.
          4    1    6    6  502    0 -0.30468361113E+02 -0.75022177482E+00  0.58060620980E+02  0.65573771969E+02  0.00000000000E+00 0. -1.
          3    1    5    5  503    0 -0.16781658766E+03  0.11779839067E+02 -0.21693168782E+03  0.27451872228E+03  0.00000000000E+00 0. -1.
         -4    1    5    5    0  503 -0.28132560339E+03  0.55425323127E+01 -0.21153090222E+03  0.35202292167E+03  0.00000000000E+00 0.  1.
         -3    1    6    6    0  502 -0.28049498804E+02 -0.13047790075E+03  0.32288514807E+03  0.34937955838E+03  0.00000000000E+00 0.  1.
<mgrwt>
<rscale>  0 0.18531301E+04</rscale>
<asrwt>0</asrwt>
<pdfrwt beam="1">  1        2 0.95985611E-01 0.18531301E+04</pdfrwt>
<pdfrwt beam="2">  1       -2 0.21169908E+00 0.18531301E+04</pdfrwt>
<totfact> 0.49605047E+00</totfact>
</mgrwt>
</event>
<event>
12    1  0.2588309E-007  0.2799562E+04  0.7818608E-02  0.8303405E-01
         -2   -1    0    0    0  501 -0.00000000000E+00  0.00000000000E+00  0.11943566329E+04  0.11943566329E+04  0.00000000000E+00 0. -1.
          2   -1    0    0  501    0  0.00000000000E+00 -0.00000000000E+00 -0.16405369285E+04  0.16405369285E+04  0.00000000000E+00 0.  1.
         23    2    1    2    0    0 -0.18049942195E+03 -0.62165429360E+03 -0.12875945093E+04  0.14441170655E+04  0.92414157236E+02 0.  0.
        254    2    1    2    0    0  0.18049942195E+03  0.62165429360E+03  0.84141421373E+03  0.13907764959E+04  0.89846940979E+03 0.  0.
        -24    2    4    4    0    0  0.19437167323E+02  0.66644124662E+03  0.95954476011E+03  0.11707803500E+04  0.74018529058E+02 0.  0.
         24    2    4    4    0    0  0.16106225463E+03 -0.44786953020E+02 -0.11813054638E+03  0.21999614586E+03  0.80601223176E+02 0.  0.
         11    1    3    3    0    0 -0.11053447481E+03 -0.22137019822E+03 -0.47467979596E+03  0.53529762140E+03  0.00000000000E+00 0.  1.
        -11    1    3    3    0    0 -0.69964947143E+02 -0.40028409538E+03 -0.81291471333E+03  0.90881944411E+03  0.00000000000E+00 0. -1.
          2    1    6    6  502    0  0.14143407378E+03 -0.54104763006E+01 -0.87829088785E+02  0.16657376539E+03  0.00000000000E+00 0. -1.
          1    1    5    5  503    0  0.21641543406E+02  0.66775969738E+03  0.95717589766E+03  0.11672861984E+04  0.00000000000E+00 0. -1.
         -2    1    5    5    0  503 -0.22043760825E+01 -0.13184507668E+01  0.23688624483E+01  0.34941516333E+01  0.00000000000E+00 0.  1.
         -1    1    6    6    0  502  0.19628180846E+02 -0.39376476719E+02 -0.30301457599E+02  0.53422380467E+02  0.00000000000E+00 0.  1.
<mgrwt>
<rscale>  0 0.27995615E+04</rscale>
<asrwt>0</asrwt>
<pdfrwt beam="1">  1        2 0.25239030E+00 0.27995615E+04</pdfrwt>
<pdfrwt beam="2">  1       -2 0.18374717E+00 0.27995615E+04</pdfrwt>
<totfact> 0.15741937E+00</totfact>
</mgrwt>
</event>
<event>
12    1  0.2588309E-007  0.2275831E+04  0.7818608E-02  0.8487512E-01
          1   -1    0    0  501    0  0.00000000000E+00  0.00000000000E+00  0.30115477804E+04  0.30115477804E+04  0.00000000000E+00 0. -1.
         -1   -1    0    0    0  501 -0.00000000000E+00 -0.00000000000E+00 -0.42996206282E+03  0.42996206282E+03  0.00000000000E+00 0.  1.
         23    2    1    2    0    0  0.79977271900E+03  0.40046765959E+03  0.16048272256E+04  0.18394906944E+04  0.90801113348E+02 0.  0.
        254    2    1    2    0    0 -0.79977271900E+03 -0.40046765959E+03  0.97675849194E+03  0.16020191488E+04  0.90133093434E+03 0.  0.
        -24    2    4    4    0    0 -0.77374236792E+03 -0.60393747837E+03  0.96949898499E+03  0.13816524005E+04  0.74948944114E+02 0.  0.
         24    2    4    4    0    0 -0.26030351077E+02  0.20346981878E+03  0.72595069434E+01  0.22036674832E+03  0.80195118278E+02 0.  0.
         13    1    3    3    0    0  0.51008130708E+02  0.18522287054E+02  0.60809143106E+02  0.81502493221E+02  0.00000000000E+00 0.  1.
        -13    1    3    3    0    0  0.74876458829E+03  0.38194537254E+03  0.15440180825E+04  0.17579882012E+04  0.00000000000E+00 0. -1.
          4    1    6    6  502    0 -0.32106647744E+02  0.69360336515E+02 -0.28280019243E+02  0.81495107824E+02  0.00000000000E+00 0. -1.
          1    1    5    5  503    0 -0.45171796964E+03 -0.39889784897E+03  0.59432614089E+03  0.84639953908E+03  0.00000000000E+00 0. -1.
         -2    1    5    5    0  503 -0.32202439827E+03 -0.20503962940E+03  0.37517284411E+03  0.53525286143E+03  0.00000000000E+00 0.  1.
         -3    1    6    6    0  502  0.60762966670E+01  0.13410948226E+03  0.35539526187E+02  0.13887164050E+03  0.00000000000E+00 0.  1.
<mgrwt>
<rscale>  0 0.22758307E+04</rscale>
<asrwt>0</asrwt>
<pdfrwt beam="1">  1        1 0.46331503E+00 0.22758307E+04</pdfrwt>
<pdfrwt beam="2">  1       -1 0.66148012E-01 0.22758307E+04</pdfrwt>
<totfact> 0.12306735E+00</totfact>
</mgrwt>
</event>
<event>
12    1  0.2588309E-007  0.1366179E+04  0.7818608E-02  0.8978670E-01
          1   -1    0    0  501    0  0.00000000000E+00  0.00000000000E+00  0.48847006366E+03  0.48847006366E+03  0.00000000000E+00 0. -1.
         -1   -1    0    0    0  501 -0.00000000000E+00 -0.00000000000E+00 -0.95525069435E+03  0.95525069435E+03  0.00000000000E+00 0.  1.
         23    2    1    2    0    0  0.13209966421E+03 -0.32225624378E+03 -0.28715321746E+03  0.46074127290E+03  0.92337112352E+02 0.  0.
        254    2    1    2    0    0 -0.13209966421E+03  0.32225624378E+03 -0.17962741323E+03  0.98297948510E+03  0.90148946339E+03 0.  0.
        -24    2    4    4    0    0  0.31162087102E+03 -0.58267932133E+02 -0.21641465076E+03  0.39174281225E+03  0.78258614306E+02 0.  0.
         24    2    4    4    0    0 -0.44372053523E+03  0.38052417591E+03  0.36787237538E+02  0.59123667285E+03  0.80752341388E+02 0.  0.
         11    1    3    3    0    0  0.24664831136E+02 -0.15774844669E+03 -0.16382474111E+03  0.22876073117E+03  0.00000000000E+00 0.  1.
        -11    1    3    3    0    0  0.10743483307E+03 -0.16450779709E+03 -0.12332847635E+03  0.23198054173E+03  0.00000000000E+00 0. -1.
          2    1    6    6  502    0 -0.42357567868E+03  0.33568478880E+03  0.27155065360E+02  0.54114511046E+03  0.00000000000E+00 0. -1.
          3    1    5    5  503    0  0.20734763720E+03 -0.15305802178E+02 -0.17447477848E+03  0.27141989345E+03  0.00000000000E+00 0. -1.
         -4    1    5    5    0  503  0.10427323382E+03 -0.42962129956E+02 -0.41939872279E+02  0.12032291880E+03  0.00000000000E+00 0.  1.
         -1    1    6    6    0  502 -0.20144856551E+02  0.44839387107E+02  0.96321721776E+01  0.50091562388E+02  0.00000000000E+00 0.  1.
<mgrwt>
<rscale>  0 0.13661792E+04</rscale>
<asrwt>0</asrwt>
<pdfrwt beam="1">  1        1 0.75149242E-01 0.13661792E+04</pdfrwt>
<pdfrwt beam="2">  1       -1 0.14696164E+00 0.13661792E+04</pdfrwt>
<totfact> 0.16497180E+01</totfact>
</mgrwt>
</event>
<event>
12    1  0.2588309E-007  0.3508505E+04  0.7818608E-02  0.8111777E-01
          2   -1    0    0  501    0  0.00000000000E+00  0.00000000000E+00  0.26476532768E+04  0.26476532768E+04  0.00000000000E+00 0. -1.
         -2   -1    0    0    0  501 -0.00000000000E+00 -0.00000000000E+00 -0.11623129876E+04  0.11623129876E+04  0.00000000000E+00 0.  1.
         23    2    1    2    0    0  0.32823074870E+03 -0.92356302626E+03 -0.73003783102E+03  0.12255221669E+04  0.90803408133E+02 0.  0.
        254    2    1    2    0    0 -0.32823074870E+03  0.92356302626E+03  0.22153781202E+04  0.25844440975E+04  0.90041489860E+03 0.  0.
        -24    2    4    4    0    0 -0.51692263087E+03  0.17677492736E+03  0.82472979215E+03  0.99262454266E+03  0.81644787914E+02 0.  0.
         24    2    4    4    0    0  0.18869188217E+03  0.74678809890E+03  0.13906483281E+04  0.15918195548E+04  0.81790168668E+02 0.  0.
         13    1    3    3    0    0  0.22777494493E+03 -0.50675522987E+03 -0.40838803219E+03  0.68953830450E+03  0.00000000000E+00 0. -1.
        -13    1    3    3    0    0  0.10045580376E+03 -0.41680779640E+03 -0.32164979883E+03  0.53598386238E+03  0.00000000000E+00 0.  1.
          4    1    6    6  502    0  0.98118572833E+02  0.39295334231E+03  0.81472772928E+03  0.90984661148E+03  0.00000000000E+00 0. -1.
          1    1    5    5  503    0 -0.41310056475E+03  0.16544881676E+03  0.62497190450E+03  0.76721266216E+03  0.00000000000E+00 0. -1.
         -2    1    5    5    0  503 -0.10382206612E+03  0.11326110597E+02  0.19975788765E+03  0.22541188051E+03  0.00000000000E+00 0.  1.
         -3    1    6    6    0  502  0.90573309340E+02  0.35383475659E+03  0.57592059878E+03  0.68197294333E+03  0.00000000000E+00 0.  1.
<mgrwt>
<rscale>  0 0.35085050E+04</rscale>
<asrwt>0</asrwt>
<pdfrwt beam="1">  1        2 0.40733127E+00 0.35085050E+04</pdfrwt>
<pdfrwt beam="2">  1       -2 0.17881738E+00 0.35085050E+04</pdfrwt>
<totfact> 0.43271860E-01</totfact>
</mgrwt>
</event>
<event>
12    1  0.2588309E-007  0.2603646E+04  0.7818608E-02  0.8366964E-01
          1   -1    0    0  501    0  0.00000000000E+00  0.00000000000E+00  0.13216160721E+04  0.13216160721E+04  0.00000000000E+00 0. -1.
         -1   -1    0    0    0  501 -0.00000000000E+00 -0.00000000000E+00 -0.12823261554E+04  0.12823261554E+04  0.00000000000E+00 0.  1.
         23    2    1    2    0    0 -0.72551008093E+03  0.88409537832E+03 -0.29786355262E+02  0.11473632083E+04  0.86980395798E+02 0.  0.
        254    2    1    2    0    0  0.72551008093E+03 -0.88409537832E+03  0.69076271950E+02  0.14565790193E+04  0.89936721783E+03 0.  0.
        -24    2    4    4    0    0  0.72722154789E+03 -0.85380890356E+03  0.33838805804E+03  0.11741126666E+04  0.78697220546E+02 0.  0.
         24    2    4    4    0    0 -0.17114669610E+01 -0.30286474755E+02 -0.26931178609E+03  0.28246635266E+03  0.79612829302E+02 0.  0.
         13    1    3    3    0    0 -0.11802065857E+03  0.16863128683E+03  0.24117510815E+02  0.20723667889E+03  0.00000000000E+00 0.  1.
        -13    1    3    3    0    0 -0.60748942236E+03  0.71546409148E+03 -0.53903866077E+02  0.94012652939E+03  0.00000000000E+00 0. -1.
          2    1    6    6  502    0 -0.31929041184E+02  0.19195214197E+01 -0.18014059731E+03  0.18295841886E+03  0.00000000000E+00 0. -1.
          1    1    5    5  503    0  0.23307400244E+03 -0.25529817740E+03  0.68688372465E+02  0.35244679387E+03  0.00000000000E+00 0. -1.
         -2    1    5    5    0  503  0.49414754545E+03 -0.59851072616E+03  0.26969968557E+03  0.82166587273E+03  0.00000000000E+00 0.  1.
         -1    1    6    6    0  502  0.30217574223E+02 -0.32205996174E+02 -0.89171188777E+02  0.99507933802E+02  0.00000000000E+00 0.  1.
<mgrwt>
<rscale>  0 0.26036458E+04</rscale>
<asrwt>0</asrwt>
<pdfrwt beam="1">  1        1 0.20332555E+00 0.26036458E+04</pdfrwt>
<pdfrwt beam="2">  1       -1 0.19728095E+00 0.26036458E+04</pdfrwt>
<totfact> 0.12080943E+00</totfact>
</mgrwt>
</event>
<event>
12    1  0.2588309E-007  0.1755342E+04  0.7818608E-02  0.8730415E-01
          2   -1    0    0  501    0  0.00000000000E+00  0.00000000000E+00  0.20960565734E+04  0.20960565734E+04  0.00000000000E+00 0. -1.
         -2   -1    0    0    0  501 -0.00000000000E+00 -0.00000000000E+00 -0.36750258153E+03  0.36750258153E+03  0.00000000000E+00 0.  1.
         23    2    1    2    0    0 -0.60643687324E+03 -0.19976923306E+03  0.73533943074E+03  0.97810714732E+03  0.91082849837E+02 0.  0.
        254    2    1    2    0    0  0.60643687324E+03  0.19976923306E+03  0.99321456112E+03  0.14854520076E+04  0.90134292850E+03 0.  0.
        -24    2    4    4    0    0 -0.10430954953E+03  0.28605610702E+03  0.56545384273E+03  0.64698001949E+03  0.78335935950E+02 0.  0.
         24    2    4    4    0    0  0.71074642277E+03 -0.86286873967E+02  0.42776071839E+03  0.83847198811E+03  0.86314196699E+02 0.  0.
         11    1    3    3    0    0 -0.47432104956E+03 -0.12166752966E+03  0.52758526594E+03  0.71981223848E+03  0.00000000000E+00 0.  1.
        -11    1    3    3    0    0 -0.13211582368E+03 -0.78101703398E+02  0.20775416480E+03  0.25829490884E+03  0.00000000000E+00 0. -1.
          2    1    6    6  502    0  0.69850291758E+03 -0.83909838433E+02  0.43167114402E+03  0.82540121361E+03  0.00000000000E+00 0. -1.
          3    1    5    5  503    0 -0.95908775711E+02  0.20190292850E+03  0.34737800213E+03  0.41307960753E+03  0.00000000000E+00 0. -1.
         -4    1    5    5    0  503 -0.84007738212E+01  0.84153178524E+02  0.21807584061E+03  0.23390041196E+03  0.00000000000E+00 0.  1.
         -1    1    6    6    0  502  0.12243505196E+02 -0.23770355337E+01 -0.39104256360E+01  0.13070774502E+02  0.00000000000E+00 0.  1.
<mgrwt>
<rscale>  0 0.17553418E+04</rscale>
<asrwt>0</asrwt>
<pdfrwt beam="1">  1        2 0.32247023E+00 0.17553418E+04</pdfrwt>
<pdfrwt beam="2">  1       -2 0.56538860E-01 0.17553418E+04</pdfrwt>
<totfact> 0.16424771E+01</totfact>
</mgrwt>
</event>
<event>
12    1  0.2588309E-007  0.2187125E+04  0.7818608E-02  0.8523806E-01
          1   -1    0    0  501    0  0.00000000000E+00  0.00000000000E+00  0.23746400889E+04  0.23746400889E+04  0.00000000000E+00 0. -1.
         -1   -1    0    0    0  501 -0.00000000000E+00 -0.00000000000E+00 -0.50360406891E+03  0.50360406891E+03  0.00000000000E+00 0.  1.
         23    2    1    2    0    0 -0.64693285383E+03  0.63431411701E+03  0.81897691253E+03  0.12248247676E+04  0.92714679206E+02 0.  0.
        254    2    1    2    0    0  0.64693285383E+03 -0.63431411701E+03  0.10520591074E+04  0.16534193902E+04  0.89782559431E+03 0.  0.
        -24    2    4    4    0    0  0.75030940453E+03 -0.19252111651E+03  0.84165408223E+03  0.11465063265E+04  0.77888251297E+02 0.  0.
         24    2    4    4    0    0 -0.10337655070E+03 -0.44179300050E+03  0.21040502522E+03  0.50691306369E+03  0.82600320646E+02 0.  0.
         13    1    3    3    0    0 -0.33441943821E+03  0.27696012274E+03  0.35275419073E+03  0.55944507266E+03  0.00000000000E+00 0. -1.
        -13    1    3    3    0    0 -0.31251341562E+03  0.35735399427E+03  0.46622272179E+03  0.66537969497E+03  0.00000000000E+00 0.  1.
          4    1    6    6  502    0 -0.27701140222E+02 -0.14469101856E+03  0.27356629159E+02  0.14983734241E+03  0.00000000000E+00 0. -1.
          3    1    5    5  503    0  0.38638194715E+03 -0.10501318261E+03  0.49156927213E+03  0.63400246600E+03  0.00000000000E+00 0. -1.
         -4    1    5    5    0  503  0.36392745738E+03 -0.87507933896E+02  0.35008481010E+03  0.51250386047E+03  0.00000000000E+00 0.  1.
         -1    1    6    6    0  502 -0.75675410475E+02 -0.29710198194E+03  0.18304839606E+03  0.35707572128E+03  0.00000000000E+00 0.  1.
<mgrwt>
<rscale>  0 0.21871245E+04</rscale>
<asrwt>0</asrwt>
<pdfrwt beam="1">  1        1 0.36532924E+00 0.21871245E+04</pdfrwt>
<pdfrwt beam="2">  1       -1 0.77477551E-01 0.21871245E+04</pdfrwt>
<totfact> 0.25204630E+00</totfact>
</mgrwt>
</event>
<event>
12    1  0.2588309E-007  0.2455761E+04  0.7818608E-02  0.8418918E-01
          1   -1    0    0  501    0  0.00000000000E+00  0.00000000000E+00  0.99115804616E+03  0.99115804616E+03  0.00000000000E+00 0. -1.
         -1   -1    0    0    0  501 -0.00000000000E+00 -0.00000000000E+00 -0.15211404582E+04  0.15211404582E+04  0.00000000000E+00 0.  1.
         23    2    1    2    0    0 -0.28285487773E+03 -0.10203905724E+04 -0.17197547720E+03  0.10766405321E+04  0.91517585947E+02 0.  0.
        254    2    1    2    0    0  0.28285487773E+03  0.10203905724E+04 -0.35800693485E+03  0.14356579723E+04  0.90096672851E+03 0.  0.
        -24    2    4    4    0    0 -0.19390601566E+03  0.16266405467E+03 -0.36593059832E+03  0.45100749184E+03  0.73779518309E+02 0.  0.
         24    2    4    4    0    0  0.47676089339E+03  0.85772651771E+03  0.79236634733E+01  0.98465048043E+03  0.80486368492E+02 0.  0.
         13    1    3    3    0    0 -0.88507564186E+02 -0.20260619136E+03 -0.56367814181E+02  0.22816701815E+03  0.00000000000E+00 0. -1.
        -13    1    3    3    0    0 -0.19434731354E+03 -0.81778438102E+03 -0.11560766302E+03  0.84847351394E+03  0.00000000000E+00 0.  1.
          4    1    6    6  502    0  0.14364099024E+03  0.32424583466E+03  0.24550927159E+02  0.35548676965E+03  0.00000000000E+00 0. -1.
          3    1    5    5  503    0 -0.10661022942E+03  0.13273175592E+03 -0.25653118157E+03  0.30788261913E+03  0.00000000000E+00 0. -1.
         -4    1    5    5    0  503 -0.87295786237E+02  0.29932298754E+02 -0.10939941675E+03  0.14312487271E+03  0.00000000000E+00 0.  1.
         -3    1    6    6    0  502  0.33311990315E+03  0.53348068305E+03 -0.16627263685E+02  0.62916371078E+03  0.00000000000E+00 0.  1.
<mgrwt>
<rscale>  0 0.24557611E+04</rscale>
<asrwt>0</asrwt>
<pdfrwt beam="1">  1        1 0.15248585E+00 0.24557611E+04</pdfrwt>
<pdfrwt beam="2">  1       -1 0.23402161E+00 0.24557611E+04</pdfrwt>
<totfact> 0.12171687E+00</totfact>
</mgrwt>
</event>
<event>
12    1  0.2588309E-007  0.1378706E+04  0.7818608E-02  0.8969378E-01
         -2   -1    0    0    0  501 -0.00000000000E+00  0.00000000000E+00  0.17622039057E+03  0.17622039057E+03  0.00000000000E+00 0.  1.
          2   -1    0    0  501    0  0.00000000000E+00 -0.00000000000E+00 -0.26966655985E+04  0.26966655985E+04  0.00000000000E+00 0. -1.
         23    2    1    2    0    0  0.35718679628E+03 -0.15814876403E+03 -0.71905893443E+03  0.82337015134E+03  0.91100032566E+02 0.  0.
        254    2    1    2    0    0 -0.35718679628E+03  0.15814876403E+03 -0.18013862735E+04  0.20495158377E+04  0.89606318067E+03 0.  0.
        -24    2    4    4    0    0  0.24883815658E+03  0.22684641231E+03 -0.47934060802E+03  0.59146526034E+03  0.81755811668E+02 0.  0.
         24    2    4    4    0    0 -0.60602495286E+03 -0.68697648278E+02 -0.13220456655E+04  0.14580505774E+04  0.78237678069E+02 0.  0.
         11    1    3    3    0    0  0.31426380745E+03 -0.11727956646E+03 -0.54993606898E+03  0.64416295869E+03  0.00000000000E+00 0.  1.
        -11    1    3    3    0    0  0.42922988833E+02 -0.40869197575E+02 -0.16912286545E+03  0.17920719265E+03  0.00000000000E+00 0. -1.
          4    1    6    6  502    0 -0.54667676348E+03 -0.82267292325E+02 -0.12160668859E+04  0.13358301023E+04  0.00000000000E+00 0. -1.
          3    1    5    5  503    0  0.23607305413E+03  0.22155235858E+03 -0.41869464649E+03  0.52926471777E+03  0.00000000000E+00 0. -1.
         -4    1    5    5    0  503  0.12765102447E+02  0.52940537289E+01 -0.60645961533E+02  0.62200542567E+02  0.00000000000E+00 0.  1.
         -3    1    6    6    0  502 -0.59348189376E+02  0.13569644048E+02 -0.10597877956E+03  0.12222047512E+03  0.00000000000E+00 0.  1.
<mgrwt>
<rscale>  0 0.13787059E+04</rscale>
<asrwt>0</asrwt>
<pdfrwt beam="1">  1        2 0.41487161E+00 0.13787059E+04</pdfrwt>
<pdfrwt beam="2">  1       -2 0.27110830E-01 0.13787059E+04</pdfrwt>
<totfact> 0.32359793E+01</totfact>
</mgrwt>
</event>
<event>
12    1  0.2588309E-007  0.2452840E+04  0.7818608E-02  0.8419982E-01
         -2   -1    0    0    0  501 -0.00000000000E+00  0.00000000000E+00  0.12938177351E+04  0.12938177351E+04  0.00000000000E+00 0.  1.
          2   -1    0    0  501    0  0.00000000000E+00 -0.00000000000E+00 -0.11625335598E+04  0.11625335598E+04  0.00000000000E+00 0. -1.
         23    2    1    2    0    0  0.89615558594E+03 -0.50411838601E+03  0.31140802074E+03  0.10781723520E+04  0.90832174024E+02 0.  0.
        254    2    1    2    0    0 -0.89615558594E+03  0.50411838601E+03 -0.18012384536E+03  0.13781789429E+04  0.89983466132E+03 0.  0.
        -24    2    4    4    0    0 -0.43799126139E+03 -0.15411349660E+03 -0.30703442690E+03  0.56246743748E+03  0.80697980388E+02 0.  0.
         24    2    4    4    0    0 -0.45816432455E+03  0.65823188261E+03  0.12691058153E+03  0.81571150544E+03  0.78071792813E+02 0.  0.
         13    1    3    3    0    0  0.58415020271E+03 -0.35433931738E+03  0.16819169496E+03  0.70361655568E+03  0.00000000000E+00 0.  1.
        -13    1    3    3    0    0  0.31200538323E+03 -0.14977906863E+03  0.14321632579E+03  0.37455579629E+03  0.00000000000E+00 0. -1.
          4    1    6    6  502    0 -0.85627958198E+02  0.89650733665E+02 -0.12496348512E+01  0.12397968728E+03  0.00000000000E+00 0. -1.
          1    1    5    5  503    0 -0.15517402263E+03 -0.15654374549E+02 -0.11298590965E+03  0.19258725950E+03  0.00000000000E+00 0. -1.
         -2    1    5    5    0  503 -0.28281723875E+03 -0.13845912205E+03 -0.19404851725E+03  0.36988017798E+03  0.00000000000E+00 0.  1.
         -3    1    6    6    0  502 -0.37253636636E+03  0.56858114894E+03  0.12816021638E+03  0.69173181816E+03  0.00000000000E+00 0.  1.
<mgrwt>
<rscale>  0 0.24528404E+04</rscale>
<asrwt>0</asrwt>
<pdfrwt beam="1">  1        2 0.17885132E+00 0.24528404E+04</pdfrwt>
<pdfrwt beam="2">  1       -2 0.19904888E+00 0.24528404E+04</pdfrwt>
<totfact> 0.24100149E+00</totfact>
</mgrwt>
</event>
<event>
12    1  0.2588309E-007  0.2025886E+04  0.7818608E-02  0.8594613E-01
          1   -1    0    0  501    0  0.00000000000E+00  0.00000000000E+00  0.20526128676E+04  0.20526128676E+04  0.00000000000E+00 0. -1.
         -1   -1    0    0    0  501 -0.00000000000E+00 -0.00000000000E+00 -0.49987671186E+03  0.49987671186E+03  0.00000000000E+00 0.  1.
         23    2    1    2    0    0 -0.55636475609E+03 -0.57853716951E+03  0.51118397862E+03  0.95907282544E+03  0.11943461043E+03 0.  0.
        254    2    1    2    0    0  0.55636475609E+03  0.57853716951E+03  0.10415521772E+04  0.15934167541E+04  0.89994389605E+03 0.  0.
        -24    2    4    4    0    0  0.94177611959E+01 -0.10963941070E+03 -0.86378193433E+02  0.16118425937E+03  0.80060468179E+02 0.  0.
         24    2    4    4    0    0  0.54694699489E+03  0.68817658021E+03  0.11279303706E+04  0.14322324947E+04  0.79529725015E+02 0.  0.
         11    1    3    3    0    0 -0.26443774220E+03 -0.20590217277E+03  0.25262023930E+03  0.41969037344E+03  0.00000000000E+00 0. -1.
        -11    1    3    3    0    0 -0.29192701389E+03 -0.37263499674E+03  0.25856373932E+03  0.53938245200E+03  0.00000000000E+00 0.  1.
          2    1    6    6  502    0  0.33782442757E+03  0.46810479001E+03  0.78175775433E+03  0.97179865443E+03  0.00000000000E+00 0. -1.
          3    1    5    5  503    0 -0.27025194395E+02 -0.82090220714E+02 -0.74194188876E+02  0.11390321827E+03  0.00000000000E+00 0. -1.
         -4    1    5    5    0  503  0.36442955591E+02 -0.27549189981E+02 -0.12184004557E+02  0.47281041104E+02  0.00000000000E+00 0.  1.
         -1    1    6    6    0  502  0.20912256732E+03  0.22007179020E+03  0.34617261626E+03  0.46043384026E+03  0.00000000000E+00 0.  1.
<mgrwt>
<rscale>  0 0.20258859E+04</rscale>
<asrwt>0</asrwt>
<pdfrwt beam="1">  1        1 0.31578659E+00 0.20258859E+04</pdfrwt>
<pdfrwt beam="2">  1       -1 0.76904110E-01 0.20258859E+04</pdfrwt>
<totfact> 0.43085295E+00</totfact>
</mgrwt>
</event>
<event>
12    1  0.2588309E-007  0.1602627E+04  0.7818608E-02  0.8818936E-01
          1   -1    0    0  501    0  0.00000000000E+00  0.00000000000E+00  0.52277161108E+03  0.52277161108E+03  0.00000000000E+00 0. -1.
         -1   -1    0    0    0  501 -0.00000000000E+00 -0.00000000000E+00 -0.12282677573E+04  0.12282677573E+04  0.00000000000E+00 0.  1.
         23    2    1    2    0    0  0.14648107133E+03 -0.22591438600E+03  0.27288121878E+03  0.39410024590E+03  0.91415699945E+02 0.  0.
        254    2    1    2    0    0 -0.14648107133E+03  0.22591438600E+03 -0.97837736499E+03  0.13569391225E+04  0.90087041226E+03 0.  0.
        -24    2    4    4    0    0  0.11519537535E+03  0.88119877494E+02 -0.10322933488E+04  0.10455496987E+04  0.80681640686E+02 0.  0.
         24    2    4    4    0    0 -0.26167644668E+03  0.13779450851E+03  0.53915983848E+02  0.31138942374E+03  0.81206838248E+02 0.  0.
         13    1    3    3    0    0  0.45008720869E+02 -0.23676642791E+02  0.89133197500E+02  0.10262112485E+03  0.00000000000E+00 0. -1.
        -13    1    3    3    0    0  0.10147235046E+03 -0.20223774321E+03  0.18374802128E+03  0.29147912105E+03  0.00000000000E+00 0.  1.
          2    1    6    6  502    0 -0.22982606654E+03  0.85422467704E+02  0.38591380933E+02  0.24820619156E+03  0.00000000000E+00 0. -1.
          1    1    5    5  503    0  0.21202635992E+02  0.65316136704E+02 -0.47207275122E+03  0.47704133147E+03  0.00000000000E+00 0. -1.
         -2    1    5    5    0  503  0.93992739361E+02  0.22803740790E+02 -0.56022059762E+03  0.56850836726E+03  0.00000000000E+00 0.  1.
         -1    1    6    6    0  502 -0.31850380144E+02  0.52372040804E+02  0.15324602914E+02  0.63183232172E+02  0.00000000000E+00 0.  1.
<mgrwt>
<rscale>  0 0.16026272E+04</rscale>
<asrwt>0</asrwt>
<pdfrwt beam="1">  1        1 0.80426402E-01 0.16026272E+04</pdfrwt>
<pdfrwt beam="2">  1       -1 0.18896427E+00 0.16026272E+04</pdfrwt>
<totfact> 0.71802644E+00</totfact>
</mgrwt>
</event>
<event>
12    1  0.2629006E-007  0.3624128E+04  0.7818608E-02  0.8084987E-01
         -2   -1    0    0    0  501 -0.00000000000E+00  0.00000000000E+00  0.24177488944E+04  0.24177488944E+04  0.00000000000E+00 0.  1.
          2   -1    0    0  501    0  0.00000000000E+00 -0.00000000000E+00 -0.13581125635E+04  0.13581125635E+04  0.00000000000E+00 0. -1.
         23    2    1    2    0    0  0.15311013346E+04 -0.69655048548E+03  0.24350154900E+03  0.17018167570E+04  0.86217134090E+02 0.  0.
        254    2    1    2    0    0 -0.15311013346E+04  0.69655048548E+03  0.81613478192E+03  0.20740447010E+04  0.89784829655E+03 0.  0.
        -24    2    4    4    0    0 -0.21965797536E+03  0.78498893087E+02  0.54357636998E+03  0.59674340642E+03  0.78839842454E+02 0.  0.
         24    2    4    4    0    0 -0.13114433593E+04  0.61805159240E+03  0.27255841194E+03  0.14773012945E+04  0.79117453828E+02 0.  0.
         11    1    3    3    0    0  0.71640096658E+03 -0.36769202916E+03  0.13688149332E+03  0.81680127108E+03  0.00000000000E+00 0.  1.
        -11    1    3    3    0    0  0.81470036803E+03 -0.32885845633E+03  0.10662005569E+03  0.88501548588E+03  0.00000000000E+00 0. -1.
          4    1    6    6  502    0 -0.19259797784E+03  0.72895720756E+02  0.61680528468E+02  0.21497035787E+03  0.00000000000E+00 0. -1.
          3    1    5    5  503    0  0.63132783545E-01 -0.90592127263E+01  0.29611746295E+02  0.30966576168E+02  0.00000000000E+00 0. -1.
         -4    1    5    5    0  503 -0.21972110814E+03  0.87558105813E+02  0.51396462368E+03  0.56577683026E+03  0.00000000000E+00 0.  1.
         -3    1    6    6    0  502 -0.11188453814E+04  0.54515587164E+03  0.21087788347E+03  0.12623309367E+04  0.00000000000E+00 0.  1.
<mgrwt>
<rscale>  0 0.36241276E+04</rscale>
<asrwt>0</asrwt>
<pdfrwt beam="1">  1        2 0.20894040E+00 0.36241276E+04</pdfrwt>
<pdfrwt beam="2">  1       -2 0.37196137E+00 0.36241276E+04</pdfrwt>
<totfact> 0.14024831E-01</totfact>
</mgrwt>
</event>
<event>
12    1  0.2588309E-007  0.1641069E+04  0.7818608E-02  0.8795707E-01
          1   -1    0    0  501    0  0.00000000000E+00  0.00000000000E+00  0.16349089689E+04  0.16349089689E+04  0.00000000000E+00 0. -1.
         -1   -1    0    0    0  501 -0.00000000000E+00 -0.00000000000E+00 -0.41181327251E+03  0.41181327251E+03  0.00000000000E+00 0.  1.
         23    2    1    2    0    0  0.41369682472E+03 -0.27001726231E+03  0.89459348141E+02  0.51031391313E+03  0.91449058143E+02 0.  0.
        254    2    1    2    0    0 -0.41369682472E+03  0.27001726231E+03  0.11336363482E+04  0.15364083283E+04  0.91179207959E+03 0.  0.
        -24    2    4    4    0    0 -0.67560845058E+03  0.99104270266E+02  0.91932117011E+03  0.11478850272E+04  0.78868161684E+02 0.  0.
         24    2    4    4    0    0  0.26191162586E+03  0.17091299204E+03  0.21431517810E+03  0.38852330107E+03  0.84914128974E+02 0.  0.
         13    1    3    3    0    0  0.33042524460E+03 -0.19259725644E+03  0.34456825669E+02  0.38400757583E+03  0.00000000000E+00 0.  1.
        -13    1    3    3    0    0  0.83271580117E+02 -0.77420005868E+02  0.55002522472E+02  0.12630633730E+03  0.00000000000E+00 0. -1.
          2    1    6    6  502    0  0.26463099608E+03  0.17326529559E+03  0.21737676665E+03  0.38380084083E+03  0.00000000000E+00 0. -1.
          3    1    5    5  503    0 -0.67157247764E+03  0.97025095141E+02  0.92013517260E+03  0.11432725824E+04  0.00000000000E+00 0. -1.
         -4    1    5    5    0  503 -0.40359729383E+01  0.20791751255E+01 -0.81400249147E+00  0.46124447766E+01  0.00000000000E+00 0.  1.
         -1    1    6    6    0  502 -0.27193702193E+01 -0.23523035441E+01 -0.30615885433E+01  0.47224602446E+01  0.00000000000E+00 0.  1.
<mgrwt>
<rscale>  0 0.16410694E+04</rscale>
<asrwt>0</asrwt>
<pdfrwt beam="1">  1        1 0.25152445E+00 0.16410694E+04</pdfrwt>
<pdfrwt beam="2">  1       -1 0.63355889E-01 0.16410694E+04</pdfrwt>
<totfact> 0.12759118E+01</totfact>
</mgrwt>
</event>
<event>
12    1  0.2588309E-007  0.2231590E+04  0.7818608E-02  0.8505393E-01
          2   -1    0    0  501    0  0.00000000000E+00  0.00000000000E+00  0.22115227282E+04  0.22115227282E+04  0.00000000000E+00 0. -1.
         -2   -1    0    0    0  501 -0.00000000000E+00 -0.00000000000E+00 -0.56295993825E+03  0.56295993825E+03  0.00000000000E+00 0.  1.
         23    2    1    2    0    0  0.28309620286E+03  0.81636123456E+03  0.25874380335E+03  0.90660929243E+03  0.91667485920E+02 0.  0.
        254    2    1    2    0    0 -0.28309620286E+03 -0.81636123456E+03  0.13898189866E+04  0.18678733741E+04  0.90042490002E+03 0.  0.
        -24    2    4    4    0    0 -0.13210906859E+02 -0.23385518283E+01  0.84469942471E+03  0.84859154599E+03  0.80065578915E+02 0.  0.
         24    2    4    4    0    0 -0.26988529600E+03 -0.81402268273E+03  0.54511956193E+03  0.10192818281E+04  0.79429889029E+02 0.  0.
         11    1    3    3    0    0  0.24093098153E+03  0.57427601883E+03  0.17302508665E+03  0.64635776802E+03  0.00000000000E+00 0.  1.
        -11    1    3    3    0    0  0.42165221328E+02  0.24208521573E+03  0.85718716706E+02  0.26025152441E+03  0.00000000000E+00 0. -1.
          2    1    6    6  502    0 -0.26470655149E+03 -0.80848338374E+03  0.54709153123E+03  0.10114465303E+04  0.00000000000E+00 0. -1.
          1    1    5    5  503    0  0.24520150906E+02 -0.25525750828E+01  0.63802490002E+03  0.63850099960E+03  0.00000000000E+00 0. -1.
         -2    1    5    5    0  503 -0.37731057765E+02  0.21402325450E+00  0.20667452469E+03  0.21009054639E+03  0.00000000000E+00 0.  1.
         -1    1    6    6    0  502 -0.51787445046E+01 -0.55392989933E+01 -0.19719692954E+01  0.78352977533E+01  0.00000000000E+00 0.  1.
<mgrwt>
<rscale>  0 0.22315902E+04</rscale>
<asrwt>0</asrwt>
<pdfrwt beam="1">  1        2 0.34023426E+00 0.22315902E+04</pdfrwt>
<pdfrwt beam="2">  1       -2 0.86609222E-01 0.22315902E+04</pdfrwt>
<totfact> 0.53532217E+00</totfact>
</mgrwt>
</event>
<event>
12    1  0.2588309E-007  0.2792768E+04  0.7818608E-02  0.8305517E-01
         -1   -1    0    0    0  501 -0.00000000000E+00  0.00000000000E+00  0.53153161258E+03  0.53153161258E+03  0.00000000000E+00 0.  1.
          1   -1    0    0  501    0  0.00000000000E+00 -0.00000000000E+00 -0.36684327093E+04  0.36684327093E+04  0.00000000000E+00 0. -1.
         23    2    1    2    0    0 -0.10707582175E+04  0.64240211881E+03 -0.13507735757E+04  0.18418222505E+04  0.92283839587E+02 0.  0.
        254    2    1    2    0    0  0.10707582175E+04 -0.64240211881E+03 -0.17861275211E+04  0.23581420714E+04  0.90076571027E+03 0.  0.
        -24    2    4    4    0    0  0.62530446143E+03 -0.81167635751E+03 -0.99122564599E+03  0.14278358774E+04  0.79767365915E+02 0.  0.
         24    2    4    4    0    0  0.44545375609E+03  0.16927423870E+03 -0.79490187507E+03  0.93030619401E+03  0.80732935836E+02 0.  0.
         13    1    3    3    0    0 -0.46925833394E+03  0.28886403318E+03 -0.52971612632E+03  0.76435920098E+03  0.00000000000E+00 0. -1.
        -13    1    3    3    0    0 -0.60149988358E+03  0.35353808563E+03 -0.82105744937E+03  0.10774630495E+04  0.00000000000E+00 0.  1.
          4    1    6    6  502    0  0.30530069559E+03  0.85000552163E+02 -0.57083459655E+03  0.65290561738E+03  0.00000000000E+00 0. -1.
          1    1    5    5  503    0  0.26854581027E+03 -0.38363274077E+03 -0.40629099027E+03  0.61997040315E+03  0.00000000000E+00 0. -1.
         -2    1    5    5    0  503  0.35675865116E+03 -0.42804361675E+03 -0.58493465572E+03  0.80786547424E+03  0.00000000000E+00 0.  1.
         -3    1    6    6    0  502  0.14015306050E+03  0.84273686541E+02 -0.22406727852E+03  0.27740057663E+03  0.00000000000E+00 0.  1.
<mgrwt>
<rscale>  0 0.27927678E+04</rscale>
<asrwt>0</asrwt>
<pdfrwt beam="1">  1        1 0.56437425E+00 0.27927678E+04</pdfrwt>
<pdfrwt beam="2">  1       -1 0.81774096E-01 0.27927678E+04</pdfrwt>
<totfact> 0.23604936E-01</totfact>
</mgrwt>
</event>
<event>
12    1  0.2588309E-007  0.3253441E+04  0.7818608E-02  0.8174844E-01
          2   -1    0    0  501    0  0.00000000000E+00  0.00000000000E+00  0.25135342745E+04  0.25135342745E+04  0.00000000000E+00 0. -1.
         -2   -1    0    0    0  501 -0.00000000000E+00 -0.00000000000E+00 -0.10527884962E+04  0.10527884962E+04  0.00000000000E+00 0.  1.
         23    2    1    2    0    0  0.60760382392E+03  0.13079393644E+04  0.21939678738E+03  0.14616235404E+04  0.91217519173E+02 0.  0.
        254    2    1    2    0    0 -0.60760382392E+03 -0.13079393644E+04  0.12413489909E+04  0.21046992303E+04  0.89940188168E+03 0.  0.
        -24    2    4    4    0    0 -0.33677775836E+03 -0.18135771798E+03  0.74484406884E+03  0.84137464574E+03  0.82515011969E+02 0.  0.
         24    2    4    4    0    0 -0.27082606556E+03 -0.11265816465E+04  0.49650492207E+03  0.12633245845E+04  0.83300086004E+02 0.  0.
         13    1    3    3    0    0  0.36761720057E+03  0.75192261708E+03  0.16955739596E+03  0.85397876950E+03  0.00000000000E+00 0. -1.
        -13    1    3    3    0    0  0.23998662335E+03  0.55601674735E+03  0.49839391420E+02  0.60764477095E+03  0.00000000000E+00 0.  1.
          4    1    6    6  502    0 -0.80540217285E+02 -0.28048035421E+03  0.88741428845E+02  0.30500983081E+03  0.00000000000E+00 0. -1.
          1    1    5    5  503    0 -0.62244741019E+01 -0.15070949815E+02  0.11455838657E+02  0.19927715511E+02  0.00000000000E+00 0. -1.
         -2    1    5    5    0  503 -0.33055328426E+03 -0.16628676816E+03  0.73338823018E+03  0.82144693022E+03  0.00000000000E+00 0.  1.
         -3    1    6    6    0  502 -0.19028584827E+03 -0.84610129225E+03  0.40776349323E+03  0.95831475372E+03  0.00000000000E+00 0.  1.
<mgrwt>
<rscale>  0 0.32534412E+04</rscale>
<asrwt>0</asrwt>
<pdfrwt beam="1">  1        2 0.38669758E+00 0.32534412E+04</pdfrwt>
<pdfrwt beam="2">  1       -2 0.16196746E+00 0.32534412E+04</pdfrwt>
<totfact> 0.69812050E-01</totfact>
</mgrwt>
</event>
<event>
12    1  0.2588309E-007  0.1830790E+04  0.7818608E-02  0.8690095E-01
          2   -1    0    0  501    0  0.00000000000E+00  0.00000000000E+00  0.29538596193E+04  0.29538596193E+04  0.00000000000E+00 0. -1.
         -2   -1    0    0    0  501 -0.00000000000E+00 -0.00000000000E+00 -0.28367914206E+03  0.28367914206E+03  0.00000000000E+00 0.  1.
         23    2    1    2    0    0  0.12119575211E+03  0.47062935069E+03  0.18823657824E+04  0.19463008605E+04  0.92766938965E+02 0.  0.
        254    2    1    2    0    0 -0.12119575211E+03 -0.47062935069E+03  0.78781469492E+03  0.12912379009E+04  0.90025714500E+03 0.  0.
        -24    2    4    4    0    0  0.37695723710E+03 -0.15390258188E+03  0.42833487741E+03  0.59573147044E+03  0.75116272247E+02 0.  0.
         24    2    4    4    0    0 -0.49815298921E+03 -0.31672676881E+03  0.35947981751E+03  0.69550643046E+03  0.77660857999E+02 0.  0.
         11    1    3    3    0    0  0.99869026092E+02  0.20595781087E+03  0.83581573808E+03  0.86659124751E+03  0.00000000000E+00 0.  1.
        -11    1    3    3    0    0  0.21326726015E+02  0.26467153982E+03  0.10465500443E+04  0.10797096130E+04  0.00000000000E+00 0. -1.
          4    1    6    6  502    0 -0.12484421916E+03 -0.65132496252E+02  0.12314625789E+03  0.18706502067E+03  0.00000000000E+00 0. -1.
          1    1    5    5  503    0  0.29370084784E+03 -0.11123618364E+03  0.28222559744E+03  0.42223804237E+03  0.00000000000E+00 0. -1.
         -2    1    5    5    0  503  0.83256389264E+02 -0.42666398236E+02  0.14610927997E+03  0.17349342807E+03  0.00000000000E+00 0.  1.
         -3    1    6    6    0  502 -0.37330877005E+03 -0.25159427256E+03  0.23633355962E+03  0.50844140978E+03  0.00000000000E+00 0.  1.
<mgrwt>
<rscale>  0 0.18307904E+04</rscale>
<asrwt>0</asrwt>
<pdfrwt beam="1">  1        2 0.45443992E+00 0.18307904E+04</pdfrwt>
<pdfrwt beam="2">  1       -2 0.43642947E-01 0.18307904E+04</pdfrwt>
<totfact> 0.87522648E+00</totfact>
</mgrwt>
</event>
<event>
12    1  0.2588309E-007  0.2125908E+04  0.7818608E-02  0.8549916E-01
         -1   -1    0    0    0  501 -0.00000000000E+00  0.00000000000E+00  0.75983450589E+03  0.75983450589E+03  0.00000000000E+00 0.  1.
          1   -1    0    0  501    0  0.00000000000E+00 -0.00000000000E+00 -0.14869966298E+04  0.14869966298E+04  0.00000000000E+00 0. -1.
         23    2    1    2    0    0  0.52325194211E+03 -0.55554600885E+03  0.13958555616E+03  0.78122236817E+03  0.91653140507E+02 0.  0.
        254    2    1    2    0    0 -0.52325194211E+03  0.55554600885E+03 -0.86674768004E+03  0.14656087675E+04  0.90240431936E+03 0.  0.
        -24    2    4    4    0    0 -0.46367827039E+03  0.89981542143E+02 -0.86552114201E+03  0.98928806762E+03  0.80435173361E+02 0.  0.
         24    2    4    4    0    0 -0.59573671724E+02  0.46556446671E+03 -0.12265380316E+01  0.47632069987E+03  0.81120957240E+02 0.  0.
         13    1    3    3    0    0  0.33495121220E+03 -0.41269786296E+03  0.80327973502E+02  0.53755411259E+03  0.00000000000E+00 0. -1.
        -13    1    3    3    0    0  0.18830072991E+03 -0.14284814590E+03  0.59257582662E+02  0.24366825558E+03  0.00000000000E+00 0.  1.
          4    1    6    6  502    0  0.91612437634E+01  0.13813772327E+03 -0.25921428163E+02  0.14084700712E+03  0.00000000000E+00 0. -1.
          3    1    5    5  503    0 -0.10968373335E+03 -0.40497987207E+01 -0.15512712466E+03  0.19002985827E+03  0.00000000000E+00 0. -1.
         -4    1    5    5    0  503 -0.35399453704E+03  0.94031340864E+02 -0.71039401735E+03  0.79925820934E+03  0.00000000000E+00 0.  1.
         -3    1    6    6    0  502 -0.68734915487E+02  0.32742674344E+03  0.24694890131E+02  0.33547369275E+03  0.00000000000E+00 0.  1.
<mgrwt>
<rscale>  0 0.21259081E+04</rscale>
<asrwt>0</asrwt>
<pdfrwt beam="1">  1        1 0.22876871E+00 0.21259081E+04</pdfrwt>
<pdfrwt beam="2">  1       -1 0.11689762E+00 0.21259081E+04</pdfrwt>
<totfact> 0.40441727E+00</totfact>
</mgrwt>
</event>
<event>
12    1  0.2588309E-007  0.1456047E+04  0.7818608E-02  0.8914219E-01
         -3   -1    0    0    0  501 -0.00000000000E+00  0.00000000000E+00  0.54443324247E+03  0.54443324247E+03  0.00000000000E+00 0.  1.
          3   -1    0    0  501    0  0.00000000000E+00 -0.00000000000E+00 -0.97352316818E+03  0.97352316818E+03  0.00000000000E+00 0. -1.
         23    2    1    2    0    0 -0.34415863940E+03 -0.25805914984E+03 -0.25745269065E+03  0.50951629206E+03  0.91023458886E+02 0.  0.
        254    2    1    2    0    0  0.34415863940E+03  0.25805914984E+03 -0.17163723506E+03  0.10084401186E+04  0.89579709668E+03 0.  0.
        -24    2    4    4    0    0 -0.22469893749E+02 -0.14142985713E+02 -0.45633187511E+03  0.46444712860E+03  0.82264420316E+02 0.  0.
         24    2    4    4    0    0  0.36662853315E+03  0.27220213556E+03  0.28469464005E+03  0.54399298999E+03  0.79792550804E+02 0.  0.
         13    1    3    3    0    0 -0.22523122311E+03 -0.11342209609E+03 -0.15633171073E+03  0.29670402681E+03  0.00000000000E+00 0. -1.
        -13    1    3    3    0    0 -0.11892741629E+03 -0.14463705376E+03 -0.10112097992E+03  0.21281226526E+03  0.00000000000E+00 0.  1.
          4    1    6    6  502    0  0.82550054162E+02  0.25285795517E+02  0.66083359676E+02  0.10872393169E+03  0.00000000000E+00 0. -1.
          3    1    5    5  503    0 -0.37773035184E+02  0.24129244952E+02 -0.25999391841E+03  0.26382922556E+03  0.00000000000E+00 0. -1.
         -4    1    5    5    0  503  0.15303141435E+02 -0.38272230665E+02 -0.19633795670E+03  0.20061790304E+03  0.00000000000E+00 0.  1.
         -3    1    6    6    0  502  0.28407847898E+03  0.24691634004E+03  0.21861128037E+03  0.43526905829E+03  0.00000000000E+00 0.  1.
<mgrwt>
<rscale>  0 0.14560472E+04</rscale>
<asrwt>0</asrwt>
<pdfrwt beam="1">  1        3 0.14977279E+00 0.14560472E+04</pdfrwt>
<pdfrwt beam="2">  1       -3 0.83758961E-01 0.14560472E+04</pdfrwt>
<totfact> 0.10821888E+00</totfact>
</mgrwt>
</event>
<event>
12    1  0.2588309E-007  0.3673074E+04  0.7818608E-02  0.8073955E-01
         -2   -1    0    0    0  501 -0.00000000000E+00  0.00000000000E+00  0.16497806228E+04  0.16497806228E+04  0.00000000000E+00 0.  1.
          2   -1    0    0  501    0  0.00000000000E+00 -0.00000000000E+00 -0.20444347065E+04  0.20444347065E+04  0.00000000000E+00 0. -1.
         23    2    1    2    0    0 -0.28952390589E+03  0.10623306566E+04 -0.15213930660E+04  0.18804054396E+04  0.94431139470E+02 0.  0.
        254    2    1    2    0    0  0.28952390589E+03 -0.10623306566E+04  0.11267389822E+04  0.18138098897E+04  0.89888545759E+03 0.  0.
        -24    2    4    4    0    0  0.37013451887E+02 -0.11024876162E+04  0.10722900776E+04  0.15404099061E+04  0.78789141699E+02 0.  0.
         24    2    4    4    0    0  0.25251045400E+03  0.40156959593E+02  0.54448904649E+02  0.27339998359E+03  0.80054712721E+02 0.  0.
         13    1    3    3    0    0 -0.20786173068E+03  0.87684721681E+03 -0.12055011994E+04  0.15050915861E+04  0.00000000000E+00 0. -1.
        -13    1    3    3    0    0 -0.81662175204E+02  0.18548343983E+03 -0.31589186654E+03  0.37531385354E+03  0.00000000000E+00 0.  1.
          4    1    6    6  502    0  0.74066663820E+02  0.64488563481E+01 -0.20221808870E+02  0.77047907120E+02  0.00000000000E+00 0. -1.
          3    1    5    5  503    0  0.32518941919E+02 -0.76675477788E+03  0.79453854501E+03  0.11046546386E+04  0.00000000000E+00 0. -1.
         -4    1    5    5    0  503  0.44945099682E+01 -0.33573283835E+03  0.27775153258E+03  0.43575526757E+03  0.00000000000E+00 0.  1.
         -3    1    6    6    0  502  0.17844379018E+03  0.33708103245E+02  0.74670713519E+02  0.19635207647E+03  0.00000000000E+00 0.  1.
<mgrwt>
<rscale>  0 0.36730743E+04</rscale>
<asrwt>0</asrwt>
<pdfrwt beam="1">  1        2 0.31452842E+00 0.36730743E+04</pdfrwt>
<pdfrwt beam="2">  1       -2 0.25381240E+00 0.36730743E+04</pdfrwt>
<totfact> 0.31133248E-01</totfact>
</mgrwt>
</event>
<event>
12    1  0.2588309E-007  0.2145841E+04  0.7818608E-02  0.8541315E-01
         -1   -1    0    0    0  501 -0.00000000000E+00  0.00000000000E+00  0.41599471084E+03  0.41599471084E+03  0.00000000000E+00 0.  1.
          1   -1    0    0  501    0  0.00000000000E+00 -0.00000000000E+00 -0.27672421074E+04  0.27672421074E+04  0.00000000000E+00 0. -1.
         23    2    1    2    0    0 -0.83869524761E+03 -0.48188473963E+01 -0.13768726326E+04  0.16147426405E+04  0.90457773769E+02 0.  0.
        254    2    1    2    0    0  0.83869524761E+03  0.48188473963E+01 -0.97437476396E+03  0.15684941778E+04  0.89851814977E+03 0.  0.
        -24    2    4    4    0    0  0.59702517828E+03  0.40305699010E+03 -0.75819126880E+03  0.10488269409E+04  0.79309211913E+02 0.  0.
         24    2    4    4    0    0  0.24167006933E+03 -0.39823814270E+03 -0.21618349516E+03  0.51966723690E+03  0.79502784963E+02 0.  0.
         13    1    3    3    0    0 -0.21069734372E+03  0.14318465723E+02 -0.28058392373E+03  0.35117762937E+03  0.00000000000E+00 0. -1.
        -13    1    3    3    0    0 -0.62799790389E+03 -0.19137313119E+02 -0.10962887089E+04  0.12635650111E+04  0.00000000000E+00 0.  1.
          4    1    6    6  502    0  0.93316990842E+02 -0.12347844578E+03 -0.35092033631E+02  0.15870235718E+03  0.00000000000E+00 0. -1.
          3    1    5    5  503    0  0.32459316544E+03  0.24238695395E+03 -0.47501044938E+03  0.62429727335E+03  0.00000000000E+00 0. -1.
         -4    1    5    5    0  503  0.27243201284E+03  0.16067003614E+03 -0.28318081942E+03  0.42452966754E+03  0.00000000000E+00 0.  1.
         -3    1    6    6    0  502  0.14835307849E+03 -0.27475969692E+03 -0.18109146153E+03  0.36096487972E+03  0.00000000000E+00 0.  1.
<mgrwt>
<rscale>  0 0.21458407E+04</rscale>
<asrwt>0</asrwt>
<pdfrwt beam="1">  1        1 0.42572956E+00 0.21458407E+04</pdfrwt>
<pdfrwt beam="2">  1       -1 0.63999186E-01 0.21458407E+04</pdfrwt>
<totfact> 0.19956639E+00</totfact>
</mgrwt>
</event>
<event>
12    1  0.2588309E-007  0.3646859E+04  0.7818608E-02  0.8079842E-01
         -2   -1    0    0    0  501 -0.00000000000E+00  0.00000000000E+00  0.22075768993E+04  0.22075768993E+04  0.00000000000E+00 0.  1.
          2   -1    0    0  501    0  0.00000000000E+00 -0.00000000000E+00 -0.15061285021E+04  0.15061285021E+04  0.00000000000E+00 0. -1.
         23    2    1    2    0    0  0.55942903854E+03  0.11548732795E+04 -0.82187628226E+03  0.15259655314E+04  0.79981490919E+02 0.  0.
        254    2    1    2    0    0 -0.55942903854E+03 -0.11548732795E+04  0.15233246795E+04  0.21877398700E+04  0.90498315943E+03 0.  0.
        -24    2    4    4    0    0  0.20831704944E+03 -0.73461087177E+02  0.15822482763E+03  0.28286362535E+03  0.78639748531E+02 0.  0.
         24    2    4    4    0    0 -0.76774608799E+03 -0.10814121923E+04  0.13650998518E+04  0.19048762446E+04  0.78546270725E+02 0.  0.
         13    1    3    3    0    0  0.31170783194E+03  0.56984990123E+03 -0.44378192444E+03  0.78665944276E+03  0.00000000000E+00 0. -1.
        -13    1    3    3    0    0  0.24772120660E+03  0.58502337824E+03 -0.37809435782E+03  0.73930608864E+03  0.00000000000E+00 0.  1.
          4    1    6    6  502    0 -0.65475229217E+02 -0.97687062164E+02  0.15477040528E+03  0.19438015872E+03  0.00000000000E+00 0. -1.
          3    1    5    5  503    0 -0.50870423148E+01 -0.41785809963E+01 -0.23115500795E+01  0.69772345829E+01  0.00000000000E+00 0. -1.
         -4    1    5    5    0  503  0.21340409176E+03 -0.69282506181E+02  0.16053637771E+03  0.27588639077E+03  0.00000000000E+00 0.  1.
         -3    1    6    6    0  502 -0.70227085877E+03 -0.98372513013E+03  0.12103294466E+04  0.17104960859E+04  0.00000000000E+00 0.  1.
<mgrwt>
<rscale>  0 0.36468586E+04</rscale>
<asrwt>0</asrwt>
<pdfrwt beam="1">  1        2 0.23171208E+00 0.36468586E+04</pdfrwt>
<pdfrwt beam="2">  1       -2 0.33962722E+00 0.36468586E+04</pdfrwt>
<totfact> 0.18477732E-01</totfact>
</mgrwt>
</event>
<event>
12    1  0.2588309E-007  0.1465397E+04  0.7818608E-02  0.8907795E-01
         -3   -1    0    0    0  501 -0.00000000000E+00  0.00000000000E+00  0.20335282639E+04  0.20335282639E+04  0.00000000000E+00 0.  1.
          3   -1    0    0  501    0  0.00000000000E+00 -0.00000000000E+00 -0.26399793372E+03  0.26399793372E+03  0.00000000000E+00 0. -1.
         23    2    1    2    0    0  0.11680154588E+03  0.42727696678E+03  0.71844949299E+03  0.84900361199E+03  0.91810956513E+02 0.  0.
        254    2    1    2    0    0 -0.11680154588E+03 -0.42727696678E+03  0.10510808372E+04  0.14485225856E+04  0.89288215758E+03 0.  0.
        -24    2    4    4    0    0  0.32335464847E+03 -0.37406987738E+03  0.33513125588E+03  0.60267207113E+03  0.80088481111E+02 0.  0.
         24    2    4    4    0    0 -0.44015619435E+03 -0.53207089400E+02  0.71594958133E+03  0.84585051452E+03  0.79440670356E+02 0.  0.
         11    1    3    3    0    0  0.49670409312E+02  0.98162471331E+02  0.24437157722E+03  0.26799344785E+03  0.00000000000E+00 0.  1.
        -11    1    3    3    0    0  0.67131136569E+02  0.32911449545E+03  0.47407791577E+03  0.58101016414E+03  0.00000000000E+00 0. -1.
          4    1    6    6  502    0 -0.17758576326E+03 -0.38890088100E+02  0.22849966176E+03  0.29199526998E+03  0.00000000000E+00 0. -1.
          3    1    5    5  503    0  0.49835398675E+02 -0.78999774774E+02  0.99214709373E+02  0.13626477876E+03  0.00000000000E+00 0. -1.
         -4    1    5    5    0  503  0.27351924980E+03 -0.29507010260E+03  0.23591654651E+03  0.46640729237E+03  0.00000000000E+00 0.  1.
         -3    1    6    6    0  502 -0.26257043109E+03 -0.14317001300E+02  0.48744991958E+03  0.55385524454E+03  0.00000000000E+00 0.  1.
<mgrwt>
<rscale>  0 0.14653972E+04</rscale>
<asrwt>0</asrwt>
<pdfrwt beam="1">  1        3 0.40615068E-01 0.14653972E+04</pdfrwt>
<pdfrwt beam="2">  1       -3 0.31285049E+00 0.14653972E+04</pdfrwt>
<totfact> 0.49576349E-01</totfact>
</mgrwt>
</event>
<event>
12    1  0.2588309E-007  0.1857205E+04  0.7818608E-02  0.8676456E-01
          2   -1    0    0  501    0  0.00000000000E+00  0.00000000000E+00  0.41011685389E+03  0.41011685389E+03  0.00000000000E+00 0. -1.
         -2   -1    0    0    0  501 -0.00000000000E+00 -0.00000000000E+00 -0.21025774719E+04  0.21025774719E+04  0.00000000000E+00 0.  1.
         23    2    1    2    0    0 -0.24503785883E+02 -0.70482499038E+03 -0.62692546851E+03  0.94792095354E+03  0.90221330588E+02 0.  0.
        254    2    1    2    0    0  0.24503785883E+02  0.70482499038E+03 -0.10655351495E+04  0.15647733723E+04  0.90320089077E+03 0.  0.
        -24    2    4    4    0    0 -0.38584323615E+03  0.17986563188E+03 -0.62843150480E+03  0.76321482245E+03  0.79649611269E+02 0.  0.
         24    2    4    4    0    0  0.41034702204E+03  0.52495935851E+03 -0.43710364471E+03  0.80155854980E+03  0.86426303648E+02 0.  0.
         13    1    3    3    0    0  0.30368678514E+02 -0.32749320799E+03 -0.26797909895E+03  0.42424857736E+03  0.00000000000E+00 0. -1.
        -13    1    3    3    0    0 -0.54872464397E+02 -0.37733178239E+03 -0.35894636956E+03  0.52367237617E+03  0.00000000000E+00 0.  1.
          4    1    6    6  502    0  0.14459248267E+03  0.19348697096E+03 -0.11021232234E+03  0.26550131821E+03  0.00000000000E+00 0. -1.
          1    1    5    5  503    0 -0.12846011159E+03  0.60723761161E+02 -0.27959725631E+03  0.31363035755E+03  0.00000000000E+00 0. -1.
         -2    1    5    5    0  503 -0.25738312456E+03  0.11914187072E+03 -0.34883424849E+03  0.44958446491E+03  0.00000000000E+00 0.  1.
         -3    1    6    6    0  502  0.26575453937E+03  0.33147238755E+03 -0.32689132237E+03  0.53605723159E+03  0.00000000000E+00 0.  1.
<mgrwt>
<rscale>  0 0.18572048E+04</rscale>
<asrwt>0</asrwt>
<pdfrwt beam="1">  1        2 0.63094901E-01 0.18572048E+04</pdfrwt>
<pdfrwt beam="2">  1       -2 0.32347346E+00 0.18572048E+04</pdfrwt>
<totfact> 0.16593717E+00</totfact>
</mgrwt>
</event>
<event>
12    1  0.2686732E-007  0.3752848E+04  0.7818608E-02  0.8056350E-01
         -2   -1    0    0    0  501 -0.00000000000E+00  0.00000000000E+00  0.12175399416E+04  0.12175399416E+04  0.00000000000E+00 0.  1.
          2   -1    0    0  501    0  0.00000000000E+00 -0.00000000000E+00 -0.28918698185E+04  0.28918698185E+04  0.00000000000E+00 0. -1.
         23    2    1    2    0    0  0.37516176725E+03 -0.17074008467E+04 -0.10721812676E+04  0.20527966269E+04  0.91854874293E+02 0.  0.
        254    2    1    2    0    0 -0.37516176725E+03  0.17074008467E+04 -0.60214860919E+03  0.20566131332E+04  0.90061680479E+03 0.  0.
        -24    2    4    4    0    0  0.41944594194E+02 -0.80524901400E+01  0.11759673955E+03  0.14844557496E+03  0.79893078497E+02 0.  0.
         24    2    4    4    0    0 -0.41710636144E+03  0.17154533369E+04 -0.71974534874E+03  0.19081675582E+04  0.79449326860E+02 0.  0.
         11    1    3    3    0    0  0.22378949987E+03 -0.12135435635E+04 -0.75736795539E+03  0.14478867154E+04  0.00000000000E+00 0. -1.
        -11    1    3    3    0    0  0.15137226738E+03 -0.49385728319E+03 -0.31481331225E+03  0.60490991152E+03  0.00000000000E+00 0.  1.
          4    1    6    6  502    0 -0.38591574942E+03  0.14964646650E+04 -0.61301525758E+03  0.16625658378E+04  0.00000000000E+00 0. -1.
          1    1    5    5  503    0  0.63520134644E+02 -0.99567573303E+01  0.64368999690E+02  0.90979737540E+02  0.00000000000E+00 0. -1.
         -2    1    5    5    0  503 -0.21575540451E+02  0.19042671903E+01  0.53227739864E+02  0.57465837419E+02  0.00000000000E+00 0.  1.
         -3    1    6    6    0  502 -0.31190612027E+02  0.21898867190E+03 -0.10673009116E+03  0.24560172039E+03  0.00000000000E+00 0.  1.
<mgrwt>
<rscale>  0 0.37528480E+04</rscale>
<asrwt>0</asrwt>
<pdfrwt beam="1">  1        2 0.44490305E+00 0.37528480E+04</pdfrwt>
<pdfrwt beam="2">  1       -2 0.18731384E+00 0.37528480E+04</pdfrwt>
<totfact> 0.26422883E-01</totfact>
</mgrwt>
</event>
<event>
12    1  0.2588309E-007  0.1952808E+04  0.7818608E-02  0.8629008E-01
          2   -1    0    0  501    0  0.00000000000E+00  0.00000000000E+00  0.47291947142E+03  0.47291947142E+03  0.00000000000E+00 0.  1.
         -2   -1    0    0    0  501 -0.00000000000E+00 -0.00000000000E+00 -0.20159128638E+04  0.20159128638E+04  0.00000000000E+00 0. -1.
         23    2    1    2    0    0 -0.16231527533E+03 -0.25518912219E+03 -0.15054734364E+04  0.15382777901E+04  0.91545372821E+02 0.  0.
        254    2    1    2    0    0  0.16231527533E+03  0.25518912219E+03 -0.37519956048E+02  0.95055454513E+03  0.90037684303E+03 0.  0.
        -24    2    4    4    0    0  0.23813295881E+03  0.34824236341E+03 -0.38374060826E+03  0.57525472558E+03  0.75373039750E+02 0.  0.
         24    2    4    4    0    0 -0.75817683483E+02 -0.93053241225E+02  0.34622065222E+03  0.37529981955E+03  0.81080131364E+02 0.  0.
         13    1    3    3    0    0  0.10227688769E+02 -0.21598955869E+02 -0.16386002273E+03  0.16559356135E+03  0.00000000000E+00 0.  1.
        -13    1    3    3    0    0 -0.17254296410E+03 -0.23359016632E+03 -0.13416134136E+04  0.13726842288E+04  0.00000000000E+00 0. -1.
          4    1    6    6  502    0 -0.39067533982E+02 -0.52556795311E+02  0.28829268284E+03  0.29563687172E+03  0.00000000000E+00 0. -1.
          1    1    5    5  503    0  0.75105091259E+02  0.93450784245E+02 -0.15533783058E+03  0.19622350883E+03  0.00000000000E+00 0. -1.
         -2    1    5    5    0  503  0.16302786755E+03  0.25479157917E+03 -0.22840277768E+03  0.37903121674E+03  0.00000000000E+00 0.  1.
         -1    1    6    6    0  502 -0.36750149501E+02 -0.40496445914E+02  0.57927969377E+02  0.79662947825E+02  0.00000000000E+00 0.  1.
<mgrwt>
<rscale>  0 0.19528077E+04</rscale>
<asrwt>0</asrwt>
<pdfrwt beam="1">  1        2 0.72756842E-01 0.19528077E+04</pdfrwt>
<pdfrwt beam="2">  1       -2 0.31014044E+00 0.19528077E+04</pdfrwt>
<totfact> 0.16896244E+00</totfact>
</mgrwt>
</event>
<event>
12    1  0.2588309E-007  0.1573061E+04  0.7818608E-02  0.8837271E-01
         -1   -1    0    0    0  501 -0.00000000000E+00  0.00000000000E+00  0.32373994575E+03  0.32373994575E+03  0.00000000000E+00 0.  1.
          1   -1    0    0  501    0  0.00000000000E+00 -0.00000000000E+00 -0.19108852747E+04  0.19108852747E+04  0.00000000000E+00 0. -1.
         23    2    1    2    0    0 -0.86453128270E+02 -0.51541284024E+03 -0.47046873578E+03  0.70930117417E+03  0.92966580423E+02 0.  0.
        254    2    1    2    0    0  0.86453128270E+02  0.51541284024E+03 -0.11166765931E+04  0.15253240462E+04  0.89806586234E+03 0.  0.
        -24    2    4    4    0    0  0.22509424135E+03  0.27045162360E+03 -0.11729261424E+04  0.12272322661E+04  0.80819559939E+02 0.  0.
         24    2    4    4    0    0 -0.13864111308E+03  0.24496121664E+03  0.56249549282E+02  0.29809178011E+03  0.80419784149E+02 0.  0.
         13    1    3    3    0    0 -0.10288127331E+03 -0.40462032104E+03 -0.34984748588E+03  0.54469755275E+03  0.00000000000E+00 0. -1.
        -13    1    3    3    0    0  0.16428145041E+02 -0.11079251920E+03 -0.12062124990E+03  0.16460362143E+03  0.00000000000E+00 0.  1.
          4    1    6    6  502    0 -0.36343071091E+02  0.64393664468E+02  0.52217024111E+02  0.90520607858E+02  0.00000000000E+00 0. -1.
          1    1    5    5  503    0  0.22681994321E+03  0.24988179937E+03 -0.10596586697E+04  0.11120992296E+04  0.00000000000E+00 0. -1.
         -2    1    5    5    0  503 -0.17257018562E+01  0.20569824227E+02 -0.11326747275E+03  0.11513303653E+03  0.00000000000E+00 0.  1.
         -3    1    6    6    0  502 -0.10229804199E+03  0.18056755217E+03  0.40325251706E+01  0.20757117225E+03  0.00000000000E+00 0.  1.
<mgrwt>
<rscale>  0 0.15730606E+04</rscale>
<asrwt>0</asrwt>
<pdfrwt beam="1">  1        1 0.29398235E+00 0.15730606E+04</pdfrwt>
<pdfrwt beam="2">  1       -1 0.49806145E-01 0.15730606E+04</pdfrwt>
<totfact> 0.13323800E+01</totfact>
</mgrwt>
</event>
<event>
12    1  0.2588309E-007  0.3601471E+04  0.7818608E-02  0.8090155E-01
          2   -1    0    0  501    0  0.00000000000E+00  0.00000000000E+00  0.15675459503E+04  0.15675459503E+04  0.00000000000E+00 0. -1.
         -2   -1    0    0    0  501 -0.00000000000E+00 -0.00000000000E+00 -0.20686151113E+04  0.20686151113E+04  0.00000000000E+00 0.  1.
         23    2    1    2    0    0  0.75572255956E+03  0.13587923186E+04  0.42597000695E+03  0.16146001314E+04  0.89721712183E+02 0.  0.
        254    2    1    2    0    0 -0.75572255956E+03 -0.13587923186E+04 -0.92703916790E+03  0.20215609302E+04  0.89992989931E+03 0.  0.
        -24    2    4    4    0    0 -0.62749897898E+03 -0.12914104486E+04 -0.10785900492E+04  0.17974343304E+04  0.76926994894E+02 0.  0.
         24    2    4    4    0    0 -0.12822358058E+03 -0.67381869994E+02  0.15155088134E+03  0.22412659979E+03  0.79268279138E+02 0.  0.
         13    1    3    3    0    0  0.28059975654E+03  0.45017988034E+03  0.11081442361E+03  0.54192064411E+03  0.00000000000E+00 0.  1.
        -13    1    3    3    0    0  0.47512280302E+03  0.90861243822E+03  0.31515558334E+03  0.10726794873E+04  0.00000000000E+00 0. -1.
          2    1    6    6  502    0 -0.16524330623E+02 -0.40876490066E+02  0.72105245337E+02  0.84516905693E+02  0.00000000000E+00 0. -1.
          1    1    5    5  503    0 -0.36507454942E+03 -0.66800619963E+03 -0.58633255130E+03  0.96088374432E+03  0.00000000000E+00 0. -1.
         -2    1    5    5    0  503 -0.26242442957E+03 -0.62340424893E+03 -0.49225749793E+03  0.83655058609E+03  0.00000000000E+00 0.  1.
         -1    1    6    6    0  502 -0.11169924995E+03 -0.26505379928E+02  0.79445636000E+02  0.13960969409E+03  0.00000000000E+00 0.  1.
<mgrwt>
<rscale>  0 0.36014715E+04</rscale>
<asrwt>0</asrwt>
<pdfrwt beam="1">  1        2 0.24116091E+00 0.36014715E+04</pdfrwt>
<pdfrwt beam="2">  1       -2 0.31824848E+00 0.36014715E+04</pdfrwt>
<totfact> 0.23259917E-01</totfact>
</mgrwt>
</event>
<event>
12    1  0.2588309E-007  0.1231121E+04  0.7818608E-02  0.9086044E-01
          1   -1    0    0  501    0  0.00000000000E+00  0.00000000000E+00  0.79088689851E+03  0.79088689851E+03  0.00000000000E+00 0. -1.
         -1   -1    0    0    0  501 -0.00000000000E+00 -0.00000000000E+00 -0.47910116495E+03  0.47910116495E+03  0.00000000000E+00 0.  1.
         23    2    1    2    0    0  0.11103586772E+03 -0.18782815880E+02 -0.18537808205E+03  0.23572179752E+03  0.92292873114E+02 0.  0.
        254    2    1    2    0    0 -0.11103586772E+03  0.18782815880E+02  0.49716381561E+03  0.10342662659E+04  0.89991838030E+03 0.  0.
        -24    2    4    4    0    0 -0.41698297515E+03  0.66989861057E+02  0.56359747003E+03  0.70887445265E+03  0.80612891929E+02 0.  0.
         24    2    4    4    0    0  0.30594710743E+03 -0.48207045177E+02 -0.66433654424E+02  0.32539181328E+03  0.74423450330E+02 0.  0.
         11    1    3    3    0    0  0.47784540948E+02  0.10842523617E+02 -0.14467809116E+02  0.51090509614E+02  0.00000000000E+00 0. -1.
        -11    1    3    3    0    0  0.63251326775E+02 -0.29625339498E+02 -0.17091027293E+03  0.18463128791E+03  0.00000000000E+00 0.  1.
          2    1    6    6  502    0  0.15378275442E+03  0.13336700350E+02 -0.29655894638E+02  0.15718293552E+03  0.00000000000E+00 0. -1.
          3    1    5    5  503    0 -0.40572115075E+03  0.53668212003E+02  0.51872845362E+03  0.66073378735E+03  0.00000000000E+00 0. -1.
         -4    1    5    5    0  503 -0.11261824402E+02  0.13321649054E+02  0.44869016407E+02  0.48140665302E+02  0.00000000000E+00 0.  1.
         -1    1    6    6    0  502  0.15216435301E+03 -0.61543745527E+02 -0.36777759786E+02  0.16820887776E+03  0.00000000000E+00 0.  1.
<mgrwt>
<rscale>  0 0.12311212E+04</rscale>
<asrwt>0</asrwt>
<pdfrwt beam="1">  1        1 0.12167491E+00 0.12311212E+04</pdfrwt>
<pdfrwt beam="2">  1       -1 0.73707872E-01 0.12311212E+04</pdfrwt>
<totfact> 0.41246249E+01</totfact>
</mgrwt>
</event>
<event>
12    1  0.2588309E-007  0.3369994E+04  0.7818608E-02  0.8145310E-01
         -2   -1    0    0    0  501 -0.00000000000E+00  0.00000000000E+00  0.33405409848E+04  0.33405409848E+04  0.00000000000E+00 0.  1.
          2   -1    0    0  501    0  0.00000000000E+00 -0.00000000000E+00 -0.84992689787E+03  0.84992689787E+03  0.00000000000E+00 0. -1.
         23    2    1    2    0    0 -0.84255940631E+03  0.84634208724E+03  0.24120839407E+04  0.26930902815E+04  0.91569894049E+02 0.  0.
        254    2    1    2    0    0  0.84255940631E+03 -0.84634208724E+03  0.78530146225E+02  0.14973776012E+04  0.89987299928E+03 0.  0.
        -24    2    4    4    0    0 -0.18268663116E+03 -0.12337423026E+03  0.41205159270E+02  0.23979950151E+03  0.84913661296E+02 0.  0.
         24    2    4    4    0    0  0.10252460375E+04 -0.72296785699E+03  0.37324986955E+02  0.12575780997E+04  0.79357183157E+02 0.  0.
         11    1    3    3    0    0 -0.51938806250E+03  0.54092236981E+03  0.16073607144E+04  0.17736880887E+04  0.00000000000E+00 0.  1.
        -11    1    3    3    0    0 -0.32317134380E+03  0.30541971744E+03  0.80472322629E+03  0.91940219283E+03  0.00000000000E+00 0. -1.
          2    1    6    6  502    0  0.84217404422E+03 -0.59918690457E+03  0.60675587284E+02  0.10353567473E+04  0.00000000000E+00 0. -1.
          3    1    5    5  503    0 -0.13619194728E+03 -0.12073618326E+03  0.56843850606E+02  0.19067431868E+03  0.00000000000E+00 0. -1.
         -4    1    5    5    0  503 -0.46494683880E+02 -0.26380470018E+01 -0.15638691336E+02  0.49125182827E+02  0.00000000000E+00 0.  1.
         -1    1    6    6    0  502  0.18307199326E+03 -0.12378095242E+03 -0.23350600329E+02  0.22222135233E+03  0.00000000000E+00 0.  1.
<mgrwt>
<rscale>  0 0.33699944E+04</rscale>
<asrwt>0</asrwt>
<pdfrwt beam="1">  1        2 0.13075799E+00 0.33699944E+04</pdfrwt>
<pdfrwt beam="2">  1       -2 0.51392938E+00 0.33699944E+04</pdfrwt>
<totfact> 0.35681216E-02</totfact>
</mgrwt>
</event>
<event>
12    1  0.2588309E-007  0.1571432E+04  0.7818608E-02  0.8838293E-01
          2   -1    0    0  501    0  0.00000000000E+00  0.00000000000E+00  0.37929262489E+04  0.37929262489E+04  0.00000000000E+00 0. -1.
         -2   -1    0    0    0  501 -0.00000000000E+00 -0.00000000000E+00 -0.16276349227E+03  0.16276349227E+03  0.00000000000E+00 0.  1.
         23    2    1    2    0    0 -0.43035171562E+03 -0.20952483971E+03  0.69550703706E+03  0.84918808133E+03  0.91033517338E+02 0.  0.
        254    2    1    2    0    0  0.43035171562E+03  0.20952483971E+03  0.29346557195E+04  0.31065016598E+04  0.89946935055E+03 0.  0.
        -24    2    4    4    0    0 -0.13199528069E+03  0.13915845254E+03  0.19987702877E+04  0.20095175263E+04  0.79310759084E+02 0.  0.
         24    2    4    4    0    0  0.56234699631E+03  0.70366387167E+02  0.93588543187E+03  0.10969841335E+04  0.79417094721E+02 0.  0.
         13    1    3    3    0    0 -0.24635836778E+03 -0.15959856010E+03  0.37441923274E+03  0.47576665247E+03  0.00000000000E+00 0.  1.
        -13    1    3    3    0    0 -0.18399334783E+03 -0.49926279612E+02  0.32108780432E+03  0.37342142885E+03  0.00000000000E+00 0. -1.
          4    1    6    6  502    0  0.40599929998E+03  0.20318815384E+02  0.62842671073E+03  0.74844399697E+03  0.00000000000E+00 0. -1.
          3    1    5    5  503    0 -0.11501115506E+03  0.13301437579E+03  0.19419695524E+04  0.19499143910E+04  0.00000000000E+00 0. -1.
         -4    1    5    5    0  503 -0.16984125631E+02  0.61440767510E+01  0.56800735309E+02  0.59603135272E+02  0.00000000000E+00 0.  1.
         -3    1    6    6    0  502  0.15634769632E+03  0.50047571783E+02  0.30745872114E+03  0.34854013656E+03  0.00000000000E+00 0.  1.
<mgrwt>
<rscale>  0 0.15714324E+04</rscale>
<asrwt>0</asrwt>
<pdfrwt beam="1">  1        2 0.58352705E+00 0.15714324E+04</pdfrwt>
<pdfrwt beam="2">  1       -2 0.25040540E-01 0.15714324E+04</pdfrwt>
<totfact> 0.69541620E+00</totfact>
</mgrwt>
</event>
<event>
12    1  0.2588309E-007  0.1999912E+04  0.7818608E-02  0.8606662E-01
         -2   -1    0    0    0  501 -0.00000000000E+00  0.00000000000E+00  0.27645157200E+03  0.27645157200E+03  0.00000000000E+00 0. -1.
          2   -1    0    0  501    0  0.00000000000E+00 -0.00000000000E+00 -0.36169529768E+04  0.36169529768E+04  0.00000000000E+00 0.  1.
         23    2    1    2    0    0 -0.11863761746E+03  0.67666411858E+03 -0.21098795887E+04  0.22210503708E+04  0.97589227932E+02 0.  0.
        254    2    1    2    0    0  0.11863761746E+03 -0.67666411858E+03 -0.12306218161E+04  0.16723541779E+04  0.90021621211E+03 0.  0.
        -24    2    4    4    0    0  0.45497004651E+03 -0.24287696129E+03 -0.33911112288E+03  0.62241628675E+03  0.80116907047E+02 0.  0.
         24    2    4    4    0    0 -0.33633242905E+03 -0.43378715729E+03 -0.89151069323E+03  0.10499378912E+04  0.79293496404E+02 0.  0.
         11    1    3    3    0    0 -0.73689966213E+02  0.19954141050E+03 -0.57436624104E+03  0.61248964438E+03  0.00000000000E+00 0. -1.
        -11    1    3    3    0    0 -0.44947651252E+02  0.47712270809E+03 -0.15355133476E+04  0.16085607265E+04  0.00000000000E+00 0.  1.
          2    1    6    6  502    0 -0.16170549370E+03 -0.15197686346E+03 -0.39102505073E+03  0.44960674374E+03  0.00000000000E+00 0. -1.
          1    1    5    5  503    0  0.28247387323E+03 -0.19196436434E+03 -0.20852271512E+03  0.40015438140E+03  0.00000000000E+00 0. -1.
         -2    1    5    5    0  503  0.17249617328E+03 -0.50912596953E+02 -0.13058840776E+03  0.22226190535E+03  0.00000000000E+00 0.  1.
         -1    1    6    6    0  502 -0.17462693535E+03 -0.28181029383E+03 -0.50048564250E+03  0.60033114746E+03  0.00000000000E+00 0.  1.
<mgrwt>
<rscale>  0 0.19999123E+04</rscale>
<asrwt>0</asrwt>
<pdfrwt beam="1">  1        2 0.55645430E+00 0.19999123E+04</pdfrwt>
<pdfrwt beam="2">  1       -2 0.42531012E-01 0.19999123E+04</pdfrwt>
<totfact> 0.32898718E+00</totfact>
</mgrwt>
</event>
<event>
12    1  0.2588309E-007  0.2240148E+04  0.7818608E-02  0.8501901E-01
          2   -1    0    0  501    0  0.00000000000E+00  0.00000000000E+00  0.11508088409E+04  0.11508088409E+04  0.00000000000E+00 0. -1.
         -2   -1    0    0    0  501 -0.00000000000E+00 -0.00000000000E+00 -0.10901601988E+04  0.10901601988E+04  0.00000000000E+00 0.  1.
         23    2    1    2    0    0 -0.36754050756E+03 -0.72810816932E+03  0.48814771659E+03  0.95483377518E+03  0.90508640892E+02 0.  0.
        254    2    1    2    0    0  0.36754050756E+03  0.72810816932E+03 -0.42749907449E+03  0.12861352645E+04  0.89786464964E+03 0.  0.
        -24    2    4    4    0    0  0.94506479727E+02  0.38625503521E+03  0.24884010183E+03  0.47671608045E+03  0.84925839118E+02 0.  0.
         24    2    4    4    0    0  0.27303402784E+03  0.34185313411E+03 -0.67633917632E+03  0.80941918408E+03  0.79458092650E+02 0.  0.
         11    1    3    3    0    0 -0.35024075611E+03 -0.66673881951E+03  0.47283623904E+03  0.88926000114E+03  0.00000000000E+00 0. -1.
        -11    1    3    3    0    0 -0.17299751455E+02 -0.61369349807E+02  0.15311477549E+02  0.65573774032E+02  0.00000000000E+00 0.  1.
          4    1    6    6  502    0  0.18664165671E+03  0.21784067887E+03 -0.37337637261E+03  0.47084985400E+03  0.00000000000E+00 0. -1.
          3    1    5    5  503    0  0.91324488690E+01  0.21558398996E+03  0.13331477385E+03  0.25363889149E+03  0.00000000000E+00 0. -1.
         -4    1    5    5    0  503  0.85374030858E+02  0.17067104525E+03  0.11552532798E+03  0.22307718896E+03  0.00000000000E+00 0.  1.
         -3    1    6    6    0  502  0.86392371125E+02  0.12401245524E+03 -0.30296280371E+03  0.33856933008E+03  0.00000000000E+00 0.  1.
<mgrwt>
<rscale>  0 0.22401482E+04</rscale>
<asrwt>0</asrwt>
<pdfrwt beam="1">  1        2 0.17704752E+00 0.22401482E+04</pdfrwt>
<pdfrwt beam="2">  1       -2 0.16771695E+00 0.22401482E+04</pdfrwt>
<totfact> 0.40885464E+00</totfact>
</mgrwt>
</event>
<event>
12    1  0.2588309E-007  0.2344780E+04  0.7818608E-02  0.8460471E-01
         -2   -1    0    0    0  501 -0.00000000000E+00  0.00000000000E+00  0.14366268203E+04  0.14366268203E+04  0.00000000000E+00 0.  1.
          2   -1    0    0  501    0  0.00000000000E+00 -0.00000000000E+00 -0.95675391161E+03  0.95675391161E+03  0.00000000000E+00 0. -1.
         23    2    1    2    0    0  0.41398040342E+02 -0.91396122746E+03 -0.19619982086E+03  0.94293296557E+03  0.11657308782E+03 0.  0.
        254    2    1    2    0    0 -0.41398040342E+02  0.91396122746E+03  0.67607272959E+03  0.14504477664E+04  0.89982524095E+03 0.  0.
        -24    2    4    4    0    0 -0.16264806389E+03 -0.13287524520E+03  0.15531924553E+03  0.27222950727E+03  0.76646024825E+02 0.  0.
         24    2    4    4    0    0  0.12125002355E+03  0.10468364727E+04  0.52075348406E+03  0.11782182591E+04  0.80286401344E+02 0.  0.
         13    1    3    3    0    0  0.70985434735E+02 -0.42396438892E+03 -0.64447401447E+02  0.43467022278E+03  0.00000000000E+00 0.  1.
        -13    1    3    3    0    0 -0.29587394393E+02 -0.48999683854E+03 -0.13175241942E+03  0.50826274279E+03  0.00000000000E+00 0. -1.
          2    1    6    6  502    0  0.12296313332E+03  0.75459850736E+03  0.38377165089E+03  0.85546450511E+03  0.00000000000E+00 0. -1.
          3    1    5    5  503    0 -0.10053346920E+03 -0.82162352666E+02  0.48362487274E+02  0.13855165391E+03  0.00000000000E+00 0. -1.
         -4    1    5    5    0  503 -0.62114594689E+02 -0.50712892531E+02  0.10695675825E+03  0.13367785336E+03  0.00000000000E+00 0.  1.
         -3    1    6    6    0  502 -0.17131097663E+01  0.29223796530E+03  0.13698183317E+03  0.32275375401E+03  0.00000000000E+00 0.  1.
<mgrwt>
<rscale>  0 0.23447800E+04</rscale>
<asrwt>0</asrwt>
<pdfrwt beam="1">  1        2 0.14719291E+00 0.23447800E+04</pdfrwt>
<pdfrwt beam="2">  1       -2 0.22101951E+00 0.23447800E+04</pdfrwt>
<totfact> 0.23632278E+00</totfact>
</mgrwt>
</event>
<event>
12    1  0.2588309E-007  0.2153281E+04  0.7818608E-02  0.8538129E-01
          2   -1    0    0  501    0  0.00000000000E+00  0.00000000000E+00  0.13407106371E+04  0.13407106371E+04  0.00000000000E+00 0. -1.
         -2   -1    0    0    0  501 -0.00000000000E+00 -0.00000000000E+00 -0.86458267681E+03  0.86458267681E+03  0.00000000000E+00 0.  1.
         23    2    1    2    0    0 -0.65392739388E+03 -0.46667103943E+03 -0.19169417924E+03  0.83093168609E+03  0.91092881655E+02 0.  0.
        254    2    1    2    0    0  0.65392739388E+03  0.46667103943E+03  0.66782213956E+03  0.13743616278E+04  0.89301768094E+03 0.  0.
        -24    2    4    4    0    0  0.24478286785E+03 -0.21623264231E+03  0.59463965721E+01  0.33630196843E+03  0.79927757039E+02 0.  0.
         24    2    4    4    0    0  0.40914452603E+03  0.68290368174E+03  0.66187574299E+03  0.10380596594E+04  0.75707830646E+02 0.  0.
         11    1    3    3    0    0 -0.23910024097E+03 -0.15188270401E+03 -0.10975319372E+03  0.30378124455E+03  0.00000000000E+00 0. -1.
        -11    1    3    3    0    0 -0.41482715291E+03 -0.31478833542E+03 -0.81940985517E+02  0.52715044154E+03  0.00000000000E+00 0.  1.
          4    1    6    6  502    0  0.38028347361E+03  0.63025645622E+03  0.58340512595E+03  0.93925516336E+03  0.00000000000E+00 0. -1.
          1    1    5    5  503    0  0.19703099673E+03 -0.18517194066E+03  0.34501543238E+02  0.27258066286E+03  0.00000000000E+00 0. -1.
         -2    1    5    5    0  503  0.47751871114E+02 -0.31060701652E+02 -0.28555146666E+02  0.63721305566E+02  0.00000000000E+00 0.  1.
         -3    1    6    6    0  502  0.28861052423E+02  0.52647225516E+02  0.78470617035E+02  0.98804496048E+02  0.00000000000E+00 0.  1.
<mgrwt>
<rscale>  0 0.21532814E+04</rscale>
<asrwt>0</asrwt>
<pdfrwt beam="1">  1        2 0.20626318E+00 0.21532814E+04</pdfrwt>
<pdfrwt beam="2">  1       -2 0.13301272E+00 0.21532814E+04</pdfrwt>
<totfact> 0.58863687E+00</totfact>
</mgrwt>
</event>
<event>
12    1  0.2588309E-007  0.3467200E+04  0.7818608E-02  0.8121607E-01
         -1   -1    0    0    0  501 -0.00000000000E+00  0.00000000000E+00  0.12587765465E+04  0.12587765465E+04  0.00000000000E+00 0.  1.
          1   -1    0    0  501    0  0.00000000000E+00 -0.00000000000E+00 -0.23875321220E+04  0.23875321220E+04  0.00000000000E+00 0. -1.
         23    2    1    2    0    0  0.71869627211E+03  0.94779170022E+03  0.62941382086E+03  0.13488302579E+04  0.91366669205E+02 0.  0.
        254    2    1    2    0    0 -0.71869627211E+03 -0.94779170022E+03 -0.17581693963E+04  0.22974784105E+04  0.87887085635E+03 0.  0.
        -24    2    4    4    0    0 -0.56113619606E+03 -0.70747927116E+03 -0.17810392312E+04  0.19985158757E+04  0.81019829660E+02 0.  0.
         24    2    4    4    0    0 -0.15756007605E+03 -0.24031242906E+03  0.22869834833E+02  0.29896253484E+03  0.79248512746E+02 0.  0.
         13    1    3    3    0    0  0.43833491225E+03  0.53254126078E+03  0.40481766242E+03  0.79975935726E+03  0.00000000000E+00 0.  1.
        -13    1    3    3    0    0  0.28036135986E+03  0.41525043944E+03  0.22459615844E+03  0.54907090065E+03  0.00000000000E+00 0. -1.
          2    1    6    6  502    0 -0.87691306344E+02 -0.69530691767E+02  0.23913952254E+02  0.11443845253E+03  0.00000000000E+00 0. -1.
          1    1    5    5  503    0 -0.16221304196E+02 -0.46357962442E+02 -0.79278979155E+02  0.93259572846E+02  0.00000000000E+00 0. -1.
         -2    1    5    5    0  503 -0.54491489187E+03 -0.66112130872E+03 -0.17017602520E+04  0.19052563028E+04  0.00000000000E+00 0.  1.
         -1    1    6    6    0  502 -0.69868769703E+02 -0.17078173729E+03 -0.10441174215E+01  0.18452408231E+03  0.00000000000E+00 0.  1.
<mgrwt>
<rscale>  0 0.34672003E+04</rscale>
<asrwt>0</asrwt>
<pdfrwt beam="1">  1        1 0.36731262E+00 0.34672003E+04</pdfrwt>
<pdfrwt beam="2">  1       -1 0.19365794E+00 0.34672003E+04</pdfrwt>
<totfact> 0.22079918E-01</totfact>
</mgrwt>
</event>
<event>
12    1  0.2588309E-007  0.3935855E+04  0.7818608E-02  0.8017613E-01
         -2   -1    0    0    0  501 -0.00000000000E+00  0.00000000000E+00  0.12510971602E+04  0.12510971602E+04  0.00000000000E+00 0.  1.
          2   -1    0    0  501    0  0.00000000000E+00 -0.00000000000E+00 -0.30954733237E+04  0.30954733237E+04  0.00000000000E+00 0. -1.
         23    2    1    2    0    0  0.19142061402E+03  0.11590172382E+04  0.72418118250E+03  0.13830457957E+04  0.91730463861E+02 0.  0.
        254    2    1    2    0    0 -0.19142061402E+03 -0.11590172382E+04 -0.25685573460E+04  0.29635246882E+04  0.89723404319E+03 0.  0.
        -24    2    4    4    0    0 -0.57686583710E+02 -0.47502830116E+01 -0.10250567341E+04  0.10298458711E+04  0.80566141011E+02 0.  0.
         24    2    4    4    0    0 -0.13373403031E+03 -0.11542669552E+04 -0.15435006119E+04  0.19336788171E+04  0.80638911487E+02 0.  0.
         13    1    3    3    0    0  0.11318940458E+03  0.73111126294E+03  0.40422654692E+03  0.84305078218E+03  0.00000000000E+00 0. -1.
        -13    1    3    3    0    0  0.78231209443E+02  0.42790597529E+03  0.31995463558E+03  0.53999501354E+03  0.00000000000E+00 0.  1.
          4    1    6    6  502    0 -0.11407568074E+03 -0.94761539126E+03 -0.13163145403E+04  0.16259373173E+04  0.00000000000E+00 0. -1.
          3    1    5    5  503    0 -0.47831135914E+01  0.21991873917E+02 -0.62658091626E+03  0.62698498013E+03  0.00000000000E+00 0. -1.
         -4    1    5    5    0  503 -0.52903470119E+02 -0.26742156928E+02 -0.39847581780E+03  0.40286089098E+03  0.00000000000E+00 0.  1.
         -3    1    6    6    0  502 -0.19658349569E+02 -0.20665156396E+03 -0.22718607155E+03  0.30774149980E+03  0.00000000000E+00 0.  1.
<mgrwt>
<rscale>  0 0.39358546E+04</rscale>
<asrwt>0</asrwt>
<pdfrwt beam="1">  1        2 0.47622667E+00 0.39358546E+04</pdfrwt>
<pdfrwt beam="2">  1       -2 0.19247649E+00 0.39358546E+04</pdfrwt>
<totfact> 0.17907823E-01</totfact>
</mgrwt>
</event>
<event>
12    1  0.2588309E-007  0.2458635E+04  0.7818608E-02  0.8417872E-01
         -1   -1    0    0    0  501 -0.00000000000E+00  0.00000000000E+00  0.88489078874E+03  0.88489078874E+03  0.00000000000E+00 0.  1.
          1   -1    0    0  501    0  0.00000000000E+00 -0.00000000000E+00 -0.17078063635E+04  0.17078063635E+04  0.00000000000E+00 0. -1.
         23    2    1    2    0    0 -0.84536016883E+03 -0.42499387411E+03 -0.87827533857E+03  0.12941340635E+04  0.90342657656E+02 0.  0.
        254    2    1    2    0    0  0.84536016883E+03  0.42499387411E+03  0.55359763838E+02  0.12985630888E+04  0.88766422930E+03 0.  0.
        -24    2    4    4    0    0  0.55742252072E+03  0.51672121047E+03 -0.30391055160E+03  0.82233943772E+03  0.78484721384E+02 0.  0.
         24    2    4    4    0    0  0.28793764810E+03 -0.91727336367E+02  0.35927031543E+03  0.47622365104E+03  0.79948813812E+02 0.  0.
         11    1    3    3    0    0 -0.44140306944E+03 -0.19060111797E+03 -0.49376182126E+03  0.68917791028E+03  0.00000000000E+00 0. -1.
        -11    1    3    3    0    0 -0.40395709939E+03 -0.23439275614E+03 -0.38451351732E+03  0.60495615318E+03  0.00000000000E+00 0.  1.
          4    1    6    6  502    0  0.11892805913E+03 -0.63370657969E+02  0.20686364007E+03  0.24688517396E+03  0.00000000000E+00 0. -1.
          1    1    5    5  503    0  0.44802650934E+03  0.37269053067E+03 -0.21942521458E+03  0.62271454898E+03  0.00000000000E+00 0. -1.
         -2    1    5    5    0  503  0.10939601139E+03  0.14403067981E+03 -0.84485337015E+02  0.19962488874E+03  0.00000000000E+00 0.  1.
         -3    1    6    6    0  502  0.16900958897E+03 -0.28356678398E+02  0.15240667537E+03  0.22933847708E+03  0.00000000000E+00 0.  1.
<mgrwt>
<rscale>  0 0.24586355E+04</rscale>
<asrwt>0</asrwt>
<pdfrwt beam="1">  1        1 0.26273944E+00 0.24586355E+04</pdfrwt>
<pdfrwt beam="2">  1       -1 0.13613705E+00 0.24586355E+04</pdfrwt>
<totfact> 0.18922069E+00</totfact>
</mgrwt>
</event>
<event>
12    1  0.2588309E-007  0.2193375E+04  0.7818608E-02  0.8521191E-01
         -2   -1    0    0    0  501 -0.00000000000E+00  0.00000000000E+00  0.40520786380E+03  0.40520786380E+03  0.00000000000E+00 0.  1.
          2   -1    0    0  501    0  0.00000000000E+00 -0.00000000000E+00 -0.29681648062E+04  0.29681648062E+04  0.00000000000E+00 0. -1.
         23    2    1    2    0    0  0.69196234735E+03  0.42624442058E+03 -0.43639298135E+03  0.92717919023E+03  0.93414240829E+02 0.  0.
        254    2    1    2    0    0 -0.69196234735E+03 -0.42624442058E+03 -0.21265639610E+04  0.24461934798E+04  0.89503746504E+03 0.  0.
        -24    2    4    4    0    0 -0.59359496468E+03 -0.69204538742E+03 -0.16050057380E+04  0.18473463524E+04  0.73234733325E+02 0.  0.
         24    2    4    4    0    0 -0.98367382671E+02  0.26580096683E+03 -0.52155822303E+03  0.59884712741E+03  0.79174529105E+02 0.  0.
         11    1    3    3    0    0  0.34723608563E+03  0.16304070730E+03 -0.22442369342E+03  0.44443353336E+03  0.00000000000E+00 0. -1.
        -11    1    3    3    0    0  0.34472626172E+03  0.26320371328E+03 -0.21196928793E+03  0.48274565687E+03  0.00000000000E+00 0.  1.
          4    1    6    6  502    0  0.10962651272E+02  0.62312950660E+02 -0.11290651272E+03  0.12942551587E+03  0.00000000000E+00 0. -1.
          1    1    5    5  503    0 -0.31307971109E+03 -0.30892845388E+03 -0.76687284960E+03  0.88405297498E+03  0.00000000000E+00 0. -1.
         -2    1    5    5    0  503 -0.28051525359E+03 -0.38311693353E+03 -0.83813288842E+03  0.96329337738E+03  0.00000000000E+00 0.  1.
         -1    1    6    6    0  502 -0.10933003394E+03  0.20348801617E+03 -0.40865171030E+03  0.46942161154E+03  0.00000000000E+00 0.  1.
<mgrwt>
<rscale>  0 0.21933752E+04</rscale>
<asrwt>0</asrwt>
<pdfrwt beam="1">  1        2 0.45664074E+00 0.21933752E+04</pdfrwt>
<pdfrwt beam="2">  1       -2 0.62339671E-01 0.21933752E+04</pdfrwt>
<totfact> 0.39850529E+00</totfact>
</mgrwt>
</event>
<event>
12    1  0.2588309E-007  0.1815699E+04  0.7818608E-02  0.8697995E-01
         -2   -1    0    0    0  501 -0.00000000000E+00  0.00000000000E+00  0.80466818903E+03  0.80466818903E+03  0.00000000000E+00 0.  1.
          2   -1    0    0  501    0  0.00000000000E+00 -0.00000000000E+00 -0.10242617693E+04  0.10242617693E+04  0.00000000000E+00 0. -1.
         23    2    1    2    0    0 -0.47517125348E+03 -0.13809375836E+03 -0.55619788140E+03  0.74998470938E+03  0.90903106617E+02 0.  0.
        254    2    1    2    0    0  0.47517125348E+03  0.13809375836E+03  0.33660430114E+03  0.10789452489E+04  0.89775430294E+03 0.  0.
        -24    2    4    4    0    0  0.63724450921E+03  0.27004473000E+03  0.44862390171E+03  0.82859359328E+03  0.79367606228E+02 0.  0.
         24    2    4    4    0    0 -0.16207325573E+03 -0.13195097164E+03 -0.11201960058E+03  0.25035165566E+03  0.80304180714E+02 0.  0.
         13    1    3    3    0    0 -0.22410478604E+03 -0.52429206815E+02 -0.32407863805E+03  0.39749055397E+03  0.00000000000E+00 0. -1.
        -13    1    3    3    0    0 -0.25106646744E+03 -0.85664551543E+02 -0.23211924336E+03  0.35249415542E+03  0.00000000000E+00 0.  1.
          2    1    6    6  502    0 -0.21366743505E+01  0.71593153427E+01 -0.15978125925E+02  0.17638641714E+02  0.00000000000E+00 0. -1.
          1    1    5    5  503    0  0.14488335469E+03  0.27558464934E+02  0.10543782031E+03  0.18129475835E+03  0.00000000000E+00 0. -1.
         -2    1    5    5    0  503  0.49236115452E+03  0.24248626507E+03  0.34318608141E+03  0.64729883493E+03  0.00000000000E+00 0.  1.
         -1    1    6    6    0  502 -0.15993658138E+03 -0.13911028698E+03 -0.96041474653E+02  0.23271301395E+03  0.00000000000E+00 0.  1.
<mgrwt>
<rscale>  0 0.18156992E+04</rscale>
<asrwt>0</asrwt>
<pdfrwt beam="1">  1        2 0.15757874E+00 0.18156992E+04</pdfrwt>
<pdfrwt beam="2">  1       -2 0.12379510E+00 0.18156992E+04</pdfrwt>
<totfact> 0.11258589E+01</totfact>
</mgrwt>
</event>
<event>
12    1  0.2588309E-007  0.1129301E+04  0.7818608E-02  0.9177094E-01
         -2   -1    0    0    0  501 -0.00000000000E+00  0.00000000000E+00  0.42589844136E+03  0.42589844136E+03  0.00000000000E+00 0. -1.
          2   -1    0    0  501    0  0.00000000000E+00 -0.00000000000E+00 -0.74860630138E+03  0.74860630138E+03  0.00000000000E+00 0.  1.
         23    2    1    2    0    0 -0.11204152393E+03 -0.47498171159E+02  0.89525664074E+02  0.17626387027E+03  0.90800485065E+02 0.  0.
        254    2    1    2    0    0  0.11204152393E+03  0.47498171159E+02 -0.41223352409E+03  0.99824087247E+03  0.90096558300E+03 0.  0.
        -24    2    4    4    0    0  0.12426014358E+03 -0.26267554169E+03 -0.56797552120E+03  0.64300718818E+03  0.80143795064E+02 0.  0.
         24    2    4    4    0    0 -0.12218619654E+02  0.31017371285E+03  0.15574199710E+03  0.35523368429E+03  0.74688513074E+02 0.  0.
         13    1    3    3    0    0 -0.59383942201E+02 -0.63181069319E+02  0.22467924189E+02  0.89571802086E+02  0.00000000000E+00 0.  1.
        -13    1    3    3    0    0 -0.52657581725E+02  0.15682898160E+02  0.67057739885E+02  0.86692068185E+02  0.00000000000E+00 0. -1.
          2    1    6    6  502    0 -0.20513486729E+02  0.45171562005E+02  0.48047727482E+02  0.69064153278E+02  0.00000000000E+00 0. -1.
          1    1    5    5  503    0  0.86572182293E+02 -0.10501872536E+03 -0.21297352762E+03  0.25274769809E+03  0.00000000000E+00 0. -1.
         -2    1    5    5    0  503  0.37687961287E+02 -0.15765681634E+03 -0.35500199357E+03  0.39025949009E+03  0.00000000000E+00 0.  1.
         -1    1    6    6    0  502  0.82948670746E+01  0.26500215085E+03  0.10769426962E+03  0.28616953102E+03  0.00000000000E+00 0.  1.
<mgrwt>
<rscale>  0 0.11293011E+04</rscale>
<asrwt>0</asrwt>
<pdfrwt beam="1">  1        2 0.11517020E+00 0.11293011E+04</pdfrwt>
<pdfrwt beam="2">  1       -2 0.65522838E-01 0.11293011E+04</pdfrwt>
<totfact> 0.79984803E+01</totfact>
</mgrwt>
</event>
<event>
12    1  0.2588309E-007  0.1458817E+04  0.7818608E-02  0.8912310E-01
         -1   -1    0    0    0  501 -0.00000000000E+00  0.00000000000E+00  0.34489720799E+03  0.34489720799E+03  0.00000000000E+00 0.  1.
          1   -1    0    0  501    0  0.00000000000E+00 -0.00000000000E+00 -0.15425957329E+04  0.15425957329E+04  0.00000000000E+00 0. -1.
         23    2    1    2    0    0 -0.39022359243E+03 -0.14844307720E+03 -0.57045195966E+03  0.71263797277E+03  0.90153439765E+02 0.  0.
        254    2    1    2    0    0  0.39022359243E+03  0.14844307720E+03 -0.62724656528E+03  0.11748549681E+04  0.90140786731E+03 0.  0.
        -24    2    4    4    0    0  0.35388061017E+02 -0.13770922552E+03  0.18094717864E+03  0.24335690312E+03  0.79148943041E+02 0.  0.
         24    2    4    4    0    0  0.35483553142E+03  0.28615230272E+03 -0.80819374392E+03  0.93149806502E+03  0.81976354582E+02 0.  0.
         11    1    3    3    0    0 -0.32562820760E+03 -0.12130101135E+03 -0.52336921849E+03  0.62822209752E+03  0.00000000000E+00 0. -1.
        -11    1    3    3    0    0 -0.64595384831E+02 -0.27142065847E+02 -0.47082741165E+02  0.84415875258E+02  0.00000000000E+00 0.  1.
          2    1    6    6  502    0  0.34552476714E+03  0.25912048260E+03 -0.77850414469E+03  0.89028056955E+03  0.00000000000E+00 0. -1.
          1    1    5    5  503    0  0.63460315497E+01 -0.13127764040E+03  0.13337880808E+03  0.18725383155E+03  0.00000000000E+00 0. -1.
         -2    1    5    5    0  503  0.29042029467E+02 -0.64315851266E+01  0.47568370557E+02  0.56103071576E+02  0.00000000000E+00 0.  1.
         -1    1    6    6    0  502  0.93107642802E+01  0.27031820124E+02 -0.29689599229E+02  0.41217495473E+02  0.00000000000E+00 0.  1.
<mgrwt>
<rscale>  0 0.14588173E+04</rscale>
<asrwt>0</asrwt>
<pdfrwt beam="1">  1        1 0.23732242E+00 0.14588173E+04</pdfrwt>
<pdfrwt beam="2">  1       -1 0.53061110E-01 0.14588173E+04</pdfrwt>
<totfact> 0.21245333E+01</totfact>
</mgrwt>
</event>
<event>
12    1  0.2588309E-007  0.1524169E+04  0.7818608E-02  0.8868538E-01
         -2   -1    0    0    0  501 -0.00000000000E+00  0.00000000000E+00  0.47451092592E+03  0.47451092592E+03  0.00000000000E+00 0.  1.
          2   -1    0    0  501    0  0.00000000000E+00 -0.00000000000E+00 -0.12239405140E+04  0.12239405140E+04  0.00000000000E+00 0. -1.
         23    2    1    2    0    0  0.89422386229E+02 -0.29288890748E+03  0.18129434811E+03  0.36734556554E+03  0.91076059315E+02 0.  0.
        254    2    1    2    0    0 -0.89422386229E+02  0.29288890748E+03 -0.93072393620E+03  0.13311058744E+04  0.90100806218E+03 0.  0.
        -24    2    4    4    0    0 -0.35974298504E+01 -0.30998125326E+03 -0.20373405527E+03  0.37944661752E+03  0.79817613347E+02 0.  0.
         24    2    4    4    0    0 -0.85824956378E+02  0.60287016074E+03 -0.72698988093E+03  0.95165925686E+03  0.79515409494E+02 0.  0.
         11    1    3    3    0    0 -0.12674713543E+01 -0.29670399238E+01 -0.85424573436E+01  0.91314504330E+01  0.00000000000E+00 0. -1.
        -11    1    3    3    0    0  0.90689857583E+02 -0.28992186756E+03  0.18983680546E+03  0.35821411511E+03  0.00000000000E+00 0.  1.
          4    1    6    6  502    0 -0.21951434466E+02  0.13149926737E+03 -0.11163730623E+03  0.17388735128E+03  0.00000000000E+00 0. -1.
          1    1    5    5  503    0 -0.35920767853E+02 -0.77804756308E+02 -0.54219315988E+02  0.10140816483E+03  0.00000000000E+00 0. -1.
         -2    1    5    5    0  503  0.32323338002E+02 -0.23217649695E+03 -0.14951473928E+03  0.27803845270E+03  0.00000000000E+00 0.  1.
         -3    1    6    6    0  502 -0.63873521912E+02  0.47137089337E+03 -0.61535257469E+03  0.77777190557E+03  0.00000000000E+00 0.  1.
<mgrwt>
<rscale>  0 0.15241695E+04</rscale>
<asrwt>0</asrwt>
<pdfrwt beam="1">  1        2 0.18829854E+00 0.15241695E+04</pdfrwt>
<pdfrwt beam="2">  1       -2 0.73001682E-01 0.15241695E+04</pdfrwt>
<totfact> 0.29966648E+01</totfact>
</mgrwt>
</event>
<event>
12    1  0.2588309E-007  0.2566779E+04  0.7818608E-02  0.8379574E-01
         -2   -1    0    0    0  501 -0.00000000000E+00  0.00000000000E+00  0.85435164254E+03  0.85435164254E+03  0.00000000000E+00 0.  1.
          2   -1    0    0  501    0  0.00000000000E+00 -0.00000000000E+00 -0.19278806620E+04  0.19278806620E+04  0.00000000000E+00 0. -1.
         23    2    1    2    0    0 -0.98284903151E+03 -0.30440654654E+03  0.15284622152E+02  0.10329747796E+04  0.90264674096E+02 0.  0.
        254    2    1    2    0    0  0.98284903151E+03  0.30440654654E+03 -0.10888136416E+04  0.17492575249E+04  0.90317837548E+03 0.  0.
        -24    2    4    4    0    0  0.10318201740E+04 -0.13457621522E+02 -0.86448237931E+03  0.13490475762E+04  0.88122639906E+02 0.  0.
         24    2    4    4    0    0 -0.48971142463E+02  0.31786416806E+03 -0.22433126233E+03  0.40020994874E+03  0.80048021067E+02 0.  0.
         13    1    3    3    0    0 -0.61881387737E+03 -0.14738924848E+03 -0.23448319192E+01  0.63612868480E+03  0.00000000000E+00 0. -1.
        -13    1    3    3    0    0 -0.36403515414E+03 -0.15701729806E+03  0.17629454071E+02  0.39684609484E+03  0.00000000000E+00 0.  1.
          4    1    6    6  502    0  0.58445625810E+01  0.11600442495E+03 -0.11795855895E+03  0.16554578566E+03  0.00000000000E+00 0. -1.
          1    1    5    5  503    0  0.44403849506E+03 -0.28579556042E+02 -0.32423030691E+03  0.55055632595E+03  0.00000000000E+00 0. -1.
         -2    1    5    5    0  503  0.58778167891E+03  0.15121934521E+02 -0.54025207239E+03  0.79849125023E+03  0.00000000000E+00 0.  1.
         -3    1    6    6    0  502 -0.54815705044E+02  0.20185974311E+03 -0.10637270338E+03  0.23466416308E+03  0.00000000000E+00 0.  1.
<mgrwt>
<rscale>  0 0.25667785E+04</rscale>
<asrwt>0</asrwt>
<pdfrwt beam="1">  1        2 0.29659702E+00 0.25667785E+04</pdfrwt>
<pdfrwt beam="2">  1       -2 0.13143871E+00 0.25667785E+04</pdfrwt>
<totfact> 0.27451204E+00</totfact>
</mgrwt>
</event>
<event>
12    1  0.2588309E-007  0.2280797E+04  0.7818608E-02  0.8485531E-01
         -2   -1    0    0    0  501 -0.00000000000E+00  0.00000000000E+00  0.52902925899E+03  0.52902925899E+03  0.00000000000E+00 0. -1.
          2   -1    0    0  501    0  0.00000000000E+00 -0.00000000000E+00 -0.24582932454E+04  0.24582932454E+04  0.00000000000E+00 0.  1.
         23    2    1    2    0    0  0.65582081307E+03  0.70015930933E+03 -0.87806258478E+03  0.13037833962E+04  0.92375559943E+02 0.  0.
        254    2    1    2    0    0 -0.65582081307E+03 -0.70015930933E+03 -0.10512014017E+04  0.16835391082E+04  0.89941955995E+03 0.  0.
        -24    2    4    4    0    0 -0.68383994796E+03 -0.86559186085E+03 -0.99971440976E+03  0.14908856723E+04  0.80155117774E+02 0.  0.
         24    2    4    4    0    0  0.28019134890E+02  0.16543255152E+03 -0.51486991900E+02  0.19265343590E+03  0.79444540451E+02 0.  0.
         13    1    3    3    0    0  0.56311128421E+03  0.55084253100E+03 -0.70551644986E+03  0.10574853537E+04  0.00000000000E+00 0.  1.
        -13    1    3    3    0    0  0.92709528855E+02  0.14931677833E+03 -0.17254613492E+03  0.24629804244E+03  0.00000000000E+00 0. -1.
          2    1    6    6  502    0  0.45482497732E+02  0.13909975282E+03 -0.62580039907E+02  0.15916551206E+03  0.00000000000E+00 0. -1.
          3    1    5    5  503    0 -0.62861455140E+03 -0.79875704253E+03 -0.88980259537E+03  0.13508951573E+04  0.00000000000E+00 0. -1.
         -4    1    5    5    0  503 -0.55225396557E+02 -0.66834818327E+02 -0.10991181439E+03  0.13999051507E+03  0.00000000000E+00 0.  1.
         -1    1    6    6    0  502 -0.17463362842E+02  0.26332798697E+02  0.11093048008E+02  0.33487923839E+02  0.00000000000E+00 0.  1.
<mgrwt>
<rscale>  0 0.22807973E+04</rscale>
<asrwt>0</asrwt>
<pdfrwt beam="1">  1        2 0.37819896E+00 0.22807973E+04</pdfrwt>
<pdfrwt beam="2">  1       -2 0.81389117E-01 0.22807973E+04</pdfrwt>
<totfact> 0.44430084E+00</totfact>
</mgrwt>
</event>
<event>
12    1  0.2588309E-007  0.2812091E+04  0.7818608E-02  0.8299524E-01
          2   -1    0    0  501    0  0.00000000000E+00  0.00000000000E+00  0.15536749909E+04  0.15536749909E+04  0.00000000000E+00 0. -1.
         -2   -1    0    0    0  501 -0.00000000000E+00 -0.00000000000E+00 -0.12724441102E+04  0.12724441102E+04  0.00000000000E+00 0.  1.
         23    2    1    2    0    0 -0.61830550771E+03 -0.78096966349E+03  0.89805726675E+03  0.13442231515E+04  0.90629523153E+02 0.  0.
        254    2    1    2    0    0  0.61830550771E+03  0.78096966349E+03 -0.61682638609E+03  0.14818959496E+04  0.90737285533E+03 0.  0.
        -24    2    4    4    0    0  0.59661862782E+03  0.57693451034E+03 -0.72773981167E+01  0.83378164746E+03  0.79571721294E+02 0.  0.
         24    2    4    4    0    0  0.21686879888E+02  0.20403515315E+03 -0.60954898797E+03  0.64811430210E+03  0.80009470539E+02 0.  0.
         13    1    3    3    0    0 -0.12121432113E+03 -0.11174376910E+03  0.12011059887E+03  0.20397582588E+03  0.00000000000E+00 0. -1.
        -13    1    3    3    0    0 -0.49709118658E+03 -0.66922589439E+03  0.77794666788E+03  0.11402473256E+04  0.00000000000E+00 0.  1.
          2    1    6    6  502    0  0.25058972429E+02  0.68143701098E+02 -0.12199947107E+03  0.14196966944E+03  0.00000000000E+00 0. -1.
          3    1    5    5  503    0  0.33058975852E+03  0.29662374822E+03  0.32174885906E+02  0.44532062576E+03  0.00000000000E+00 0. -1.
         -4    1    5    5    0  503  0.26602886930E+03  0.28031076212E+03 -0.39452284023E+02  0.38846102170E+03  0.00000000000E+00 0.  1.
         -1    1    6    6    0  502 -0.33720925410E+01  0.13589145205E+03 -0.48754951690E+03  0.50614463266E+03  0.00000000000E+00 0.  1.
<mgrwt>
<rscale>  0 0.28120915E+04</rscale>
<asrwt>0</asrwt>
<pdfrwt beam="1">  1        2 0.23902692E+00 0.28120915E+04</pdfrwt>
<pdfrwt beam="2">  1       -2 0.19576063E+00 0.28120915E+04</pdfrwt>
<totfact> 0.14601971E+00</totfact>
</mgrwt>
</event>
<event>
12    1  0.2588309E-007  0.2080572E+04  0.7818608E-02  0.8569850E-01
          2   -1    0    0  501    0  0.00000000000E+00  0.00000000000E+00  0.89671222255E+03  0.89671222255E+03  0.00000000000E+00 0. -1.
         -2   -1    0    0    0  501 -0.00000000000E+00 -0.00000000000E+00 -0.12068475875E+04  0.12068475875E+04  0.00000000000E+00 0.  1.
         23    2    1    2    0    0  0.34787326952E+03 -0.29398848013E+03 -0.84305963556E+03  0.96252980453E+03  0.90934247668E+02 0.  0.
        254    2    1    2    0    0 -0.34787326952E+03  0.29398848013E+03  0.53292427063E+03  0.11410300055E+04  0.90027560066E+03 0.  0.
        -24    2    4    4    0    0 -0.15844945049E+03  0.17865949528E+03 -0.23127092716E+03  0.34105174637E+03  0.76187980274E+02 0.  0.
         24    2    4    4    0    0 -0.18942381903E+03  0.11532898485E+03  0.76419519779E+03  0.79997825914E+03  0.82393912444E+02 0.  0.
         11    1    3    3    0    0  0.14529161984E+03 -0.99105566444E+02 -0.41131657321E+03  0.44733979422E+03  0.00000000000E+00 0.  1.
        -11    1    3    3    0    0  0.20258164968E+03 -0.19488291368E+03 -0.43174306234E+03  0.51519001030E+03  0.00000000000E+00 0. -1.
          4    1    6    6  502    0 -0.13727006787E+03  0.70751955479E+02  0.63707413169E+03  0.65552449230E+03  0.00000000000E+00 0. -1.
          3    1    5    5  503    0 -0.76113977008E+02  0.12901945488E+03 -0.10775021033E+03  0.18452497137E+03  0.00000000000E+00 0. -1.
         -4    1    5    5    0  503 -0.82335473483E+02  0.49640040395E+02 -0.12352071683E+03  0.15652677500E+03  0.00000000000E+00 0.  1.
         -3    1    6    6    0  502 -0.52153751161E+02  0.44577029368E+02  0.12712106610E+03  0.14445376684E+03  0.00000000000E+00 0.  1.
<mgrwt>
<rscale>  0 0.20805720E+04</rscale>
<asrwt>0</asrwt>
<pdfrwt beam="1">  1        2 0.13795573E+00 0.20805720E+04</pdfrwt>
<pdfrwt beam="2">  1       -2 0.18566886E+00 0.20805720E+04</pdfrwt>
<totfact> 0.45088183E+00</totfact>
</mgrwt>
</event>
<event>
12    1  0.2588309E-007  0.2664693E+04  0.7818608E-02  0.8346553E-01
          2   -1    0    0  501    0  0.00000000000E+00  0.00000000000E+00  0.15569049276E+04  0.15569049276E+04  0.00000000000E+00 0. -1.
         -2   -1    0    0    0  501 -0.00000000000E+00 -0.00000000000E+00 -0.11401771671E+04  0.11401771671E+04  0.00000000000E+00 0.  1.
         23    2    1    2    0    0  0.10262154625E+04  0.52409974387E+03  0.43602717699E+03  0.12358585906E+04  0.97098094854E+02 0.  0.
        254    2    1    2    0    0 -0.10262154625E+04 -0.52409974387E+03 -0.19299416430E+02  0.14612235041E+04  0.89833342609E+03 0.  0.
        -24    2    4    4    0    0 -0.71166374977E+03  0.13221158935E+03 -0.33374145236E+02  0.72898566394E+03  0.79756301084E+02 0.  0.
         24    2    4    4    0    0 -0.31455171270E+03 -0.65631133322E+03  0.14074728806E+02  0.73223784013E+03  0.79289409484E+02 0.  0.
         13    1    3    3    0    0  0.47505479628E+03  0.23552394380E+03  0.25202651675E+03  0.58708257743E+03  0.00000000000E+00 0. -1.
        -13    1    3    3    0    0  0.55116066619E+03  0.28857580007E+03  0.18400066024E+03  0.64877601320E+03  0.00000000000E+00 0.  1.
          2    1    6    6  502    0 -0.31736866640E+03 -0.65566368043E+03  0.16256342368E+02  0.72861649784E+03  0.00000000000E+00 0. -1.
          1    1    5    5  503    0 -0.45127622924E+03  0.11412663551E+03 -0.45410223168E+02  0.46769350260E+03  0.00000000000E+00 0. -1.
         -2    1    5    5    0  503 -0.26038752053E+03  0.18084953843E+02  0.12036077932E+02  0.26129216133E+03  0.00000000000E+00 0.  1.
         -1    1    6    6    0  502  0.28169537001E+01 -0.64765278408E+00 -0.21816135626E+01  0.36213422945E+01  0.00000000000E+00 0.  1.
<mgrwt>
<rscale>  0 0.26646932E+04</rscale>
<asrwt>0</asrwt>
<pdfrwt beam="1">  1        2 0.23952383E+00 0.26646932E+04</pdfrwt>
<pdfrwt beam="2">  1       -2 0.17541187E+00 0.26646932E+04</pdfrwt>
<totfact> 0.20249858E+00</totfact>
</mgrwt>
</event>
<event>
12    1  0.2588309E-007  0.1352706E+04  0.7818608E-02  0.8988782E-01
         -1   -1    0    0    0  501 -0.00000000000E+00  0.00000000000E+00  0.56624272362E+03  0.56624272362E+03  0.00000000000E+00 0.  1.
          1   -1    0    0  501    0  0.00000000000E+00 -0.00000000000E+00 -0.80787526029E+03  0.80787526029E+03  0.00000000000E+00 0. -1.
         23    2    1    2    0    0  0.29653926082E+03 -0.27248218270E+01  0.15710569835E+03  0.34709251993E+03  0.88589271761E+02 0.  0.
        254    2    1    2    0    0 -0.29653926082E+03  0.27248218270E+01 -0.39873823502E+03  0.10270254640E+04  0.89880262891E+03 0.  0.
        -24    2    4    4    0    0 -0.80368764741E+02 -0.20105221654E+03 -0.61030082206E+03  0.65355334037E+03  0.88225524526E+02 0.  0.
         24    2    4    4    0    0 -0.21617049608E+03  0.20377703836E+03  0.21156258704E+03  0.37347212361E+03  0.80423467607E+02 0.  0.
         13    1    3    3    0    0  0.24458974156E+03  0.17513540445E+01  0.86755953951E+02  0.25952611518E+03  0.00000000000E+00 0. -1.
        -13    1    3    3    0    0  0.51949519262E+02 -0.44761758714E+01  0.70349744400E+02  0.87566404741E+02  0.00000000000E+00 0.  1.
          2    1    6    6  502    0 -0.22021222163E+03  0.20707792942E+03  0.20983681218E+03  0.36797578610E+03  0.00000000000E+00 0. -1.
          1    1    5    5  503    0 -0.82442056970E+02 -0.19113791534E+03 -0.60868752381E+03  0.64329689653E+03  0.00000000000E+00 0. -1.
         -2    1    5    5    0  503  0.20732922294E+01 -0.99143012027E+01 -0.16132982464E+01  0.10256443840E+02  0.00000000000E+00 0.  1.
         -1    1    6    6    0  502  0.40417255531E+01 -0.33008910563E+01  0.17257748613E+01  0.54963375155E+01  0.00000000000E+00 0.  1.
<mgrwt>
<rscale>  0 0.13527062E+04</rscale>
<asrwt>0</asrwt>
<pdfrwt beam="1">  1        1 0.12428850E+00 0.13527062E+04</pdfrwt>
<pdfrwt beam="2">  1       -1 0.87114266E-01 0.13527062E+04</pdfrwt>
<totfact> 0.27649524E+01</totfact>
</mgrwt>
</event>
<event>
12    1  0.2588309E-007  0.1836930E+04  0.7818608E-02  0.8686903E-01
          1   -1    0    0  501    0  0.00000000000E+00  0.00000000000E+00  0.80419113927E+03  0.80419113927E+03  0.00000000000E+00 0. -1.
         -1   -1    0    0    0  501 -0.00000000000E+00 -0.00000000000E+00 -0.10489770750E+04  0.10489770750E+04  0.00000000000E+00 0.  1.
         23    2    1    2    0    0  0.37320001366E+03 -0.53756335362E+03 -0.32512960596E+03  0.73700086930E+03  0.95960467494E+02 0.  0.
        254    2    1    2    0    0 -0.37320001366E+03  0.53756335362E+03  0.80343670188E+02  0.11161673450E+04  0.90062302179E+03 0.  0.
        -24    2    4    4    0    0 -0.49653554358E+03  0.71950582276E+03  0.93552361154E+02  0.88230968528E+03  0.74041619631E+02 0.  0.
         24    2    4    4    0    0  0.12333552992E+03 -0.18194246915E+03 -0.13208690966E+02  0.23385765973E+03  0.78741478757E+02 0.  0.
         13    1    3    3    0    0  0.74861286341E+02 -0.99486760772E+02 -0.22035734244E+02  0.12644129604E+03  0.00000000000E+00 0. -1.
        -13    1    3    3    0    0  0.29833872732E+03 -0.43807659285E+03 -0.30309387171E+03  0.61055957325E+03  0.00000000000E+00 0.  1.
          2    1    6    6  502    0  0.10211202851E+03 -0.16695092650E+03 -0.36365037864E+02  0.19905249108E+03  0.00000000000E+00 0. -1.
          1    1    5    5  503    0 -0.49294770797E+03  0.71994107201E+03  0.89867192365E+02  0.87714805034E+03  0.00000000000E+00 0. -1.
         -2    1    5    5    0  503 -0.35878356098E+01 -0.43524924218E+00  0.36851687893E+01  0.51616349416E+01  0.00000000000E+00 0.  1.
         -1    1    6    6    0  502  0.21223501410E+02 -0.14991542643E+02  0.23156346898E+02  0.34805168647E+02  0.00000000000E+00 0.  1.
<mgrwt>
<rscale>  0 0.18369301E+04</rscale>
<asrwt>0</asrwt>
<pdfrwt beam="1">  1        1 0.12372171E+00 0.18369301E+04</pdfrwt>
<pdfrwt beam="2">  1       -1 0.16138109E+00 0.18369301E+04</pdfrwt>
<totfact> 0.58836010E+00</totfact>
</mgrwt>
</event>
<event>
12    1  0.2588309E-007  0.2904230E+04  0.7818608E-02  0.8271620E-01
         -2   -1    0    0    0  501 -0.00000000000E+00  0.00000000000E+00  0.86887728838E+03  0.86887728838E+03  0.00000000000E+00 0.  1.
          2   -1    0    0  501    0  0.00000000000E+00 -0.00000000000E+00 -0.24268541994E+04  0.24268541994E+04  0.00000000000E+00 0. -1.
         23    2    1    2    0    0 -0.41297238587E+03 -0.11796999760E+04 -0.25668723670E+03  0.12792215508E+04  0.91001174230E+02 0.  0.
        254    2    1    2    0    0  0.41297238587E+03  0.11796999760E+04 -0.13012896743E+04  0.20165099369E+04  0.90039951384E+03 0.  0.
        -24    2    4    4    0    0 -0.15872247052E+03  0.86330317016E+03 -0.71962903835E+03  0.11378868595E+04  0.80220732250E+02 0.  0.
         24    2    4    4    0    0  0.57169485638E+03  0.31639680584E+03 -0.58166063594E+03  0.87862307747E+03  0.81899140980E+02 0.  0.
         11    1    3    3    0    0 -0.27129334382E+03 -0.86348272646E+03 -0.15655635408E+03  0.91853818065E+03  0.00000000000E+00 0.  1.
        -11    1    3    3    0    0 -0.14167904204E+03 -0.31621724953E+03 -0.10013088262E+03  0.36068337016E+03  0.00000000000E+00 0. -1.
          4    1    6    6  502    0  0.47716710580E+03  0.29350276629E+03 -0.47730230299E+03  0.73596861966E+03  0.00000000000E+00 0. -1.
          1    1    5    5  503    0 -0.10913646207E+03  0.74717020444E+03 -0.61199151728E+03  0.97196074971E+03  0.00000000000E+00 0. -1.
         -2    1    5    5    0  503 -0.49586008445E+02  0.11613296572E+03 -0.10763752107E+03  0.16592610977E+03  0.00000000000E+00 0.  1.
         -3    1    6    6    0  502  0.94527750584E+02  0.22894039548E+02 -0.10435833295E+03  0.14265445781E+03  0.00000000000E+00 0.  1.
<mgrwt>
<rscale>  0 0.29042304E+04</rscale>
<asrwt>0</asrwt>
<pdfrwt beam="1">  1        2 0.37336217E+00 0.29042304E+04</pdfrwt>
<pdfrwt beam="2">  1       -2 0.13367343E+00 0.29042304E+04</pdfrwt>
<totfact> 0.13390697E+00</totfact>
</mgrwt>
</event>
<event>
12    1  0.2588309E-007  0.2398287E+04  0.7818608E-02  0.8440145E-01
         -1   -1    0    0    0  501 -0.00000000000E+00  0.00000000000E+00  0.10509881387E+04  0.10509881387E+04  0.00000000000E+00 0.  1.
          1   -1    0    0  501    0  0.00000000000E+00 -0.00000000000E+00 -0.13681844767E+04  0.13681844767E+04  0.00000000000E+00 0. -1.
         23    2    1    2    0    0 -0.78588377082E+03  0.65058686944E+03 -0.26056830943E+03  0.10569879941E+04  0.91930408047E+02 0.  0.
        254    2    1    2    0    0  0.78588377082E+03 -0.65058686944E+03 -0.56628028616E+02  0.13621846213E+04  0.90081276238E+03 0.  0.
        -24    2    4    4    0    0  0.55531996066E+03  0.70257717831E+02 -0.17530381353E+03  0.59189472650E+03  0.79319194393E+02 0.  0.
         24    2    4    4    0    0  0.23056381016E+03 -0.72084458727E+03  0.11867578491E+03  0.77028989477E+03  0.80535647437E+02 0.  0.
         13    1    3    3    0    0 -0.36497349138E+03  0.26081546944E+03 -0.80690317985E+02  0.45578644772E+03  0.00000000000E+00 0. -1.
        -13    1    3    3    0    0 -0.42091027944E+03  0.38977139999E+03 -0.17987799144E+03  0.60120154640E+03  0.00000000000E+00 0.  1.
          4    1    6    6  502    0  0.21760150175E+03 -0.67583376906E+03  0.90803142481E+02  0.71578412084E+03  0.00000000000E+00 0. -1.
          3    1    5    5  503    0  0.52267052874E+03  0.77721339198E+02 -0.17965244872E+03  0.55812193158E+03  0.00000000000E+00 0. -1.
         -4    1    5    5    0  503  0.32649431915E+02 -0.74636213672E+01  0.43486351939E+01  0.33772794914E+02  0.00000000000E+00 0.  1.
         -3    1    6    6    0  502  0.12962308403E+02 -0.45010818206E+02  0.27872642431E+02  0.54505773922E+02  0.00000000000E+00 0.  1.
<mgrwt>
<rscale>  0 0.23982874E+04</rscale>
<asrwt>0</asrwt>
<pdfrwt beam="1">  1        1 0.21048992E+00 0.23982874E+04</pdfrwt>
<pdfrwt beam="2">  1       -1 0.16169048E+00 0.23982874E+04</pdfrwt>
<totfact> 0.20576127E+00</totfact>
</mgrwt>
</event>
<event>
12    1  0.2588309E-007  0.1388061E+04  0.7818608E-02  0.8962506E-01
         -1   -1    0    0    0  501 -0.00000000000E+00  0.00000000000E+00  0.63069882949E+03  0.63069882949E+03  0.00000000000E+00 0.  1.
          1   -1    0    0  501    0  0.00000000000E+00 -0.00000000000E+00 -0.76372138112E+03  0.76372138112E+03  0.00000000000E+00 0. -1.
         23    2    1    2    0    0 -0.24627061541E+03  0.17978719374E+03  0.21254223104E+03  0.38268180048E+03  0.91096154649E+02 0.  0.
        254    2    1    2    0    0  0.24627061541E+03 -0.17978719374E+03 -0.34556478268E+03  0.10117384101E+04  0.90068137566E+03 0.  0.
        -24    2    4    4    0    0  0.52372291685E+03  0.10859184217E+03 -0.22887211134E+03  0.58748399835E+03  0.81713665607E+02 0.  0.
         24    2    4    4    0    0 -0.27745230144E+03 -0.28837903591E+03 -0.11669267134E+03  0.42425441179E+03  0.78945414357E+02 0.  0.
         13    1    3    3    0    0 -0.12153267089E+03  0.67038474873E+02  0.46513694100E+02  0.14638261832E+03  0.00000000000E+00 0. -1.
        -13    1    3    3    0    0 -0.12473794452E+03  0.11274871887E+03  0.16602853694E+03  0.23629918216E+03  0.00000000000E+00 0.  1.
          4    1    6    6  502    0 -0.11395596617E+03 -0.81887682068E+02 -0.12036348252E+02  0.14084185592E+03  0.00000000000E+00 0. -1.
          3    1    5    5  503    0  0.32034449051E+03  0.33146179034E+02 -0.16190199628E+03  0.36046014785E+03  0.00000000000E+00 0. -1.
         -4    1    5    5    0  503  0.20337842634E+03  0.75445663138E+02 -0.66970115060E+02  0.22702385050E+03  0.00000000000E+00 0.  1.
         -3    1    6    6    0  502 -0.16349633527E+03 -0.20649135384E+03 -0.10465632309E+03  0.28341255586E+03  0.00000000000E+00 0.  1.
<mgrwt>
<rscale>  0 0.13880608E+04</rscale>
<asrwt>0</asrwt>
<pdfrwt beam="1">  1        1 0.11749560E+00 0.13880608E+04</pdfrwt>
<pdfrwt beam="2">  1       -1 0.97030589E-01 0.13880608E+04</pdfrwt>
<totfact> 0.23727838E+01</totfact>
</mgrwt>
</event>
<event>
12    1  0.2588309E-007  0.1351609E+04  0.7818608E-02  0.8989611E-01
         -2   -1    0    0    0  501 -0.00000000000E+00  0.00000000000E+00  0.20480002038E+03  0.20480002038E+03  0.00000000000E+00 0.  1.
          2   -1    0    0  501    0  0.00000000000E+00 -0.00000000000E+00 -0.22300359627E+04  0.22300359627E+04  0.00000000000E+00 0. -1.
         23    2    1    2    0    0 -0.16426765427E+03 -0.18123916440E+02 -0.11636339911E+04  0.11788198359E+04  0.90883450719E+02 0.  0.
        254    2    1    2    0    0  0.16426765427E+03  0.18123916440E+02 -0.86160195124E+03  0.12560161472E+04  0.89883608135E+03 0.  0.
        -24    2    4    4    0    0 -0.20277026754E+03 -0.16608035655E+03 -0.78338146376E+03  0.83042302321E+03  0.84955361741E+02 0.  0.
         24    2    4    4    0    0  0.36703792181E+03  0.18420427299E+03 -0.78220487489E+02  0.42559312403E+03  0.79768492053E+02 0.  0.
         11    1    3    3    0    0  0.85231532015E+01  0.54045623306E+01 -0.14632613486E+03  0.14667375763E+03  0.00000000000E+00 0.  1.
        -11    1    3    3    0    0 -0.17279080747E+03 -0.23528478771E+02 -0.10173078562E+04  0.10321460782E+04  0.00000000000E+00 0. -1.
          2    1    6    6  502    0  0.36284603867E+03  0.17212715014E+03 -0.64342909993E+02  0.40672473942E+03  0.00000000000E+00 0. -1.
          3    1    5    5  503    0 -0.15700171702E+03 -0.12056575976E+03 -0.68276379784E+03  0.71088117517E+03  0.00000000000E+00 0. -1.
         -4    1    5    5    0  503 -0.45768550518E+02 -0.45514596789E+02 -0.10061766592E+03  0.11954184804E+03  0.00000000000E+00 0.  1.
         -1    1    6    6    0  502  0.41918831433E+01  0.12077122843E+02 -0.13877577496E+02  0.18868384606E+02  0.00000000000E+00 0.  1.
<mgrwt>
<rscale>  0 0.13516085E+04</rscale>
<asrwt>0</asrwt>
<pdfrwt beam="1">  1        2 0.34308245E+00 0.13516085E+04</pdfrwt>
<pdfrwt beam="2">  1       -2 0.31507696E-01 0.13516085E+04</pdfrwt>
<totfact> 0.45459842E+01</totfact>
</mgrwt>
</event>
<event>
12    1  0.2588309E-007  0.3430137E+04  0.7818608E-02  0.8130549E-01
         -2   -1    0    0    0  501 -0.00000000000E+00  0.00000000000E+00  0.10524111970E+04  0.10524111970E+04  0.00000000000E+00 0.  1.
          2   -1    0    0  501    0  0.00000000000E+00 -0.00000000000E+00 -0.27949715412E+04  0.27949715412E+04  0.00000000000E+00 0. -1.
         23    2    1    2    0    0  0.12337932172E+02 -0.15175800946E+04 -0.13649629507E+04  0.20431668089E+04  0.90582471188E+02 0.  0.
        254    2    1    2    0    0 -0.12337932172E+02  0.15175800946E+04 -0.37759739354E+03  0.18042159293E+04  0.89967425209E+03 0.  0.
        -24    2    4    4    0    0  0.19533565470E+03  0.12030858632E+04  0.57772732434E+02  0.12229098305E+04  0.81235169367E+02 0.  0.
         24    2    4    4    0    0 -0.20767358687E+03  0.31449423143E+03 -0.43537012597E+03  0.58130609882E+03  0.79590788689E+02 0.  0.
         11    1    3    3    0    0 -0.14195960588E+02 -0.11698486292E+04 -0.10908091166E+04  0.15995661504E+04  0.00000000000E+00 0. -1.
        -11    1    3    3    0    0  0.26533892760E+02 -0.34773146540E+03 -0.27415383407E+03  0.44360065851E+03  0.00000000000E+00 0.  1.
          4    1    6    6  502    0 -0.10582637498E+03  0.18294051417E+03 -0.18602448373E+03  0.28155205898E+03  0.00000000000E+00 0. -1.
          3    1    5    5  503    0  0.90568491675E+02  0.38114842828E+03  0.43826407638E+02  0.39420493410E+03  0.00000000000E+00 0. -1.
         -4    1    5    5    0  503  0.10476716302E+03  0.82193743492E+03  0.13946324797E+02  0.82870489642E+03  0.00000000000E+00 0.  1.
         -3    1    6    6    0  502 -0.10184721189E+03  0.13155371726E+03 -0.24934564224E+03  0.29975403984E+03  0.00000000000E+00 0.  1.
<mgrwt>
<rscale>  0 0.34301366E+04</rscale>
<asrwt>0</asrwt>
<pdfrwt beam="1">  1        2 0.42999561E+00 0.34301366E+04</pdfrwt>
<pdfrwt beam="2">  1       -2 0.16190942E+00 0.34301366E+04</pdfrwt>
<totfact> 0.46908581E-01</totfact>
</mgrwt>
</event>
<event>
12    1  0.2588309E-007  0.1819781E+04  0.7818608E-02  0.8695851E-01
         -2   -1    0    0    0  501 -0.00000000000E+00  0.00000000000E+00  0.40792055320E+03  0.40792055320E+03  0.00000000000E+00 0.  1.
          2   -1    0    0  501    0  0.00000000000E+00 -0.00000000000E+00 -0.20295628544E+04  0.20295628544E+04  0.00000000000E+00 0. -1.
         23    2    1    2    0    0  0.68045763232E+03 -0.11417373465E+02 -0.52710210415E+03  0.86574886360E+03  0.92366232059E+02 0.  0.
        254    2    1    2    0    0 -0.68045763232E+03  0.11417373465E+02 -0.10945401971E+04  0.15717345440E+04  0.89954337754E+03 0.  0.
        -24    2    4    4    0    0 -0.50960849605E+03  0.10551404115E+03 -0.76786057196E+02  0.53268707658E+03  0.83817604658E+02 0.  0.
         24    2    4    4    0    0 -0.17084913627E+03 -0.94096667682E+02 -0.10177541399E+04  0.10390474675E+04  0.75845501662E+02 0.  0.
         11    1    3    3    0    0  0.52437284078E+03  0.18093967907E+01 -0.45078087415E+03  0.69150093750E+03  0.00000000000E+00 0. -1.
        -11    1    3    3    0    0  0.15608479154E+03 -0.13226770256E+02 -0.76321230006E+02  0.17424792610E+03  0.00000000000E+00 0.  1.
          4    1    6    6  502    0 -0.82222901474E+02 -0.45102792632E+02 -0.68007485300E+03  0.68651050473E+03  0.00000000000E+00 0. -1.
          1    1    5    5  503    0 -0.36080510946E+03  0.37744901946E+02 -0.66806260545E+02  0.36887407212E+03  0.00000000000E+00 0. -1.
         -2    1    5    5    0  503 -0.14880338659E+03  0.67769139200E+02 -0.99797966507E+01  0.16381300446E+03  0.00000000000E+00 0.  1.
         -3    1    6    6    0  502 -0.88626234799E+02 -0.48993875049E+02 -0.33767928690E+03  0.35253696273E+03  0.00000000000E+00 0.  1.
<mgrwt>
<rscale>  0 0.18197806E+04</rscale>
<asrwt>0</asrwt>
<pdfrwt beam="1">  1        2 0.31224045E+00 0.18197806E+04</pdfrwt>
<pdfrwt beam="2">  1       -2 0.62757007E-01 0.18197806E+04</pdfrwt>
<totfact> 0.14272602E+01</totfact>
</mgrwt>
</event>
<event>
12    1  0.2588309E-007  0.1894028E+04  0.7818608E-02  0.8657835E-01
          2   -1    0    0  501    0  0.00000000000E+00  0.00000000000E+00  0.22358138229E+04  0.22358138229E+04  0.00000000000E+00 0. -1.
         -2   -1    0    0    0  501 -0.00000000000E+00 -0.00000000000E+00 -0.40112269971E+03  0.40112269971E+03  0.00000000000E+00 0.  1.
         23    2    1    2    0    0  0.33116190893E+03  0.42436250239E+03  0.14004828819E+04  0.15032081306E+04  0.92361453019E+02 0.  0.
        254    2    1    2    0    0 -0.33116190893E+03 -0.42436250239E+03  0.43420824130E+03  0.11337283920E+04  0.89836046591E+03 0.  0.
        -24    2    4    4    0    0 -0.22606831562E+03  0.25588647355E+03  0.18638904566E+03  0.39770438734E+03  0.82723229471E+02 0.  0.
         24    2    4    4    0    0 -0.10509359331E+03 -0.68024897593E+03  0.24781919564E+03  0.73602400469E+03  0.80830991227E+02 0.  0.
         13    1    3    3    0    0  0.14697432938E+03  0.21205718410E+03  0.79153747788E+03  0.83252704564E+03  0.00000000000E+00 0. -1.
        -13    1    3    3    0    0  0.18418757955E+03  0.21230531828E+03  0.60894540402E+03  0.67068108495E+03  0.00000000000E+00 0.  1.
          2    1    6    6  502    0 -0.85195426172E+02 -0.46274496545E+03  0.20601463161E+03  0.51364695281E+03  0.00000000000E+00 0. -1.
          3    1    5    5  503    0 -0.18726763951E+03  0.23253722025E+03  0.13068613250E+03  0.32591654275E+03  0.00000000000E+00 0. -1.
         -4    1    5    5    0  503 -0.38800676103E+02  0.23349253300E+02  0.55702913166E+02  0.71787844590E+02  0.00000000000E+00 0.  1.
         -1    1    6    6    0  502 -0.19898167142E+02 -0.21750401048E+03  0.41804564027E+02  0.22237705188E+03  0.00000000000E+00 0.  1.
<mgrwt>
<rscale>  0 0.18940282E+04</rscale>
<asrwt>0</asrwt>
<pdfrwt beam="1">  1        2 0.34397135E+00 0.18940282E+04</pdfrwt>
<pdfrwt beam="2">  1       -2 0.61711186E-01 0.18940282E+04</pdfrwt>
<totfact> 0.11271265E+01</totfact>
</mgrwt>
</event>
<event>
12    1  0.2588309E-007  0.1199222E+04  0.7818608E-02  0.9113538E-01
         -1   -1    0    0    0  501 -0.00000000000E+00  0.00000000000E+00  0.52925022518E+03  0.52925022518E+03  0.00000000000E+00 0.  1.
          1   -1    0    0  501    0  0.00000000000E+00 -0.00000000000E+00 -0.67932617855E+03  0.67932617855E+03  0.00000000000E+00 0. -1.
         23    2    1    2    0    0 -0.10884923438E+02  0.21627978178E+03 -0.15958877790E+03  0.28388103956E+03  0.90688703945E+02 0.  0.
        254    2    1    2    0    0  0.10884923438E+02 -0.21627978178E+03  0.95128245313E+01  0.92469536417E+03  0.89893025153E+03 0.  0.
        -24    2    4    4    0    0  0.35418567975E+02 -0.40105080515E+03  0.34268872395E+03  0.53471452282E+03  0.79923939622E+02 0.  0.
         24    2    4    4    0    0 -0.24533644537E+02  0.18477102337E+03 -0.33317589942E+03  0.38998084135E+03  0.79603051906E+02 0.  0.
         13    1    3    3    0    0  0.32029773396E+02  0.12047061943E+03 -0.56903013986E+02  0.13702930172E+03  0.00000000000E+00 0.  1.
        -13    1    3    3    0    0 -0.42914696835E+02  0.95809162350E+02 -0.10268576391E+03  0.14685173784E+03  0.00000000000E+00 0. -1.
          4    1    6    6  502    0 -0.18675697391E+02  0.18231501468E+03 -0.33622936383E+03  0.38293306380E+03  0.00000000000E+00 0. -1.
          3    1    5    5  503    0 -0.18336830590E+02 -0.17765451294E+03  0.17687099584E+03  0.25135774206E+03  0.00000000000E+00 0. -1.
         -4    1    5    5    0  503  0.53755398565E+02 -0.22339629221E+03  0.16581772811E+03  0.28335678076E+03  0.00000000000E+00 0.  1.
         -3    1    6    6    0  502 -0.58579471460E+01  0.24560086964E+01  0.30534644103E+01  0.70477775495E+01  0.00000000000E+00 0.  1.
<mgrwt>
<rscale>  0 0.11992223E+04</rscale>
<asrwt>0</asrwt>
<pdfrwt beam="1">  1        1 0.10451172E+00 0.11992223E+04</pdfrwt>
<pdfrwt beam="2">  1       -1 0.81423111E-01 0.11992223E+04</pdfrwt>
<totfact> 0.42411219E+01</totfact>
</mgrwt>
</event>
<event>
12    1  0.2588309E-007  0.1271718E+04  0.7818608E-02  0.9052298E-01
         -1   -1    0    0    0  501 -0.00000000000E+00  0.00000000000E+00  0.10389884301E+04  0.10389884301E+04  0.00000000000E+00 0.  1.
          1   -1    0    0  501    0  0.00000000000E+00 -0.00000000000E+00 -0.38914469542E+03  0.38914469542E+03  0.00000000000E+00 0. -1.
         23    2    1    2    0    0  0.15179239131E+03  0.25911285141E+03  0.23419962323E+03  0.39163271940E+03  0.91358215602E+02 0.  0.
        254    2    1    2    0    0 -0.15179239131E+03 -0.25911285141E+03  0.41564411147E+03  0.10365004061E+04  0.90077337034E+03 0.  0.
        -24    2    4    4    0    0  0.22901338588E+03 -0.31613537588E+03  0.49508312457E+03  0.63542879496E+03  0.79206984806E+02 0.  0.
         24    2    4    4    0    0 -0.38080577718E+03  0.57022524466E+02 -0.79439013093E+02  0.40107161119E+03  0.79267094476E+02 0.  0.
         13    1    3    3    0    0  0.72673262674E+02  0.50057732712E+02  0.46477296930E+02  0.99736246380E+02  0.00000000000E+00 0. -1.
        -13    1    3    3    0    0  0.79119128633E+02  0.20905511870E+03  0.18772232630E+03  0.29189647302E+03  0.00000000000E+00 0.  1.
          4    1    6    6  502    0 -0.16969460692E+03  0.62025446179E+02 -0.20524964731E+02  0.18183698680E+03  0.00000000000E+00 0. -1.
          1    1    5    5  503    0  0.19774969978E+03 -0.25577994007E+03  0.35775892313E+03  0.48220303668E+03  0.00000000000E+00 0. -1.
         -2    1    5    5    0  503  0.31263686095E+02 -0.60355435805E+02  0.13732420144E+03  0.15322575828E+03  0.00000000000E+00 0.  1.
         -3    1    6    6    0  502 -0.21111117027E+03 -0.50029217138E+01 -0.58914048362E+02  0.21923462439E+03  0.00000000000E+00 0.  1.
<mgrwt>
<rscale>  0 0.12717183E+04</rscale>
<asrwt>0</asrwt>
<pdfrwt beam="1">  1        1 0.59868415E-01 0.12717183E+04</pdfrwt>
<pdfrwt beam="2">  1       -1 0.15984437E+00 0.12717183E+04</pdfrwt>
<totfact> 0.17956529E+01</totfact>
</mgrwt>
</event>
<event>
12    1  0.2588309E-007  0.1388328E+04  0.7818608E-02  0.8962311E-01
         -2   -1    0    0    0  501 -0.00000000000E+00  0.00000000000E+00  0.61706687102E+03  0.61706687102E+03  0.00000000000E+00 0.  1.
          2   -1    0    0  501    0  0.00000000000E+00 -0.00000000000E+00 -0.78089344234E+03  0.78089344234E+03  0.00000000000E+00 0. -1.
         23    2    1    2    0    0 -0.10944701459E+03 -0.16664962313E+03  0.29442802462E+03  0.36709382325E+03  0.91210018610E+02 0.  0.
        254    2    1    2    0    0  0.10944701459E+03  0.16664962313E+03 -0.45825459593E+03  0.10308664901E+04  0.90163057836E+03 0.  0.
        -24    2    4    4    0    0 -0.27427475031E+03  0.38095033198E+03 -0.22799433370E+03  0.52784653291E+03  0.79314261065E+02 0.  0.
         24    2    4    4    0    0  0.38372176490E+03 -0.21430070885E+03 -0.23026026223E+03  0.50301995720E+03  0.82717001310E+02 0.  0.
         13    1    3    3    0    0 -0.10220300860E+03 -0.83144692418E+02  0.21152998279E+03  0.24920559477E+03  0.00000000000E+00 0.  1.
        -13    1    3    3    0    0 -0.72440059975E+01 -0.83504930712E+02  0.82898041828E+02  0.11788822848E+03  0.00000000000E+00 0. -1.
          2    1    6    6  502    0  0.34618797525E+02 -0.50697020582E+02 -0.25421965980E+02  0.66444904938E+02  0.00000000000E+00 0. -1.
          1    1    5    5  503    0 -0.12936530263E+02  0.47916583060E+02 -0.64533041729E+01  0.50049953867E+02  0.00000000000E+00 0. -1.
         -2    1    5    5    0  503 -0.26133822004E+03  0.33303374892E+03 -0.22154102953E+03  0.47779657904E+03  0.00000000000E+00 0.  1.
         -1    1    6    6    0  502  0.34910296738E+03 -0.16360368827E+03 -0.20483829625E+03  0.43657505226E+03  0.00000000000E+00 0.  1.
<mgrwt>
<rscale>  0 0.13883277E+04</rscale>
<asrwt>0</asrwt>
<pdfrwt beam="1">  1        2 0.12013745E+00 0.13883277E+04</pdfrwt>
<pdfrwt beam="2">  1       -2 0.94933365E-01 0.13883277E+04</pdfrwt>
<totfact> 0.32354995E+01</totfact>
</mgrwt>
</event>
<event>
12    1  0.2588309E-007  0.2715088E+04  0.7818608E-02  0.8330126E-01
         -2   -1    0    0    0  501 -0.00000000000E+00  0.00000000000E+00  0.11315973092E+04  0.11315973092E+04  0.00000000000E+00 0.  1.
          2   -1    0    0  501    0  0.00000000000E+00 -0.00000000000E+00 -0.16286061159E+04  0.16286061159E+04  0.00000000000E+00 0. -1.
         23    2    1    2    0    0  0.15473771508E+03  0.11963592190E+04 -0.20129542941E+03  0.12262959275E+04  0.89792596795E+02 0.  0.
        254    2    1    2    0    0 -0.15473771508E+03 -0.11963592190E+04 -0.29571337732E+03  0.15339074976E+04  0.90011480831E+03 0.  0.
        -24    2    4    4    0    0 -0.19865262786E+03 -0.11812335210E+04 -0.50687839716E+03  0.13031739279E+04  0.81000489486E+02 0.  0.
         24    2    4    4    0    0  0.43914912777E+02 -0.15125698028E+02  0.21116501984E+03  0.23073356961E+03  0.80560587385E+02 0.  0.
         13    1    3    3    0    0  0.86620480450E+02  0.93936738610E+03 -0.14324723349E+03  0.95416663304E+03  0.00000000000E+00 0. -1.
        -13    1    3    3    0    0  0.68117234632E+02  0.25699183292E+03 -0.58048195912E+02  0.27212929444E+03  0.00000000000E+00 0.  1.
          4    1    6    6  502    0  0.23253028731E+02 -0.26268482417E+02  0.24961041304E+02  0.43055662771E+02  0.00000000000E+00 0. -1.
          1    1    5    5  503    0 -0.90559202908E+01 -0.33186568097E+02 -0.30014663509E+02  0.45653455728E+02  0.00000000000E+00 0. -1.
         -2    1    5    5    0  503 -0.18959670757E+03 -0.11480469529E+04 -0.47686373365E+03  0.12575204722E+04  0.00000000000E+00 0.  1.
         -3    1    6    6    0  502  0.20661884046E+02  0.11142784389E+02  0.18620397853E+03  0.18767790684E+03  0.00000000000E+00 0.  1.
<mgrwt>
<rscale>  0 0.27150884E+04</rscale>
<asrwt>0</asrwt>
<pdfrwt beam="1">  1        2 0.25055478E+00 0.27150884E+04</pdfrwt>
<pdfrwt beam="2">  1       -2 0.17409190E+00 0.27150884E+04</pdfrwt>
<totfact> 0.18781688E+00</totfact>
</mgrwt>
</event>
<event>
12    1  0.2588309E-007  0.1761849E+04  0.7818608E-02  0.8726855E-01
          1   -1    0    0  501    0  0.00000000000E+00  0.00000000000E+00  0.44603253930E+03  0.44603253930E+03  0.00000000000E+00 0. -1.
         -1   -1    0    0    0  501 -0.00000000000E+00 -0.00000000000E+00 -0.17398467437E+04  0.17398467437E+04  0.00000000000E+00 0.  1.
         23    2    1    2    0    0 -0.13453437746E+03 -0.62916229343E+03 -0.39335559608E+03  0.75971668012E+03  0.92174393858E+02 0.  0.
        254    2    1    2    0    0  0.13453437746E+03  0.62916229343E+03 -0.90045860835E+03  0.14261626029E+04  0.89953842297E+03 0.  0.
        -24    2    4    4    0    0 -0.37301682734E+03  0.24904733917E+03 -0.28199029798E+03  0.53667166373E+03  0.85626023343E+02 0.  0.
         24    2    4    4    0    0  0.50755120480E+03  0.38011495426E+03 -0.61846831036E+03  0.88949093917E+03  0.81212535993E+02 0.  0.
         11    1    3    3    0    0 -0.12524788795E+03 -0.37301363817E+03 -0.24635786504E+03  0.46423959909E+03  0.00000000000E+00 0. -1.
        -11    1    3    3    0    0 -0.92864895068E+01 -0.25614865526E+03 -0.14699773105E+03  0.29547708102E+03  0.00000000000E+00 0.  1.
          4    1    6    6  502    0  0.40154428075E+03  0.33348169964E+03 -0.48161377404E+03  0.71021101142E+03  0.00000000000E+00 0. -1.
          3    1    5    5  503    0 -0.24013199446E+03  0.10951172598E+03 -0.16401665921E+03  0.31073728033E+03  0.00000000000E+00 0. -1.
         -4    1    5    5    0  503 -0.13288483288E+03  0.13953561319E+03 -0.11797363878E+03  0.22593438341E+03  0.00000000000E+00 0.  1.
         -3    1    6    6    0  502  0.10600692405E+03  0.46633254622E+02 -0.13685453633E+03  0.17927992776E+03  0.00000000000E+00 0.  1.
<mgrwt>
<rscale>  0 0.17618493E+04</rscale>
<asrwt>0</asrwt>
<pdfrwt beam="1">  1        1 0.68620390E-01 0.17618493E+04</pdfrwt>
<pdfrwt beam="2">  1       -1 0.26766873E+00 0.17618493E+04</pdfrwt>
<totfact> 0.26259197E+00</totfact>
</mgrwt>
</event>
<event>
12    1  0.2588309E-007  0.3975362E+04  0.7818608E-02  0.8009535E-01
          1   -1    0    0  501    0  0.00000000000E+00  0.00000000000E+00  0.19270631532E+04  0.19270631532E+04  0.00000000000E+00 0.  1.
         -1   -1    0    0    0  501 -0.00000000000E+00 -0.00000000000E+00 -0.20502052553E+04  0.20502052553E+04  0.00000000000E+00 0. -1.
         23    2    1    2    0    0 -0.16451019568E+04 -0.87139662958E+02  0.85843826758E+03  0.18598946186E+04  0.91312452695E+02 0.  0.
        254    2    1    2    0    0  0.16451019568E+04  0.87139662958E+02 -0.98158036970E+03  0.21173737899E+04  0.89767364617E+03 0.  0.
        -24    2    4    4    0    0  0.22630040817E+03 -0.13435625067E+03  0.12575598767E+03  0.30233606522E+03  0.79555333358E+02 0.  0.
         24    2    4    4    0    0  0.14188015486E+04  0.22149591363E+03 -0.11073363574E+04  0.18150377247E+04  0.78165591355E+02 0.  0.
         13    1    3    3    0    0 -0.11526843607E+04 -0.20138532069E+02  0.58947367711E+03  0.12948227723E+04  0.00000000000E+00 0.  1.
        -13    1    3    3    0    0 -0.49241759612E+03 -0.67001130889E+02  0.26896459046E+03  0.56507184625E+03  0.00000000000E+00 0. -1.
          4    1    6    6  502    0  0.34058088845E+03  0.44286388798E+02 -0.30622920411E+03  0.46014448954E+03  0.00000000000E+00 0. -1.
          1    1    5    5  503    0  0.20918336136E+03 -0.90675693849E+02  0.10245351269E+03  0.24995296035E+03  0.00000000000E+00 0. -1.
         -2    1    5    5    0  503  0.17117046811E+02 -0.43680556821E+02  0.23302474975E+02  0.52383104869E+02  0.00000000000E+00 0.  1.
         -3    1    6    6    0  502  0.10782206602E+04  0.17720952483E+03 -0.80110715326E+03  0.13548932352E+04  0.00000000000E+00 0.  1.
<mgrwt>
<rscale>  0 0.39753616E+04</rscale>
<asrwt>0</asrwt>
<pdfrwt beam="1">  1        1 0.29647126E+00 0.39753616E+04</pdfrwt>
<pdfrwt beam="2">  1       -1 0.31541619E+00 0.39753616E+04</pdfrwt>
<totfact> 0.68664401E-02</totfact>
</mgrwt>
</event>
<event>
12    1  0.2588309E-007  0.1370060E+04  0.7818608E-02  0.8975780E-01
         -2   -1    0    0    0  501 -0.00000000000E+00  0.00000000000E+00  0.76545614996E+03  0.76545614996E+03  0.00000000000E+00 0. -1.
          2   -1    0    0  501    0  0.00000000000E+00 -0.00000000000E+00 -0.61305435024E+03  0.61305435024E+03  0.00000000000E+00 0.  1.
         23    2    1    2    0    0  0.33167406881E+03  0.14320970001E+03  0.15301775012E+03  0.40326418640E+03  0.93224814745E+02 0.  0.
        254    2    1    2    0    0 -0.33167406881E+03 -0.14320970001E+03 -0.61595039373E+00  0.97524631380E+03  0.90586328278E+03 0.  0.
        -24    2    4    4    0    0 -0.75677489009E+02  0.34952915710E+03 -0.14691259480E+03  0.39508915568E+03  0.81329062588E+02 0.  0.
         24    2    4    4    0    0 -0.25599657980E+03 -0.49273885711E+03  0.14629664441E+03  0.58015715812E+03  0.82787618543E+02 0.  0.
         11    1    3    3    0    0  0.30331045083E+02  0.33492445800E+01 -0.11414434609E+02  0.32580347643E+02  0.00000000000E+00 0.  1.
        -11    1    3    3    0    0  0.30134302372E+03  0.13986045543E+03  0.16443218473E+03  0.37068383875E+03  0.00000000000E+00 0. -1.
          4    1    6    6  502    0 -0.55389944970E+01 -0.67946438032E+02  0.14099488018E+02  0.69614613865E+02  0.00000000000E+00 0. -1.
          1    1    5    5  503    0  0.15994066211E+02  0.26384239016E+02 -0.13138163116E+02  0.33534304115E+02  0.00000000000E+00 0. -1.
         -2    1    5    5    0  503 -0.91671555219E+02  0.32314491808E+03 -0.13377443168E+03  0.36155485156E+03  0.00000000000E+00 0.  1.
         -3    1    6    6    0  502 -0.25045758530E+03 -0.42479241907E+03  0.13219715639E+03  0.51054254425E+03  0.00000000000E+00 0.  1.
<mgrwt>
<rscale>  0 0.13700602E+04</rscale>
<asrwt>0</asrwt>
<pdfrwt beam="1">  1        2 0.94316054E-01 0.13700602E+04</pdfrwt>
<pdfrwt beam="2">  1       -2 0.11776248E+00 0.13700602E+04</pdfrwt>
<totfact> 0.26214307E+01</totfact>
</mgrwt>
</event>
<event>
12    1  0.2588309E-007  0.2769082E+04  0.7818608E-02  0.8312932E-01
          2   -1    0    0  501    0  0.00000000000E+00  0.00000000000E+00  0.33396311142E+04  0.33396311142E+04  0.00000000000E+00 0. -1.
         -2   -1    0    0    0  501 -0.00000000000E+00 -0.00000000000E+00 -0.57400177412E+03  0.57400177412E+03  0.00000000000E+00 0.  1.
         23    2    1    2    0    0  0.43003841738E+03  0.42697710009E+03  0.27624351064E+04  0.28293661397E+04  0.83800661734E+02 0.  0.
        254    2    1    2    0    0 -0.43003841738E+03 -0.42697710009E+03  0.31942337010E+01  0.10842667487E+04  0.89910049198E+03 0.  0.
        -24    2    4    4    0    0  0.18332825004E+01 -0.52812334979E+03 -0.22440737134E+03  0.57939004777E+03  0.80103218590E+02 0.  0.
         24    2    4    4    0    0 -0.43187169988E+03  0.10114624970E+03  0.22760160504E+03  0.50487670088E+03  0.79713634298E+02 0.  0.
         13    1    3    3    0    0  0.95475174707E+02  0.11282226575E+03  0.52859087010E+03  0.54886490195E+03  0.00000000000E+00 0.  1.
        -13    1    3    3    0    0  0.33456324267E+03  0.31415483434E+03  0.22338442363E+04  0.22805012377E+04  0.00000000000E+00 0. -1.
          4    1    6    6  502    0 -0.21783633873E+03  0.88677306648E+02  0.13641799651E+03  0.27189373836E+03  0.00000000000E+00 0. -1.
          1    1    5    5  503    0 -0.86775382796E+01 -0.40734359423E+02  0.23839044996E+01  0.41716551977E+02  0.00000000000E+00 0. -1.
         -4    1    5    5    0  503  0.10510820780E+02 -0.48738899037E+03 -0.22679127584E+03  0.53767349580E+03  0.00000000000E+00 0.  1.
         -3    1    6    6    0  502 -0.21403536115E+03  0.12468943051E+02  0.91183608529E+02  0.23298296252E+03  0.00000000000E+00 0.  1.
<mgrwt>
<rscale>  0 0.27690823E+04</rscale>
<asrwt>0</asrwt>
<pdfrwt beam="1">  1        2 0.51378939E+00 0.27690823E+04</pdfrwt>
<pdfrwt beam="2">  1       -2 0.88307967E-01 0.27690823E+04</pdfrwt>
<totfact> 0.10088724E+00</totfact>
</mgrwt>
</event>
<event>
12    1  0.2588309E-007  0.1733120E+04  0.7818608E-02  0.8742697E-01
         -2   -1    0    0    0  501 -0.00000000000E+00  0.00000000000E+00  0.52485734047E+03  0.52485734047E+03  0.00000000000E+00 0.  1.
          2   -1    0    0  501    0  0.00000000000E+00 -0.00000000000E+00 -0.14307245936E+04  0.14307245936E+04  0.00000000000E+00 0. -1.
         23    2    1    2    0    0 -0.10172632069E+03 -0.61560081082E+03 -0.42376089909E+03  0.75920585419E+03  0.86646562739E+02 0.  0.
        254    2    1    2    0    0  0.10172632069E+03  0.61560081082E+03 -0.48210635403E+03  0.11963760799E+04  0.89976473886E+03 0.  0.
        -24    2    4    4    0    0  0.28397696457E+03 -0.99878213967E+02 -0.29674858493E+03  0.43098285484E+03  0.84070949096E+02 0.  0.
         24    2    4    4    0    0 -0.18225064388E+03  0.71547902479E+03 -0.18535776910E+03  0.76539322503E+03  0.79647688284E+02 0.  0.
         11    1    3    3    0    0 -0.98404097746E+02 -0.33797678928E+03 -0.22560726277E+03  0.41810323314E+03  0.00000000000E+00 0.  1.
        -11    1    3    3    0    0 -0.33222229394E+01 -0.27762402154E+03 -0.19815363632E+03  0.34110262105E+03  0.00000000000E+00 0. -1.
          4    1    6    6  502    0 -0.16101070151E+03  0.64670368459E+03 -0.19076230278E+03  0.69321018301E+03  0.00000000000E+00 0. -1.
          1    1    5    5  503    0  0.18888448586E+03 -0.38123464313E+02 -0.14305373582E+03  0.23998983075E+03  0.00000000000E+00 0. -1.
         -2    1    5    5    0  503  0.95092478708E+02 -0.61754749654E+02 -0.15369484910E+03  0.19099302409E+03  0.00000000000E+00 0.  1.
         -3    1    6    6    0  502 -0.21239942372E+02  0.68775340196E+02  0.54045336807E+01  0.72183042021E+02  0.00000000000E+00 0.  1.
<mgrwt>
<rscale>  0 0.17331201E+04</rscale>
<asrwt>0</asrwt>
<pdfrwt beam="1">  1        2 0.22011147E+00 0.17331201E+04</pdfrwt>
<pdfrwt beam="2">  1       -2 0.80747284E-01 0.17331201E+04</pdfrwt>
<totfact> 0.17854077E+01</totfact>
</mgrwt>
</event>
<event>
12    1  0.2588309E-007  0.2916062E+04  0.7818608E-02  0.8268115E-01
          1   -1    0    0  501    0  0.00000000000E+00  0.00000000000E+00  0.10433661764E+04  0.10433661764E+04  0.00000000000E+00 0. -1.
         -1   -1    0    0    0  501 -0.00000000000E+00 -0.00000000000E+00 -0.20374959514E+04  0.20374959514E+04  0.00000000000E+00 0.  1.
         23    2    1    2    0    0 -0.39362815464E+03 -0.12249730527E+04 -0.16632853942E+03  0.13004326137E+04  0.89205918432E+02 0.  0.
        254    2    1    2    0    0  0.39362815464E+03  0.12249730527E+04 -0.82780123559E+03  0.17804295142E+04  0.91058896620E+03 0.  0.
        -24    2    4    4    0    0  0.67682060334E+03  0.77923205927E+03 -0.47404075182E+03  0.11389483788E+04  0.84853071707E+02 0.  0.
         24    2    4    4    0    0 -0.28319244871E+03  0.44574099339E+03 -0.35376048377E+03  0.64148113540E+03  0.86420894505E+02 0.  0.
         13    1    3    3    0    0 -0.35948004037E+02 -0.22235003835E+03 -0.28270013360E+02  0.22700438808E+03  0.00000000000E+00 0. -1.
        -13    1    3    3    0    0 -0.35768015060E+03 -0.10026230143E+04 -0.13805852606E+03  0.10734282256E+04  0.00000000000E+00 0.  1.
          4    1    6    6  502    0 -0.21916633846E+03  0.28542536904E+03 -0.20872979533E+03  0.41601640913E+03  0.00000000000E+00 0. -1.
          3    1    5    5  503    0  0.38241795417E+03  0.45877308550E+03 -0.31811777026E+03  0.67669428208E+03  0.00000000000E+00 0. -1.
         -4    1    5    5    0  503  0.29440264917E+03  0.32045897377E+03 -0.15592298156E+03  0.46225409667E+03  0.00000000000E+00 0.  1.
         -3    1    6    6    0  502 -0.64026110245E+02  0.16031562435E+03 -0.14503068844E+03  0.22546472628E+03  0.00000000000E+00 0.  1.
<mgrwt>
<rscale>  0 0.29160620E+04</rscale>
<asrwt>0</asrwt>
<pdfrwt beam="1">  1        1 0.16051787E+00 0.29160620E+04</pdfrwt>
<pdfrwt beam="2">  1       -1 0.31346091E+00 0.29160620E+04</pdfrwt>
<totfact> 0.32402882E-01</totfact>
</mgrwt>
</event>
<event>
12    1  0.2588309E-007  0.1443297E+04  0.7818608E-02  0.8923061E-01
         -2   -1    0    0    0  501 -0.00000000000E+00  0.00000000000E+00  0.40753586419E+03  0.40753586419E+03  0.00000000000E+00 0.  1.
          2   -1    0    0  501    0  0.00000000000E+00 -0.00000000000E+00 -0.12778671966E+04  0.12778671966E+04  0.00000000000E+00 0. -1.
         23    2    1    2    0    0 -0.27904393248E+03  0.74903278718E+00 -0.65652659330E+03  0.71893763278E+03  0.89320069492E+02 0.  0.
        254    2    1    2    0    0  0.27904393248E+03 -0.74903278718E+00 -0.21380473911E+03  0.96646542802E+03  0.90026489423E+03 0.  0.
        -24    2    4    4    0    0  0.34039098526E+01 -0.14945921873E+03  0.30856932559E+03  0.35212596862E+03  0.80174961261E+02 0.  0.
         24    2    4    4    0    0  0.27564002263E+03  0.14871018594E+03 -0.52237406470E+03  0.61433945940E+03  0.80288021655E+02 0.  0.
         13    1    3    3    0    0 -0.10968296979E+03 -0.43292390592E+02 -0.27259104119E+03  0.29700245906E+03  0.00000000000E+00 0. -1.
        -13    1    3    3    0    0 -0.16936096269E+03  0.44041423379E+02 -0.38393555210E+03  0.42193517372E+03  0.00000000000E+00 0.  1.
          2    1    6    6  502    0  0.18026145838E+02  0.97963635785E+01 -0.70372415792E+01  0.21689477683E+02  0.00000000000E+00 0. -1.
          1    1    5    5  503    0  0.10841377490E+02 -0.12836035490E+03  0.17839033543E+03  0.22003869649E+03  0.00000000000E+00 0. -1.
         -2    1    5    5    0  503 -0.74374676374E+01 -0.21098863827E+02  0.13017899016E+03  0.13208727213E+03  0.00000000000E+00 0.  1.
         -1    1    6    6    0  502  0.25761387679E+03  0.13891382236E+03 -0.51533682313E+03  0.59264998172E+03  0.00000000000E+00 0.  1.
<mgrwt>
<rscale>  0 0.14432972E+04</rscale>
<asrwt>0</asrwt>
<pdfrwt beam="1">  1        2 0.19659495E+00 0.14432972E+04</pdfrwt>
<pdfrwt beam="2">  1       -2 0.62697826E-01 0.14432972E+04</pdfrwt>
<totfact> 0.38976948E+01</totfact>
</mgrwt>
</event>
<event>
12    1  0.2588309E-007  0.2736862E+04  0.7818608E-02  0.8323143E-01
         -1   -1    0    0    0  501 -0.00000000000E+00  0.00000000000E+00  0.12514930949E+04  0.12514930949E+04  0.00000000000E+00 0.  1.
          1   -1    0    0  501    0  0.00000000000E+00 -0.00000000000E+00 -0.14962949868E+04  0.14962949868E+04  0.00000000000E+00 0. -1.
         23    2    1    2    0    0  0.62448607607E+02 -0.11130469414E+04 -0.60322573682E+03  0.12707591921E+04  0.90411904742E+02 0.  0.
        254    2    1    2    0    0 -0.62448607607E+02  0.11130469414E+04  0.35842384488E+03  0.14770288895E+04  0.90020740141E+03 0.  0.
        -24    2    4    4    0    0  0.20400747876E+03 -0.41850579185E+02  0.15267587199E+03  0.27157890559E+03  0.84110984451E+02 0.  0.
         24    2    4    4    0    0 -0.26645608636E+03  0.11548975206E+04  0.20574797290E+03  0.12054499839E+04  0.77397069826E+02 0.  0.
         11    1    3    3    0    0  0.66872228898E+02 -0.42436772121E+03 -0.24220835239E+03  0.49317820691E+03  0.00000000000E+00 0.  1.
        -11    1    3    3    0    0 -0.44236212914E+01 -0.68867922019E+03 -0.36101738444E+03  0.77758098524E+03  0.00000000000E+00 0. -1.
          2    1    6    6  502    0 -0.24574237177E+03  0.93030639482E+03  0.16595416899E+03  0.97642208483E+03  0.00000000000E+00 0. -1.
          1    1    5    5  503    0  0.21161968384E+03 -0.35508740999E+02  0.14764929019E+03  0.26046895049E+03  0.00000000000E+00 0. -1.
         -2    1    5    5    0  503 -0.76122050789E+01 -0.63418381859E+01  0.50265817987E+01  0.11109955100E+02  0.00000000000E+00 0.  1.
         -1    1    6    6    0  502 -0.20713714594E+02  0.22459112576E+03  0.39793803903E+02  0.22902789911E+03  0.00000000000E+00 0.  1.
<mgrwt>
<rscale>  0 0.27368616E+04</rscale>
<asrwt>0</asrwt>
<pdfrwt beam="1">  1        1 0.23019923E+00 0.27368616E+04</pdfrwt>
<pdfrwt beam="2">  1       -1 0.19253740E+00 0.27368616E+04</pdfrwt>
<totfact> 0.97151510E-01</totfact>
</mgrwt>
</event>
<event>
12    1  0.2699239E-007  0.3145859E+04  0.7818608E-02  0.8203264E-01
         -2   -1    0    0    0  501 -0.00000000000E+00  0.00000000000E+00  0.11569712855E+04  0.11569712855E+04  0.00000000000E+00 0.  1.
          2   -1    0    0  501    0  0.00000000000E+00 -0.00000000000E+00 -0.21384350566E+04  0.21384350566E+04  0.00000000000E+00 0. -1.
         23    2    1    2    0    0  0.17964979719E+03 -0.13308965693E+04  0.98783138943E+02  0.13500081126E+04  0.95937833053E+02 0.  0.
        254    2    1    2    0    0 -0.17964979719E+03  0.13308965693E+04 -0.10802469100E+04  0.19453982296E+04  0.90226446084E+03 0.  0.
        -24    2    4    4    0    0  0.17117071116E+03  0.34615446827E+03 -0.74791460601E+03  0.84554331157E+03  0.80280169331E+02 0.  0.
         24    2    4    4    0    0 -0.35082050835E+03  0.98474210100E+03 -0.33233230403E+03  0.10998549180E+04  0.80274814403E+02 0.  0.
         11    1    3    3    0    0  0.16487407226E+03 -0.92512908413E+03  0.88166241556E+02  0.94383291326E+03  0.00000000000E+00 0.  1.
        -11    1    3    3    0    0  0.14775724932E+02 -0.40576748514E+03  0.10616897388E+02  0.40617519933E+03  0.00000000000E+00 0. -1.
          2    1    6    6  502    0 -0.34365307772E+03  0.97406266415E+03 -0.33649676289E+03  0.10863358518E+04  0.00000000000E+00 0. -1.
          1    1    5    5  503    0  0.16739945415E+03  0.33746863549E+03 -0.74623368887E+03  0.83592605869E+03  0.00000000000E+00 0. -1.
         -2    1    5    5    0  503  0.37712570079E+01  0.86858327788E+01 -0.16809171416E+01  0.96172528779E+01  0.00000000000E+00 0.  1.
         -1    1    6    6    0  502 -0.71674306297E+01  0.10679436849E+02  0.41644588587E+01  0.13519066197E+02  0.00000000000E+00 0.  1.
<mgrwt>
<rscale>  0 0.31458595E+04</rscale>
<asrwt>0</asrwt>
<pdfrwt beam="1">  1        2 0.32899000E+00 0.31458595E+04</pdfrwt>
<pdfrwt beam="2">  1       -2 0.17799559E+00 0.31458595E+04</pdfrwt>
<totfact> 0.88555190E-01</totfact>
</mgrwt>
</event>
<event>
12    1  0.2588309E-007  0.1239869E+04  0.7818608E-02  0.9078657E-01
          1   -1    0    0  501    0  0.00000000000E+00  0.00000000000E+00  0.54429767068E+03  0.54429767068E+03  0.00000000000E+00 0. -1.
         -1   -1    0    0    0  501 -0.00000000000E+00 -0.00000000000E+00 -0.70608243626E+03  0.70608243626E+03  0.00000000000E+00 0.  1.
         23    2    1    2    0    0 -0.26838015508E+03  0.47092804742E+01 -0.12662012792E+03  0.31053269922E+03  0.91366380720E+02 0.  0.
        254    2    1    2    0    0  0.26838015508E+03 -0.47092804742E+01 -0.35164637655E+02  0.93984740772E+03  0.90001472938E+03 0.  0.
        -24    2    4    4    0    0 -0.73846236676E+02  0.14899202673E+03 -0.38094165559E+03  0.42334971990E+03  0.80352658203E+02 0.  0.
         24    2    4    4    0    0  0.34222639176E+03 -0.15370130721E+03  0.34577701793E+03  0.51649768782E+03  0.80405972027E+02 0.  0.
         11    1    3    3    0    0 -0.12130454698E+03 -0.17225200292E+02 -0.12638339796E+02  0.12317154004E+03  0.00000000000E+00 0. -1.
        -11    1    3    3    0    0 -0.14707560810E+03  0.21934480767E+02 -0.11398178812E+03  0.18736115918E+03  0.00000000000E+00 0.  1.
          4    1    6    6  502    0  0.22831384282E+02  0.33747651507E+01  0.44703193611E+02  0.50309409330E+02  0.00000000000E+00 0. -1.
          1    1    5    5  503    0 -0.15666150655E+02  0.10891850657E+03 -0.18741298090E+03  0.21732992145E+03  0.00000000000E+00 0. -1.
         -2    1    5    5    0  503 -0.58180086021E+02  0.40073520169E+02 -0.19352867468E+03  0.20601979845E+03  0.00000000000E+00 0.  1.
         -3    1    6    6    0  502  0.31939500748E+03 -0.15707607236E+03  0.30107382432E+03  0.46618827849E+03  0.00000000000E+00 0.  1.
<mgrwt>
<rscale>  0 0.12398694E+04</rscale>
<asrwt>0</asrwt>
<pdfrwt beam="1">  1        1 0.83738103E-01 0.12398694E+04</pdfrwt>
<pdfrwt beam="2">  1       -1 0.10862807E+00 0.12398694E+04</pdfrwt>
<totfact> 0.30557828E+01</totfact>
</mgrwt>
</event>
<event>
12    1  0.2588309E-007  0.1140490E+04  0.7818608E-02  0.9166602E-01
         -2   -1    0    0    0  501 -0.00000000000E+00  0.00000000000E+00  0.15842448173E+03  0.15842448173E+03  0.00000000000E+00 0.  1.
          2   -1    0    0  501    0  0.00000000000E+00 -0.00000000000E+00 -0.20525814893E+04  0.20525814893E+04  0.00000000000E+00 0. -1.
         23    2    1    2    0    0  0.15369404954E+02  0.19201822405E+03 -0.47909286097E+03  0.52281317048E+03  0.81831685882E+02 0.  0.
        254    2    1    2    0    0 -0.15369404954E+02 -0.19201822405E+03 -0.14150641466E+04  0.16881928005E+04  0.90026728025E+03 0.  0.
        -24    2    4    4    0    0 -0.33064256630E+03 -0.12228533581E+03 -0.17014148776E+03  0.39964771536E+03  0.80572703404E+02 0.  0.
         24    2    4    4    0    0  0.31527316135E+03 -0.69732888236E+02 -0.12449226588E+04  0.12885450852E+04  0.79095942570E+02 0.  0.
         13    1    3    3    0    0 -0.10452081891E+02  0.15744408931E+03 -0.42668134401E+03  0.45492291281E+03  0.00000000000E+00 0. -1.
        -13    1    3    3    0    0  0.25821486845E+02  0.34574134735E+02 -0.52411516968E+02  0.67890257670E+02  0.00000000000E+00 0.  1.
          2    1    6    6  502    0  0.12626015636E+03 -0.64606029121E+02 -0.59545719795E+03  0.61211505509E+03  0.00000000000E+00 0. -1.
          3    1    5    5  503    0 -0.30076107887E+03 -0.11033040834E+03 -0.12428257149E+03  0.34362215171E+03  0.00000000000E+00 0. -1.
         -4    1    5    5    0  503 -0.29881487433E+02 -0.11954927466E+02 -0.45858916264E+02  0.56025563655E+02  0.00000000000E+00 0.  1.
         -1    1    6    6    0  502  0.18901300499E+03 -0.51268591146E+01 -0.64946546087E+03  0.67643003009E+03  0.00000000000E+00 0.  1.
<mgrwt>
<rscale>  0 0.11404896E+04</rscale>
<asrwt>0</asrwt>
<pdfrwt beam="1">  1        2 0.31578174E+00 0.11404896E+04</pdfrwt>
<pdfrwt beam="2">  1       -2 0.24372999E-01 0.11404896E+04</pdfrwt>
<totfact> 0.93131179E+01</totfact>
</mgrwt>
</event>
<event>
12    1  0.2588309E-007  0.1938661E+04  0.7818608E-02  0.8635848E-01
          1   -1    0    0  501    0  0.00000000000E+00  0.00000000000E+00  0.12472801393E+04  0.12472801393E+04  0.00000000000E+00 0. -1.
         -1   -1    0    0    0  501 -0.00000000000E+00 -0.00000000000E+00 -0.75332064663E+03  0.75332064663E+03  0.00000000000E+00 0.  1.
         23    2    1    2    0    0  0.56961340846E+03 -0.18970993979E+03  0.66762259802E+03  0.90244811686E+03  0.90793027805E+02 0.  0.
        254    2    1    2    0    0 -0.56961340846E+03  0.18970993979E+03 -0.17366310537E+03  0.10981526690E+04  0.90295687272E+03 0.  0.
        -24    2    4    4    0    0 -0.39162393336E+02  0.46693213620E+03 -0.12435065930E+03  0.49131319992E+03  0.79788853124E+02 0.  0.
         24    2    4    4    0    0 -0.53045101513E+03 -0.27722219641E+03 -0.49312446074E+02  0.60683946912E+03  0.87132073940E+02 0.  0.
         11    1    3    3    0    0  0.53783230164E+03 -0.15429452881E+03  0.61105385868E+03  0.82852712961E+03  0.00000000000E+00 0. -1.
        -11    1    3    3    0    0  0.31781106826E+02 -0.35415410975E+02  0.56568739339E+02  0.73920987250E+02  0.00000000000E+00 0.  1.
          4    1    6    6  502    0 -0.63227501921E+02 -0.52145949338E+02  0.17907785280E+02  0.83890439295E+02  0.00000000000E+00 0. -1.
          1    1    5    5  503    0 -0.54859787899E+02  0.19676939454E+03 -0.63777880548E+02  0.21399861916E+03  0.00000000000E+00 0. -1.
         -2    1    5    5    0  503  0.15697394563E+02  0.27016274166E+03 -0.60572778752E+02  0.27731458077E+03  0.00000000000E+00 0.  1.
         -3    1    6    6    0  502 -0.46722351320E+03 -0.22507624707E+03 -0.67220231353E+02  0.52294902982E+03  0.00000000000E+00 0.  1.
<mgrwt>
<rscale>  0 0.19386613E+04</rscale>
<asrwt>0</asrwt>
<pdfrwt beam="1">  1        1 0.19188925E+00 0.19386613E+04</pdfrwt>
<pdfrwt beam="2">  1       -1 0.11589548E+00 0.19386613E+04</pdfrwt>
<totfact> 0.62023683E+00</totfact>
</mgrwt>
</event>
<event>
12    1  0.2588309E-007  0.1755388E+04  0.7818608E-02  0.8730390E-01
          2   -1    0    0  501    0  0.00000000000E+00  0.00000000000E+00  0.79410744093E+03  0.79410744093E+03  0.00000000000E+00 0. -1.
         -2   -1    0    0    0  501 -0.00000000000E+00 -0.00000000000E+00 -0.97007919750E+03  0.97007919750E+03  0.00000000000E+00 0.  1.
         23    2    1    2    0    0 -0.28264613611E+03  0.22260795493E+03  0.47139811196E+03  0.59926594238E+03  0.86373316940E+02 0.  0.
        254    2    1    2    0    0  0.28264613611E+03 -0.22260795493E+03 -0.64736986853E+03  0.11649206960E+04  0.89917147505E+03 0.  0.
        -24    2    4    4    0    0 -0.16098723428E+03  0.10246440792E+03  0.10300225057E+03  0.23161374755E+03  0.81361046816E+02 0.  0.
         24    2    4    4    0    0  0.44363337039E+03 -0.32507236286E+03 -0.75037211910E+03  0.93330694850E+03  0.74302991759E+02 0.  0.
         13    1    3    3    0    0 -0.14880040071E+03  0.69286673269E+02  0.17731788325E+03  0.24162746960E+03  0.00000000000E+00 0.  1.
        -13    1    3    3    0    0 -0.13384573540E+03  0.15332128166E+03  0.29408022871E+03  0.35763847278E+03  0.00000000000E+00 0. -1.
          4    1    6    6  502    0  0.35819562107E+03 -0.22443298019E+03 -0.55927151789E+03  0.70104129427E+03  0.00000000000E+00 0. -1.
          3    1    5    5  503    0 -0.57032641337E+02 -0.55318909883E+01  0.33631120435E+02  0.66440772554E+02  0.00000000000E+00 0. -1.
         -4    1    5    5    0  503 -0.10395459294E+03  0.10799629891E+03  0.69371130136E+02  0.16517297499E+03  0.00000000000E+00 0.  1.
         -3    1    6    6    0  502  0.85437749317E+02 -0.10063938267E+03 -0.19110060121E+03  0.23226565423E+03  0.00000000000E+00 0.  1.
<mgrwt>
<rscale>  0 0.17553884E+04</rscale>
<asrwt>0</asrwt>
<pdfrwt beam="1">  1        2 0.12217038E+00 0.17553884E+04</pdfrwt>
<pdfrwt beam="2">  1       -2 0.14924295E+00 0.17553884E+04</pdfrwt>
<totfact> 0.10004154E+01</totfact>
</mgrwt>
</event>
<event>
12    1  0.2588309E-007  0.1425378E+04  0.7818608E-02  0.8935651E-01
         -1   -1    0    0    0  501 -0.00000000000E+00  0.00000000000E+00  0.63700433122E+03  0.63700433122E+03  0.00000000000E+00 0.  1.
          1   -1    0    0  501    0  0.00000000000E+00 -0.00000000000E+00 -0.79736588898E+03  0.79736588898E+03  0.00000000000E+00 0. -1.
         23    2    1    2    0    0  0.81668652478E+02  0.39928666000E+03 -0.15179379117E+03  0.44425868798E+03  0.90690799707E+02 0.  0.
        254    2    1    2    0    0 -0.81668652478E+02 -0.39928666000E+03 -0.85677665960E+01  0.99011153222E+03  0.90230140971E+03 0.  0.
        -24    2    4    4    0    0 -0.30447688605E+03 -0.41510365520E+03 -0.30994805247E+03  0.60651810191E+03  0.82335861057E+02 0.  0.
         24    2    4    4    0    0  0.22280823357E+03  0.15816995200E+02  0.30138028587E+03  0.38359343031E+03  0.80125880857E+02 0.  0.
         11    1    3    3    0    0 -0.19849853368E+02  0.52671871425E+02 -0.17950050657E+02  0.59080851693E+02  0.00000000000E+00 0.  1.
        -11    1    3    3    0    0  0.10151850585E+03  0.34661478858E+03 -0.13384374051E+03  0.38517783628E+03  0.00000000000E+00 0. -1.
          2    1    6    6  502    0  0.94612809483E+02  0.45657327497E+02  0.14773697463E+03  0.18127986359E+03  0.00000000000E+00 0. -1.
          3    1    5    5  503    0 -0.29969300910E+03 -0.41180901398E+03 -0.31497010398E+03  0.59883948609E+03  0.00000000000E+00 0. -1.
         -4    1    5    5    0  503 -0.47838769532E+01 -0.32946412208E+01  0.50220515163E+01  0.76786158199E+01  0.00000000000E+00 0.  1.
         -1    1    6    6    0  502  0.12819542409E+03 -0.29840332297E+02  0.15364331125E+03  0.20231356672E+03  0.00000000000E+00 0.  1.
<mgrwt>
<rscale>  0 0.14253779E+04</rscale>
<asrwt>0</asrwt>
<pdfrwt beam="1">  1        1 0.12267168E+00 0.14253779E+04</pdfrwt>
<pdfrwt beam="2">  1       -1 0.98000666E-01 0.14253779E+04</pdfrwt>
<totfact> 0.21596328E+01</totfact>
</mgrwt>
</event>
<event>
12    1  0.2588309E-007  0.1251948E+04  0.7818608E-02  0.9068564E-01
          2   -1    0    0  501    0  0.00000000000E+00  0.00000000000E+00  0.31907084755E+04  0.31907084755E+04  0.00000000000E+00 0. -1.
         -2   -1    0    0    0  501 -0.00000000000E+00 -0.00000000000E+00 -0.12280757453E+03  0.12280757453E+03  0.00000000000E+00 0.  1.
         23    2    1    2    0    0 -0.80215203341E+02  0.14148466510E+03  0.13907478547E+04  0.14031632865E+04  0.90748134927E+02 0.  0.
        254    2    1    2    0    0  0.80215203341E+02 -0.14148466510E+03  0.16771530463E+04  0.19103527635E+04  0.90008496882E+03 0.  0.
        -24    2    4    4    0    0  0.33297382603E+03 -0.32239861301E+03  0.48407991516E+03  0.67496626660E+03  0.80210113396E+02 0.  0.
         24    2    4    4    0    0 -0.25275862269E+03  0.18091394791E+03  0.11930731311E+04  0.12353864969E+04  0.78355106129E+02 0.  0.
         13    1    3    3    0    0 -0.11386545402E+02  0.26820249753E+02  0.72305248386E+02  0.77955295889E+02  0.00000000000E+00 0.  1.
        -13    1    3    3    0    0 -0.68828657940E+02  0.11466441535E+03  0.13184426063E+04  0.13252079906E+04  0.00000000000E+00 0. -1.
          2    1    6    6  502    0 -0.20135953488E+03  0.16932872292E+03  0.10623876787E+04  0.10944795378E+04  0.00000000000E+00 0. -1.
          1    1    5    5  503    0  0.30436895293E+03 -0.31897752701E+03  0.46244303462E+03  0.63893715067E+03  0.00000000000E+00 0. -1.
         -2    1    5    5    0  503  0.28604873105E+02 -0.34210859993E+01  0.21636880545E+02  0.36029115927E+02  0.00000000000E+00 0.  1.
         -1    1    6    6    0  502 -0.51399087814E+02  0.11585224992E+02  0.13068545236E+03  0.14090695911E+03  0.00000000000E+00 0.  1.
<mgrwt>
<rscale>  0 0.12519476E+04</rscale>
<asrwt>0</asrwt>
<pdfrwt beam="1">  1        2 0.49087816E+00 0.12519476E+04</pdfrwt>
<pdfrwt beam="2">  1       -2 0.18893475E-01 0.12519476E+04</pdfrwt>
<totfact> 0.31042290E+01</totfact>
</mgrwt>
</event>
<event>
12    1  0.2588309E-007  0.1921579E+04  0.7818608E-02  0.8644189E-01
          2   -1    0    0  501    0  0.00000000000E+00  0.00000000000E+00  0.19259253999E+04  0.19259253999E+04  0.00000000000E+00 0.  1.
         -2   -1    0    0    0  501 -0.00000000000E+00 -0.00000000000E+00 -0.47931071009E+03  0.47931071009E+03  0.00000000000E+00 0. -1.
         23    2    1    2    0    0 -0.50215410202E+03 -0.51947378678E+03  0.80798293293E+03  0.10879398704E+04  0.93621495086E+02 0.  0.
        254    2    1    2    0    0  0.50215410202E+03  0.51947378678E+03  0.63863175686E+03  0.13172962396E+04  0.89744476412E+03 0.  0.
        -24    2    4    4    0    0  0.60809786365E+03  0.14635417516E+02  0.23546900493E+03  0.65704277782E+03  0.79135026258E+02 0.  0.
         24    2    4    4    0    0 -0.10594376162E+03  0.50483836926E+03  0.40316275193E+03  0.66025346177E+03  0.85490172149E+02 0.  0.
         11    1    3    3    0    0 -0.38559441074E+03 -0.34242865896E+03  0.54790751813E+03  0.75242480322E+03  0.00000000000E+00 0. -1.
        -11    1    3    3    0    0 -0.11655969129E+03 -0.17704512781E+03  0.26007541479E+03  0.33551506717E+03  0.00000000000E+00 0.  1.
          2    1    6    6  502    0 -0.16614472857E+02  0.27677603827E+03  0.23063569501E+03  0.36065751050E+03  0.00000000000E+00 0. -1.
          1    1    5    5  503    0  0.12020417995E+03  0.34588427595E+02  0.49985710984E+02  0.13469957499E+03  0.00000000000E+00 0. -1.
         -2    1    5    5    0  503  0.48789368370E+03 -0.19953010079E+02  0.18548329394E+03  0.52234320282E+03  0.00000000000E+00 0.  1.
         -1    1    6    6    0  502 -0.89329288766E+02  0.22806233099E+03  0.17252705693E+03  0.29959595127E+03  0.00000000000E+00 0.  1.
<mgrwt>
<rscale>  0 0.19215792E+04</rscale>
<asrwt>0</asrwt>
<pdfrwt beam="1">  1        2 0.29629621E+00 0.19215792E+04</pdfrwt>
<pdfrwt beam="2">  1       -2 0.73740110E-01 0.19215792E+04</pdfrwt>
<totfact> 0.11385220E+01</totfact>
</mgrwt>
</event>
<event>
12    1  0.2588309E-007  0.2415955E+04  0.7818608E-02  0.8433554E-01
         -2   -1    0    0    0  501 -0.00000000000E+00  0.00000000000E+00  0.94789874964E+03  0.94789874964E+03  0.00000000000E+00 0. -1.
          2   -1    0    0  501    0  0.00000000000E+00 -0.00000000000E+00 -0.15394152343E+04  0.15394152343E+04  0.00000000000E+00 0.  1.
         23    2    1    2    0    0 -0.95302189321E+03 -0.30509971427E+03  0.25132671255E+02  0.10051311318E+04  0.91216097266E+02 0.  0.
        254    2    1    2    0    0  0.95302189321E+03  0.30509971427E+03 -0.61664915596E+03  0.14821828522E+04  0.90292483691E+03 0.  0.
        -24    2    4    4    0    0  0.64909455738E+03  0.31935377428E+03  0.65897269862E+02  0.73063442586E+03  0.78572492068E+02 0.  0.
         24    2    4    4    0    0  0.30392733584E+03 -0.14254060006E+02 -0.68254642583E+03  0.75154842631E+03  0.79877468540E+02 0.  0.
         11    1    3    3    0    0 -0.30019919059E+03 -0.60912966327E+02  0.33005678009E+02  0.30808978931E+03  0.00000000000E+00 0.  1.
        -11    1    3    3    0    0 -0.65282270263E+03 -0.24418674795E+03 -0.78730067548E+01  0.69704134251E+03  0.00000000000E+00 0. -1.
          4    1    6    6  502    0  0.12232235703E+03  0.95570020922E+01 -0.36370695968E+03  0.38384482260E+03  0.00000000000E+00 0. -1.
          1    1    5    5  503    0  0.17427358520E+03  0.50433172612E+02  0.28719248561E+02  0.18368337605E+03  0.00000000000E+00 0. -1.
         -2    1    5    5    0  503  0.47482097217E+03  0.26892060167E+03  0.37178021301E+02  0.54695104980E+03  0.00000000000E+00 0.  1.
         -3    1    6    6    0  502  0.18160497881E+03 -0.23811062099E+02 -0.31883946615E+03  0.36770360371E+03  0.00000000000E+00 0.  1.
<mgrwt>
<rscale>  0 0.24159551E+04</rscale>
<asrwt>0</asrwt>
<pdfrwt beam="1">  1        2 0.23683311E+00 0.24159551E+04</pdfrwt>
<pdfrwt beam="2">  1       -2 0.14583058E+00 0.24159551E+04</pdfrwt>
<totfact> 0.34967200E+00</totfact>
</mgrwt>
</event>
<event>
12    1  0.2588309E-007  0.3422669E+04  0.7818608E-02  0.8132365E-01
         -1   -1    0    0    0  501 -0.00000000000E+00  0.00000000000E+00  0.17380899341E+04  0.17380899341E+04  0.00000000000E+00 0.  1.
          1   -1    0    0  501    0  0.00000000000E+00 -0.00000000000E+00 -0.16849904676E+04  0.16849904676E+04  0.00000000000E+00 0. -1.
         23    2    1    2    0    0  0.12473592127E+04  0.94962622203E+03 -0.25207458239E+03  0.15905254474E+04  0.92383096817E+02 0.  0.
        254    2    1    2    0    0 -0.12473592127E+04 -0.94962622203E+03  0.30517404886E+03  0.18325549543E+04  0.89857191888E+03 0.  0.
        -24    2    4    4    0    0 -0.76907924174E+02 -0.43471827408E+03  0.32065946837E+03  0.55144694333E+03  0.79852551836E+02 0.  0.
         24    2    4    4    0    0 -0.11704512886E+04 -0.51490794795E+03 -0.15485419509E+02  0.12811080110E+04  0.76886434978E+02 0.  0.
         11    1    3    3    0    0  0.10490361966E+04  0.79384390252E+03 -0.24544111574E+03  0.13382475200E+04  0.00000000000E+00 0.  1.
        -11    1    3    3    0    0  0.19832301611E+03  0.15578231950E+03 -0.66334666494E+01  0.25227792743E+03  0.00000000000E+00 0. -1.
          4    1    6    6  502    0 -0.81264366933E+02 -0.15333461681E+02  0.94611071378E+00  0.82703733323E+02  0.00000000000E+00 0. -1.
          1    1    5    5  503    0  0.15853481488E+02 -0.85809204338E+02  0.54041120447E+02  0.10264012434E+03  0.00000000000E+00 0. -1.
         -2    1    5    5    0  503 -0.92761405661E+02 -0.34890906974E+03  0.26661834792E+03  0.44880681899E+03  0.00000000000E+00 0.  1.
         -3    1    6    6    0  502 -0.10891869216E+04 -0.49957448627E+03 -0.16431530223E+02  0.11984042777E+04  0.00000000000E+00 0.  1.
<mgrwt>
<rscale>  0 0.34226685E+04</rscale>
<asrwt>0</asrwt>
<pdfrwt beam="1">  1        1 0.25922930E+00 0.34226685E+04</pdfrwt>
<pdfrwt beam="2">  1       -1 0.26739845E+00 0.34226685E+04</pdfrwt>
<totfact> 0.21524452E-01</totfact>
</mgrwt>
</event>
<event>
12    1  0.2588309E-007  0.2074797E+04  0.7818608E-02  0.8572428E-01
          2   -1    0    0  501    0  0.00000000000E+00  0.00000000000E+00  0.30948131077E+04  0.30948131077E+04  0.00000000000E+00 0. -1.
         -2   -1    0    0    0  501 -0.00000000000E+00 -0.00000000000E+00 -0.34774157172E+03  0.34774157172E+03  0.00000000000E+00 0.  1.
         23    2    1    2    0    0 -0.36227521793E+03 -0.68243779075E+03  0.59747288918E+03  0.98104545423E+03  0.92258648283E+02 0.  0.
        254    2    1    2    0    0  0.36227521793E+03  0.68243779075E+03  0.21495986468E+04  0.24615092252E+04  0.91721788668E+03 0.  0.
        -24    2    4    4    0    0  0.14662425994E+03 -0.77919344997E+02  0.16710369128E+02  0.18547299683E+03  0.80937619127E+02 0.  0.
         24    2    4    4    0    0  0.21565095799E+03  0.76035713575E+03  0.21328882777E+04  0.22760362284E+04  0.80499678575E+02 0.  0.
         13    1    3    3    0    0 -0.12487193329E+03 -0.20073051818E+03  0.23361983115E+03  0.33236119833E+03  0.00000000000E+00 0. -1.
        -13    1    3    3    0    0 -0.23740328465E+03 -0.48170727257E+03  0.36385305804E+03  0.64868425590E+03  0.00000000000E+00 0.  1.
          2    1    6    6  502    0  0.20232274733E+03  0.75009912504E+03  0.20718634125E+04  0.22127361324E+04  0.00000000000E+00 0. -1.
          1    1    5    5  503    0  0.13130922009E+03 -0.54675211035E+02 -0.15293588153E+02  0.14305727462E+03  0.00000000000E+00 0. -1.
         -2    1    5    5    0  503  0.15315039846E+02 -0.23244133962E+02  0.32003957281E+02  0.42415722212E+02  0.00000000000E+00 0.  1.
         -1    1    6    6    0  502  0.13328210666E+02  0.10258010704E+02  0.61024865155E+02  0.63300095975E+02  0.00000000000E+00 0.  1.
<mgrwt>
<rscale>  0 0.20747965E+04</rscale>
<asrwt>0</asrwt>
<pdfrwt beam="1">  1        2 0.47612507E+00 0.20747965E+04</pdfrwt>
<pdfrwt beam="2">  1       -2 0.53498705E-01 0.20747965E+04</pdfrwt>
<totfact> 0.46218960E+00</totfact>
</mgrwt>
</event>
<event>
12    1  0.2588309E-007  0.2151075E+04  0.7818608E-02  0.8539072E-01
         -2   -1    0    0    0  501 -0.00000000000E+00  0.00000000000E+00  0.11386070164E+04  0.11386070164E+04  0.00000000000E+00 0.  1.
          2   -1    0    0  501    0  0.00000000000E+00 -0.00000000000E+00 -0.10159613909E+04  0.10159613909E+04  0.00000000000E+00 0. -1.
         23    2    1    2    0    0  0.43739293955E+03 -0.44811387803E+03 -0.57447465313E+03  0.85462979341E+03  0.90842310860E+02 0.  0.
        254    2    1    2    0    0 -0.43739293955E+03  0.44811387803E+03  0.69712027862E+03  0.12999386139E+04  0.90096897047E+03 0.  0.
        -24    2    4    4    0    0  0.25078593891E+03  0.89097056461E+02  0.40011673448E+02  0.27986576825E+03  0.76759635228E+02 0.  0.
         24    2    4    4    0    0 -0.68817887846E+03  0.35901682156E+03  0.65710860518E+03  0.10200728456E+04  0.79206341234E+02 0.  0.
         11    1    3    3    0    0  0.25260992701E+03 -0.21720394055E+03 -0.35112827935E+03  0.48402520138E+03  0.00000000000E+00 0. -1.
        -11    1    3    3    0    0  0.18478301254E+03 -0.23090993748E+03 -0.22334637378E+03  0.37060459202E+03  0.00000000000E+00 0.  1.
          4    1    6    6  502    0 -0.12832721991E+02  0.58993521756E-01  0.18910111463E+01  0.12971436200E+02  0.00000000000E+00 0. -1.
          1    1    5    5  503    0  0.21875795859E+02  0.10763430101E+02 -0.18907446698E+02  0.30852769935E+02  0.00000000000E+00 0. -1.
         -4    1    5    5    0  503  0.22891014305E+03  0.78333626360E+02  0.58919120147E+02  0.24901299831E+03  0.00000000000E+00 0.  1.
         -3    1    6    6    0  502 -0.67534615647E+03  0.35895782804E+03  0.65521759403E+03  0.10071014094E+04  0.00000000000E+00 0.  1.
<mgrwt>
<rscale>  0 0.21510749E+04</rscale>
<asrwt>0</asrwt>
<pdfrwt beam="1">  1        2 0.15630175E+00 0.21510749E+04</pdfrwt>
<pdfrwt beam="2">  1       -2 0.17517031E+00 0.21510749E+04</pdfrwt>
<totfact> 0.44229753E+00</totfact>
</mgrwt>
</event>
<event>
12    1  0.2588309E-007  0.4045339E+04  0.7818608E-02  0.7995462E-01
          2   -1    0    0  501    0  0.00000000000E+00  0.00000000000E+00  0.30392183328E+04  0.30392183328E+04  0.00000000000E+00 0. -1.
         -2   -1    0    0    0  501 -0.00000000000E+00 -0.00000000000E+00 -0.13461328535E+04  0.13461328535E+04  0.00000000000E+00 0.  1.
         23    2    1    2    0    0 -0.12524759110E+04 -0.14274006385E+04  0.11185285554E+04  0.22066355692E+04  0.10938882918E+03 0.  0.
        254    2    1    2    0    0  0.12524759110E+04  0.14274006385E+04  0.57455692392E+03  0.21787156170E+04  0.90028750438E+03 0.  0.
        -24    2    4    4    0    0  0.26652033510E+03 -0.46275041472E+02 -0.69710560030E+02  0.29051297979E+03  0.79773183243E+02 0.  0.
         24    2    4    4    0    0  0.98595557588E+03  0.14736756799E+04  0.64426748395E+03  0.18882026372E+04  0.80001255805E+02 0.  0.
         11    1    3    3    0    0 -0.79645744881E+03 -0.97726441767E+03  0.76910986669E+03  0.14767938911E+04  0.00000000000E+00 0.  1.
        -11    1    3    3    0    0 -0.45601846217E+03 -0.45013622079E+03  0.34941868868E+03  0.72984167811E+03  0.00000000000E+00 0. -1.
          4    1    6    6  502    0  0.15747531768E+03  0.18714802254E+03  0.82099632504E+02  0.25799846448E+03  0.00000000000E+00 0. -1.
          1    1    5    5  503    0  0.17242820436E+02 -0.32742140384E+01  0.15674921754E+02  0.23531649032E+02  0.00000000000E+00 0. -1.
         -2    1    5    5    0  503  0.24927751466E+03 -0.43000827433E+02 -0.85385481783E+02  0.26698133076E+03  0.00000000000E+00 0.  1.
         -3    1    6    6    0  502  0.82848025821E+03  0.12865276574E+04  0.56216785145E+03  0.16302041727E+04  0.00000000000E+00 0.  1.
<mgrwt>
<rscale>  0 0.40453389E+04</rscale>
<asrwt>0</asrwt>
<pdfrwt beam="1">  1        2 0.46757205E+00 0.40453389E+04</pdfrwt>
<pdfrwt beam="2">  1       -2 0.20709736E+00 0.40453389E+04</pdfrwt>
<totfact> 0.15447189E-01</totfact>
</mgrwt>
</event>
<event>
12    1  0.2588309E-007  0.1828447E+04  0.7818608E-02  0.8691316E-01
          1   -1    0    0  501    0  0.00000000000E+00  0.00000000000E+00  0.85218389708E+03  0.85218389708E+03  0.00000000000E+00 0. -1.
         -1   -1    0    0    0  501 -0.00000000000E+00 -0.00000000000E+00 -0.98077978705E+03  0.98077978705E+03  0.00000000000E+00 0.  1.
         23    2    1    2    0    0  0.19781951985E+03  0.61947412676E+03  0.17835691448E+03  0.68047567550E+03  0.91406782259E+02 0.  0.
        254    2    1    2    0    0 -0.19781951985E+03 -0.61947412676E+03 -0.30695280445E+03  0.11524880086E+04  0.90062635411E+03 0.  0.
        -24    2    4    4    0    0  0.24446933556E+03 -0.19368659710E+03 -0.41397259287E+03  0.52452373490E+03  0.80449281529E+02 0.  0.
         24    2    4    4    0    0 -0.44228885541E+03 -0.42578752966E+03  0.10701978842E+03  0.62796427373E+03  0.77275105551E+02 0.  0.
         13    1    3    3    0    0  0.75567140030E+02  0.38352624973E+03  0.11016803655E+03  0.40612777935E+03  0.00000000000E+00 0. -1.
        -13    1    3    3    0    0  0.12225237982E+03  0.23594787703E+03  0.68188877922E+02  0.27434789614E+03  0.00000000000E+00 0.  1.
          2    1    6    6  502    0 -0.31341776620E+03 -0.34707905047E+03  0.75487783268E+02  0.47370134987E+03  0.00000000000E+00 0. -1.
          3    1    5    5  503    0  0.90056451728E+02 -0.25574766423E+02 -0.12938106824E+03  0.15969876015E+03  0.00000000000E+00 0. -1.
         -4    1    5    5    0  503  0.15441288383E+03 -0.16811183067E+03 -0.28459152464E+03  0.36482497475E+03  0.00000000000E+00 0.  1.
         -1    1    6    6    0  502 -0.12887108920E+03 -0.78708479191E+02  0.31532005156E+02  0.15426292386E+03  0.00000000000E+00 0.  1.
<mgrwt>
<rscale>  0 0.18284471E+04</rscale>
<asrwt>0</asrwt>
<pdfrwt beam="1">  1        1 0.13110522E+00 0.18284471E+04</pdfrwt>
<pdfrwt beam="2">  1       -1 0.15088920E+00 0.18284471E+04</pdfrwt>
<totfact> 0.64464847E+00</totfact>
</mgrwt>
</event>
<event>
12    1  0.2588309E-007  0.1562288E+04  0.7818608E-02  0.8844057E-01
         -1   -1    0    0    0  501 -0.00000000000E+00  0.00000000000E+00  0.34514371744E+03  0.34514371744E+03  0.00000000000E+00 0.  1.
          1   -1    0    0  501    0  0.00000000000E+00 -0.00000000000E+00 -0.17679173913E+04  0.17679173913E+04  0.00000000000E+00 0. -1.
         23    2    1    2    0    0 -0.42619247883E+03 -0.16808173566E+03 -0.80649897660E+03  0.93195259562E+03  0.90573408723E+02 0.  0.
        254    2    1    2    0    0  0.42619247883E+03  0.16808173566E+03 -0.61627469722E+03  0.11811085131E+04  0.89740253975E+03 0.  0.
        -24    2    4    4    0    0  0.17867088684E+03 -0.32644681723E+03 -0.46756606181E+03  0.60289934826E+03  0.79867338115E+02 0.  0.
         24    2    4    4    0    0  0.24752159199E+03  0.49452855288E+03 -0.14870863541E+03  0.57820916481E+03  0.79913402533E+02 0.  0.
         11    1    3    3    0    0 -0.42567498915E+03 -0.15483912171E+03 -0.79142270976E+03  0.91187951810E+03  0.00000000000E+00 0. -1.
        -11    1    3    3    0    0 -0.51748967921E+00 -0.13242613946E+02 -0.15076266833E+02  0.20073077525E+02  0.00000000000E+00 0.  1.
          4    1    6    6  502    0  0.16965724268E+03  0.39985710961E+03 -0.13505350697E+03  0.45487222145E+03  0.00000000000E+00 0. -1.
          1    1    5    5  503    0  0.16457589346E+03 -0.25825484097E+03 -0.34011824259E+03  0.45766932007E+03  0.00000000000E+00 0. -1.
         -2    1    5    5    0  503  0.14094993377E+02 -0.68191976259E+02 -0.12744781922E+03  0.14523002819E+03  0.00000000000E+00 0.  1.
         -3    1    6    6    0  502  0.77864349309E+02  0.94671443268E+02 -0.13655128441E+02  0.12333694336E+03  0.00000000000E+00 0.  1.
<mgrwt>
<rscale>  0 0.15622875E+04</rscale>
<asrwt>0</asrwt>
<pdfrwt beam="1">  1        1 0.27198729E+00 0.15622875E+04</pdfrwt>
<pdfrwt beam="2">  1       -1 0.53099034E-01 0.15622875E+04</pdfrwt>
<totfact> 0.14748981E+01</totfact>
</mgrwt>
</event>
<event>
12    1  0.2588309E-007  0.1381659E+04  0.7818608E-02  0.8967203E-01
         -2   -1    0    0    0  501 -0.00000000000E+00  0.00000000000E+00  0.14547205339E+03  0.14547205339E+03  0.00000000000E+00 0. -1.
          2   -1    0    0  501    0  0.00000000000E+00 -0.00000000000E+00 -0.32806676687E+04  0.32806676687E+04  0.00000000000E+00 0.  1.
         23    2    1    2    0    0  0.24506608020E+03 -0.30071675616E+03 -0.80619158759E+03  0.89924108224E+03  0.90563220991E+02 0.  0.
        254    2    1    2    0    0 -0.24506608020E+03  0.30071675616E+03 -0.23290040277E+04  0.25268986398E+04  0.90026053107E+03 0.  0.
        -24    2    4    4    0    0 -0.24872554046E+03  0.31311828496E+03 -0.23895771345E+04  0.24240753501E+04  0.78453593340E+02 0.  0.
         24    2    4    4    0    0  0.36594602614E+01 -0.12401528800E+02  0.60573106835E+02  0.10282328970E+03  0.82075197643E+02 0.  0.
         13    1    3    3    0    0  0.17767293476E+03 -0.15138824813E+03 -0.44037598196E+03  0.49841456530E+03  0.00000000000E+00 0.  1.
        -13    1    3    3    0    0  0.67393145446E+02 -0.14932850804E+03 -0.36581560562E+03  0.40082651694E+03  0.00000000000E+00 0. -1.
          4    1    6    6  502    0 -0.15206006424E+02  0.18475289510E+02 -0.80490277307E+01  0.25245708571E+02  0.00000000000E+00 0. -1.
          3    1    5    5  503    0 -0.10146881407E+02  0.27250668344E+02 -0.90922695921E+02  0.95459388020E+02  0.00000000000E+00 0. -1.
         -4    1    5    5    0  503 -0.23857865906E+03  0.28586761662E+03 -0.22986544386E+04  0.23286159621E+04  0.00000000000E+00 0.  1.
         -3    1    6    6    0  502  0.18865466685E+02 -0.30876818310E+02  0.68622134566E+02  0.77577581134E+02  0.00000000000E+00 0.  1.
<mgrwt>
<rscale>  0 0.13816591E+04</rscale>
<asrwt>0</asrwt>
<pdfrwt beam="1">  1        2 0.50471811E+00 0.13816591E+04</pdfrwt>
<pdfrwt beam="2">  1       -2 0.22380316E-01 0.13816591E+04</pdfrwt>
<totfact> 0.19855131E+01</totfact>
</mgrwt>
</event>
<event>
12    1  0.2588309E-007  0.2491463E+04  0.7818608E-02  0.8406033E-01
          2   -1    0    0  501    0  0.00000000000E+00  0.00000000000E+00  0.23507579728E+04  0.23507579728E+04  0.00000000000E+00 0. -1.
         -2   -1    0    0    0  501 -0.00000000000E+00 -0.00000000000E+00 -0.66014759115E+03  0.66014759115E+03  0.00000000000E+00 0.  1.
         23    2    1    2    0    0  0.89922987327E+03  0.11465130017E+03  0.14477672961E+04  0.17105690189E+04  0.90867702048E+02 0.  0.
        254    2    1    2    0    0 -0.89922987327E+03 -0.11465130017E+03  0.24284308563E+03  0.13003365451E+04  0.90007948573E+03 0.  0.
        -24    2    4    4    0    0  0.13160427012E+03 -0.18566451169E+03  0.55300002036E+02  0.24715956874E+03  0.78985868216E+02 0.  0.
         24    2    4    4    0    0 -0.10308341434E+04  0.71013211522E+02  0.18754308359E+03  0.10531769763E+04  0.79670746953E+02 0.  0.
         11    1    3    3    0    0  0.22450912853E+03 -0.95126743759E+01  0.37609746363E+03  0.43811430234E+03  0.00000000000E+00 0. -1.
        -11    1    3    3    0    0  0.67472074474E+03  0.12416397455E+03  0.10716698324E+04  0.12724547166E+04  0.00000000000E+00 0.  1.
          2    1    6    6  502    0 -0.83987627042E+03  0.63558243221E+02  0.18347935460E+03  0.86203043650E+03  0.00000000000E+00 0. -1.
          1    1    5    5  503    0  0.71972047000E+02 -0.71797280587E+02 -0.11486628314E+02  0.10230722203E+03  0.00000000000E+00 0. -1.
         -2    1    5    5    0  503  0.59632223119E+02 -0.11386723111E+03  0.66786630351E+02  0.14485234671E+03  0.00000000000E+00 0.  1.
         -1    1    6    6    0  502 -0.19095787296E+03  0.74549683004E+01  0.40637289953E+01  0.19114653984E+03  0.00000000000E+00 0.  1.
<mgrwt>
<rscale>  0 0.24914632E+04</rscale>
<asrwt>0</asrwt>
<pdfrwt beam="1">  1        2 0.36165507E+00 0.24914632E+04</pdfrwt>
<pdfrwt beam="2">  1       -2 0.10156117E+00 0.24914632E+04</pdfrwt>
<totfact> 0.30134297E+00</totfact>
</mgrwt>
</event>
<event>
12    1  0.2588309E-007  0.1426260E+04  0.7818608E-02  0.8935026E-01
          2   -1    0    0  501    0  0.00000000000E+00  0.00000000000E+00  0.52728282687E+03  0.52728282687E+03  0.00000000000E+00 0. -1.
         -2   -1    0    0    0  501 -0.00000000000E+00 -0.00000000000E+00 -0.96448148771E+03  0.96448148771E+03  0.00000000000E+00 0.  1.
         23    2    1    2    0    0  0.68329155949E+02 -0.16350502743E+03  0.26677018445E+03  0.33336775104E+03  0.92547061398E+02 0.  0.
        254    2    1    2    0    0 -0.68329155949E+02  0.16350502743E+03 -0.70396884529E+03  0.11583965635E+04  0.90272238021E+03 0.  0.
        -24    2    4    4    0    0 -0.11508437753E+02 -0.36620336361E+03 -0.35555416287E+03  0.51637739453E+03  0.77391880649E+02 0.  0.
         24    2    4    4    0    0 -0.56820718195E+02  0.52970839104E+03 -0.34841468242E+03  0.64201916901E+03  0.83523942058E+02 0.  0.
         11    1    3    3    0    0  0.82227641633E+02 -0.11116435695E+03  0.14639156521E+03  0.20136879021E+03  0.00000000000E+00 0. -1.
        -11    1    3    3    0    0 -0.13898485684E+02 -0.52340670477E+02  0.12037861924E+03  0.13199896083E+03  0.00000000000E+00 0.  1.
          4    1    6    6  502    0  0.21182632669E+01  0.11686023586E+03 -0.40759499894E+02  0.12378262639E+03  0.00000000000E+00 0. -1.
          3    1    5    5  503    0 -0.69526804700E+01 -0.29692555280E+03 -0.32574598357E+03  0.44082147122E+03  0.00000000000E+00 0. -1.
         -4    1    5    5    0  503 -0.45557572834E+01 -0.69277810808E+02 -0.29808179296E+02  0.75555923313E+02  0.00000000000E+00 0.  1.
         -3    1    6    6    0  502 -0.58938981462E+02  0.41284815518E+03 -0.30765518253E+03  0.51823654262E+03  0.00000000000E+00 0.  1.
<mgrwt>
<rscale>  0 0.14262602E+04</rscale>
<asrwt>0</asrwt>
<pdfrwt beam="1">  1        2 0.81120435E-01 0.14262602E+04</pdfrwt>
<pdfrwt beam="2">  1       -2 0.14838177E+00 0.14262602E+04</pdfrwt>
<totfact> 0.17319641E+01</totfact>
</mgrwt>
</event>
<event>
12    1  0.2588309E-007  0.4353117E+04  0.7818608E-02  0.7936869E-01
         -2   -1    0    0    0  501 -0.00000000000E+00  0.00000000000E+00  0.12749247754E+04  0.12749247754E+04  0.00000000000E+00 0.  1.
          2   -1    0    0  501    0  0.00000000000E+00 -0.00000000000E+00 -0.37158321526E+04  0.37158321526E+04  0.00000000000E+00 0. -1.
         23    2    1    2    0    0  0.66618878237E+02  0.20356937038E+04 -0.66615247275E+03  0.21450427010E+04  0.94668587785E+02 0.  0.
        254    2    1    2    0    0 -0.66618878237E+02 -0.20356937038E+04 -0.17747549044E+04  0.28457142271E+04  0.89434197072E+03 0.  0.
        -24    2    4    4    0    0  0.21510848501E+02 -0.18115754617E+04 -0.18401372980E+04  0.25837103207E+04  0.84766595557E+02 0.  0.
         24    2    4    4    0    0 -0.88129726738E+02 -0.22411824215E+03  0.65382393551E+02  0.26200390640E+03  0.79845816320E+02 0.  0.
         11    1    3    3    0    0  0.80056214029E+02  0.12454676134E+04 -0.43326134452E+03  0.13211033139E+04  0.00000000000E+00 0.  1.
        -11    1    3    3    0    0 -0.13437335793E+02  0.79022609039E+03 -0.23289112823E+03  0.82393938705E+03  0.00000000000E+00 0. -1.
          2    1    6    6  502    0 -0.57817450812E+02 -0.14671756977E+03  0.81217786449E+02  0.17738441795E+03  0.00000000000E+00 0. -1.
          3    1    5    5  503    0 -0.11565348525E+02 -0.39338204544E+02 -0.37026071244E+02  0.55246552607E+02  0.00000000000E+00 0. -1.
         -4    1    5    5    0  503  0.33076197026E+02 -0.17722372571E+04 -0.18031112268E+04  0.25284637680E+04  0.00000000000E+00 0.  1.
         -1    1    6    6    0  502 -0.30312275926E+02 -0.77400672381E+02 -0.15835392898E+02  0.84619488447E+02  0.00000000000E+00 0.  1.
<mgrwt>
<rscale>  0 0.43531168E+04</rscale>
<asrwt>0</asrwt>
<pdfrwt beam="1">  1        2 0.57166648E+00 0.43531168E+04</pdfrwt>
<pdfrwt beam="2">  1       -2 0.19614228E+00 0.43531168E+04</pdfrwt>
<totfact> 0.61270935E-02</totfact>
</mgrwt>
</event>
<event>
12    1  0.2588309E-007  0.2678223E+04  0.7818608E-02  0.8342106E-01
          2   -1    0    0  501    0  0.00000000000E+00  0.00000000000E+00  0.28765696811E+04  0.28765696811E+04  0.00000000000E+00 0. -1.
         -2   -1    0    0    0  501 -0.00000000000E+00 -0.00000000000E+00 -0.62338823273E+03  0.62338823273E+03  0.00000000000E+00 0.  1.
         23    2    1    2    0    0 -0.75119539090E+03 -0.21405586937E+03  0.21710944426E+04  0.23091383967E+04  0.91403642489E+02 0.  0.
        254    2    1    2    0    0  0.75119539090E+03  0.21405586937E+03  0.82087005759E+02  0.11908195171E+04  0.89509687483E+03 0.  0.
        -24    2    4    4    0    0  0.11126654572E+03 -0.47262554426E+02  0.40043829552E+03  0.42559688265E+03  0.78535881966E+02 0.  0.
         24    2    4    4    0    0  0.63992884518E+03  0.26131842380E+03 -0.31835128976E+03  0.76522263447E+03  0.80136702665E+02 0.  0.
         11    1    3    3    0    0 -0.17670769951E+03 -0.85303718346E+02  0.48361845008E+03  0.52190913068E+03  0.00000000000E+00 0.  1.
        -11    1    3    3    0    0 -0.57448769139E+03 -0.12875215103E+03  0.16874759925E+04  0.17872292660E+04  0.00000000000E+00 0. -1.
          4    1    6    6  502    0  0.57096714271E+02 -0.34351598844E-01 -0.27433553587E+02  0.63345369389E+02  0.00000000000E+00 0. -1.
          1    1    5    5  503    0  0.10628615431E+03 -0.29962875544E+02  0.24040830510E+03  0.26455750541E+03  0.00000000000E+00 0. -1.
         -2    1    5    5    0  503  0.49803914109E+01 -0.17299678882E+02  0.16002999042E+03  0.16103937724E+03  0.00000000000E+00 0.  1.
         -3    1    6    6    0  502  0.58283213091E+03  0.26135277540E+03 -0.29091773617E+03  0.70187726509E+03  0.00000000000E+00 0.  1.
<mgrwt>
<rscale>  0 0.26782231E+04</rscale>
<asrwt>0</asrwt>
<pdfrwt beam="1">  1        2 0.44254918E+00 0.26782231E+04</pdfrwt>
<pdfrwt beam="2">  1       -2 0.95905883E-01 0.26782231E+04</pdfrwt>
<totfact> 0.16632599E+00</totfact>
</mgrwt>
</event>
<event>
12    1  0.2588309E-007  0.3271948E+04  0.7818608E-02  0.8170070E-01
          1   -1    0    0  501    0  0.00000000000E+00  0.00000000000E+00  0.24986889054E+04  0.24986889054E+04  0.00000000000E+00 0. -1.
         -1   -1    0    0    0  501 -0.00000000000E+00 -0.00000000000E+00 -0.10711263287E+04  0.10711263287E+04  0.00000000000E+00 0.  1.
         23    2    1    2    0    0 -0.55338236741E+03 -0.65106777513E+03 -0.69924819814E+03  0.11075729587E+04  0.87455840181E+02 0.  0.
        254    2    1    2    0    0  0.55338236741E+03  0.65106777513E+03  0.21268107748E+04  0.24622422754E+04  0.89955080938E+03 0.  0.
        -24    2    4    4    0    0  0.11095793826E+03  0.40116101645E+03  0.20230445480E+03  0.47023781807E+03  0.83394771577E+02 0.  0.
         24    2    4    4    0    0  0.44242442914E+03  0.24990675867E+03  0.19245063200E+04  0.19920044574E+04  0.78513812741E+02 0.  0.
         13    1    3    3    0    0 -0.35397848108E+03 -0.47747747888E+03 -0.49437155394E+03  0.77310331861E+03  0.00000000000E+00 0.  1.
        -13    1    3    3    0    0 -0.19940388633E+03 -0.17359029625E+03 -0.20487664420E+03  0.33446964014E+03  0.00000000000E+00 0. -1.
          4    1    6    6  502    0  0.77346025626E+02  0.18162478808E+02  0.23637971830E+03  0.24937452664E+03  0.00000000000E+00 0. -1.
          3    1    5    5  503    0  0.39413956112E+00  0.15054813567E+03  0.74375756415E+02  0.16791858039E+03  0.00000000000E+00 0. -1.
         -4    1    5    5    0  503  0.11056379870E+03  0.25061288079E+03  0.12792869838E+03  0.30231923768E+03  0.00000000000E+00 0.  1.
         -3    1    6    6    0  502  0.36507840351E+03  0.23174427987E+03  0.16881266017E+04  0.17426299307E+04  0.00000000000E+00 0.  1.
<mgrwt>
<rscale>  0 0.32719483E+04</rscale>
<asrwt>0</asrwt>
<pdfrwt beam="1">  1        1 0.38441368E+00 0.32719483E+04</pdfrwt>
<pdfrwt beam="2">  1       -1 0.16478867E+00 0.32719483E+04</pdfrwt>
<totfact> 0.30355145E-01</totfact>
</mgrwt>
</event>
<event>
12    1  0.2588309E-007  0.1472476E+04  0.7818608E-02  0.8902965E-01
         -2   -1    0    0    0  501 -0.00000000000E+00  0.00000000000E+00  0.40299320990E+03  0.40299320990E+03  0.00000000000E+00 0.  1.
          2   -1    0    0  501    0  0.00000000000E+00 -0.00000000000E+00 -0.13450512767E+04  0.13450512767E+04  0.00000000000E+00 0. -1.
         23    2    1    2    0    0 -0.31861876308E+03  0.19839448376E+03 -0.60397476089E+03  0.71705222767E+03  0.92195976234E+02 0.  0.
        254    2    1    2    0    0  0.31861876308E+03 -0.19839448376E+03 -0.33808330592E+03  0.10309922589E+04  0.89875827055E+03 0.  0.
        -24    2    4    4    0    0 -0.66396840368E+02 -0.21873651449E+03 -0.53796477523E+03  0.58964981289E+03  0.77631174564E+02 0.  0.
         24    2    4    4    0    0  0.38501560345E+03  0.20342030733E+02  0.19988146931E+03  0.44134244606E+03  0.78611321075E+02 0.  0.
         11    1    3    3    0    0 -0.27320771220E+03  0.20360308057E+03 -0.52850395573E+03  0.62881881305E+03  0.00000000000E+00 0. -1.
        -11    1    3    3    0    0 -0.45411050886E+02 -0.52085968139E+01 -0.75470805160E+02  0.88233414616E+02  0.00000000000E+00 0.  1.
          4    1    6    6  502    0  0.21231606087E+03 -0.27893861876E+02  0.10584420076E+03  0.23887061785E+03  0.00000000000E+00 0. -1.
          1    1    5    5  503    0 -0.82984954908E+02 -0.16022123010E+03 -0.39294978354E+03  0.43239666707E+03  0.00000000000E+00 0. -1.
         -2    1    5    5    0  503  0.16588114539E+02 -0.58515284396E+02 -0.14501499170E+03  0.15725314581E+03  0.00000000000E+00 0.  1.
         -3    1    6    6    0  502  0.17269954258E+03  0.48235892609E+02  0.94037268551E+02  0.20247182821E+03  0.00000000000E+00 0.  1.
<mgrwt>
<rscale>  0 0.14724762E+04</rscale>
<asrwt>0</asrwt>
<pdfrwt beam="1">  1        2 0.20693097E+00 0.14724762E+04</pdfrwt>
<pdfrwt beam="2">  1       -2 0.61998955E-01 0.14724762E+04</pdfrwt>
<totfact> 0.36400309E+01</totfact>
</mgrwt>
</event>
<event>
12    1  0.2588309E-007  0.2110394E+04  0.7818608E-02  0.8556678E-01
          2   -1    0    0  501    0  0.00000000000E+00  0.00000000000E+00  0.22793155545E+04  0.22793155545E+04  0.00000000000E+00 0. -1.
         -2   -1    0    0    0  501 -0.00000000000E+00 -0.00000000000E+00 -0.48849801734E+03  0.48849801734E+03  0.00000000000E+00 0.  1.
         23    2    1    2    0    0 -0.60211362808E+03  0.61116885746E+03  0.80166135026E+03  0.11780475342E+04  0.95220160038E+02 0.  0.
        254    2    1    2    0    0  0.60211362808E+03 -0.61116885746E+03  0.98915618695E+03  0.15897660377E+04  0.90158632363E+03 0.  0.
        -24    2    4    4    0    0 -0.12210579440E+03 -0.44469767199E+03  0.21897142076E+03  0.51682069388E+03  0.80556204055E+02 0.  0.
         24    2    4    4    0    0  0.72421942248E+03 -0.16647118547E+03  0.77018476619E+03  0.10729453438E+04  0.76293572776E+02 0.  0.
         11    1    3    3    0    0 -0.16819657147E+03  0.12841900828E+03  0.23685270144E+03  0.31761727050E+03  0.00000000000E+00 0.  1.
        -11    1    3    3    0    0 -0.43391705661E+03  0.48274984918E+03  0.56480864882E+03  0.86043026369E+03  0.00000000000E+00 0. -1.
          4    1    6    6  502    0  0.63394994608E+03 -0.13184464015E+03  0.63655591218E+03  0.90800824478E+03  0.00000000000E+00 0. -1.
          3    1    5    5  503    0 -0.91907436806E+01 -0.12557734244E+02  0.25929688301E+02  0.30240952269E+02  0.00000000000E+00 0. -1.
         -4    1    5    5    0  503 -0.11291505072E+03 -0.43213993775E+03  0.19304173246E+03  0.48657974161E+03  0.00000000000E+00 0.  1.
         -3    1    6    6    0  502  0.90269476400E+02 -0.34626545324E+02  0.13362885401E+03  0.16493709903E+03  0.00000000000E+00 0.  1.
<mgrwt>
<rscale>  0 0.21103944E+04</rscale>
<asrwt>0</asrwt>
<pdfrwt beam="1">  1        2 0.35066393E+00 0.21103944E+04</pdfrwt>
<pdfrwt beam="2">  1       -2 0.75153542E-01 0.21103944E+04</pdfrwt>
<totfact> 0.68171586E+00</totfact>
</mgrwt>
</event>
<event>
12    1  0.2588309E-007  0.4249303E+04  0.7818608E-02  0.7956060E-01
         -2   -1    0    0    0  501 -0.00000000000E+00  0.00000000000E+00  0.14511704384E+04  0.14511704384E+04  0.00000000000E+00 0.  1.
          2   -1    0    0  501    0  0.00000000000E+00 -0.00000000000E+00 -0.31106913066E+04  0.31106913066E+04  0.00000000000E+00 0. -1.
         23    2    1    2    0    0 -0.13959791812E+04  0.10157011033E+04  0.34970260732E+03  0.17638283284E+04  0.91607058158E+02 0.  0.
        254    2    1    2    0    0  0.13959791812E+04 -0.10157011033E+04 -0.20092234756E+04  0.27980334166E+04  0.90089145839E+03 0.  0.
        -24    2    4    4    0    0  0.76892265153E+03 -0.10571230561E+04 -0.14435707625E+04  0.19489349977E+04  0.75497544021E+02 0.  0.
         24    2    4    4    0    0  0.62705652962E+03  0.41421952739E+02 -0.56565271305E+03  0.84909841884E+03  0.78035015143E+02 0.  0.
         13    1    3    3    0    0 -0.60637010548E+03  0.49717924768E+03  0.16421185548E+03  0.80114757855E+03  0.00000000000E+00 0. -1.
        -13    1    3    3    0    0 -0.78960907568E+03  0.51852185565E+03  0.18549075183E+03  0.96268074988E+03  0.00000000000E+00 0.  1.
          2    1    6    6  502    0  0.28847512376E+03  0.55757163801E+02 -0.24505612410E+03  0.38259542901E+03  0.00000000000E+00 0. -1.
          3    1    5    5  503    0  0.16904614844E+03 -0.18216971257E+03 -0.27219857312E+03  0.36858441054E+03  0.00000000000E+00 0. -1.
         -4    1    5    5    0  503  0.59987650309E+03 -0.87495334350E+03 -0.11713721894E+04  0.15803505872E+04  0.00000000000E+00 0.  1.
         -1    1    6    6    0  502  0.33858140586E+03 -0.14335211062E+02 -0.32059658896E+03  0.46650298983E+03  0.00000000000E+00 0.  1.
<mgrwt>
<rscale>  0 0.42493027E+04</rscale>
<asrwt>0</asrwt>
<pdfrwt beam="1">  1        2 0.47856788E+00 0.42493027E+04</pdfrwt>
<pdfrwt beam="2">  1       -2 0.22325699E+00 0.42493027E+04</pdfrwt>
<totfact> 0.10787117E-01</totfact>
</mgrwt>
</event>
<event>
12    1  0.2588309E-007  0.2402711E+04  0.7818608E-02  0.8438489E-01
         -2   -1    0    0    0  501 -0.00000000000E+00  0.00000000000E+00  0.10641286737E+04  0.10641286737E+04  0.00000000000E+00 0.  1.
          2   -1    0    0  501    0  0.00000000000E+00 -0.00000000000E+00 -0.13562792083E+04  0.13562792083E+04  0.00000000000E+00 0. -1.
         23    2    1    2    0    0 -0.90948585676E+03  0.47254633582E+03 -0.39704682809E+02  0.10292471198E+04  0.85490400526E+02 0.  0.
        254    2    1    2    0    0  0.90948585676E+03 -0.47254633582E+03 -0.25244585174E+03  0.13911607623E+04  0.90616488302E+03 0.  0.
        -24    2    4    4    0    0  0.79301862688E+03 -0.52231242174E+03 -0.51903100515E+03  0.10850541770E+04  0.79123791257E+02 0.  0.
         24    2    4    4    0    0  0.11646722989E+03  0.49766085913E+02  0.26658515341E+03  0.30610658521E+03  0.81193094213E+02 0.  0.
         11    1    3    3    0    0 -0.57961059183E+03  0.25429076944E+03 -0.24504475242E+02  0.63341353229E+03  0.00000000000E+00 0. -1.
        -11    1    3    3    0    0 -0.32987526494E+03  0.21825556638E+03 -0.15200207568E+02  0.39583358749E+03  0.00000000000E+00 0.  1.
          4    1    6    6  502    0  0.10463584870E+03  0.55646325489E+02  0.16217000650E+03  0.20085886931E+03  0.00000000000E+00 0. -1.
          3    1    5    5  503    0  0.15784217717E+03 -0.12036864714E+03 -0.14246833151E+03  0.24433581316E+03  0.00000000000E+00 0. -1.
         -4    1    5    5    0  503  0.63517644971E+03 -0.40194377459E+03 -0.37656267364E+03  0.84071836388E+03  0.00000000000E+00 0.  1.
         -1    1    6    6    0  502  0.11831381189E+02 -0.58802395766E+01  0.10441514691E+03  0.10524771590E+03  0.00000000000E+00 0.  1.
<mgrwt>
<rscale>  0 0.24027115E+04</rscale>
<asrwt>0</asrwt>
<pdfrwt beam="1">  1        2 0.20865834E+00 0.24027115E+04</pdfrwt>
<pdfrwt beam="2">  1       -2 0.16371210E+00 0.24027115E+04</pdfrwt>
<totfact> 0.32614776E+00</totfact>
</mgrwt>
</event>
<event>
12    1  0.2588309E-007  0.1510863E+04  0.7818608E-02  0.8877261E-01
         -2   -1    0    0    0  501 -0.00000000000E+00  0.00000000000E+00  0.40585153565E+03  0.40585153565E+03  0.00000000000E+00 0. -1.
          2   -1    0    0  501    0  0.00000000000E+00 -0.00000000000E+00 -0.14061227366E+04  0.14061227366E+04  0.00000000000E+00 0.  1.
         23    2    1    2    0    0 -0.29695231810E+03 -0.37335143129E+03 -0.32236730329E+03  0.58326833994E+03  0.93323671559E+02 0.  0.
        254    2    1    2    0    0  0.29695231810E+03  0.37335143129E+03 -0.67790389763E+03  0.12287059323E+04  0.90696890968E+03 0.  0.
        -24    2    4    4    0    0  0.60170197822E+03  0.27360814874E+03 -0.31032447639E+03  0.73446334388E+03  0.78920423240E+02 0.  0.
         24    2    4    4    0    0 -0.30474966012E+03  0.99743282545E+02 -0.36757942124E+03  0.49424258840E+03  0.79624289707E+02 0.  0.
         13    1    3    3    0    0 -0.27398889095E+03 -0.28730934872E+03 -0.26102922213E+03  0.47513453782E+03  0.00000000000E+00 0. -1.
        -13    1    3    3    0    0 -0.22963427146E+02 -0.86042082570E+02 -0.61338081159E+02  0.10813380211E+03  0.00000000000E+00 0.  1.
          4    1    6    6  502    0 -0.13415429299E+03  0.75381706766E+02 -0.21281625577E+03  0.26262241862E+03  0.00000000000E+00 0. -1.
          1    1    5    5  503    0  0.50169833591E+03  0.25220986947E+03 -0.24188217864E+03  0.61140659700E+03  0.00000000000E+00 0. -1.
         -2    1    5    5    0  503  0.10000364231E+03  0.21398279272E+02 -0.68442297749E+02  0.12305674688E+03  0.00000000000E+00 0.  1.
         -3    1    6    6    0  502 -0.17059536713E+03  0.24361575779E+02 -0.15476316547E+03  0.23162016978E+03  0.00000000000E+00 0.  1.
<mgrwt>
<rscale>  0 0.15108634E+04</rscale>
<asrwt>0</asrwt>
<pdfrwt beam="1">  1        2 0.21632657E+00 0.15108634E+04</pdfrwt>
<pdfrwt beam="2">  1       -2 0.62438698E-01 0.15108634E+04</pdfrwt>
<totfact> 0.32973188E+01</totfact>
</mgrwt>
</event>
<event>
12    1  0.2588309E-007  0.2888228E+04  0.7818608E-02  0.8276389E-01
         -2   -1    0    0    0  501 -0.00000000000E+00  0.00000000000E+00  0.74942449737E+03  0.74942449737E+03  0.00000000000E+00 0. -1.
          2   -1    0    0  501    0  0.00000000000E+00 -0.00000000000E+00 -0.27827552258E+04  0.27827552258E+04  0.00000000000E+00 0.  1.
         23    2    1    2    0    0 -0.37964629556E+03  0.11949247327E+04 -0.48525150994E+03  0.13475071876E+04  0.91269744903E+02 0.  0.
        254    2    1    2    0    0  0.37964629556E+03 -0.11949247327E+04 -0.15480792185E+04  0.21846725355E+04  0.89681012158E+03 0.  0.
        -24    2    4    4    0    0  0.50837322126E+02  0.17305398335E+02  0.81246320682E+02  0.12587449405E+03  0.79746557890E+02 0.  0.
         24    2    4    4    0    0  0.32880897344E+03 -0.12122301310E+04 -0.16293255391E+04  0.20587980414E+04  0.79564007979E+02 0.  0.
         11    1    3    3    0    0 -0.13722276430E+03  0.58184894589E+03 -0.23506374413E+03  0.64236535296E+03  0.00000000000E+00 0.  1.
        -11    1    3    3    0    0 -0.24242353126E+03  0.61307578680E+03 -0.25018776581E+03  0.70514183469E+03  0.00000000000E+00 0. -1.
          4    1    6    6  502    0  0.24972574714E+03 -0.77650747733E+03 -0.10488861930E+04  0.13287170718E+04  0.00000000000E+00 0. -1.
          3    1    5    5  503    0 -0.46921413955E+00 -0.21226561385E+02  0.50381697900E+02  0.54672685625E+02  0.00000000000E+00 0. -1.
         -4    1    5    5    0  503  0.51306536265E+02  0.38531959720E+02  0.30864622782E+02  0.71201808424E+02  0.00000000000E+00 0.  1.
         -3    1    6    6    0  502  0.79083226300E+02 -0.43572265369E+03 -0.58043934614E+03  0.73008096960E+03  0.00000000000E+00 0.  1.
<mgrwt>
<rscale>  0 0.28882278E+04</rscale>
<asrwt>0</asrwt>
<pdfrwt beam="1">  1        2 0.42811619E+00 0.28882278E+04</pdfrwt>
<pdfrwt beam="2">  1       -2 0.11529608E+00 0.28882278E+04</pdfrwt>
<totfact> 0.11985169E+00</totfact>
</mgrwt>
</event>
<event>
12    1  0.2588309E-007  0.2785651E+04  0.7818608E-02  0.8307737E-01
         -2   -1    0    0    0  501 -0.00000000000E+00  0.00000000000E+00  0.17393172515E+04  0.17393172515E+04  0.00000000000E+00 0.  1.
          2   -1    0    0  501    0  0.00000000000E+00 -0.00000000000E+00 -0.11153586286E+04  0.11153586286E+04  0.00000000000E+00 0. -1.
         23    2    1    2    0    0  0.77213379586E+03 -0.61296977542E+03  0.10600781484E+04  0.14504937306E+04  0.90795581559E+02 0.  0.
        254    2    1    2    0    0 -0.77213379586E+03  0.61296977542E+03 -0.43611952548E+03  0.14041821494E+04  0.89978037538E+03 0.  0.
        -24    2    4    4    0    0 -0.83152125839E+03  0.20070253418E+03 -0.10620125755E+03  0.86565729223E+03  0.79841906906E+02 0.  0.
         24    2    4    4    0    0  0.59387462534E+02  0.41226724124E+03 -0.32991826794E+03  0.53852485718E+03  0.87588865603E+02 0.  0.
         11    1    3    3    0    0  0.44277317781E+03 -0.38307420984E+03  0.57377639592E+03  0.81976416715E+03  0.00000000000E+00 0. -1.
        -11    1    3    3    0    0  0.32936061805E+03 -0.22989556559E+03  0.48630175248E+03  0.63072956349E+03  0.00000000000E+00 0.  1.
          2    1    6    6  502    0  0.47426852265E+02  0.30477598656E+03 -0.28962610864E+03  0.42310872256E+03  0.00000000000E+00 0. -1.
          1    1    5    5  503    0 -0.51203245236E+03  0.12140664528E+03 -0.26133080625E+02  0.52687735166E+03  0.00000000000E+00 0. -1.
         -4    1    5    5    0  503 -0.31948880603E+03  0.79295888900E+02 -0.80068176923E+02  0.33877994057E+03  0.00000000000E+00 0.  1.
         -1    1    6    6    0  502  0.11960610269E+02  0.10749125468E+03 -0.40292159300E+02  0.11541613462E+03  0.00000000000E+00 0.  1.
<mgrwt>
<rscale>  0 0.27856507E+04</rscale>
<asrwt>0</asrwt>
<pdfrwt beam="1">  1        2 0.17159364E+00 0.27856507E+04</pdfrwt>
<pdfrwt beam="2">  1       -2 0.26758727E+00 0.27856507E+04</pdfrwt>
<totfact> 0.93109986E-01</totfact>
</mgrwt>
</event>
<event>
12    1  0.2588309E-007  0.1733366E+04  0.7818608E-02  0.8742560E-01
          1   -1    0    0  501    0  0.00000000000E+00  0.00000000000E+00  0.98158666463E+03  0.98158666463E+03  0.00000000000E+00 0. -1.
         -1   -1    0    0    0  501 -0.00000000000E+00 -0.00000000000E+00 -0.76522950532E+03  0.76522950532E+03  0.00000000000E+00 0.  1.
         23    2    1    2    0    0  0.41116727886E+03 -0.38604910793E+03 -0.20158489272E+03  0.60579115203E+03  0.90851560060E+02 0.  0.
        254    2    1    2    0    0 -0.41116727886E+03  0.38604910793E+03  0.41794205203E+03  0.11410250179E+04  0.89953881947E+03 0.  0.
        -24    2    4    4    0    0  0.22236002068E+03  0.82216067730E+02  0.35037551425E+03  0.43059545108E+03  0.80286866409E+02 0.  0.
         24    2    4    4    0    0 -0.63352729955E+03  0.30383304020E+03  0.67566537780E+02  0.71042956684E+03  0.80458541014E+02 0.  0.
         13    1    3    3    0    0  0.18301425781E+03 -0.11245705764E+03 -0.84065850346E+02  0.23066832372E+03  0.00000000000E+00 0. -1.
        -13    1    3    3    0    0  0.22815302106E+03 -0.27359205029E+03 -0.11751904237E+03  0.37512282831E+03  0.00000000000E+00 0.  1.
          4    1    6    6  502    0 -0.13568301543E+03  0.92894932050E+02  0.38938693607E+02  0.16898393692E+03  0.00000000000E+00 0. -1.
          3    1    5    5  503    0  0.27737506370E+02 -0.16276244584E+02  0.43562327545E+02  0.54147592546E+02  0.00000000000E+00 0. -1.
         -4    1    5    5    0  503  0.19462251431E+03  0.98492312314E+02  0.30681318670E+03  0.37644785854E+03  0.00000000000E+00 0.  1.
         -3    1    6    6    0  502 -0.49784428411E+03  0.21093810815E+03  0.28627844173E+02  0.54144562992E+03  0.00000000000E+00 0.  1.
<mgrwt>
<rscale>  0 0.17333656E+04</rscale>
<asrwt>0</asrwt>
<pdfrwt beam="1">  1        1 0.15101333E+00 0.17333656E+04</pdfrwt>
<pdfrwt beam="2">  1       -1 0.11772762E+00 0.17333656E+04</pdfrwt>
<totfact> 0.96313202E+00</totfact>
</mgrwt>
</event>
<event>
12    1  0.2588309E-007  0.1996289E+04  0.7818608E-02  0.8608357E-01
          2   -1    0    0  501    0  0.00000000000E+00  0.00000000000E+00  0.22982034299E+04  0.22982034299E+04  0.00000000000E+00 0. -1.
         -2   -1    0    0    0  501 -0.00000000000E+00 -0.00000000000E+00 -0.43350939026E+03  0.43350939026E+03  0.00000000000E+00 0.  1.
         23    2    1    2    0    0  0.19245104571E+03 -0.70363372528E+03  0.11676264002E+04  0.13795457497E+04  0.87505661034E+02 0.  0.
        254    2    1    2    0    0 -0.19245104571E+03  0.70363372528E+03  0.69706763950E+03  0.13521670705E+04  0.90017479870E+03 0.  0.
        -24    2    4    4    0    0 -0.51300072451E+03  0.52274598572E+03  0.27457918021E+03  0.78629254052E+03  0.80181819310E+02 0.  0.
         24    2    4    4    0    0  0.32054967880E+03  0.18088773956E+03  0.42248845929E+03  0.56587453000E+03  0.79025404544E+02 0.  0.
         13    1    3    3    0    0  0.15752317309E+03 -0.41608596047E+03  0.69396696528E+03  0.82433683980E+03  0.00000000000E+00 0. -1.
        -13    1    3    3    0    0  0.34927872620E+02 -0.28754776481E+03  0.47365943489E+03  0.55520890986E+03  0.00000000000E+00 0.  1.
          2    1    6    6  502    0  0.28595830895E+02  0.38003590918E+01  0.67047256524E+02  0.72989717640E+02  0.00000000000E+00 0. -1.
          1    1    5    5  503    0 -0.15764488971E+03  0.20058105071E+03  0.12327924931E+03  0.28334156502E+03  0.00000000000E+00 0. -1.
         -2    1    5    5    0  503 -0.35535583479E+03  0.32216493500E+03  0.15129993090E+03  0.50295097550E+03  0.00000000000E+00 0.  1.
         -1    1    6    6    0  502  0.29195384790E+03  0.17708738047E+03  0.35544120277E+03  0.49288481236E+03  0.00000000000E+00 0.  1.
<mgrwt>
<rscale>  0 0.19962893E+04</rscale>
<asrwt>0</asrwt>
<pdfrwt beam="1">  1        2 0.35356975E+00 0.19962893E+04</pdfrwt>
<pdfrwt beam="2">  1       -2 0.66693753E-01 0.19962893E+04</pdfrwt>
<totfact> 0.87232184E+00</totfact>
</mgrwt>
</event>
<event>
12    1  0.2588309E-007  0.1555758E+04  0.7818608E-02  0.8848198E-01
          2   -1    0    0  501    0  0.00000000000E+00  0.00000000000E+00  0.27949784734E+04  0.27949784734E+04  0.00000000000E+00 0.  1.
         -2   -1    0    0    0  501 -0.00000000000E+00 -0.00000000000E+00 -0.21649389334E+03  0.21649389334E+03  0.00000000000E+00 0. -1.
         23    2    1    2    0    0 -0.48774385345E+03  0.14995038237E+03  0.93315587422E+03  0.10677773362E+04  0.94812290370E+02 0.  0.
        254    2    1    2    0    0  0.48774385345E+03 -0.14995038237E+03  0.16453287059E+04  0.19436950305E+04  0.90025809504E+03 0.  0.
        -24    2    4    4    0    0  0.27269805020E+03 -0.11035909759E+02  0.80714439621E+01  0.28462915443E+03  0.80390232345E+02 0.  0.
         24    2    4    4    0    0  0.21504580325E+03 -0.13891447261E+03  0.16372572619E+04  0.16590658761E+04  0.79663739921E+02 0.  0.
         11    1    3    3    0    0 -0.25913834825E+03  0.88554088792E+02  0.59512504598E+03  0.65510940348E+03  0.00000000000E+00 0.  1.
        -11    1    3    3    0    0 -0.22860550520E+03  0.61396293581E+02  0.33803082824E+03  0.41266793274E+03  0.00000000000E+00 0. -1.
          2    1    6    6  502    0  0.14705555843E+03 -0.79923073910E+02  0.82287168237E+03  0.83972069204E+03  0.00000000000E+00 0. -1.
          3    1    5    5  503    0  0.40057454604E+01  0.78131317856E+01  0.12457580697E+02  0.15240811718E+02  0.00000000000E+00 0. -1.
         -4    1    5    5    0  503  0.26869230474E+03 -0.18849041545E+02 -0.43861367350E+01  0.26938834271E+03  0.00000000000E+00 0.  1.
         -1    1    6    6    0  502  0.67990244824E+02 -0.58991398704E+02  0.81438557953E+03  0.81934518407E+03  0.00000000000E+00 0.  1.
<mgrwt>
<rscale>  0 0.15557580E+04</rscale>
<asrwt>0</asrwt>
<pdfrwt beam="1">  1        2 0.42999666E+00 0.15557580E+04</pdfrwt>
<pdfrwt beam="2">  1       -2 0.33306755E-01 0.15557580E+04</pdfrwt>
<totfact> 0.18954211E+01</totfact>
</mgrwt>
</event>
<event>
12    1  0.2588309E-007  0.3354576E+04  0.7818608E-02  0.8149146E-01
          2   -1    0    0  501    0  0.00000000000E+00  0.00000000000E+00  0.10668744774E+04  0.10668744774E+04  0.00000000000E+00 0.  1.
         -2   -1    0    0    0  501 -0.00000000000E+00 -0.00000000000E+00 -0.26369510802E+04  0.26369510802E+04  0.00000000000E+00 0. -1.
         23    2    1    2    0    0 -0.12726230355E+04 -0.46089801965E+03  0.11602828046E+03  0.13615494601E+04  0.91422073023E+02 0.  0.
        254    2    1    2    0    0  0.12726230355E+04  0.46089801965E+03 -0.16861048833E+04  0.23422760975E+04  0.90072818569E+03 0.  0.
        -24    2    4    4    0    0  0.89672662636E+03  0.58131205105E+03 -0.16080883299E+04  0.19323680876E+04  0.77820345409E+02 0.  0.
         24    2    4    4    0    0  0.37589640914E+03 -0.12041403140E+03 -0.78016553363E+02  0.40990800987E+03  0.78360350895E+02 0.  0.
         13    1    3    3    0    0 -0.82457945042E+03 -0.28474236529E+03  0.32767623491E+02  0.87297376924E+03  0.00000000000E+00 0. -1.
        -13    1    3    3    0    0 -0.44804358508E+03 -0.17615565436E+03  0.83260656973E+02  0.48857569086E+03  0.00000000000E+00 0.  1.
          4    1    6    6  502    0  0.11447591384E+03  0.20108845091E+00 -0.24643320779E+02  0.11709854203E+03  0.00000000000E+00 0. -1.
          1    1    5    5  503    0  0.42580630582E+03  0.22988167525E+03 -0.72594366900E+03  0.87243957112E+03  0.00000000000E+00 0. -1.
         -2    1    5    5    0  503  0.47092032054E+03  0.35143037580E+03 -0.88214466094E+03  0.10599285165E+04  0.00000000000E+00 0.  1.
         -3    1    6    6    0  502  0.26142049529E+03 -0.12061511985E+03 -0.53373232584E+02  0.29280946783E+03  0.00000000000E+00 0.  1.
<mgrwt>
<rscale>  0 0.33545765E+04</rscale>
<asrwt>0</asrwt>
<pdfrwt beam="1">  1        2 0.16413454E+00 0.33545765E+04</pdfrwt>
<pdfrwt beam="2">  1       -2 0.40568478E+00 0.33545765E+04</pdfrwt>
<totfact> 0.12927657E-01</totfact>
</mgrwt>
</event>
<event>
12    1  0.2588309E-007  0.1338379E+04  0.7818608E-02  0.8999672E-01
         -1   -1    0    0    0  501 -0.00000000000E+00  0.00000000000E+00  0.37456020920E+03  0.37456020920E+03  0.00000000000E+00 0.  1.
          1   -1    0    0  501    0  0.00000000000E+00 -0.00000000000E+00 -0.11955743058E+04  0.11955743058E+04  0.00000000000E+00 0. -1.
         23    2    1    2    0    0 -0.15675416513E+03 -0.32115922316E+03 -0.22815968527E+03  0.43338749216E+03  0.89737179947E+02 0.  0.
        254    2    1    2    0    0  0.15675416513E+03  0.32115922316E+03 -0.59285441132E+03  0.11367470228E+04  0.90166641613E+03 0.  0.
        -24    2    4    4    0    0  0.26241308722E+03  0.43281084948E+03 -0.74560717193E+03  0.90481106138E+03  0.81037905924E+02 0.  0.
         24    2    4    4    0    0 -0.10565892208E+03 -0.11165162631E+03  0.15275276061E+03  0.23193596145E+03  0.82649808643E+02 0.  0.
         13    1    3    3    0    0 -0.10050537920E+03 -0.17093105361E+03 -0.76204129186E+02  0.21242840121E+03  0.00000000000E+00 0.  1.
        -13    1    3    3    0    0 -0.56248785935E+02 -0.15022816955E+03 -0.15195555608E+03  0.22095909094E+03  0.00000000000E+00 0. -1.
          2    1    6    6  502    0 -0.96171202038E+02 -0.10537982396E+03  0.16300736172E+03  0.21662226888E+03  0.00000000000E+00 0. -1.
          1    1    5    5  503    0  0.20219635774E+03  0.35039766614E+03 -0.53463055187E+03  0.67044143556E+03  0.00000000000E+00 0. -1.
         -2    1    5    5    0  503  0.60216729477E+02  0.82413183335E+02 -0.21097662006E+03  0.23436962582E+03  0.00000000000E+00 0.  1.
         -1    1    6    6    0  502 -0.94877200425E+01 -0.62718023519E+01 -0.10254601111E+02  0.15313692575E+02  0.00000000000E+00 0.  1.
<mgrwt>
<rscale>  0 0.13383790E+04</rscale>
<asrwt>0</asrwt>
<pdfrwt beam="1">  1        1 0.18393451E+00 0.13383790E+04</pdfrwt>
<pdfrwt beam="2">  1       -1 0.57624648E-01 0.13383790E+04</pdfrwt>
<totfact> 0.32169060E+01</totfact>
</mgrwt>
</event>
<event>
12    1  0.2588309E-007  0.1199039E+04  0.7818608E-02  0.9113698E-01
          2   -1    0    0  501    0  0.00000000000E+00  0.00000000000E+00  0.15214717398E+04  0.15214717398E+04  0.00000000000E+00 0. -1.
         -2   -1    0    0    0  501 -0.00000000000E+00 -0.00000000000E+00 -0.23623428495E+03  0.23623428495E+03  0.00000000000E+00 0.  1.
         23    2    1    2    0    0  0.21313352640E+03  0.10174800091E+03  0.16213785025E+03  0.30069794751E+03  0.91389372393E+02 0.  0.
        254    2    1    2    0    0 -0.21313352640E+03 -0.10174800091E+03  0.11230996046E+04  0.14570080772E+04  0.89763091498E+03 0.  0.
        -24    2    4    4    0    0 -0.38553797997E+03 -0.39822500080E+03  0.55366220781E+03  0.78788318415E+03  0.83638425583E+02 0.  0.
         24    2    4    4    0    0  0.17240445357E+03  0.29647699990E+03  0.56943739679E+03  0.66912489309E+03  0.76467421924E+02 0.  0.
         11    1    3    3    0    0  0.12547886231E+03  0.26248101289E+02  0.44480425016E+02  0.13569235763E+03  0.00000000000E+00 0.  1.
        -11    1    3    3    0    0  0.87654664086E+02  0.75499899617E+02  0.11765742524E+03  0.16500558988E+03  0.00000000000E+00 0. -1.
          4    1    6    6  502    0  0.57100292754E+02  0.64176541386E+02  0.92491140333E+02  0.12622869300E+03  0.00000000000E+00 0. -1.
          3    1    5    5  503    0 -0.25008037213E+03 -0.28150526799E+03  0.42366942473E+03  0.56681671631E+03  0.00000000000E+00 0. -1.
         -4    1    5    5    0  503 -0.13545760784E+03 -0.11671973281E+03  0.12999278308E+03  0.22106646784E+03  0.00000000000E+00 0.  1.
         -3    1    6    6    0  502  0.11530416082E+03  0.23230045851E+03  0.47694625645E+03  0.54289620009E+03  0.00000000000E+00 0.  1.
<mgrwt>
<rscale>  0 0.11990393E+04</rscale>
<asrwt>0</asrwt>
<pdfrwt beam="1">  1        2 0.23407257E+00 0.11990393E+04</pdfrwt>
<pdfrwt beam="2">  1       -2 0.36343737E-01 0.11990393E+04</pdfrwt>
<totfact> 0.86754972E+01</totfact>
</mgrwt>
</event>
<event>
12    1  0.2588309E-007  0.2512615E+04  0.7818608E-02  0.8398505E-01
          3   -1    0    0  501    0  0.00000000000E+00  0.00000000000E+00  0.16528837060E+04  0.16528837060E+04  0.00000000000E+00 0. -1.
         -3   -1    0    0    0  501 -0.00000000000E+00 -0.00000000000E+00 -0.95488213200E+03  0.95488213200E+03  0.00000000000E+00 0.  1.
         23    2    1    2    0    0  0.29624052042E+03 -0.16150931846E+03  0.13839749866E+04  0.14272158562E+04  0.87832969825E+02 0.  0.
        254    2    1    2    0    0 -0.29624052042E+03  0.16150931846E+03 -0.68597341267E+03  0.11805499818E+04  0.89960826516E+03 0.  0.
        -24    2    4    4    0    0 -0.60346018617E+03  0.90669050827E+02 -0.32843013462E+03  0.69718604330E+03  0.76268948988E+02 0.  0.
         24    2    4    4    0    0  0.30721966575E+03  0.70840267633E+02 -0.35754327804E+03  0.48336393849E+03  0.80007717232E+02 0.  0.
         11    1    3    3    0    0  0.23844167633E+03 -0.10281512616E+03  0.11562936267E+04  0.11850908549E+04  0.00000000000E+00 0. -1.
        -11    1    3    3    0    0  0.57798844084E+02 -0.58694192299E+02  0.22768135994E+03  0.24212500129E+03  0.00000000000E+00 0.  1.
          4    1    6    6  502    0  0.19219065424E+03  0.56879198286E+01 -0.22836695473E+03  0.29853151596E+03  0.00000000000E+00 0. -1.
          1    1    5    5  503    0 -0.53929685918E+03  0.10371353016E+03 -0.28629410400E+03  0.61932375430E+03  0.00000000000E+00 0. -1.
         -2    1    5    5    0  503 -0.64163326991E+02 -0.13044479338E+02 -0.42136030624E+02  0.77862289001E+02  0.00000000000E+00 0.  1.
         -3    1    6    6    0  502  0.11502901151E+03  0.65152347804E+02 -0.12917632332E+03  0.18483242253E+03  0.00000000000E+00 0.  1.
<mgrwt>
<rscale>  0 0.25126155E+04</rscale>
<asrwt>0</asrwt>
<pdfrwt beam="1">  1        3 0.25428980E+00 0.25126155E+04</pdfrwt>
<pdfrwt beam="2">  1       -3 0.14690494E+00 0.25126155E+04</pdfrwt>
<totfact> 0.55133347E-02</totfact>
</mgrwt>
</event>
<event>
12    1  0.2588309E-007  0.1934261E+04  0.7818608E-02  0.8637988E-01
          2   -1    0    0  501    0  0.00000000000E+00  0.00000000000E+00  0.31744901634E+04  0.31744901634E+04  0.00000000000E+00 0. -1.
         -2   -1    0    0    0  501 -0.00000000000E+00 -0.00000000000E+00 -0.29464312328E+03  0.29464312328E+03  0.00000000000E+00 0.  1.
         23    2    1    2    0    0  0.33390222156E+03  0.39223008570E+03  0.14292624109E+03  0.54244222697E+03  0.92089768785E+02 0.  0.
        254    2    1    2    0    0 -0.33390222156E+03 -0.39223008570E+03  0.27369207990E+04  0.29266910597E+04  0.89969437321E+03 0.  0.
        -24    2    4    4    0    0 -0.17753032431E+03 -0.10696978902E+01  0.40929906977E+02  0.19682585278E+03  0.74478176218E+02 0.  0.
         24    2    4    4    0    0 -0.15637189725E+03 -0.39116038781E+03  0.26959908920E+04  0.27298652069E+04  0.79614940754E+02 0.  0.
         13    1    3    3    0    0  0.24104318856E+03  0.33985567019E+03  0.11479213765E+03  0.43218159399E+03  0.00000000000E+00 0.  1.
        -13    1    3    3    0    0  0.92859032997E+02  0.52374415505E+02  0.28134103441E+02  0.11026063298E+03  0.00000000000E+00 0. -1.
          4    1    6    6  502    0 -0.11882627304E+03 -0.34499132747E+03  0.21627376777E+04  0.21933018401E+04  0.00000000000E+00 0. -1.
          1    1    5    5  503    0 -0.14071259034E+03  0.27111945751E+02  0.45210250344E+02  0.15026329365E+03  0.00000000000E+00 0. -1.
         -2    1    5    5    0  503 -0.36817733972E+02 -0.28181643641E+02 -0.42803433661E+01  0.46562559128E+02  0.00000000000E+00 0.  1.
         -3    1    6    6    0  502 -0.37545624208E+02 -0.46169060341E+02  0.53325321431E+03  0.53656336681E+03  0.00000000000E+00 0.  1.
<mgrwt>
<rscale>  0 0.19342613E+04</rscale>
<asrwt>0</asrwt>
<pdfrwt beam="1">  1        2 0.48838308E+00 0.19342613E+04</pdfrwt>
<pdfrwt beam="2">  1       -2 0.45329714E-01 0.19342613E+04</pdfrwt>
<totfact> 0.58304497E+00</totfact>
</mgrwt>
</event>
<event>
12    1  0.2588309E-007  0.1331454E+04  0.7818608E-02  0.9004987E-01
          2   -1    0    0  501    0  0.00000000000E+00  0.00000000000E+00  0.21242576303E+04  0.21242576303E+04  0.00000000000E+00 0. -1.
         -2   -1    0    0    0  501 -0.00000000000E+00 -0.00000000000E+00 -0.20863413370E+03  0.20863413370E+03  0.00000000000E+00 0.  1.
         23    2    1    2    0    0 -0.29794579500E+03 -0.18211748532E+03  0.62363767352E+03  0.72013608626E+03  0.87940660007E+02 0.  0.
        254    2    1    2    0    0  0.29794579500E+03  0.18211748532E+03  0.12919858231E+04  0.16127556778E+04  0.89989723517E+03 0.  0.
        -24    2    4    4    0    0  0.35542050477E+03 -0.30072169952E+03  0.61822618828E+03  0.77806869815E+03  0.80187301927E+02 0.  0.
         24    2    4    4    0    0 -0.57474709770E+02  0.48283918483E+03  0.67375963482E+03  0.83468697962E+03  0.79456200293E+02 0.  0.
         11    1    3    3    0    0 -0.52373283717E+02 -0.51738584534E+02  0.75144280363E+02  0.10519745647E+03  0.00000000000E+00 0.  1.
        -11    1    3    3    0    0 -0.24557251128E+03 -0.13037890078E+03  0.54849339316E+03  0.61493862978E+03  0.00000000000E+00 0. -1.
          4    1    6    6  502    0 -0.24870485886E+02  0.76423123237E+02  0.72591167671E+02  0.10829825695E+03  0.00000000000E+00 0. -1.
          3    1    5    5  503    0  0.59651490649E+02 -0.78791745683E+02  0.17375676683E+03  0.19989460609E+03  0.00000000000E+00 0. -1.
         -4    1    5    5    0  503  0.29576901412E+03 -0.22192995383E+03  0.44446942145E+03  0.57817409205E+03  0.00000000000E+00 0.  1.
         -3    1    6    6    0  502 -0.32604223883E+02  0.40641606159E+03  0.60116846715E+03  0.72638872267E+03  0.00000000000E+00 0.  1.
<mgrwt>
<rscale>  0 0.13314543E+04</rscale>
<asrwt>0</asrwt>
<pdfrwt beam="1">  1        2 0.32680885E+00 0.13314543E+04</pdfrwt>
<pdfrwt beam="2">  1       -2 0.32097561E-01 0.13314543E+04</pdfrwt>
<totfact> 0.50380889E+01</totfact>
</mgrwt>
</event>
<event>
12    1  0.2588309E-007  0.3680490E+04  0.7818608E-02  0.8072299E-01
          1   -1    0    0  501    0  0.00000000000E+00  0.00000000000E+00  0.23200802279E+04  0.23200802279E+04  0.00000000000E+00 0. -1.
         -1   -1    0    0    0  501 -0.00000000000E+00 -0.00000000000E+00 -0.14596485289E+04  0.14596485289E+04  0.00000000000E+00 0.  1.
         23    2    1    2    0    0 -0.10079316293E+04 -0.30220442065E+03 -0.10064342761E+04  0.14589070355E+04  0.90808066360E+02 0.  0.
        254    2    1    2    0    0  0.10079316293E+04  0.30220442065E+03  0.18668659751E+04  0.23208217214E+04  0.89093838868E+03 0.  0.
        -24    2    4    4    0    0  0.62723837077E+03  0.48384553453E+03  0.16673300759E+04  0.18477790709E+04  0.82240122480E+02 0.  0.
         24    2    4    4    0    0  0.38069325854E+03 -0.18164111387E+03  0.19953589915E+03  0.47304265050E+03  0.77678328971E+02 0.  0.
         11    1    3    3    0    0 -0.43390543986E+03 -0.10017011819E+03 -0.47327745519E+03  0.64984577625E+03  0.00000000000E+00 0. -1.
        -11    1    3    3    0    0 -0.57402618945E+03 -0.20203430246E+03 -0.53315682088E+03  0.80906125924E+03  0.00000000000E+00 0.  1.
          2    1    6    6  502    0  0.44757051689E+01 -0.63858859333E+01 -0.60596366566E+01  0.98757618603E+01  0.00000000000E+00 0. -1.
          3    1    5    5  503    0  0.20078633518E+02  0.31101023670E+02  0.10967703223E+03  0.11575610825E+03  0.00000000000E+00 0. -1.
         -4    1    5    5    0  503  0.60715973725E+03  0.45274451086E+03  0.15576530437E+04  0.17320229627E+04  0.00000000000E+00 0.  1.
         -1    1    6    6    0  502  0.37621755337E+03 -0.17525522794E+03  0.20559553580E+03  0.46316688864E+03  0.00000000000E+00 0.  1.
<mgrwt>
<rscale>  0 0.36804900E+04</rscale>
<asrwt>0</asrwt>
<pdfrwt beam="1">  1        1 0.35693542E+00 0.36804900E+04</pdfrwt>
<pdfrwt beam="2">  1       -1 0.22456131E+00 0.36804900E+04</pdfrwt>
<totfact> 0.14865575E-01</totfact>
</mgrwt>
</event>
<event>
12    1  0.2588309E-007  0.1600646E+04  0.7818608E-02  0.8820151E-01
         -4   -1    0    0    0  501 -0.00000000000E+00  0.00000000000E+00  0.44384454811E+03  0.44384454811E+03  0.00000000000E+00 0. -1.
          4   -1    0    0  501    0  0.00000000000E+00 -0.00000000000E+00 -0.14431102044E+04  0.14431102044E+04  0.00000000000E+00 0.  1.
         23    2    1    2    0    0  0.15612915580E+03  0.20244494121E+03  0.21590298815E+03  0.34702861437E+03  0.91948308232E+02 0.  0.
        254    2    1    2    0    0 -0.15612915580E+03 -0.20244494121E+03 -0.12151686444E+04  0.15399261381E+04  0.91070160258E+03 0.  0.
        -24    2    4    4    0    0  0.23529436580E+03  0.95540375245E+02 -0.49662640273E+02  0.27234300979E+03  0.84929001286E+02 0.  0.
         24    2    4    4    0    0 -0.39142352161E+03 -0.29798531645E+03 -0.11655060042E+04  0.12675831283E+04  0.79719002855E+02 0.  0.
         11    1    3    3    0    0  0.14203017490E+03  0.19711987991E+03  0.22352504490E+03  0.33013976333E+03  0.00000000000E+00 0. -1.
        -11    1    3    3    0    0  0.14098980905E+02  0.53250612981E+01 -0.76220567441E+01  0.16888851039E+02  0.00000000000E+00 0.  1.
          2    1    6    6  502    0 -0.79133735034E+02 -0.25180409032E+02 -0.17130194272E+03  0.19036952645E+03  0.00000000000E+00 0. -1.
          3    1    5    5  503    0  0.38075920381E+02  0.39736740270E+01  0.21058620437E+02  0.43692462655E+02  0.00000000000E+00 0. -1.
         -4    1    5    5    0  503  0.19721844542E+03  0.91566701218E+02 -0.70721260710E+02  0.22865054713E+03  0.00000000000E+00 0.  1.
         -1    1    6    6    0  502 -0.31228978657E+03 -0.27280490742E+03 -0.99420406143E+03  0.10772136019E+04  0.00000000000E+00 0.  1.
<mgrwt>
<rscale>  0 0.16006456E+04</rscale>
<asrwt>0</asrwt>
<pdfrwt beam="1">  1        4 0.22201695E+00 0.16006456E+04</pdfrwt>
<pdfrwt beam="2">  1       -4 0.68283778E-01 0.16006456E+04</pdfrwt>
<totfact> 0.35951695E-01</totfact>
</mgrwt>
</event>
<event>
12    1  0.2588309E-007  0.2012819E+04  0.7818608E-02  0.8600651E-01
         -2   -1    0    0    0  501 -0.00000000000E+00  0.00000000000E+00  0.48397376584E+03  0.48397376584E+03  0.00000000000E+00 0.  1.
          2   -1    0    0  501    0  0.00000000000E+00 -0.00000000000E+00 -0.20927995657E+04  0.20927995657E+04  0.00000000000E+00 0. -1.
         23    2    1    2    0    0 -0.15124660601E+03 -0.78598334430E+03 -0.58115230916E+03  0.99324851109E+03  0.90328539185E+02 0.  0.
        254    2    1    2    0    0  0.15124660601E+03  0.78598334430E+03 -0.10276734907E+04  0.15835248204E+04  0.90044028128E+03 0.  0.
        -24    2    4    4    0    0  0.49722359097E+03  0.65483195760E+03 -0.71393867253E+03  0.10919374238E+04  0.81133946821E+02 0.  0.
         24    2    4    4    0    0 -0.34597698496E+03  0.13115138670E+03 -0.31373481813E+03  0.49158739659E+03  0.79547922802E+02 0.  0.
         11    1    3    3    0    0 -0.14339464957E+03 -0.53264122243E+03 -0.41287767033E+03  0.68901137002E+03  0.00000000000E+00 0. -1.
        -11    1    3    3    0    0 -0.78519564383E+01 -0.25334212187E+03 -0.16827463884E+03  0.30423714107E+03  0.00000000000E+00 0.  1.
          2    1    6    6  502    0 -0.14381898534E+03  0.77546185502E+02 -0.18118044761E+03  0.24397472416E+03  0.00000000000E+00 0. -1.
          1    1    5    5  503    0  0.17026297765E+02  0.17148891436E+02 -0.58197289308E+01  0.24856559253E+02  0.00000000000E+00 0. -1.
         -4    1    5    5    0  503  0.48019729320E+03  0.63768306617E+03 -0.70811894360E+03  0.10670808646E+04  0.00000000000E+00 0.  1.
         -1    1    6    6    0  502 -0.20215799962E+03  0.53605201193E+02 -0.13255437052E+03  0.24761267243E+03  0.00000000000E+00 0.  1.
<mgrwt>
<rscale>  0 0.20128190E+04</rscale>
<asrwt>0</asrwt>
<pdfrwt beam="1">  1        2 0.32196917E+00 0.20128190E+04</pdfrwt>
<pdfrwt beam="2">  1       -2 0.74457501E-01 0.20128190E+04</pdfrwt>
<totfact> 0.89312197E+00</totfact>
</mgrwt>
</event>
<event>
12    1  0.2588309E-007  0.2092934E+04  0.7818608E-02  0.8564362E-01
          1   -1    0    0  501    0  0.00000000000E+00  0.00000000000E+00  0.12180051952E+04  0.12180051952E+04  0.00000000000E+00 0. -1.
         -1   -1    0    0    0  501 -0.00000000000E+00 -0.00000000000E+00 -0.89908766972E+03  0.89908766972E+03  0.00000000000E+00 0.  1.
         23    2    1    2    0    0  0.31458111908E+03 -0.78910288559E+03  0.10857797854E+03  0.86136325007E+03  0.92264980506E+02 0.  0.
        254    2    1    2    0    0 -0.31458111908E+03  0.78910288559E+03  0.21033954692E+03  0.12557296148E+04  0.90053844784E+03 0.  0.
        -24    2    4    4    0    0 -0.17151584094E+03  0.83106047536E+03 -0.14296793909E+03  0.86423374004E+03  0.79880713601E+02 0.  0.
         24    2    4    4    0    0 -0.14306527814E+03 -0.41957589776E+02  0.35330748601E+03  0.39149587479E+03  0.78833540820E+02 0.  0.
         13    1    3    3    0    0  0.81393852435E+02 -0.22270310137E+03 -0.10623257550E+02  0.23734886597E+03  0.00000000000E+00 0.  1.
        -13    1    3    3    0    0  0.23318726665E+03 -0.56639978421E+03  0.11920123609E+03  0.62401438410E+03  0.00000000000E+00 0. -1.
          4    1    6    6  502    0 -0.50981037718E+02 -0.46107787346E+02  0.95199574687E+02  0.11742211581E+03  0.00000000000E+00 0. -1.
          3    1    5    5  503    0 -0.36749020015E+02  0.24310921107E+03 -0.75890397951E+02  0.25731679207E+03  0.00000000000E+00 0. -1.
         -4    1    5    5    0  503 -0.13476682092E+03  0.58795126429E+03 -0.67077541144E+02  0.60691694797E+03  0.00000000000E+00 0.  1.
         -3    1    6    6    0  502 -0.92084240424E+02  0.41501975705E+01  0.25810791133E+03  0.27407375898E+03  0.00000000000E+00 0.  1.
<mgrwt>
<rscale>  0 0.20929343E+04</rscale>
<asrwt>0</asrwt>
<pdfrwt beam="1">  1        1 0.18738541E+00 0.20929343E+04</pdfrwt>
<pdfrwt beam="2">  1       -1 0.13832118E+00 0.20929343E+04</pdfrwt>
<totfact> 0.41271790E+00</totfact>
</mgrwt>
</event>
<event>
12    1  0.2588309E-007  0.2992717E+04  0.7818608E-02  0.8245814E-01
         -1   -1    0    0    0  501 -0.00000000000E+00  0.00000000000E+00  0.95187714974E+03  0.95187714974E+03  0.00000000000E+00 0.  1.
          1   -1    0    0  501    0  0.00000000000E+00 -0.00000000000E+00 -0.23522882426E+04  0.23522882426E+04  0.00000000000E+00 0. -1.
         23    2    1    2    0    0 -0.96214373424E+03 -0.94131324313E+03 -0.84739006322E+03  0.15924901277E+04  0.78509238033E+02 0.  0.
        254    2    1    2    0    0  0.96214373424E+03  0.94131324313E+03 -0.55302102967E+03  0.17116752647E+04  0.90122625656E+03 0.  0.
        -24    2    4    4    0    0 -0.16109293909E+03  0.90451043394E+02 -0.70713085167E+01  0.19834653899E+03  0.71826317244E+02 0.  0.
         24    2    4    4    0    0  0.11232366733E+04  0.85086219974E+03 -0.54594972116E+03  0.15133287257E+04  0.80471279378E+02 0.  0.
         13    1    3    3    0    0 -0.56864806795E+03 -0.53069645136E+03 -0.52967844360E+03  0.94104123305E+03  0.00000000000E+00 0. -1.
        -13    1    3    3    0    0 -0.39349566629E+03 -0.41061679177E+03 -0.31771161962E+03  0.65144889463E+03  0.00000000000E+00 0.  1.
          2    1    6    6  502    0  0.15928483167E+03  0.11472122869E+03 -0.47179683429E+02  0.20188744498E+03  0.00000000000E+00 0. -1.
          3    1    5    5  503    0 -0.23266139502E+02 -0.10897155227E+02 -0.91024319445E+01  0.27256476417E+02  0.00000000000E+00 0. -1.
         -2    1    5    5    0  503 -0.13782679959E+03  0.10134819862E+03  0.20311234277E+01  0.17109006257E+03  0.00000000000E+00 0.  1.
         -1    1    6    6    0  502  0.96395184166E+03  0.73614097105E+03 -0.49877003773E+03  0.13114412807E+04  0.00000000000E+00 0.  1.
<mgrwt>
<rscale>  0 0.29927174E+04</rscale>
<asrwt>0</asrwt>
<pdfrwt beam="1">  1        1 0.36189050E+00 0.29927174E+04</pdfrwt>
<pdfrwt beam="2">  1       -1 0.14644264E+00 0.29927174E+04</pdfrwt>
<totfact> 0.54286715E-01</totfact>
</mgrwt>
</event>
<event>
12    1  0.2588309E-007  0.4679023E+04  0.7818608E-02  0.7880023E-01
         -1   -1    0    0    0  501 -0.00000000000E+00  0.00000000000E+00  0.15234693386E+04  0.15234693386E+04  0.00000000000E+00 0.  1.
          1   -1    0    0  501    0  0.00000000000E+00 -0.00000000000E+00 -0.35926638269E+04  0.35926638269E+04  0.00000000000E+00 0. -1.
         23    2    1    2    0    0 -0.46266619691E+03  0.15829028558E+04  0.67983647749E+03  0.17862846495E+04  0.94835395219E+02 0.  0.
        254    2    1    2    0    0  0.46266619691E+03 -0.15829028558E+04 -0.27490309658E+04  0.33298485161E+04  0.90059892772E+03 0.  0.
        -24    2    4    4    0    0  0.30122425332E+03 -0.16051754786E+04 -0.21319763430E+04  0.26868070978E+04  0.79277273099E+02 0.  0.
         24    2    4    4    0    0  0.16144194358E+03  0.22272622811E+02 -0.61705462284E+03  0.64304141829E+03  0.78652954098E+02 0.  0.
         13    1    3    3    0    0 -0.30099221887E+03  0.11780808338E+04  0.50450742167E+03  0.13164340110E+04  0.00000000000E+00 0.  1.
        -13    1    3    3    0    0 -0.16167397803E+03  0.40482202199E+03  0.17532905582E+03  0.46985063847E+03  0.00000000000E+00 0. -1.
          2    1    6    6  502    0  0.90713559163E+01  0.15555815501E+02 -0.16438122189E+03  0.16536462440E+03  0.00000000000E+00 0. -1.
          3    1    5    5  503    0  0.16409982477E+03 -0.66773605245E+03 -0.91110385166E+03  0.11414510137E+04  0.00000000000E+00 0. -1.
         -4    1    5    5    0  503  0.13712442856E+03 -0.93743942615E+03 -0.12208724913E+04  0.15453560841E+04  0.00000000000E+00 0.  1.
         -1    1    6    6    0  502  0.15237058767E+03  0.67168073098E+01 -0.45267340095E+03  0.47767679388E+03  0.00000000000E+00 0.  1.
<mgrwt>
<rscale>  0 0.46790226E+04</rscale>
<asrwt>0</asrwt>
<pdfrwt beam="1">  1        1 0.55271751E+00 0.46790226E+04</pdfrwt>
<pdfrwt beam="2">  1       -1 0.23437990E+00 0.46790226E+04</pdfrwt>
<totfact> 0.13766433E-02</totfact>
</mgrwt>
</event>
<event>
12    1  0.2588309E-007  0.2591805E+04  0.7818608E-02  0.8370990E-01
         -1   -1    0    0    0  501 -0.00000000000E+00  0.00000000000E+00  0.48530259328E+04  0.48530259328E+04  0.00000000000E+00 0.  1.
          1   -1    0    0  501    0  0.00000000000E+00 -0.00000000000E+00 -0.34604461404E+03  0.34604461404E+03  0.00000000000E+00 0. -1.
         23    2    1    2    0    0  0.10438587895E+04  0.44520836949E+03  0.18328848996E+04  0.21574596235E+04  0.85517877727E+02 0.  0.
        254    2    1    2    0    0 -0.10438587895E+04 -0.44520836949E+03  0.26740964191E+04  0.30416109233E+04  0.90152852704E+03 0.  0.
        -24    2    4    4    0    0  0.54233346833E+02  0.24902389323E+02 -0.11833121526E+02  0.10091158813E+03  0.80509260030E+02 0.  0.
         24    2    4    4    0    0 -0.10980921363E+04 -0.47011075881E+03  0.26859295407E+04  0.29406993351E+04  0.81759506561E+02 0.  0.
         13    1    3    3    0    0  0.79027493700E+03  0.30943840773E+03  0.14190472413E+04  0.16534756355E+04  0.00000000000E+00 0.  1.
        -13    1    3    3    0    0  0.25358385248E+03  0.13576996177E+03  0.41383765829E+03  0.50398398801E+03  0.00000000000E+00 0. -1.
          2    1    6    6  502    0 -0.42755627580E+03 -0.19924525508E+03  0.97036380485E+03  0.10789388094E+04  0.00000000000E+00 0. -1.
          3    1    5    5  503    0  0.65349648433E+02 -0.76691604818E+01 -0.79866405045E+01  0.66281060638E+02  0.00000000000E+00 0. -1.
         -4    1    5    5    0  503 -0.11116301599E+02  0.32571549805E+02 -0.38464810219E+01  0.34630527489E+02  0.00000000000E+00 0.  1.
         -1    1    6    6    0  502 -0.67053586051E+03 -0.27086550373E+03  0.17155657358E+04  0.18617605257E+04  0.00000000000E+00 0.  1.
<mgrwt>
<rscale>  0 0.25918052E+04</rscale>
<asrwt>0</asrwt>
<pdfrwt beam="1">  1        1 0.53237637E-01 0.25918052E+04</pdfrwt>
<pdfrwt beam="2">  1       -1 0.74661932E+00 0.25918052E+04</pdfrwt>
<totfact> 0.84211166E-03</totfact>
</mgrwt>
</event>
<event>
12    1  0.2588309E-007  0.1825300E+04  0.7818608E-02  0.8692960E-01
          2   -1    0    0  501    0  0.00000000000E+00  0.00000000000E+00  0.15119366348E+04  0.15119366348E+04  0.00000000000E+00 0. -1.
         -2   -1    0    0    0  501 -0.00000000000E+00 -0.00000000000E+00 -0.55090260458E+03  0.55090260458E+03  0.00000000000E+00 0.  1.
         23    2    1    2    0    0  0.15056085475E+03 -0.41184344050E+03  0.96380013206E+03  0.10620344723E+04  0.81993508142E+02 0.  0.
        254    2    1    2    0    0 -0.15056085475E+03  0.41184344050E+03 -0.27661018793E+01  0.10008047670E+04  0.89962155372E+03 0.  0.
        -24    2    4    4    0    0 -0.13139993352E+03  0.62187604001E+03 -0.22944563658E+03  0.68049019699E+03  0.80161439511E+02 0.  0.
         24    2    4    4    0    0 -0.19160921224E+02 -0.21003259951E+03  0.22667953470E+03  0.32031457004E+03  0.82079099470E+02 0.  0.
         13    1    3    3    0    0 -0.93626013662E+01 -0.13212803465E+02  0.27409255835E+02  0.31835574209E+02  0.00000000000E+00 0.  1.
        -13    1    3    3    0    0  0.15992345611E+03 -0.39863063704E+03  0.93639087622E+03  0.10301988981E+04  0.00000000000E+00 0. -1.
          4    1    6    6  502    0 -0.27397918778E+02 -0.15988619632E+02  0.25697860021E+02  0.40824770921E+02  0.00000000000E+00 0. -1.
          1    1    5    5  503    0 -0.15202641691E+02  0.25688019940E+03 -0.82597445294E+02  0.27026079095E+03  0.00000000000E+00 0. -1.
         -2    1    5    5    0  503 -0.11619729183E+03  0.36499584061E+03 -0.14684819129E+03  0.41022940604E+03  0.00000000000E+00 0.  1.
         -3    1    6    6    0  502  0.82369975533E+01 -0.19404397987E+03  0.20098167468E+03  0.27948979912E+03  0.00000000000E+00 0.  1.
<mgrwt>
<rscale>  0 0.18252998E+04</rscale>
<asrwt>0</asrwt>
<pdfrwt beam="1">  1        2 0.23260563E+00 0.18252998E+04</pdfrwt>
<pdfrwt beam="2">  1       -2 0.84754248E-01 0.18252998E+04</pdfrwt>
<totfact> 0.14282402E+01</totfact>
</mgrwt>
</event>
<event>
12    1  0.2588309E-007  0.3440179E+04  0.7818608E-02  0.8128115E-01
          2   -1    0    0  501    0  0.00000000000E+00  0.00000000000E+00  0.18740302912E+04  0.18740302912E+04  0.00000000000E+00 0. -1.
         -2   -1    0    0    0  501 -0.00000000000E+00 -0.00000000000E+00 -0.15787936628E+04  0.15787936628E+04  0.00000000000E+00 0.  1.
         23    2    1    2    0    0  0.13787402345E+04  0.80924342204E+03  0.22530433981E+03  0.16168013309E+04  0.86515591627E+02 0.  0.
        254    2    1    2    0    0 -0.13787402345E+04 -0.80924342204E+03  0.69932288640E+02  0.18360226232E+04  0.90016053978E+03 0.  0.
        -24    2    4    4    0    0 -0.47270080364E+03 -0.78505500576E+03 -0.30142456542E+02  0.92052228710E+03  0.81824822326E+02 0.  0.
         24    2    4    4    0    0 -0.90603943088E+03 -0.24188416288E+02  0.10007474518E+03  0.91550033606E+03  0.81445570225E+02 0.  0.
         11    1    3    3    0    0  0.56986748960E+03  0.33664384297E+03  0.13632857164E+03  0.67576883042E+03  0.00000000000E+00 0. -1.
        -11    1    3    3    0    0  0.80887274491E+03  0.47259957907E+03  0.88975768174E+02  0.94103250046E+03  0.00000000000E+00 0.  1.
          4    1    6    6  502    0 -0.80780763317E+03 -0.37158934448E+02  0.68734956080E+02  0.81157775524E+03  0.00000000000E+00 0. -1.
          3    1    5    5  503    0 -0.38735685303E+03 -0.69631782426E+03 -0.30791137154E+02  0.79740324686E+03  0.00000000000E+00 0. -1.
         -4    1    5    5    0  503 -0.85343950602E+02 -0.88737181493E+02  0.64868061194E+00  0.12311904024E+03  0.00000000000E+00 0.  1.
         -3    1    6    6    0  502 -0.98231797711E+02  0.12970518160E+02  0.31339789102E+02  0.10392258082E+03  0.00000000000E+00 0.  1.
<mgrwt>
<rscale>  0 0.34401786E+04</rscale>
<asrwt>0</asrwt>
<pdfrwt beam="1">  1        2 0.28831235E+00 0.34401786E+04</pdfrwt>
<pdfrwt beam="2">  1       -2 0.24289133E+00 0.34401786E+04</pdfrwt>
<totfact> 0.46079269E-01</totfact>
</mgrwt>
</event>
<event>
12    1  0.2588309E-007  0.3858835E+04  0.7818608E-02  0.8033646E-01
         -2   -1    0    0    0  501 -0.00000000000E+00  0.00000000000E+00  0.13078727895E+04  0.13078727895E+04  0.00000000000E+00 0.  1.
          2   -1    0    0  501    0  0.00000000000E+00 -0.00000000000E+00 -0.28463403031E+04  0.28463403031E+04  0.00000000000E+00 0. -1.
         23    2    1    2    0    0  0.56053616793E+03 -0.14289095401E+04 -0.17896482523E+04  0.23594791073E+04  0.91200446973E+02 0.  0.
        254    2    1    2    0    0 -0.56053616793E+03  0.14289095401E+04  0.25118073870E+03  0.17947339853E+04  0.89554176066E+03 0.  0.
        -24    2    4    4    0    0  0.17752170269E+03  0.68310608819E+03 -0.15077389447E+02  0.70977281711E+03  0.73499942810E+02 0.  0.
         24    2    4    4    0    0 -0.73805787062E+03  0.74580345189E+03  0.26625812815E+03  0.10849611682E+04  0.72767687662E+02 0.  0.
         11    1    3    3    0    0  0.41442898616E+03 -0.99316987608E+03 -0.11998193119E+04  0.16117394853E+04  0.00000000000E+00 0.  1.
        -11    1    3    3    0    0  0.14610718176E+03 -0.43573966400E+03 -0.58982894038E+03  0.74773962196E+03  0.00000000000E+00 0. -1.
          4    1    6    6  502    0 -0.21494689249E+03  0.18260606728E+03  0.49779186916E+02  0.28640026161E+03  0.00000000000E+00 0. -1.
          1    1    5    5  503    0  0.15262016927E+02  0.18722224799E+03 -0.20459228296E+01  0.18785442530E+03  0.00000000000E+00 0. -1.
         -2    1    5    5    0  503  0.16225968576E+03  0.49588384020E+03 -0.13031466617E+02  0.52191839181E+03  0.00000000000E+00 0.  1.
         -3    1    6    6    0  502 -0.52311097812E+03  0.56319738461E+03  0.21647894123E+03  0.79856090655E+03  0.00000000000E+00 0.  1.
<mgrwt>
<rscale>  0 0.38588346E+04</rscale>
<asrwt>0</asrwt>
<pdfrwt beam="1">  1        2 0.43789850E+00 0.38588346E+04</pdfrwt>
<pdfrwt beam="2">  1       -2 0.20121120E+00 0.38588346E+04</pdfrwt>
<totfact> 0.22574130E-01</totfact>
</mgrwt>
</event>
<event>
12    1  0.2588309E-007  0.1881468E+04  0.7818608E-02  0.8664136E-01
          2   -1    0    0  501    0  0.00000000000E+00  0.00000000000E+00  0.77705773646E+03  0.77705773646E+03  0.00000000000E+00 0. -1.
         -2   -1    0    0    0  501 -0.00000000000E+00 -0.00000000000E+00 -0.11388863436E+04  0.11388863436E+04  0.00000000000E+00 0.  1.
         23    2    1    2    0    0  0.12036628802E+03  0.54256122667E+03  0.32940001152E+03  0.65158037816E+03  0.84805033055E+02 0.  0.
        254    2    1    2    0    0 -0.12036628802E+03 -0.54256122667E+03 -0.69122861862E+03  0.12643637019E+04  0.90108703209E+03 0.  0.
        -24    2    4    4    0    0 -0.43538533805E+03 -0.19750473571E+02 -0.28054999537E+03  0.52459993893E+03  0.80909345772E+02 0.  0.
         24    2    4    4    0    0  0.31501905003E+03 -0.52281075310E+03 -0.41067862325E+03  0.73976376292E+03  0.77623500939E+02 0.  0.
         13    1    3    3    0    0  0.66190993689E+02  0.20547576670E+03  0.86403914454E+02  0.23252349296E+03  0.00000000000E+00 0.  1.
        -13    1    3    3    0    0  0.54175294328E+02  0.33708545997E+03  0.24299609707E+03  0.41905688520E+03  0.00000000000E+00 0. -1.
          4    1    6    6  502    0  0.17347175995E+03 -0.24722262094E+03 -0.16350656002E+03  0.34343248386E+03  0.00000000000E+00 0. -1.
          1    1    5    5  503    0 -0.20674318653E+03 -0.43677365737E+02 -0.15979394730E+03  0.26492369288E+03  0.00000000000E+00 0. -1.
         -2    1    5    5    0  503 -0.22864215152E+03  0.23926892166E+02 -0.12075604806E+03  0.25967624605E+03  0.00000000000E+00 0.  1.
         -3    1    6    6    0  502  0.14154729009E+03 -0.27558813216E+03 -0.24717206324E+03  0.39633127906E+03  0.00000000000E+00 0.  1.
<mgrwt>
<rscale>  0 0.18814680E+04</rscale>
<asrwt>0</asrwt>
<pdfrwt beam="1">  1        2 0.11954734E+00 0.18814680E+04</pdfrwt>
<pdfrwt beam="2">  1       -2 0.17521328E+00 0.18814680E+04</pdfrwt>
<totfact> 0.65712214E+00</totfact>
</mgrwt>
</event>
<event>
12    1  0.2588309E-007  0.2174404E+04  0.7818608E-02  0.8529158E-01
         -2   -1    0    0    0  501 -0.00000000000E+00  0.00000000000E+00  0.61039034002E+03  0.61039034002E+03  0.00000000000E+00 0.  1.
          2   -1    0    0  501    0  0.00000000000E+00 -0.00000000000E+00 -0.19364788188E+04  0.19364788188E+04  0.00000000000E+00 0. -1.
         23    2    1    2    0    0 -0.13524176517E+03  0.84901446365E+03 -0.24510506865E+03  0.89841277306E+03  0.89180275747E+02 0.  0.
        254    2    1    2    0    0  0.13524176517E+03 -0.84901446365E+03 -0.10809834101E+04  0.16484563858E+04  0.89987078420E+03 0.  0.
        -24    2    4    4    0    0  0.24151100386E+03  0.10029384994E+03 -0.34253638148E+03  0.43854690105E+03  0.81276014020E+02 0.  0.
         24    2    4    4    0    0 -0.10626923870E+03 -0.94930831359E+03 -0.73844702864E+03  0.12099094847E+04  0.78086629763E+02 0.  0.
         13    1    3    3    0    0 -0.43177859392E+02  0.33783858289E+03 -0.14133695565E+03  0.36874838394E+03  0.00000000000E+00 0. -1.
        -13    1    3    3    0    0 -0.92063905775E+02  0.51117588076E+03 -0.10376811301E+03  0.52966438912E+03  0.00000000000E+00 0.  1.
          2    1    6    6  502    0 -0.28672948786E+02 -0.69383296237E+02 -0.56373183484E+02  0.93883521477E+02  0.00000000000E+00 0. -1.
          3    1    5    5  503    0  0.46459818843E+01  0.89656108435E+01  0.22874840424E+01  0.10353738876E+02  0.00000000000E+00 0. -1.
         -4    1    5    5    0  503  0.23686502198E+03  0.91328239098E+02 -0.34482386553E+03  0.42819316217E+03  0.00000000000E+00 0.  1.
         -1    1    6    6    0  502 -0.77596289909E+02 -0.87992501736E+03 -0.68207384516E+03  0.11160259632E+04  0.00000000000E+00 0.  1.
<mgrwt>
<rscale>  0 0.21744038E+04</rscale>
<asrwt>0</asrwt>
<pdfrwt beam="1">  1        2 0.29791981E+00 0.21744038E+04</pdfrwt>
<pdfrwt beam="2">  1       -2 0.93906207E-01 0.21744038E+04</pdfrwt>
<totfact> 0.63561771E+00</totfact>
</mgrwt>
</event>
<event>
12    1  0.2588309E-007  0.1437877E+04  0.7818608E-02  0.8926849E-01
         -2   -1    0    0    0  501 -0.00000000000E+00  0.00000000000E+00  0.80703583938E+03  0.80703583938E+03  0.00000000000E+00 0.  1.
          2   -1    0    0  501    0  0.00000000000E+00 -0.00000000000E+00 -0.64045763415E+03  0.64045763415E+03  0.00000000000E+00 0. -1.
         23    2    1    2    0    0  0.34145443204E+03 -0.25403962555E+03 -0.13062064371E+02  0.43563522044E+03  0.92087823591E+02 0.  0.
        254    2    1    2    0    0 -0.34145443204E+03  0.25403962555E+03  0.17964026961E+03  0.10118582531E+04  0.90025509572E+03 0.  0.
        -24    2    4    4    0    0 -0.17131897567E+03 -0.18658770366E+03  0.40326820442E+03  0.48294291180E+03  0.80271095547E+02 0.  0.
         24    2    4    4    0    0 -0.17013545637E+03  0.44062732921E+03 -0.22362793481E+03  0.52891534129E+03  0.81507473658E+02 0.  0.
         13    1    3    3    0    0  0.29787360575E+03 -0.21387606137E+03 -0.43037094876E+02  0.36922059283E+03  0.00000000000E+00 0. -1.
        -13    1    3    3    0    0  0.43580826289E+02 -0.40163564180E+02  0.29975030505E+02  0.66414627617E+02  0.00000000000E+00 0.  1.
          2    1    6    6  502    0 -0.15765224789E+03  0.43607359246E+03 -0.20746710812E+03  0.50799312028E+03  0.00000000000E+00 0. -1.
          3    1    5    5  503    0 -0.15557862779E+03 -0.18489428080E+03  0.33619166414E+03  0.41402347703E+03  0.00000000000E+00 0. -1.
         -4    1    5    5    0  503 -0.15740347879E+02 -0.16934228545E+01  0.67076540280E+02  0.68919434764E+02  0.00000000000E+00 0.  1.
         -1    1    6    6    0  502 -0.12483208485E+02  0.45537367510E+01 -0.16160826692E+02  0.20922221006E+02  0.00000000000E+00 0.  1.
<mgrwt>
<rscale>  0 0.14378766E+04</rscale>
<asrwt>0</asrwt>
<pdfrwt beam="1">  1        2 0.98531944E-01 0.14378766E+04</pdfrwt>
<pdfrwt beam="2">  1       -2 0.12415936E+00 0.14378766E+04</pdfrwt>
<totfact> 0.21670467E+01</totfact>
</mgrwt>
</event>
<event>
12    1  0.2588309E-007  0.2012091E+04  0.7818608E-02  0.8600989E-01
         -2   -1    0    0    0  501 -0.00000000000E+00  0.00000000000E+00  0.78821249970E+03  0.78821249970E+03  0.00000000000E+00 0.  1.
          2   -1    0    0  501    0  0.00000000000E+00 -0.00000000000E+00 -0.12840790706E+04  0.12840790706E+04  0.00000000000E+00 0. -1.
         23    2    1    2    0    0  0.23034580408E+03  0.68028304673E+03  0.16572058319E+03  0.74225135934E+03  0.87347327555E+02 0.  0.
        254    2    1    2    0    0 -0.23034580408E+03 -0.68028304673E+03 -0.66158715409E+03  0.13300402110E+04  0.90303111086E+03 0.  0.
        -24    2    4    4    0    0 -0.31970091101E+03 -0.98736041036E+02  0.10561850600E+03  0.35989784191E+03  0.80085638563E+02 0.  0.
         24    2    4    4    0    0  0.89355106927E+02 -0.58154700569E+03 -0.76720566009E+03  0.97014236905E+03  0.79940205017E+02 0.  0.
         13    1    3    3    0    0  0.12857838594E+03  0.33060850778E+03  0.12356852765E+03  0.37563754841E+03  0.00000000000E+00 0. -1.
        -13    1    3    3    0    0  0.10176741814E+03  0.34967453895E+03  0.42152055542E+02  0.36661381094E+03  0.00000000000E+00 0.  1.
          4    1    6    6  502    0  0.64321244810E+02 -0.48711823511E+03 -0.68168387641E+03  0.84030607809E+03  0.00000000000E+00 0. -1.
          3    1    5    5  503    0 -0.26499094117E+03 -0.48365784860E+02  0.89068288469E+02  0.28371219229E+03  0.00000000000E+00 0. -1.
         -4    1    5    5    0  503 -0.54709969841E+02 -0.50370256176E+02  0.16550217531E+02  0.76185649618E+02  0.00000000000E+00 0.  1.
         -3    1    6    6    0  502  0.25033862117E+02 -0.94428770581E+02 -0.85521783680E+02  0.12983629096E+03  0.00000000000E+00 0.  1.
<mgrwt>
<rscale>  0 0.20120906E+04</rscale>
<asrwt>0</asrwt>
<pdfrwt beam="1">  1        2 0.19755062E+00 0.20120906E+04</pdfrwt>
<pdfrwt beam="2">  1       -2 0.12126346E+00 0.20120906E+04</pdfrwt>
<totfact> 0.81111632E+00</totfact>
</mgrwt>
</event>
<event>
12    1  0.2588309E-007  0.1165793E+04  0.7818608E-02  0.9143336E-01
         -4   -1    0    0    0  501 -0.00000000000E+00  0.00000000000E+00  0.28231706689E+03  0.28231706689E+03  0.00000000000E+00 0.  1.
          4   -1    0    0  501    0  0.00000000000E+00 -0.00000000000E+00 -0.12034990994E+04  0.12034990994E+04  0.00000000000E+00 0. -1.
         23    2    1    2    0    0 -0.10504503110E+02 -0.14553158911E+03  0.19976593378E+02  0.17544952036E+03  0.95360798537E+02 0.  0.
        254    2    1    2    0    0  0.10504503110E+02  0.14553158911E+03 -0.94115862593E+03  0.13103666460E+04  0.89999522206E+03 0.  0.
        -24    2    4    4    0    0  0.36324717476E+03 -0.15905290865E+03 -0.61400282495E+03  0.73522711746E+03  0.79455065881E+02 0.  0.
         24    2    4    4    0    0 -0.35274267165E+03  0.30458449775E+03 -0.32715580098E+03  0.57513952852E+03  0.80965736419E+02 0.  0.
         11    1    3    3    0    0 -0.46281742258E+02 -0.10982367458E+03  0.32188324326E+02  0.12344767065E+03  0.00000000000E+00 0.  1.
        -11    1    3    3    0    0  0.35777239148E+02 -0.35707914527E+02 -0.12211730948E+02  0.52001849714E+02  0.00000000000E+00 0. -1.
          4    1    6    6  502    0 -0.35259498667E+03  0.30885817213E+03 -0.32381186432E+03  0.56971108344E+03  0.00000000000E+00 0. -1.
          1    1    5    5  503    0  0.28321722566E+03 -0.13715979961E+03 -0.53485690855E+03  0.62056161673E+03  0.00000000000E+00 0. -1.
         -2    1    5    5    0  503  0.80029949096E+02 -0.21893109039E+02 -0.79145916402E+02  0.11466550073E+03  0.00000000000E+00 0.  1.
         -3    1    6    6    0  502 -0.14768497766E+00 -0.42736743809E+01 -0.33439366594E+01  0.54284450765E+01  0.00000000000E+00 0.  1.
<mgrwt>
<rscale>  0 0.11657930E+04</rscale>
<asrwt>0</asrwt>
<pdfrwt beam="1">  1        4 0.18515371E+00 0.11657930E+04</pdfrwt>
<pdfrwt beam="2">  1       -4 0.43433394E-01 0.11657930E+04</pdfrwt>
<totfact> 0.16870082E+00</totfact>
</mgrwt>
</event>
<event>
12    1  0.2588309E-007  0.2776085E+04  0.7818608E-02  0.8310732E-01
          2   -1    0    0  501    0  0.00000000000E+00  0.00000000000E+00  0.15773067815E+04  0.15773067815E+04  0.00000000000E+00 0. -1.
         -2   -1    0    0    0  501 -0.00000000000E+00 -0.00000000000E+00 -0.12214883242E+04  0.12214883242E+04  0.00000000000E+00 0.  1.
         23    2    1    2    0    0  0.37817384629E+03 -0.11512967628E+04 -0.10518604589E+03  0.12199303353E+04  0.93092560270E+02 0.  0.
        254    2    1    2    0    0 -0.37817384629E+03  0.11512967628E+04  0.46100450323E+03  0.15788647704E+04  0.90099340574E+03 0.  0.
        -24    2    4    4    0    0 -0.32028830459E+03  0.10588477287E+04  0.11185560229E+02  0.11091512220E+04  0.79675628282E+02 0.  0.
         24    2    4    4    0    0 -0.57885541699E+02  0.92449034045E+02  0.44981894300E+03  0.46971354842E+03  0.79976098013E+02 0.  0.
         13    1    3    3    0    0  0.23927362696E+03 -0.61406655294E+03 -0.86814575681E+02  0.66473029911E+03  0.00000000000E+00 0. -1.
        -13    1    3    3    0    0  0.13890021933E+03 -0.53723020984E+03 -0.18371470212E+02  0.55520003622E+03  0.00000000000E+00 0.  1.
          2    1    6    6  502    0 -0.30019044396E+02  0.17812966538E+02  0.27963143215E+03  0.28180167255E+03  0.00000000000E+00 0. -1.
          3    1    5    5  503    0 -0.24831653826E+03  0.91629819500E+03  0.56026965347E+01  0.94936551209E+03  0.00000000000E+00 0. -1.
         -4    1    5    5    0  503 -0.71971766326E+02  0.14254953374E+03  0.55828636939E+01  0.15978570989E+03  0.00000000000E+00 0.  1.
         -1    1    6    6    0  502 -0.27866497303E+02  0.74636067507E+02  0.17018751084E+03  0.18791187587E+03  0.00000000000E+00 0.  1.
<mgrwt>
<rscale>  0 0.27760849E+04</rscale>
<asrwt>0</asrwt>
<pdfrwt beam="1">  1        2 0.24266258E+00 0.27760849E+04</pdfrwt>
<pdfrwt beam="2">  1       -2 0.18792128E+00 0.27760849E+04</pdfrwt>
<totfact> 0.16029099E+00</totfact>
</mgrwt>
</event>
<event>
12    1  0.2588309E-007  0.1138324E+04  0.7818608E-02  0.9168623E-01
          2   -1    0    0  501    0  0.00000000000E+00  0.00000000000E+00  0.52178644198E+03  0.52178644198E+03  0.00000000000E+00 0.  1.
         -2   -1    0    0    0  501 -0.00000000000E+00 -0.00000000000E+00 -0.62083954883E+03  0.62083954883E+03  0.00000000000E+00 0. -1.
         23    2    1    2    0    0  0.12926737974E+03 -0.14131475824E+03 -0.24303420946E+01  0.21304002198E+03  0.93275012965E+02 0.  0.
        254    2    1    2    0    0 -0.12926737974E+03  0.14131475824E+03 -0.96622764760E+02  0.92958596882E+03  0.90449665472E+03 0.  0.
        -24    2    4    4    0    0 -0.36445783615E+03  0.23774270396E+03 -0.34845885662E+03  0.56322815083E+03  0.80319782829E+02 0.  0.
         24    2    4    4    0    0  0.23519045641E+03 -0.96427945715E+02  0.25183609186E+03  0.36635781800E+03  0.78636722598E+02 0.  0.
         11    1    3    3    0    0  0.60438312962E+02 -0.10826414017E+03  0.33816199226E+02  0.12852022817E+03  0.00000000000E+00 0.  1.
        -11    1    3    3    0    0  0.68829066773E+02 -0.33050618076E+02 -0.36246541321E+02  0.84519793811E+02  0.00000000000E+00 0. -1.
          4    1    6    6  502    0 -0.17137303933E+01 -0.10865310816E+01 -0.42463939934E+01  0.47063025402E+01  0.00000000000E+00 0. -1.
          3    1    5    5  503    0 -0.86799553698E+02  0.86998749628E+02 -0.13138117787E+03  0.17989985785E+03  0.00000000000E+00 0. -1.
         -4    1    5    5    0  503 -0.27765828245E+03  0.15074395433E+03 -0.21707767875E+03  0.38332829297E+03  0.00000000000E+00 0.  1.
         -3    1    6    6    0  502  0.23690418681E+03 -0.95341414633E+02  0.25608248585E+03  0.36165151546E+03  0.00000000000E+00 0.  1.
<mgrwt>
<rscale>  0 0.11383245E+04</rscale>
<asrwt>0</asrwt>
<pdfrwt beam="1">  1        2 0.80274838E-01 0.11383245E+04</pdfrwt>
<pdfrwt beam="2">  1       -2 0.95513776E-01 0.11383245E+04</pdfrwt>
<totfact> 0.53425973E+01</totfact>
</mgrwt>
</event>
<event>
12    1  0.2588309E-007  0.1284978E+04  0.7818608E-02  0.9041563E-01
         -1   -1    0    0    0  501 -0.00000000000E+00  0.00000000000E+00  0.24009339557E+03  0.24009339557E+03  0.00000000000E+00 0.  1.
          1   -1    0    0  501    0  0.00000000000E+00 -0.00000000000E+00 -0.17192986086E+04  0.17192986086E+04  0.00000000000E+00 0. -1.
         23    2    1    2    0    0 -0.28521872157E+03 -0.10756687331E+03 -0.24594629077E+03  0.40240978307E+03  0.92323909139E+02 0.  0.
        254    2    1    2    0    0  0.28521872157E+03  0.10756687331E+03 -0.12332589222E+04  0.15569822211E+04  0.90019204400E+03 0.  0.
        -24    2    4    4    0    0 -0.34668734784E+02  0.42381220824E+03 -0.87627993586E+03  0.97734204633E+03  0.80698454180E+02 0.  0.
         24    2    4    4    0    0  0.31988745635E+03 -0.31624533493E+03 -0.35697898635E+03  0.57964017472E+03  0.78801261796E+02 0.  0.
         11    1    3    3    0    0 -0.11724382873E+03 -0.79983852670E+02 -0.15208571196E+03  0.20802306565E+03  0.00000000000E+00 0. -1.
        -11    1    3    3    0    0 -0.16797489284E+03 -0.27583020636E+02 -0.93860578817E+02  0.19438671741E+03  0.00000000000E+00 0.  1.
          4    1    6    6  502    0  0.22596230176E+03 -0.26142538061E+03 -0.24533197595E+03  0.42378056806E+03  0.00000000000E+00 0. -1.
          3    1    5    5  503    0 -0.24180441337E+02  0.40517672010E+03 -0.78663882510E+03  0.88518557908E+03  0.00000000000E+00 0. -1.
         -4    1    5    5    0  503 -0.10488293448E+02  0.18635488136E+02 -0.89641110756E+02  0.92156467245E+02  0.00000000000E+00 0.  1.
         -3    1    6    6    0  502  0.93925154592E+02 -0.54819954319E+02 -0.11164701040E+03  0.15585960666E+03  0.00000000000E+00 0.  1.
<mgrwt>
<rscale>  0 0.12849782E+04</rscale>
<asrwt>0</asrwt>
<pdfrwt beam="1">  1        1 0.26450749E+00 0.12849782E+04</pdfrwt>
<pdfrwt beam="2">  1       -1 0.36937444E-01 0.12849782E+04</pdfrwt>
<totfact> 0.32033186E+01</totfact>
</mgrwt>
</event>
<event>
12    1  0.2588309E-007  0.3368838E+04  0.7818608E-02  0.8145597E-01
         -2   -1    0    0    0  501 -0.00000000000E+00  0.00000000000E+00  0.67580881277E+03  0.67580881277E+03  0.00000000000E+00 0.  1.
          2   -1    0    0  501    0  0.00000000000E+00 -0.00000000000E+00 -0.41983278992E+04  0.41983278992E+04  0.00000000000E+00 0. -1.
         23    2    1    2    0    0  0.95603442442E+03 -0.77880461816E+03 -0.30265173526E+04  0.32693641999E+04  0.91632595065E+02 0.  0.
        254    2    1    2    0    0 -0.95603442442E+03  0.77880461816E+03 -0.49600173384E+03  0.16047725120E+04  0.89929897220E+03 0.  0.
        -24    2    4    4    0    0 -0.82185568068E+03  0.88704672464E+03 -0.16492948163E+03  0.12230869784E+04  0.80258154151E+02 0.  0.
         24    2    4    4    0    0 -0.13417874374E+03 -0.10824210648E+03 -0.33107225221E+03  0.38168553359E+03  0.79716506985E+02 0.  0.
         11    1    3    3    0    0  0.32728013557E+03 -0.29381885734E+03 -0.97886643866E+03  0.10731362042E+04  0.00000000000E+00 0. -1.
        -11    1    3    3    0    0  0.62875428886E+03 -0.48498576082E+03 -0.20476509139E+04  0.21962279957E+04  0.00000000000E+00 0.  1.
          4    1    6    6  502    0 -0.19086929942E+02  0.12641940980E+02 -0.35503207598E+02  0.42244612865E+02  0.00000000000E+00 0. -1.
          3    1    5    5  503    0 -0.53023613954E+03  0.55821308544E+03 -0.67151362417E+02  0.77282696505E+03  0.00000000000E+00 0. -1.
         -4    1    5    5    0  503 -0.29161954114E+03  0.32883363920E+03 -0.97778119215E+02  0.45026001337E+03  0.00000000000E+00 0.  1.
         -3    1    6    6    0  502 -0.11509181380E+03 -0.12088404746E+03 -0.29556904461E+03  0.33944092073E+03  0.00000000000E+00 0.  1.
<mgrwt>
<rscale>  0 0.33688378E+04</rscale>
<asrwt>0</asrwt>
<pdfrwt beam="1">  1        2 0.64589661E+00 0.33688378E+04</pdfrwt>
<pdfrwt beam="2">  1       -2 0.10397059E+00 0.33688378E+04</pdfrwt>
<totfact> 0.14543578E-01</totfact>
</mgrwt>
</event>
<event>
12    1  0.2588309E-007  0.2508305E+04  0.7818608E-02  0.8400033E-01
         -2   -1    0    0    0  501 -0.00000000000E+00  0.00000000000E+00  0.10998544002E+04  0.10998544002E+04  0.00000000000E+00 0.  1.
          2   -1    0    0  501    0  0.00000000000E+00 -0.00000000000E+00 -0.14300975191E+04  0.14300975191E+04  0.00000000000E+00 0. -1.
         23    2    1    2    0    0  0.20339829680E+03  0.10633915200E+04 -0.27876704966E+03  0.11216765172E+04  0.90965649098E+02 0.  0.
        254    2    1    2    0    0 -0.20339829680E+03 -0.10633915200E+04 -0.51476069264E+02  0.14082754020E+04  0.89912036477E+03 0.  0.
        -24    2    4    4    0    0 -0.29881557032E+03 -0.27847965081E+03  0.32508732543E+03  0.52917094750E+03  0.86593657605E+02 0.  0.
         24    2    4    4    0    0  0.95417273525E+02 -0.78491186920E+03 -0.37656339469E+03  0.87910445455E+03  0.76377701510E+02 0.  0.
         11    1    3    3    0    0  0.80679572234E+02  0.23531927591E+03 -0.79639755214E+02  0.26120269065E+03  0.00000000000E+00 0. -1.
        -11    1    3    3    0    0  0.12271872456E+03  0.82807224410E+03 -0.19912729444E+03  0.86047382656E+03  0.00000000000E+00 0.  1.
          2    1    6    6  502    0  0.25963386748E+02 -0.51536790987E+03 -0.24402447295E+03  0.57081181083E+03  0.00000000000E+00 0. -1.
          1    1    5    5  503    0 -0.21936166777E+03 -0.23927153506E+03  0.28482139461E+03  0.43184908892E+03  0.00000000000E+00 0. -1.
         -2    1    5    5    0  503 -0.79453902554E+02 -0.39208115749E+02  0.40265930825E+02  0.97321858577E+02  0.00000000000E+00 0.  1.
         -1    1    6    6    0  502  0.69453886777E+02 -0.26954395933E+03 -0.13253892174E+03  0.30829264372E+03  0.00000000000E+00 0.  1.
<mgrwt>
<rscale>  0 0.25083054E+04</rscale>
<asrwt>0</asrwt>
<pdfrwt beam="1">  1        2 0.22001500E+00 0.25083054E+04</pdfrwt>
<pdfrwt beam="2">  1       -2 0.16920837E+00 0.25083054E+04</pdfrwt>
<totfact> 0.26769782E+00</totfact>
</mgrwt>
</event>
<event>
12    1  0.2588309E-007  0.2784744E+04  0.7818608E-02  0.8308021E-01
         -2   -1    0    0    0  501 -0.00000000000E+00  0.00000000000E+00  0.61983232650E+03  0.61983232650E+03  0.00000000000E+00 0.  1.
          2   -1    0    0  501    0  0.00000000000E+00 -0.00000000000E+00 -0.31277804973E+04  0.31277804973E+04  0.00000000000E+00 0. -1.
         23    2    1    2    0    0 -0.71195511234E+03  0.12388058165E+03  0.23996467461E+03  0.76715880397E+03  0.93397563986E+02 0.  0.
        254    2    1    2    0    0  0.71195511234E+03 -0.12388058165E+03 -0.27479128454E+04  0.29804540198E+04  0.89991926188E+03 0.  0.
        -24    2    4    4    0    0  0.63071534655E+03 -0.28088708264E+03 -0.26891030804E+04  0.27774857001E+04  0.80324564466E+02 0.  0.
         24    2    4    4    0    0  0.81239765786E+02  0.15700650100E+03 -0.58809765016E+02  0.20296831975E+03  0.80539490068E+02 0.  0.
         11    1    3    3    0    0 -0.25582449422E+03  0.82489361218E+02  0.62433269770E+02  0.27595032113E+03  0.00000000000E+00 0. -1.
        -11    1    3    3    0    0 -0.45613061812E+03  0.41391220430E+02  0.17753140484E+03  0.49120848284E+03  0.00000000000E+00 0.  1.
          2    1    6    6  502    0  0.20654891943E+02  0.41397378383E+01  0.11651169474E+02  0.24073050090E+02  0.00000000000E+00 0. -1.
          1    1    5    5  503    0  0.36382731846E+03 -0.16332094495E+03 -0.17089589331E+04  0.17548745493E+04  0.00000000000E+00 0. -1.
         -2    1    5    5    0  503  0.26688802809E+03 -0.11756613769E+03 -0.98014414724E+03  0.10226111507E+04  0.00000000000E+00 0.  1.
         -1    1    6    6    0  502  0.60584873843E+02  0.15286676316E+03 -0.70460934491E+02  0.17889526966E+03  0.00000000000E+00 0.  1.
<mgrwt>
<rscale>  0 0.27847438E+04</rscale>
<asrwt>0</asrwt>
<pdfrwt beam="1">  1        2 0.48119700E+00 0.27847438E+04</pdfrwt>
<pdfrwt beam="2">  1       -2 0.95358820E-01 0.27847438E+04</pdfrwt>
<totfact> 0.11620839E+00</totfact>
</mgrwt>
</event>
<event>
12    1  0.2588309E-007  0.1726744E+04  0.7818608E-02  0.8746257E-01
         -2   -1    0    0    0  501 -0.00000000000E+00  0.00000000000E+00  0.72731863857E+03  0.72731863857E+03  0.00000000000E+00 0.  1.
          2   -1    0    0  501    0  0.00000000000E+00 -0.00000000000E+00 -0.10248756246E+04  0.10248756246E+04  0.00000000000E+00 0. -1.
         23    2    1    2    0    0 -0.61552334463E+03 -0.92065241974E+02 -0.16042198615E+03  0.64926205548E+03  0.91983729412E+02 0.  0.
        254    2    1    2    0    0  0.61552334463E+03  0.92065241974E+02 -0.13713499987E+03  0.11029322077E+04  0.90017134480E+03 0.  0.
        -24    2    4    4    0    0  0.71166094115E+02 -0.30886161466E+03 -0.25107382628E+03  0.41203753893E+03  0.79225988680E+02 0.  0.
         24    2    4    4    0    0  0.54435725051E+03  0.40092685663E+03  0.11393882641E+03  0.69089466875E+03  0.85359396644E+02 0.  0.
         13    1    3    3    0    0 -0.54333821373E+03 -0.56447255121E+02 -0.15831164776E+03  0.56874008556E+03  0.00000000000E+00 0. -1.
        -13    1    3    3    0    0 -0.72185130897E+02 -0.35617986854E+02 -0.21103383909E+01  0.80521969910E+02  0.00000000000E+00 0.  1.
          4    1    6    6  502    0  0.42989020911E+03  0.31378569406E+03  0.12466370313E+03  0.54663341698E+03  0.00000000000E+00 0. -1.
          1    1    5    5  503    0  0.56999687347E+02 -0.25184799565E+03 -0.16035247274E+03  0.30395607048E+03  0.00000000000E+00 0. -1.
         -2    1    5    5    0  503  0.14166406768E+02 -0.57013619011E+02 -0.90721353539E+02  0.10808146845E+03  0.00000000000E+00 0.  1.
         -1    1    6    6    0  502  0.11446704141E+03  0.87141162576E+02 -0.10724876720E+02  0.14426125178E+03  0.00000000000E+00 0.  1.
<mgrwt>
<rscale>  0 0.17267439E+04</rscale>
<asrwt>0</asrwt>
<pdfrwt beam="1">  1        2 0.15767317E+00 0.17267439E+04</pdfrwt>
<pdfrwt beam="2">  1       -2 0.11189518E+00 0.17267439E+04</pdfrwt>
<totfact> 0.14535334E+01</totfact>
</mgrwt>
</event>
<event>
12    1  0.2588309E-007  0.1495136E+04  0.7818608E-02  0.8887694E-01
         -1   -1    0    0    0  501 -0.00000000000E+00  0.00000000000E+00  0.80067966858E+03  0.80067966858E+03  0.00000000000E+00 0.  1.
          1   -1    0    0  501    0  0.00000000000E+00 -0.00000000000E+00 -0.69797914479E+03  0.69797914479E+03  0.00000000000E+00 0. -1.
         23    2    1    2    0    0  0.36271489079E+03  0.79397178978E+02  0.32433039777E+03  0.50014462769E+03  0.84192859909E+02 0.  0.
        254    2    1    2    0    0 -0.36271489079E+03 -0.79397178978E+02 -0.22162987398E+03  0.99851418568E+03  0.90002487407E+03 0.  0.
        -24    2    4    4    0    0 -0.23774986994E+03  0.26431666026E+03 -0.43490836481E+03  0.56738294508E+03  0.79936368670E+02 0.  0.
         24    2    4    4    0    0 -0.12496502084E+03 -0.34371383924E+03  0.21327849083E+03  0.43113124061E+03  0.81430782005E+02 0.  0.
         13    1    3    3    0    0  0.15784574923E+03  0.91892656875E+01  0.18154323572E+03  0.24074399180E+03  0.00000000000E+00 0.  1.
        -13    1    3    3    0    0  0.20486914156E+03  0.70207913290E+02  0.14278716205E+03  0.25940063589E+03  0.00000000000E+00 0. -1.
          4    1    6    6  502    0 -0.95107797891E+02 -0.29517533435E+03  0.14542861641E+03  0.34252511396E+03  0.00000000000E+00 0. -1.
          1    1    5    5  503    0 -0.22631040293E+03  0.20999872064E+03 -0.36275090923E+03  0.47634450064E+03  0.00000000000E+00 0. -1.
         -2    1    5    5    0  503 -0.11439467018E+02  0.54317939618E+02 -0.72157455577E+02  0.91038444437E+02  0.00000000000E+00 0.  1.
         -3    1    6    6    0  502 -0.29857222949E+02 -0.48538504893E+02  0.67849874420E+02  0.88606126641E+02  0.00000000000E+00 0.  1.
<mgrwt>
<rscale>  0 0.14951357E+04</rscale>
<asrwt>0</asrwt>
<pdfrwt beam="1">  1        1 0.10738141E+00 0.14951357E+04</pdfrwt>
<pdfrwt beam="2">  1       -1 0.12318149E+00 0.14951357E+04</pdfrwt>
<totfact> 0.15374046E+01</totfact>
</mgrwt>
</event>
<event>
12    1  0.2588309E-007  0.1282938E+04  0.7818608E-02  0.9043206E-01
         -1   -1    0    0    0  501 -0.00000000000E+00  0.00000000000E+00  0.33315776972E+03  0.33315776972E+03  0.00000000000E+00 0.  1.
          1   -1    0    0  501    0  0.00000000000E+00 -0.00000000000E+00 -0.12350971280E+04  0.12350971280E+04  0.00000000000E+00 0. -1.
         23    2    1    2    0    0 -0.21051106191E+03 -0.23643114581E+03 -0.23185138042E+03  0.40291357156E+03  0.91486007926E+02 0.  0.
        254    2    1    2    0    0  0.21051106191E+03  0.23643114581E+03 -0.67008797785E+03  0.11653413262E+04  0.89932636707E+03 0.  0.
        -24    2    4    4    0    0  0.46130233413E+03  0.97528477862E+02 -0.54752040069E+02  0.48157226744E+03  0.81255248499E+02 0.  0.
         24    2    4    4    0    0 -0.25079127222E+03  0.13890266795E+03 -0.61533593779E+03  0.68376905873E+03  0.81924330668E+02 0.  0.
         11    1    3    3    0    0 -0.33648413740E+02 -0.53123679820E+02 -0.94532919818E+02  0.11353772075E+03  0.00000000000E+00 0. -1.
        -11    1    3    3    0    0 -0.17686264817E+03 -0.18330746599E+03 -0.13731846060E+03  0.28937585080E+03  0.00000000000E+00 0.  1.
          2    1    6    6  502    0 -0.22554296768E+03  0.14160178493E+03 -0.50916542236E+03  0.57460431872E+03  0.00000000000E+00 0. -1.
          1    1    5    5  503    0  0.39429781573E+03  0.58191320549E+02 -0.62693252105E+02  0.40346925675E+03  0.00000000000E+00 0. -1.
         -2    1    5    5    0  503  0.67004518392E+02  0.39337157313E+02  0.79412120355E+01  0.78103010691E+02  0.00000000000E+00 0.  1.
         -1    1    6    6    0  502 -0.25248304536E+02 -0.26991169800E+01 -0.10617051542E+03  0.10916474000E+03  0.00000000000E+00 0.  1.
<mgrwt>
<rscale>  0 0.12829376E+04</rscale>
<asrwt>0</asrwt>
<pdfrwt beam="1">  1        1 0.19001495E+00 0.12829376E+04</pdfrwt>
<pdfrwt beam="2">  1       -1 0.51255041E-01 0.12829376E+04</pdfrwt>
<totfact> 0.37931572E+01</totfact>
</mgrwt>
</event>
<event>
12    1  0.2588309E-007  0.1893212E+04  0.7818608E-02  0.8658243E-01
          2   -1    0    0  501    0  0.00000000000E+00  0.00000000000E+00  0.82518513226E+03  0.82518513226E+03  0.00000000000E+00 0. -1.
         -2   -1    0    0    0  501 -0.00000000000E+00 -0.00000000000E+00 -0.10858930701E+04  0.10858930701E+04  0.00000000000E+00 0.  1.
         23    2    1    2    0    0  0.41089425324E+03 -0.29221991055E+03  0.43001588750E+03  0.66902310519E+03  0.91933064281E+02 0.  0.
        254    2    1    2    0    0 -0.41089425324E+03  0.29221991055E+03 -0.69072382531E+03  0.12420550971E+04  0.90076350836E+03 0.  0.
        -24    2    4    4    0    0  0.23093076998E+02  0.47257454187E+03 -0.57928019023E+03  0.75284471214E+03  0.85730006309E+02 0.  0.
         24    2    4    4    0    0 -0.43398733024E+03 -0.18035463132E+03 -0.11144363509E+03  0.48921038500E+03  0.77680893020E+02 0.  0.
         11    1    3    3    0    0  0.28476351130E+03 -0.17010693232E+03  0.23430586495E+03  0.40611065505E+03  0.00000000000E+00 0.  1.
        -11    1    3    3    0    0  0.12613074194E+03 -0.12211297824E+03  0.19571002255E+03  0.26291245015E+03  0.00000000000E+00 0. -1.
          4    1    6    6  502    0 -0.21458285508E+02 -0.11744197604E+02 -0.25512293799E+02  0.35344891133E+02  0.00000000000E+00 0. -1.
          1    1    5    5  503    0 -0.29685871937E+01  0.14666838232E+02 -0.13344523726E+01  0.15023628616E+02  0.00000000000E+00 0. -1.
         -2    1    5    5    0  503  0.26061664191E+02  0.45790770364E+03 -0.57794573785E+03  0.73782108353E+03  0.00000000000E+00 0.  1.
         -3    1    6    6    0  502 -0.41252904473E+03 -0.16861043371E+03 -0.85931341290E+02  0.45386549387E+03  0.00000000000E+00 0.  1.
<mgrwt>
<rscale>  0 0.18932119E+04</rscale>
<asrwt>0</asrwt>
<pdfrwt beam="1">  1        2 0.12695156E+00 0.18932119E+04</pdfrwt>
<pdfrwt beam="2">  1       -2 0.16706047E+00 0.18932119E+04</pdfrwt>
<totfact> 0.69239692E+00</totfact>
</mgrwt>
</event>
<event>
12    1  0.2588309E-007  0.1399958E+04  0.7818608E-02  0.8953849E-01
          1   -1    0    0  501    0  0.00000000000E+00  0.00000000000E+00  0.10362820125E+04  0.10362820125E+04  0.00000000000E+00 0. -1.
         -1   -1    0    0    0  501 -0.00000000000E+00 -0.00000000000E+00 -0.47281603519E+03  0.47281603519E+03  0.00000000000E+00 0.  1.
         23    2    1    2    0    0 -0.34224470813E+03 -0.55413831544E+02 -0.52025603724E+02  0.36204301861E+03  0.90367864366E+02 0.  0.
        254    2    1    2    0    0  0.34224470813E+03  0.55413831544E+02  0.61549158104E+03  0.11470550291E+04  0.90371633848E+03 0.  0.
        -24    2    4    4    0    0 -0.15797534825E+03 -0.14485207452E+03  0.55338117070E+03  0.59867156760E+03  0.78984755648E+02 0.  0.
         24    2    4    4    0    0  0.50022005638E+03  0.20026590606E+03  0.62110410338E+02  0.54838346148E+03  0.80871378236E+02 0.  0.
         13    1    3    3    0    0 -0.31042337530E+03 -0.24788181885E+02 -0.60068302545E+02  0.31715189872E+03  0.00000000000E+00 0. -1.
        -13    1    3    3    0    0 -0.31821332831E+02 -0.30625649659E+02  0.80426988202E+01  0.44891119885E+02  0.00000000000E+00 0.  1.
          2    1    6    6  502    0  0.43880957694E+03  0.17987490335E+03  0.27598610266E+02  0.47504790175E+03  0.00000000000E+00 0. -1.
          3    1    5    5  503    0 -0.14087293315E+03 -0.85842737544E+02  0.43637660837E+03  0.46651763441E+03  0.00000000000E+00 0. -1.
         -4    1    5    5    0  503 -0.17102415096E+02 -0.59009336973E+02  0.11700456233E+03  0.13215393319E+03  0.00000000000E+00 0.  1.
         -1    1    6    6    0  502  0.61410479436E+02  0.20391002711E+02  0.34511800072E+02  0.73335559726E+02  0.00000000000E+00 0.  1.
<mgrwt>
<rscale>  0 0.13999582E+04</rscale>
<asrwt>0</asrwt>
<pdfrwt beam="1">  1        1 0.15942800E+00 0.13999582E+04</pdfrwt>
<pdfrwt beam="2">  1       -1 0.72740929E-01 0.13999582E+04</pdfrwt>
<totfact> 0.26353179E+01</totfact>
</mgrwt>
</event>
<event>
12    1  0.2588309E-007  0.3584891E+04  0.7818608E-02  0.8093961E-01
          1   -1    0    0  501    0  0.00000000000E+00  0.00000000000E+00  0.15684622480E+04  0.15684622480E+04  0.00000000000E+00 0. -1.
         -1   -1    0    0    0  501 -0.00000000000E+00 -0.00000000000E+00 -0.20484142161E+04  0.20484142161E+04  0.00000000000E+00 0.  1.
         23    2    1    2    0    0 -0.15299107412E+04 -0.16483092340E+03  0.44964934690E+03  0.16058749797E+04  0.94094665108E+02 0.  0.
        254    2    1    2    0    0  0.15299107412E+04  0.16483092340E+03 -0.92960131496E+03  0.20110014844E+04  0.90120600105E+03 0.  0.
        -24    2    4    4    0    0  0.39593314967E+03  0.12135784172E+03 -0.74709827630E+03  0.85875701753E+03  0.88413776983E+02 0.  0.
         24    2    4    4    0    0  0.11339775915E+04  0.43473081684E+02 -0.18250303866E+03  0.11522444669E+04  0.81023857554E+02 0.  0.
         13    1    3    3    0    0 -0.11731760708E+04 -0.96321710991E+02  0.37100034844E+03  0.12342046927E+04  0.00000000000E+00 0.  1.
        -13    1    3    3    0    0 -0.35673467042E+03 -0.68509212413E+02  0.78648998455E+02  0.37167028698E+03  0.00000000000E+00 0. -1.
          2    1    6    6  502    0  0.25473319224E+03 -0.23892912430E+02 -0.37743620374E+02  0.25862028415E+03  0.00000000000E+00 0. -1.
          3    1    5    5  503    0  0.31474585182E+03  0.12801467052E+03 -0.56557533095E+03  0.65979403004E+03  0.00000000000E+00 0. -1.
         -4    1    5    5    0  503  0.81187297849E+02 -0.66568287976E+01 -0.18152294535E+03  0.19896298749E+03  0.00000000000E+00 0.  1.
         -1    1    6    6    0  502  0.87924439928E+03  0.67365994114E+02 -0.14475941829E+03  0.89362418275E+03  0.00000000000E+00 0.  1.
<mgrwt>
<rscale>  0 0.35848907E+04</rscale>
<asrwt>0</asrwt>
<pdfrwt beam="1">  1        1 0.24130188E+00 0.35848907E+04</pdfrwt>
<pdfrwt beam="2">  1       -1 0.31514065E+00 0.35848907E+04</pdfrwt>
<totfact> 0.12508290E-01</totfact>
</mgrwt>
</event>
<event>
12    1  0.2588309E-007  0.1282249E+04  0.7818608E-02  0.9043762E-01
          2   -1    0    0  501    0  0.00000000000E+00  0.00000000000E+00  0.27086933122E+04  0.27086933122E+04  0.00000000000E+00 0.  1.
         -2   -1    0    0    0  501 -0.00000000000E+00 -0.00000000000E+00 -0.15174857038E+03  0.15174857038E+03  0.00000000000E+00 0. -1.
         23    2    1    2    0    0  0.18570199537E+03  0.24483223472E+03  0.57851700287E+03  0.66145182745E+03  0.91698108954E+02 0.  0.
        254    2    1    2    0    0 -0.18570199537E+03 -0.24483223472E+03  0.19784277389E+04  0.21989900551E+04  0.90936950140E+03 0.  0.
        -24    2    4    4    0    0 -0.33680826987E+03  0.19010172339E+03  0.14040816450E+04  0.14585617351E+04  0.79866097620E+02 0.  0.
         24    2    4    4    0    0  0.15110627450E+03 -0.43493395811E+03  0.57434609396E+03  0.74042831999E+03  0.79749653778E+02 0.  0.
         13    1    3    3    0    0  0.15313425018E+03  0.14301760760E+03  0.43146367776E+03  0.47965095631E+03  0.00000000000E+00 0.  1.
        -13    1    3    3    0    0  0.32567745187E+02  0.10181462712E+03  0.14705332511E+03  0.18180087114E+03  0.00000000000E+00 0. -1.
          4    1    6    6  502    0  0.60384215713E+02 -0.80913151135E+02  0.14353363416E+03  0.17548531468E+03  0.00000000000E+00 0. -1.
          1    1    5    5  503    0 -0.29860860709E+03  0.14047161860E+03  0.11169269756E+04  0.11646567068E+04  0.00000000000E+00 0. -1.
         -2    1    5    5    0  503 -0.38199662776E+02  0.49630104791E+02  0.28715466937E+03  0.29390502833E+03  0.00000000000E+00 0.  1.
         -3    1    6    6    0  502  0.90722058788E+02 -0.35402080698E+03  0.43081245980E+03  0.56494300531E+03  0.00000000000E+00 0.  1.
<mgrwt>
<rscale>  0 0.12822486E+04</rscale>
<asrwt>0</asrwt>
<pdfrwt beam="1">  1        2 0.41672201E+00 0.12822486E+04</pdfrwt>
<pdfrwt beam="2">  1       -2 0.23345936E-01 0.12822486E+04</pdfrwt>
<totfact> 0.42122394E+01</totfact>
</mgrwt>
</event>
<event>
12    1  0.2588309E-007  0.2262949E+04  0.7818608E-02  0.8492675E-01
         -2   -1    0    0    0  501 -0.00000000000E+00  0.00000000000E+00  0.13945656815E+04  0.13945656815E+04  0.00000000000E+00 0.  1.
          2   -1    0    0  501    0  0.00000000000E+00 -0.00000000000E+00 -0.91801645596E+03  0.91801645596E+03  0.00000000000E+00 0. -1.
         23    2    1    2    0    0  0.92930091227E+03 -0.19081002914E+03  0.24099797073E+03  0.98289143054E+03  0.89369399426E+02 0.  0.
        254    2    1    2    0    0 -0.92930091227E+03  0.19081002914E+03  0.23555125482E+03  0.13296907069E+04  0.90143459536E+03 0.  0.
        -24    2    4    4    0    0 -0.77024548691E+03  0.37913071777E+03  0.46874993964E+03  0.98123649060E+03  0.77976492069E+02 0.  0.
         24    2    4    4    0    0 -0.15905542536E+03 -0.18832068863E+03 -0.23319868482E+03  0.34845421634E+03  0.79217448712E+02 0.  0.
         11    1    3    3    0    0  0.54556428648E+03 -0.15583197154E+03  0.15281595692E+03  0.58760251083E+03  0.00000000000E+00 0. -1.
        -11    1    3    3    0    0  0.38373662579E+03 -0.34978057601E+02  0.88182013804E+02  0.39528891971E+03  0.00000000000E+00 0.  1.
          4    1    6    6  502    0 -0.12213225490E+03 -0.16225560014E+03 -0.22395424922E+03  0.30232213483E+03  0.00000000000E+00 0. -1.
          1    1    5    5  503    0 -0.76268398089E+03  0.38253474425E+03  0.46727730163E+03  0.97281435120E+03  0.00000000000E+00 0. -1.
         -2    1    5    5    0  503 -0.75615060152E+01 -0.34040264797E+01  0.14726380092E+01  0.84221394075E+01  0.00000000000E+00 0.  1.
         -3    1    6    6    0  502 -0.36923170458E+02 -0.26065088496E+02 -0.92444355953E+01  0.46132081510E+02  0.00000000000E+00 0.  1.
<mgrwt>
<rscale>  0 0.22629487E+04</rscale>
<asrwt>0</asrwt>
<pdfrwt beam="1">  1        2 0.14123330E+00 0.22629487E+04</pdfrwt>
<pdfrwt beam="2">  1       -2 0.21454857E+00 0.22629487E+04</pdfrwt>
<totfact> 0.27750460E+00</totfact>
</mgrwt>
</event>
<event>
12    1  0.2588309E-007  0.1235476E+04  0.7818608E-02  0.9082359E-01
         -2   -1    0    0    0  501 -0.00000000000E+00  0.00000000000E+00  0.13327611743E+03  0.13327611743E+03  0.00000000000E+00 0.  1.
          2   -1    0    0  501    0  0.00000000000E+00 -0.00000000000E+00 -0.28632284268E+04  0.28632284268E+04  0.00000000000E+00 0. -1.
         23    2    1    2    0    0 -0.14503220774E+03 -0.21614027715E+03 -0.46294435263E+03  0.53877412632E+03  0.90604221078E+02 0.  0.
        254    2    1    2    0    0  0.14503220774E+03  0.21614027715E+03 -0.22670079567E+04  0.24577304179E+04  0.91288705242E+03 0.  0.
        -24    2    4    4    0    0  0.48638804534E+03  0.30330368473E+03 -0.15579075537E+04  0.16618767651E+04  0.78689140737E+02 0.  0.
         24    2    4    4    0    0 -0.34135583761E+03 -0.87163407584E+02 -0.70910040308E+03  0.79585365279E+03  0.80239563246E+02 0.  0.
         11    1    3    3    0    0 -0.77421486964E+02 -0.96887761882E+02 -0.30721260609E+03  0.33130184181E+03  0.00000000000E+00 0. -1.
        -11    1    3    3    0    0 -0.67610720772E+02 -0.11925251526E+03 -0.15573174653E+03  0.20747228451E+03  0.00000000000E+00 0.  1.
          2    1    6    6  502    0 -0.16312803147E+03 -0.54145248631E+02 -0.26133548144E+03  0.31279177812E+03  0.00000000000E+00 0. -1.
          3    1    5    5  503    0  0.10582233523E+03  0.10387070683E+03 -0.36626140420E+03  0.39513909776E+03  0.00000000000E+00 0. -1.
         -4    1    5    5    0  503  0.38056571011E+03  0.19943297790E+03 -0.11916461495E+04  0.12667376674E+04  0.00000000000E+00 0.  1.
         -1    1    6    6    0  502 -0.17822780614E+03 -0.33018158953E+02 -0.44776492164E+03  0.48306187467E+03  0.00000000000E+00 0.  1.
<mgrwt>
<rscale>  0 0.12354756E+04</rscale>
<asrwt>0</asrwt>
<pdfrwt beam="1">  1        2 0.44049672E+00 0.12354756E+04</pdfrwt>
<pdfrwt beam="2">  1       -2 0.20504016E-01 0.12354756E+04</pdfrwt>
<totfact> 0.43090472E+01</totfact>
</mgrwt>
</event>
<event>
12    1  0.2588309E-007  0.1616995E+04  0.7818608E-02  0.8810175E-01
         -1   -1    0    0    0  501 -0.00000000000E+00  0.00000000000E+00  0.96882886003E+03  0.96882886003E+03  0.00000000000E+00 0.  1.
          1   -1    0    0  501    0  0.00000000000E+00 -0.00000000000E+00 -0.67469907264E+03  0.67469907264E+03  0.00000000000E+00 0. -1.
         23    2    1    2    0    0 -0.22214151252E+03 -0.18211119739E+03  0.58354371677E+03  0.65667215480E+03  0.90463858553E+02 0.  0.
        254    2    1    2    0    0  0.22214151252E+03  0.18211119739E+03 -0.28941392938E+03  0.98685577787E+03  0.89867266788E+03 0.  0.
        -24    2    4    4    0    0  0.31318827130E+03  0.32241005890E+03 -0.51944292895E+03  0.69172237988E+03  0.81386454863E+02 0.  0.
         24    2    4    4    0    0 -0.91046758777E+02 -0.14029886151E+03  0.23002899957E+03  0.29513339798E+03  0.78848583618E+02 0.  0.
         11    1    3    3    0    0 -0.10834219806E+03 -0.93683192576E+02  0.38923703808E+03  0.41475299187E+03  0.00000000000E+00 0.  1.
        -11    1    3    3    0    0 -0.11379931447E+03 -0.88428004816E+02  0.19430667869E+03  0.24191916293E+03  0.00000000000E+00 0. -1.
          4    1    6    6  502    0  0.25686721382E+01 -0.62033913126E+02  0.64941122412E+02  0.89845165893E+02  0.00000000000E+00 0. -1.
          3    1    5    5  503    0  0.25958186955E+03  0.30432298448E+03 -0.46200215235E+03  0.61109836742E+03  0.00000000000E+00 0. -1.
         -4    1    5    5    0  503  0.53606401754E+02  0.18087074416E+02 -0.57440776602E+02  0.80624012469E+02  0.00000000000E+00 0.  1.
         -3    1    6    6    0  502 -0.93615430916E+02 -0.78264948383E+02  0.16508787716E+03  0.20528823209E+03  0.00000000000E+00 0.  1.
<mgrwt>
<rscale>  0 0.16169947E+04</rscale>
<asrwt>0</asrwt>
<pdfrwt beam="1">  1        1 0.10379986E+00 0.16169947E+04</pdfrwt>
<pdfrwt beam="2">  1       -1 0.14905059E+00 0.16169947E+04</pdfrwt>
<totfact> 0.97971052E+00</totfact>
</mgrwt>
</event>
<event>
12    1  0.2588309E-007  0.1697261E+04  0.7818608E-02  0.8762928E-01
         -1   -1    0    0    0  501 -0.00000000000E+00  0.00000000000E+00  0.19939327238E+04  0.19939327238E+04  0.00000000000E+00 0.  1.
          1   -1    0    0  501    0  0.00000000000E+00 -0.00000000000E+00 -0.36118249795E+03  0.36118249795E+03  0.00000000000E+00 0. -1.
         23    2    1    2    0    0  0.44109069749E+03  0.19101978788E+03  0.79572132211E+02  0.49569919774E+03  0.91303930065E+02 0.  0.
        254    2    1    2    0    0 -0.44109069749E+03 -0.19101978788E+03  0.15531780936E+04  0.18594160240E+04  0.90222846165E+03 0.  0.
        -24    2    4    4    0    0  0.63567030438E+02  0.29659223035E+03  0.44174789883E+03  0.54246860398E+03  0.84399417783E+02 0.  0.
         24    2    4    4    0    0 -0.50465772792E+03 -0.48761201823E+03  0.11114301948E+04  0.13169474200E+04  0.81415763230E+02 0.  0.
         11    1    3    3    0    0  0.19856348044E+03  0.60301676626E+02 -0.47507763729E+01  0.20757243999E+03  0.00000000000E+00 0. -1.
        -11    1    3    3    0    0  0.24252721705E+03  0.13071811126E+03  0.84322908584E+02  0.28812675775E+03  0.00000000000E+00 0.  1.
          4    1    6    6  502    0 -0.47546041125E+03 -0.42693426365E+03  0.99874062022E+03  0.11856720856E+04  0.00000000000E+00 0. -1.
          3    1    5    5  503    0  0.75158903965E+02  0.28517016771E+03  0.39483975299E+03  0.49281773095E+03  0.00000000000E+00 0. -1.
         -4    1    5    5    0  503 -0.11591873527E+02  0.11422062642E+02  0.46908145837E+02  0.49650873031E+02  0.00000000000E+00 0.  1.
         -3    1    6    6    0  502 -0.29197316674E+02 -0.60677754583E+02  0.11268957456E+03  0.13127533438E+03  0.00000000000E+00 0.  1.
<mgrwt>
<rscale>  0 0.16972609E+04</rscale>
<asrwt>0</asrwt>
<pdfrwt beam="1">  1        1 0.55566539E-01 0.16972609E+04</pdfrwt>
<pdfrwt beam="2">  1       -1 0.30675887E+00 0.16972609E+04</pdfrwt>
<totfact> 0.19555899E+00</totfact>
</mgrwt>
</event>
<event>
12    1  0.2588309E-007  0.2252994E+04  0.7818608E-02  0.8496689E-01
          2   -1    0    0  501    0  0.00000000000E+00  0.00000000000E+00  0.71944288290E+03  0.71944288290E+03  0.00000000000E+00 0. -1.
         -2   -1    0    0    0  501 -0.00000000000E+00 -0.00000000000E+00 -0.17638578289E+04  0.17638578289E+04  0.00000000000E+00 0.  1.
         23    2    1    2    0    0 -0.62674690584E+03 -0.53481048264E+03 -0.94976053077E+03  0.12606797268E+04  0.91838834472E+02 0.  0.
        254    2    1    2    0    0  0.62674690584E+03  0.53481048264E+03 -0.94654415275E+02  0.12226209850E+04  0.89833661749E+03 0.  0.
        -24    2    4    4    0    0  0.14965199271E+03 -0.13426169393E+03 -0.30264810211E+03  0.37128160229E+03  0.76369058560E+02 0.  0.
         24    2    4    4    0    0  0.47709491313E+03  0.66907217657E+03  0.20799368684E+03  0.85133938272E+03  0.78995172042E+02 0.  0.
         11    1    3    3    0    0 -0.26109153649E+03 -0.23621891123E+03 -0.33922335770E+03  0.48891783651E+03  0.00000000000E+00 0. -1.
        -11    1    3    3    0    0 -0.36565536934E+03 -0.29859157141E+03 -0.61053717307E+03  0.77176189032E+03  0.00000000000E+00 0.  1.
          4    1    6    6  502    0  0.13372571405E+03  0.22526777456E+03  0.96920232153E+02  0.27932359058E+03  0.00000000000E+00 0. -1.
          3    1    5    5  503    0  0.12265097818E+03 -0.13188266057E+03 -0.28999089347E+03  0.34136639686E+03  0.00000000000E+00 0. -1.
         -4    1    5    5    0  503  0.27001014529E+02 -0.23790333648E+01 -0.12657208641E+02  0.29915205430E+02  0.00000000000E+00 0.  1.
         -3    1    6    6    0  502  0.34336919907E+03  0.44380440202E+03  0.11107345468E+03  0.57201579214E+03  0.00000000000E+00 0.  1.
<mgrwt>
<rscale>  0 0.22529935E+04</rscale>
<asrwt>0</asrwt>
<pdfrwt beam="1">  1        2 0.11068352E+00 0.22529935E+04</pdfrwt>
<pdfrwt beam="2">  1       -2 0.27136274E+00 0.22529935E+04</pdfrwt>
<totfact> 0.17122094E+00</totfact>
</mgrwt>
</event>
<event>
12    1  0.2588309E-007  0.3042937E+04  0.7818608E-02  0.8231575E-01
         -1   -1    0    0    0  501 -0.00000000000E+00  0.00000000000E+00  0.21806946926E+04  0.21806946926E+04  0.00000000000E+00 0.  1.
          1   -1    0    0  501    0  0.00000000000E+00 -0.00000000000E+00 -0.10615270500E+04  0.10615270500E+04  0.00000000000E+00 0. -1.
         23    2    1    2    0    0  0.74367057218E+03 -0.11444756790E+04  0.77416070588E+03  0.15718211784E+04  0.91796071801E+02 0.  0.
        254    2    1    2    0    0 -0.74367057218E+03  0.11444756790E+04  0.34500693672E+03  0.16704005641E+04  0.89907605826E+03 0.  0.
        -24    2    4    4    0    0 -0.72431816449E+03  0.87179319337E+03  0.60242220704E+03  0.12857610614E+04  0.74892029091E+02 0.  0.
         24    2    4    4    0    0 -0.19352407685E+02  0.27268248561E+03 -0.25741527032E+03  0.38463950274E+03  0.83394676242E+02 0.  0.
         13    1    3    3    0    0  0.52416636628E+03 -0.76294638605E+03  0.56524444629E+03  0.10845915598E+04  0.00000000000E+00 0.  1.
        -13    1    3    3    0    0  0.21950420589E+03 -0.38152929293E+03  0.20891625959E+03  0.48722961865E+03  0.00000000000E+00 0. -1.
          2    1    6    6  502    0 -0.74347020076E+01  0.10637222341E+03 -0.47956843162E+02  0.11691956002E+03  0.00000000000E+00 0. -1.
          1    1    5    5  503    0 -0.18548912660E+03  0.27385589085E+03  0.16356585577E+03  0.36899465336E+03  0.00000000000E+00 0. -1.
         -2    1    5    5    0  503 -0.53882903789E+03  0.59793730252E+03  0.43885635127E+03  0.91676640802E+03  0.00000000000E+00 0.  1.
         -1    1    6    6    0  502 -0.11917705677E+02  0.16631026220E+03 -0.20945842716E+03  0.26771994272E+03  0.00000000000E+00 0.  1.
<mgrwt>
<rscale>  0 0.30429370E+04</rscale>
<asrwt>0</asrwt>
<pdfrwt beam="1">  1        1 0.16331185E+00 0.30429370E+04</pdfrwt>
<pdfrwt beam="2">  1       -1 0.33549149E+00 0.30429370E+04</pdfrwt>
<totfact> 0.22272079E-01</totfact>
</mgrwt>
</event>
<event>
12    1  0.2588309E-007  0.3417954E+04  0.7818608E-02  0.8133514E-01
          2   -1    0    0  501    0  0.00000000000E+00  0.00000000000E+00  0.20849440303E+04  0.20849440303E+04  0.00000000000E+00 0. -1.
         -2   -1    0    0    0  501 -0.00000000000E+00 -0.00000000000E+00 -0.14008063650E+04  0.14008063650E+04  0.00000000000E+00 0.  1.
         23    2    1    2    0    0 -0.64538378986E+03 -0.13854114598E+04  0.76012273350E+03  0.17095257864E+04  0.93843994027E+02 0.  0.
        254    2    1    2    0    0  0.64538378986E+03  0.13854114598E+04 -0.75985068166E+02  0.17762246089E+04  0.90183977602E+03 0.  0.
        -24    2    4    4    0    0  0.43838683977E+03  0.14391650672E+04  0.64736243654E+02  0.15078263248E+04  0.77267928459E+02 0.  0.
         24    2    4    4    0    0  0.20699695009E+03 -0.53753607407E+02 -0.14072131182E+03  0.26839828406E+03  0.80609947477E+02 0.  0.
         13    1    3    3    0    0 -0.19941848978E+03 -0.53538657399E+03  0.28638415403E+03  0.63907933886E+03  0.00000000000E+00 0. -1.
        -13    1    3    3    0    0 -0.44596530008E+03 -0.85002488578E+03  0.47373857947E+03  0.10704464475E+04  0.00000000000E+00 0.  1.
          4    1    6    6  502    0  0.13695380838E+03  0.51122388232E+01 -0.85375830477E+02  0.16146675523E+03  0.00000000000E+00 0. -1.
          3    1    5    5  503    0  0.60985030965E+02  0.30658501925E+03  0.17869797394E+02  0.31310202441E+03  0.00000000000E+00 0. -1.
         -4    1    5    5    0  503  0.37740180881E+03  0.11325800479E+04  0.46866446261E+02  0.11947243004E+04  0.00000000000E+00 0.  1.
         -3    1    6    6    0  502  0.70043141704E+02 -0.58865846230E+02 -0.55345481344E+02  0.10693152883E+03  0.00000000000E+00 0.  1.
<mgrwt>
<rscale>  0 0.34179543E+04</rscale>
<asrwt>0</asrwt>
<pdfrwt beam="1">  1        2 0.32076062E+00 0.34179543E+04</pdfrwt>
<pdfrwt beam="2">  1       -2 0.21550867E+00 0.34179543E+04</pdfrwt>
<totfact> 0.52315087E-01</totfact>
</mgrwt>
</event>
<event>
12    1  0.2588309E-007  0.2255921E+04  0.7818608E-02  0.8495507E-01
         -2   -1    0    0    0  501 -0.00000000000E+00  0.00000000000E+00  0.79207598467E+03  0.79207598467E+03  0.00000000000E+00 0.  1.
          2   -1    0    0  501    0  0.00000000000E+00 -0.00000000000E+00 -0.16062785043E+04  0.16062785043E+04  0.00000000000E+00 0. -1.
         23    2    1    2    0    0  0.79878851595E+03 -0.44119843934E+03 -0.76662101202E+02  0.92018685095E+03  0.90264094888E+02 0.  0.
        254    2    1    2    0    0 -0.79878851595E+03  0.44119843934E+03 -0.73754041843E+03  0.14781676380E+04  0.89905202363E+03 0.  0.
        -24    2    4    4    0    0 -0.89451809181E+03  0.90613328029E+02 -0.45328146046E+03  0.10100502179E+04  0.79774485351E+02 0.  0.
         24    2    4    4    0    0  0.95729575866E+02  0.35058511131E+03 -0.28425895796E+03  0.46811742010E+03  0.79099253187E+02 0.  0.
         13    1    3    3    0    0  0.22146778194E+03 -0.14718339466E+03 -0.57312256166E+02  0.27202136829E+03  0.00000000000E+00 0. -1.
        -13    1    3    3    0    0  0.57732073400E+03 -0.29401504468E+03 -0.19349845036E+02  0.64816548266E+03  0.00000000000E+00 0.  1.
          4    1    6    6  502    0  0.55068996640E+02  0.79830661157E+02 -0.90994899373E+02  0.13298721955E+03  0.00000000000E+00 0. -1.
          1    1    5    5  503    0 -0.23290190842E+03  0.58990580486E+02 -0.12080083026E+03  0.26891639616E+03  0.00000000000E+00 0. -1.
         -2    1    5    5    0  503 -0.66161618339E+03  0.31622747543E+02 -0.33248063020E+03  0.74113382176E+03  0.00000000000E+00 0.  1.
         -3    1    6    6    0  502  0.40660579225E+02  0.27075445015E+03 -0.19326405859E+03  0.33513020055E+03  0.00000000000E+00 0.  1.
<mgrwt>
<rscale>  0 0.22559208E+04</rscale>
<asrwt>0</asrwt>
<pdfrwt beam="1">  1        2 0.24711977E+00 0.22559208E+04</pdfrwt>
<pdfrwt beam="2">  1       -2 0.12185785E+00 0.22559208E+04</pdfrwt>
<totfact> 0.51445152E+00</totfact>
</mgrwt>
</event>
<event>
12    1  0.2588309E-007  0.1256672E+04  0.7818608E-02  0.9064649E-01
          2   -1    0    0  501    0  0.00000000000E+00  0.00000000000E+00  0.10287381124E+04  0.10287381124E+04  0.00000000000E+00 0. -1.
         -2   -1    0    0    0  501 -0.00000000000E+00 -0.00000000000E+00 -0.38377684366E+03  0.38377684366E+03  0.00000000000E+00 0.  1.
         23    2    1    2    0    0 -0.16884039337E+03 -0.18335832140E+03  0.33931987555E+03  0.42975929591E+03  0.86184233017E+02 0.  0.
        254    2    1    2    0    0  0.16884039337E+03  0.18335832140E+03  0.30564139322E+03  0.98275566018E+03  0.90014702905E+03 0.  0.
        -24    2    4    4    0    0  0.34243257176E+03 -0.17217807711E+03  0.40897679814E+03  0.56624396332E+03  0.80404279412E+02 0.  0.
         24    2    4    4    0    0 -0.17359217839E+03  0.35553639851E+03 -0.10333540492E+03  0.41651169686E+03  0.79141725040E+02 0.  0.
         13    1    3    3    0    0 -0.13824125028E+03 -0.18073124586E+03  0.26464087894E+03  0.34901177819E+03  0.00000000000E+00 0.  1.
        -13    1    3    3    0    0 -0.30599143086E+02 -0.26270755372E+01  0.74678996604E+02  0.80747517716E+02  0.00000000000E+00 0. -1.
          4    1    6    6  502    0 -0.97386369189E+00 -0.30851563619E+01  0.31440076567E+01  0.45112508701E+01  0.00000000000E+00 0. -1.
          3    1    5    5  503    0  0.10491740951E+02 -0.25167766048E+02  0.41708327231E+02  0.49830489025E+02  0.00000000000E+00 0. -1.
         -4    1    5    5    0  503  0.33194083081E+03 -0.14701031106E+03  0.36726847090E+03  0.51641347430E+03  0.00000000000E+00 0.  1.
         -3    1    6    6    0  502 -0.17261831470E+03  0.35862155487E+03 -0.10647941257E+03  0.41200044599E+03  0.00000000000E+00 0.  1.
<mgrwt>
<rscale>  0 0.12566716E+04</rscale>
<asrwt>0</asrwt>
<pdfrwt beam="1">  1        2 0.15826740E+00 0.12566716E+04</pdfrwt>
<pdfrwt beam="2">  1       -2 0.59042592E-01 0.12566716E+04</pdfrwt>
<totfact> 0.63605299E+01</totfact>
</mgrwt>
</event>
<event>
12    1  0.2588309E-007  0.1280027E+04  0.7818608E-02  0.9045555E-01
         -1   -1    0    0    0  501 -0.00000000000E+00  0.00000000000E+00  0.19698818701E+03  0.19698818701E+03  0.00000000000E+00 0.  1.
          1   -1    0    0  501    0  0.00000000000E+00 -0.00000000000E+00 -0.20794016540E+04  0.20794016540E+04  0.00000000000E+00 0. -1.
         23    2    1    2    0    0 -0.30519074433E+03  0.77975539036E+02 -0.51836568417E+03  0.61374840920E+03  0.93608504699E+02 0.  0.
        254    2    1    2    0    0  0.30519074433E+03 -0.77975539036E+02 -0.13640477828E+04  0.16626414318E+04  0.89695518385E+03 0.  0.
        -24    2    4    4    0    0  0.12477820673E+03  0.19125165132E+03 -0.13003965375E+04  0.13228155355E+04  0.81627147225E+02 0.  0.
         24    2    4    4    0    0  0.18041253760E+03 -0.26922719035E+03 -0.63651245297E+02  0.33982589631E+03  0.79988718103E+02 0.  0.
         13    1    3    3    0    0 -0.29341916950E+03  0.58214692100E+02 -0.50553877005E+03  0.58741229765E+03  0.00000000000E+00 0. -1.
        -13    1    3    3    0    0 -0.11771574829E+02  0.19760846936E+02 -0.12826914125E+02  0.26336111549E+02  0.00000000000E+00 0.  1.
          4    1    6    6  502    0  0.16726789610E+03 -0.27273626678E+03 -0.58327607322E+02  0.32521643571E+03  0.00000000000E+00 0. -1.
          3    1    5    5  503    0  0.13059303290E+03  0.15812464742E+03 -0.10202683430E+04  0.10406754711E+04  0.00000000000E+00 0. -1.
         -4    1    5    5    0  503 -0.58148261755E+01  0.33127003893E+02 -0.28012819451E+03  0.28214006442E+03  0.00000000000E+00 0.  1.
         -3    1    6    6    0  502  0.13144641500E+02  0.35090764259E+01 -0.53236379742E+01  0.14609460593E+02  0.00000000000E+00 0.  1.
<mgrwt>
<rscale>  0 0.12800274E+04</rscale>
<asrwt>0</asrwt>
<pdfrwt beam="1">  1        1 0.31990795E+00 0.12800274E+04</pdfrwt>
<pdfrwt beam="2">  1       -1 0.30305874E-01 0.12800274E+04</pdfrwt>
<totfact> 0.26005680E+01</totfact>
</mgrwt>
</event>
<event>
12    1  0.2588309E-007  0.1386410E+04  0.7818608E-02  0.8963715E-01
         -2   -1    0    0    0  501 -0.00000000000E+00  0.00000000000E+00  0.33324895944E+03  0.33324895944E+03  0.00000000000E+00 0. -1.
          2   -1    0    0  501    0  0.00000000000E+00 -0.00000000000E+00 -0.14419643096E+04  0.14419643096E+04  0.00000000000E+00 0.  1.
         23    2    1    2    0    0 -0.16358932250E+03 -0.32579090620E+03 -0.51300167948E+03  0.63592816121E+03  0.91283744846E+02 0.  0.
        254    2    1    2    0    0  0.16358932250E+03  0.32579090620E+03 -0.59571367064E+03  0.11392851078E+04  0.90010810375E+03 0.  0.
        -24    2    4    4    0    0 -0.20010238162E+02 -0.26686289376E+03 -0.39241959412E+03  0.48175265086E+03  0.80475245023E+02 0.  0.
         24    2    4    4    0    0  0.18359956066E+03  0.59265379996E+03 -0.20329407652E+03  0.65753245693E+03  0.77930257839E+02 0.  0.
         13    1    3    3    0    0 -0.83592466479E+02 -0.95811025563E+02 -0.12823562199E+03  0.18058745200E+03  0.00000000000E+00 0.  1.
        -13    1    3    3    0    0 -0.79996856020E+02 -0.22997988064E+03 -0.38476605749E+03  0.45534070921E+03  0.00000000000E+00 0. -1.
          4    1    6    6  502    0  0.11034574749E+03  0.43814735597E+03 -0.12090062605E+03  0.46772454598E+03  0.00000000000E+00 0. -1.
          3    1    5    5  503    0 -0.17082152803E+02 -0.57421659464E+02 -0.14914973761E+03  0.16073173659E+03  0.00000000000E+00 0. -1.
         -4    1    5    5    0  503 -0.29280853591E+01 -0.20944123429E+03 -0.24326985651E+03  0.32102091426E+03  0.00000000000E+00 0.  1.
         -3    1    6    6    0  502  0.73253813175E+02  0.15450644398E+03 -0.82393450472E+02  0.18980791095E+03  0.00000000000E+00 0.  1.
<mgrwt>
<rscale>  0 0.13864099E+04</rscale>
<asrwt>0</asrwt>
<pdfrwt beam="1">  1        2 0.22184066E+00 0.13864099E+04</pdfrwt>
<pdfrwt beam="2">  1       -2 0.51269071E-01 0.13864099E+04</pdfrwt>
<totfact> 0.47948723E+01</totfact>
</mgrwt>
</event>
<event>
12    1  0.2588309E-007  0.2622931E+04  0.7818608E-02  0.8360453E-01
          1   -1    0    0  501    0  0.00000000000E+00  0.00000000000E+00  0.47698103523E+04  0.47698103523E+04  0.00000000000E+00 0. -1.
         -1   -1    0    0    0  501 -0.00000000000E+00 -0.00000000000E+00 -0.36058925905E+03  0.36058925905E+03  0.00000000000E+00 0.  1.
         23    2    1    2    0    0 -0.95677935298E+03  0.59211348304E+03  0.24659064266E+04  0.27120090275E+04  0.90957977472E+02 0.  0.
        254    2    1    2    0    0  0.95677935298E+03 -0.59211348304E+03  0.19433146667E+04  0.24183905838E+04  0.89783963776E+03 0.  0.
        -24    2    4    4    0    0  0.67763603281E+03 -0.77902710871E+03  0.17134601023E+04  0.20019772836E+04  0.76770390300E+02 0.  0.
         24    2    4    4    0    0  0.27914332017E+03  0.18691362567E+03  0.22985456438E+03  0.41641330023E+03  0.87802159322E+02 0.  0.
         11    1    3    3    0    0 -0.44724949714E+03  0.22366131433E+03  0.10942716458E+04  0.12031155102E+04  0.00000000000E+00 0.  1.
        -11    1    3    3    0    0 -0.50952985583E+03  0.36845216871E+03  0.13716347809E+04  0.15088935173E+04  0.00000000000E+00 0. -1.
          4    1    6    6  502    0  0.17099932295E+03  0.83302033842E+02  0.86000113710E+02  0.20874869305E+03  0.00000000000E+00 0. -1.
          1    1    5    5  503    0  0.17389023910E+03 -0.17226374261E+03  0.46005875138E+03  0.52112058777E+03  0.00000000000E+00 0. -1.
         -2    1    5    5    0  503  0.50374579371E+03 -0.60676336610E+03  0.12534013509E+04  0.14808566959E+04  0.00000000000E+00 0.  1.
         -3    1    6    6    0  502  0.10814399722E+03  0.10361159183E+03  0.14385445067E+03  0.20766460718E+03  0.00000000000E+00 0.  1.
<mgrwt>
<rscale>  0 0.26229315E+04</rscale>
<asrwt>0</asrwt>
<pdfrwt beam="1">  1        1 0.73381693E+00 0.26229315E+04</pdfrwt>
<pdfrwt beam="2">  1       -1 0.55475274E-01 0.26229315E+04</pdfrwt>
<totfact> 0.47661462E-02</totfact>
</mgrwt>
</event>
<event>
12    1  0.2588309E-007  0.2623429E+04  0.7818608E-02  0.8360286E-01
         -2   -1    0    0    0  501 -0.00000000000E+00  0.00000000000E+00  0.11680535496E+04  0.11680535496E+04  0.00000000000E+00 0.  1.
          2   -1    0    0  501    0  0.00000000000E+00 -0.00000000000E+00 -0.14730449947E+04  0.14730449947E+04  0.00000000000E+00 0. -1.
         23    2    1    2    0    0 -0.95539448910E+03  0.76922075986E+02 -0.78340103870E+03  0.12412483536E+04  0.91020065576E+02 0.  0.
        254    2    1    2    0    0  0.95539448910E+03 -0.76922075986E+02  0.47840959366E+03  0.13998501907E+04  0.90111552066E+03 0.  0.
        -24    2    4    4    0    0  0.98212322279E+03 -0.33275532616E+03  0.32483437824E+03  0.10894839847E+04  0.78522913082E+02 0.  0.
         24    2    4    4    0    0 -0.26728733689E+02  0.25583325017E+03  0.15357521543E+03  0.31036620599E+03  0.81097212822E+02 0.  0.
         13    1    3    3    0    0 -0.14679144916E+03  0.23728086050E+02 -0.83808857979E+02  0.17068882883E+03  0.00000000000E+00 0. -1.
        -13    1    3    3    0    0 -0.80860303994E+03  0.53193989936E+02 -0.69959218072E+03  0.10705595248E+04  0.00000000000E+00 0.  1.
          4    1    6    6  502    0  0.16114942777E+01  0.91079466403E+02  0.13145431703E+02  0.92037321173E+02  0.00000000000E+00 0. -1.
          1    1    5    5  503    0  0.62020820126E+03 -0.23130449721E+03  0.24050619593E+03  0.70427495598E+03  0.00000000000E+00 0. -1.
         -2    1    5    5    0  503  0.36191502153E+03 -0.10145082895E+03  0.84328182308E+02  0.38520902875E+03  0.00000000000E+00 0.  1.
         -3    1    6    6    0  502 -0.28340227967E+02  0.16475378377E+03  0.14042978373E+03  0.21832888481E+03  0.00000000000E+00 0.  1.
<mgrwt>
<rscale>  0 0.26234294E+04</rscale>
<asrwt>0</asrwt>
<pdfrwt beam="1">  1        2 0.22662231E+00 0.26234294E+04</pdfrwt>
<pdfrwt beam="2">  1       -2 0.17970055E+00 0.26234294E+04</pdfrwt>
<totfact> 0.21151255E+00</totfact>
</mgrwt>
</event>
<event>
12    1  0.2588309E-007  0.1206266E+04  0.7818608E-02  0.9107389E-01
          2   -1    0    0  501    0  0.00000000000E+00  0.00000000000E+00  0.92141333534E+03  0.92141333534E+03  0.00000000000E+00 0. -1.
         -2   -1    0    0    0  501 -0.00000000000E+00 -0.00000000000E+00 -0.39479534075E+03  0.39479534075E+03  0.00000000000E+00 0.  1.
         23    2    1    2    0    0  0.11430643743E+03  0.96911627411E+02  0.33791472386E+03  0.38093866316E+03  0.92033033880E+02 0.  0.
        254    2    1    2    0    0 -0.11430643743E+03 -0.96911627411E+02  0.18870327073E+03  0.93527001292E+03  0.90369422235E+03 0.  0.
        -24    2    4    4    0    0  0.19011790460E+03  0.16854292791E+03 -0.22701801289E+03  0.35023796458E+03  0.81104361525E+02 0.  0.
         24    2    4    4    0    0 -0.30442434203E+03 -0.26545455532E+03  0.41572128362E+03  0.58503204834E+03  0.79360008633E+02 0.  0.
         11    1    3    3    0    0  0.97864694176E+02  0.72657638683E+02  0.16271055191E+03  0.20330114247E+03  0.00000000000E+00 0.  1.
        -11    1    3    3    0    0  0.16441743253E+02  0.24253988729E+02  0.17520417195E+03  0.17763752070E+03  0.00000000000E+00 0. -1.
          4    1    6    6  502    0  0.50396317085E+01 -0.55915789830E+01  0.78112093714E+01  0.10847978389E+02  0.00000000000E+00 0. -1.
          3    1    5    5  503    0  0.39886921166E+01 -0.45363748704E+01  0.36063598567E+01  0.70352109550E+01  0.00000000000E+00 0. -1.
         -4    1    5    5    0  503  0.18612921248E+03  0.17307930278E+03 -0.23062437275E+03  0.34320275362E+03  0.00000000000E+00 0.  1.
         -3    1    6    6    0  502 -0.30946397374E+03 -0.25986297634E+03  0.40791007425E+03  0.57418406995E+03  0.00000000000E+00 0.  1.
<mgrwt>
<rscale>  0 0.12062665E+04</rscale>
<asrwt>0</asrwt>
<pdfrwt beam="1">  1        2 0.14175590E+00 0.12062665E+04</pdfrwt>
<pdfrwt beam="2">  1       -2 0.60737745E-01 0.12062665E+04</pdfrwt>
<totfact> 0.70618734E+01</totfact>
</mgrwt>
</event>
<event>
12    1  0.2783251E-007  0.2012032E+04  0.7818608E-02  0.8601016E-01
          1   -1    0    0  501    0  0.00000000000E+00  0.00000000000E+00  0.16828027628E+04  0.16828027628E+04  0.00000000000E+00 0. -1.
         -1   -1    0    0    0  501 -0.00000000000E+00 -0.00000000000E+00 -0.60141791385E+03  0.60141791385E+03  0.00000000000E+00 0.  1.
         23    2    1    2    0    0 -0.66468697990E+03 -0.38948108916E+03  0.68231142877E+03  0.10335623888E+04  0.95906338445E+02 0.  0.
        254    2    1    2    0    0  0.66468697990E+03  0.38948108916E+03  0.39907342018E+03  0.12506582878E+04  0.90076759384E+03 0.  0.
        -24    2    4    4    0    0  0.17989440304E+03  0.29008925869E+03  0.61327639285E+03  0.70627092131E+03  0.78720429389E+02 0.  0.
         24    2    4    4    0    0  0.48479257686E+03  0.99391830471E+02 -0.21420297267E+03  0.54438736650E+03  0.74646585702E+02 0.  0.
         11    1    3    3    0    0 -0.41590214806E+03 -0.24879937503E+03  0.48930162176E+03  0.68868846573E+03  0.00000000000E+00 0. -1.
        -11    1    3    3    0    0 -0.24878483184E+03 -0.14068171413E+03  0.19300980701E+03  0.34487392311E+03  0.00000000000E+00 0.  1.
          2    1    6    6  502    0  0.36921142305E+03  0.77765339250E+02 -0.19669600971E+03  0.42550422223E+03  0.00000000000E+00 0. -1.
          1    1    5    5  503    0  0.18038538184E+03  0.28550944518E+03  0.56841216613E+03  0.66117087041E+03  0.00000000000E+00 0. -1.
         -2    1    5    5    0  503 -0.49097879990E+00  0.45798135082E+01  0.44864226722E+02  0.45100050902E+02  0.00000000000E+00 0.  1.
         -1    1    6    6    0  502  0.11558115381E+03  0.21626491221E+02 -0.17506962959E+02  0.11888314427E+03  0.00000000000E+00 0.  1.
<mgrwt>
<rscale>  0 0.20120315E+04</rscale>
<asrwt>0</asrwt>
<pdfrwt beam="1">  1        1 0.25889273E+00 0.20120315E+04</pdfrwt>
<pdfrwt beam="2">  1       -1 0.92525834E-01 0.20120315E+04</pdfrwt>
<totfact> 0.51541006E+00</totfact>
</mgrwt>
</event>
<event>
12    1  0.2588309E-007  0.2277476E+04  0.7818608E-02  0.8486855E-01
         -1   -1    0    0    0  501 -0.00000000000E+00  0.00000000000E+00  0.90570176750E+03  0.90570176750E+03  0.00000000000E+00 0.  1.
          1   -1    0    0  501    0  0.00000000000E+00 -0.00000000000E+00 -0.14317336279E+04  0.14317336279E+04  0.00000000000E+00 0. -1.
         23    2    1    2    0    0  0.66661704524E+03  0.27815599186E+02 -0.92822731346E+03  0.11468934774E+04  0.92772358616E+02 0.  0.
        254    2    1    2    0    0 -0.66661704524E+03 -0.27815599186E+02  0.40219545307E+03  0.11905419180E+04  0.90026489627E+03 0.  0.
        -24    2    4    4    0    0  0.73186369369E+01 -0.35230934102E+03  0.19138624607E+03  0.40939657523E+03  0.82470760935E+02 0.  0.
         24    2    4    4    0    0 -0.67393568217E+03  0.32449374183E+03  0.21080920699E+03  0.78114534275E+03  0.79133005475E+02 0.  0.
         13    1    3    3    0    0  0.35946616072E+03 -0.25533305593E+02 -0.53562081328E+03  0.64556759988E+03  0.00000000000E+00 0. -1.
        -13    1    3    3    0    0  0.30715088452E+03  0.53348904778E+02 -0.39260650018E+03  0.50132587753E+03  0.00000000000E+00 0.  1.
          2    1    6    6  502    0 -0.64023858365E+03  0.32364897201E+03  0.19243611175E+03  0.74275551710E+03  0.00000000000E+00 0. -1.
          1    1    5    5  503    0  0.33870703929E+02 -0.14706626367E+03  0.50917901470E+02  0.15927442728E+03  0.00000000000E+00 0. -1.
         -2    1    5    5    0  503 -0.26552066992E+02 -0.20524307735E+03  0.14046834460E+03  0.25012214795E+03  0.00000000000E+00 0.  1.
         -1    1    6    6    0  502 -0.33697098519E+02  0.84476982649E+00  0.18373095241E+02  0.38389825649E+02  0.00000000000E+00 0.  1.
<mgrwt>
<rscale>  0 0.22774755E+04</rscale>
<asrwt>0</asrwt>
<pdfrwt beam="1">  1        1 0.22026671E+00 0.22774755E+04</pdfrwt>
<pdfrwt beam="2">  1       -1 0.13933873E+00 0.22774755E+04</pdfrwt>
<totfact> 0.28054069E+00</totfact>
</mgrwt>
</event>
<event>
12    1  0.2588309E-007  0.2593771E+04  0.7818608E-02  0.8370320E-01
         -2   -1    0    0    0  501 -0.00000000000E+00  0.00000000000E+00  0.81843879672E+03  0.81843879672E+03  0.00000000000E+00 0.  1.
          2   -1    0    0  501    0  0.00000000000E+00 -0.00000000000E+00 -0.20550246622E+04  0.20550246622E+04  0.00000000000E+00 0. -1.
         23    2    1    2    0    0 -0.51556713673E+03  0.98900023265E+03 -0.29075848523E+03  0.11560672081E+04  0.89554231374E+02 0.  0.
        254    2    1    2    0    0  0.51556713673E+03 -0.98900023265E+03 -0.94582738023E+03  0.17173962508E+04  0.90051624987E+03 0.  0.
        -24    2    4    4    0    0  0.57212961491E+03 -0.10907506932E+04 -0.97628968519E+03  0.15737445615E+04  0.80380496957E+02 0.  0.
         24    2    4    4    0    0 -0.56562478184E+02  0.10175046056E+03  0.30462304957E+02  0.14365168931E+03  0.78456265877E+02 0.  0.
         13    1    3    3    0    0 -0.33793450415E+03  0.71803905968E+03 -0.18080881122E+03  0.81392361222E+03  0.00000000000E+00 0.  1.
        -13    1    3    3    0    0 -0.17763263258E+03  0.27096117297E+03 -0.10994967402E+03  0.34214359592E+03  0.00000000000E+00 0. -1.
          2    1    6    6  502    0 -0.38385116483E+02  0.72605567755E+02 -0.18168501176E+02  0.84113495180E+02  0.00000000000E+00 0. -1.
          1    1    5    5  503    0  0.47490770495E+03 -0.89219858137E+03 -0.76119714786E+03  0.12652970935E+04  0.00000000000E+00 0. -1.
         -2    1    5    5    0  503  0.97221909956E+02 -0.19855211185E+03 -0.21509253732E+03  0.30844746799E+03  0.00000000000E+00 0.  1.
         -1    1    6    6    0  502 -0.18177361701E+02  0.29144892809E+02  0.48630806133E+02  0.59538194131E+02  0.00000000000E+00 0.  1.
<mgrwt>
<rscale>  0 0.25937709E+04</rscale>
<asrwt>0</asrwt>
<pdfrwt beam="1">  1        2 0.31615764E+00 0.25937709E+04</pdfrwt>
<pdfrwt beam="2">  1       -2 0.12591366E+00 0.25937709E+04</pdfrwt>
<totfact> 0.25939472E+00</totfact>
</mgrwt>
</event>
<event>
12    1  0.2588309E-007  0.3805417E+04  0.7818608E-02  0.8044993E-01
          1   -1    0    0  501    0  0.00000000000E+00  0.00000000000E+00  0.15754649516E+04  0.15754649516E+04  0.00000000000E+00 0. -1.
         -1   -1    0    0    0  501 -0.00000000000E+00 -0.00000000000E+00 -0.22979247711E+04  0.22979247711E+04  0.00000000000E+00 0.  1.
         23    2    1    2    0    0  0.56658793591E+02 -0.17766873356E+04 -0.59837975940E+03  0.18779660695E+04  0.94181284370E+02 0.  0.
        254    2    1    2    0    0 -0.56658793591E+02  0.17766873356E+04 -0.12408006017E+03  0.19954236532E+04  0.89804876648E+03 0.  0.
        -24    2    4    4    0    0 -0.29252734972E+03  0.32341745498E+03  0.19878996268E+03  0.48607282310E+03  0.81106347310E+02 0.  0.
         24    2    4    4    0    0  0.23586855613E+03  0.14532698806E+04 -0.32287002285E+03  0.15093508301E+04  0.79167890743E+02 0.  0.
         13    1    3    3    0    0 -0.25441584690E+02 -0.56196826100E+03 -0.18260125595E+03  0.59143792512E+03  0.00000000000E+00 0. -1.
        -13    1    3    3    0    0  0.82100378280E+02 -0.12147190746E+04 -0.41577850345E+03  0.12865281444E+04  0.00000000000E+00 0.  1.
          2    1    6    6  502    0  0.73197692937E+02  0.47639716786E+03 -0.14366455614E+03  0.50294300719E+03  0.00000000000E+00 0. -1.
          1    1    5    5  503    0 -0.68517800425E+02  0.31712862658E+02  0.27557707070E+02  0.80373016940E+02  0.00000000000E+00 0. -1.
         -2    1    5    5    0  503 -0.22400954930E+03  0.29170459232E+03  0.17123225561E+03  0.40569980616E+03  0.00000000000E+00 0.  1.
         -1    1    6    6    0  502  0.16267086319E+03  0.97687271278E+03 -0.17920546671E+03  0.10064078229E+04  0.00000000000E+00 0.  1.
<mgrwt>
<rscale>  0 0.38054172E+04</rscale>
<asrwt>0</asrwt>
<pdfrwt beam="1">  1        1 0.24237922E+00 0.38054172E+04</pdfrwt>
<pdfrwt beam="2">  1       -1 0.35352689E+00 0.38054172E+04</pdfrwt>
<totfact> 0.67894729E-02</totfact>
</mgrwt>
</event>
<event>
12    1  0.2588309E-007  0.2650310E+04  0.7818608E-02  0.8351310E-01
         -2   -1    0    0    0  501 -0.00000000000E+00  0.00000000000E+00  0.11487426531E+04  0.11487426531E+04  0.00000000000E+00 0. -1.
          2   -1    0    0  501    0  0.00000000000E+00 -0.00000000000E+00 -0.15286594529E+04  0.15286594529E+04  0.00000000000E+00 0.  1.
         23    2    1    2    0    0 -0.71089251239E+03 -0.54561647302E+03  0.59218154809E+03  0.10778620907E+04  0.89678319336E+02 0.  0.
        254    2    1    2    0    0  0.71089251239E+03  0.54561647302E+03 -0.97209834790E+03  0.15995400152E+04  0.90027082735E+03 0.  0.
        -24    2    4    4    0    0 -0.17783907630E+02  0.52729769855E+03 -0.35877360045E+03  0.64295273532E+03  0.79439242229E+02 0.  0.
         24    2    4    4    0    0  0.72867642002E+03  0.18318774465E+02 -0.61332474745E+03  0.95658727992E+03  0.87103821299E+02 0.  0.
         11    1    3    3    0    0 -0.50659759204E+03 -0.43342673250E+03  0.45884729880E+03  0.80934584470E+03  0.00000000000E+00 0. -1.
        -11    1    3    3    0    0 -0.20429492034E+03 -0.11218974052E+03  0.13333424928E+03  0.26851624604E+03  0.00000000000E+00 0.  1.
          4    1    6    6  502    0  0.72727780117E+01 -0.96296662762E+01 -0.83458887169E+01  0.14672342385E+02  0.00000000000E+00 0. -1.
          3    1    5    5  503    0 -0.29936576802E+02  0.13235604215E+03 -0.12091752454E+03  0.18175634312E+03  0.00000000000E+00 0. -1.
         -4    1    5    5    0  503  0.12152669172E+02  0.39494165640E+03 -0.23785607592E+03  0.46119639220E+03  0.00000000000E+00 0.  1.
         -3    1    6    6    0  502  0.72140364201E+03  0.27948440741E+02 -0.60497885873E+03  0.94191493753E+03  0.00000000000E+00 0.  1.
<mgrwt>
<rscale>  0 0.26503104E+04</rscale>
<asrwt>0</asrwt>
<pdfrwt beam="1">  1        2 0.23517838E+00 0.26503104E+04</pdfrwt>
<pdfrwt beam="2">  1       -2 0.17672964E+00 0.26503104E+04</pdfrwt>
<totfact> 0.20587494E+00</totfact>
</mgrwt>
</event>
<event>
12    1  0.2588309E-007  0.1731945E+04  0.7818608E-02  0.8743352E-01
          1   -1    0    0  501    0  0.00000000000E+00  0.00000000000E+00  0.11091660403E+04  0.11091660403E+04  0.00000000000E+00 0. -1.
         -1   -1    0    0    0  501 -0.00000000000E+00 -0.00000000000E+00 -0.67610143203E+03  0.67610143203E+03  0.00000000000E+00 0.  1.
         23    2    1    2    0    0  0.42830308822E+02 -0.59232126879E+03 -0.50239476674E+02  0.60320757874E+03  0.93040083974E+02 0.  0.
        254    2    1    2    0    0 -0.42830308822E+02  0.59232126879E+03  0.48330408494E+03  0.11820598936E+04  0.90055751214E+03 0.  0.
        -24    2    4    4    0    0 -0.40021544158E+03  0.50161845299E+03  0.47941187811E+03  0.80501594187E+03  0.80133923673E+02 0.  0.
         24    2    4    4    0    0  0.35738513276E+03  0.90702815800E+02  0.38922068218E+01  0.37704395171E+03  0.78713774742E+02 0.  0.
         13    1    3    3    0    0  0.50025564943E+02 -0.14810872697E+03 -0.21725400099E+01  0.15634408234E+03  0.00000000000E+00 0. -1.
        -13    1    3    3    0    0 -0.71952561202E+01 -0.44421254182E+03 -0.48066936664E+02  0.44686349640E+03  0.00000000000E+00 0.  1.
          2    1    6    6  502    0  0.19534389107E+03  0.62405578890E+02 -0.34949600853E+02  0.20802684119E+03  0.00000000000E+00 0. -1.
          3    1    5    5  503    0 -0.33239036594E+03  0.39087505716E+03  0.34612846073E+03  0.61892776397E+03  0.00000000000E+00 0. -1.
         -4    1    5    5    0  503 -0.67825075644E+02  0.11074339583E+03  0.13328341738E+03  0.18608817790E+03  0.00000000000E+00 0.  1.
         -1    1    6    6    0  502  0.16204124169E+03  0.28297236910E+02  0.38841807675E+02  0.16901711052E+03  0.00000000000E+00 0.  1.
<mgrwt>
<rscale>  0 0.17319454E+04</rscale>
<asrwt>0</asrwt>
<pdfrwt beam="1">  1        1 0.17064093E+00 0.17319454E+04</pdfrwt>
<pdfrwt beam="2">  1       -1 0.10401561E+00 0.17319454E+04</pdfrwt>
<totfact> 0.10308128E+01</totfact>
</mgrwt>
</event>
<event>
12    1  0.2588309E-007  0.2026756E+04  0.7818608E-02  0.8594212E-01
          2   -1    0    0  501    0  0.00000000000E+00  0.00000000000E+00  0.19168924854E+04  0.19168924854E+04  0.00000000000E+00 0.  1.
         -2   -1    0    0    0  501 -0.00000000000E+00 -0.00000000000E+00 -0.53572919742E+03  0.53572919742E+03  0.00000000000E+00 0. -1.
         23    2    1    2    0    0  0.62123253071E+03  0.26678992475E+03  0.20065885526E+02  0.68250824276E+03  0.91149001706E+02 0.  0.
        254    2    1    2    0    0 -0.62123253071E+03 -0.26678992475E+03  0.13610974024E+04  0.17701134400E+04  0.90752891441E+03 0.  0.
        -24    2    4    4    0    0 -0.64689602918E+03 -0.11561573627E+03  0.35904151306E+03  0.75324157208E+03  0.81366988139E+02 0.  0.
         24    2    4    4    0    0  0.25663498468E+02 -0.15117418848E+03  0.10020558893E+04  0.10168718679E+04  0.80000874990E+02 0.  0.
         13    1    3    3    0    0  0.34863816896E+03  0.19432957131E+03 -0.65602981395E+01  0.39919367812E+03  0.00000000000E+00 0. -1.
        -13    1    3    3    0    0  0.27259436175E+03  0.72460353441E+02  0.26626183665E+02  0.28331456464E+03  0.00000000000E+00 0.  1.
          4    1    6    6  502    0  0.20497099156E+02 -0.14535401271E+03  0.72524011683E+03  0.73994671913E+03  0.00000000000E+00 0. -1.
          1    1    5    5  503    0 -0.56192646888E+03 -0.82529603173E+02  0.28323038034E+03  0.63465891640E+03  0.00000000000E+00 0. -1.
         -2    1    5    5    0  503 -0.84969560305E+02 -0.33086133096E+02  0.75811132723E+02  0.11858265567E+03  0.00000000000E+00 0.  1.
         -3    1    6    6    0  502  0.51663993124E+01 -0.58201757780E+01  0.27681577251E+03  0.27692514880E+03  0.00000000000E+00 0.  1.
<mgrwt>
<rscale>  0 0.20267563E+04</rscale>
<asrwt>0</asrwt>
<pdfrwt beam="1">  1        2 0.29490653E+00 0.20267563E+04</pdfrwt>
<pdfrwt beam="2">  1       -2 0.82419877E-01 0.20267563E+04</pdfrwt>
<totfact> 0.89022171E+00</totfact>
</mgrwt>
</event>
<event>
12    1  0.2588309E-007  0.1352408E+04  0.7818608E-02  0.8989007E-01
         -2   -1    0    0    0  501 -0.00000000000E+00  0.00000000000E+00  0.55166617022E+03  0.55166617022E+03  0.00000000000E+00 0. -1.
          2   -1    0    0  501    0  0.00000000000E+00 -0.00000000000E+00 -0.82885595886E+03  0.82885595886E+03  0.00000000000E+00 0.  1.
         23    2    1    2    0    0  0.62738274989E+02  0.14507962930E+03  0.26219853738E+03  0.31959944912E+03  0.91714474763E+02 0.  0.
        254    2    1    2    0    0 -0.62738274989E+02 -0.14507962930E+03 -0.53938832602E+03  0.10609226800E+04  0.89979607502E+03 0.  0.
        -24    2    4    4    0    0 -0.27469333751E+03 -0.22647233852E+03 -0.68802318564E+03  0.77826392103E+03  0.74650365072E+02 0.  0.
         24    2    4    4    0    0  0.21195506252E+03  0.81392709216E+02  0.14863485962E+03  0.28265875893E+03  0.79081798543E+02 0.  0.
         11    1    3    3    0    0  0.51954357337E+02  0.19651039657E+02  0.63387002242E+02  0.84281259240E+02  0.00000000000E+00 0. -1.
        -11    1    3    3    0    0  0.10783917652E+02  0.12542858965E+03  0.19881153514E+03  0.23531818987E+03  0.00000000000E+00 0.  1.
          2    1    6    6  502    0  0.51416200711E+02  0.58510787996E+01  0.73714896602E+02  0.90065236355E+02  0.00000000000E+00 0. -1.
          3    1    5    5  503    0 -0.81557257093E+02 -0.28370227337E+02 -0.18547721060E+03  0.20459289244E+03  0.00000000000E+00 0. -1.
         -4    1    5    5    0  503 -0.19313608042E+03 -0.19810211118E+03 -0.50254597504E+03  0.57367102859E+03  0.00000000000E+00 0.  1.
         -1    1    6    6    0  502  0.16053886181E+03  0.75541630416E+02  0.74919963020E+02  0.19259352257E+03  0.00000000000E+00 0.  1.
<mgrwt>
<rscale>  0 0.13524079E+04</rscale>
<asrwt>0</asrwt>
<pdfrwt beam="1">  1        2 0.12751630E+00 0.13524079E+04</pdfrwt>
<pdfrwt beam="2">  1       -2 0.84871719E-01 0.13524079E+04</pdfrwt>
<totfact> 0.38797287E+01</totfact>
</mgrwt>
</event>
<event>
12    1  0.2588309E-007  0.1875390E+04  0.7818608E-02  0.8667204E-01
          1   -1    0    0  501    0  0.00000000000E+00  0.00000000000E+00  0.61954468300E+03  0.61954468300E+03  0.00000000000E+00 0. -1.
         -1   -1    0    0    0  501 -0.00000000000E+00 -0.00000000000E+00 -0.14192230302E+04  0.14192230302E+04  0.00000000000E+00 0.  1.
         23    2    1    2    0    0  0.42386426079E+03  0.56712888835E+03 -0.43705593003E+03  0.83710361606E+03  0.91806810607E+02 0.  0.
        254    2    1    2    0    0 -0.42386426079E+03 -0.56712888835E+03 -0.36262241717E+03  0.12016640971E+04  0.90066947174E+03 0.  0.
        -24    2    4    4    0    0 -0.27069217070E+01  0.20527498198E+03 -0.20703263499E+03  0.30472563672E+03  0.88600542146E+02 0.  0.
         24    2    4    4    0    0 -0.42115733909E+03 -0.77240387033E+03 -0.15558978218E+03  0.89693846042E+03  0.79430336080E+02 0.  0.
         11    1    3    3    0    0  0.62931278114E+02  0.39400587693E+02 -0.37624325215E+02  0.83236662136E+02  0.00000000000E+00 0. -1.
        -11    1    3    3    0    0  0.36093298268E+03  0.52772830065E+03 -0.39943160482E+03  0.75386695393E+03  0.00000000000E+00 0.  1.
          2    1    6    6  502    0 -0.30775327947E+03 -0.62935704926E+03 -0.11526092428E+03  0.70999116695E+03  0.00000000000E+00 0. -1.
          1    1    5    5  503    0 -0.65273405744E+01  0.13513284734E+03 -0.18859081186E+03  0.23209908859E+03  0.00000000000E+00 0. -1.
         -2    1    5    5    0  503  0.38204188674E+01  0.70142134643E+02 -0.18441823127E+02  0.72626548127E+02  0.00000000000E+00 0.  1.
         -1    1    6    6    0  502 -0.11340405962E+03 -0.14304682107E+03 -0.40328857902E+02  0.18694729347E+03  0.00000000000E+00 0.  1.
<mgrwt>
<rscale>  0 0.18753902E+04</rscale>
<asrwt>0</asrwt>
<pdfrwt beam="1">  1        1 0.95314568E-01 0.18753902E+04</pdfrwt>
<pdfrwt beam="2">  1       -1 0.21834200E+00 0.18753902E+04</pdfrwt>
<totfact> 0.34597087E+00</totfact>
</mgrwt>
</event>
<event>
12    1  0.2588309E-007  0.1707809E+04  0.7818608E-02  0.8756923E-01
          1   -1    0    0  501    0  0.00000000000E+00  0.00000000000E+00  0.73532014151E+03  0.73532014151E+03  0.00000000000E+00 0. -1.
         -1   -1    0    0    0  501 -0.00000000000E+00 -0.00000000000E+00 -0.99161323297E+03  0.99161323297E+03  0.00000000000E+00 0.  1.
         23    2    1    2    0    0  0.54032622221E+03 -0.94063813839E+02 -0.36898492415E+03  0.66716537710E+03  0.90329057673E+02 0.  0.
        254    2    1    2    0    0 -0.54032622221E+03  0.94063813839E+02  0.11269183268E+03  0.10597679974E+04  0.89978238016E+03 0.  0.
        -24    2    4    4    0    0 -0.74954432292E+03 -0.55969719518E+02 -0.25534699158E+02  0.75623850268E+03  0.79343245162E+02 0.  0.
         24    2    4    4    0    0  0.20921810071E+03  0.15003353336E+03  0.13822653184E+03  0.30352949470E+03  0.82105452018E+02 0.  0.
         11    1    3    3    0    0  0.40797647724E+03 -0.31015680204E+02 -0.26639600216E+03  0.48823519780E+03  0.00000000000E+00 0.  1.
        -11    1    3    3    0    0  0.13234974497E+03 -0.63048133635E+02 -0.10258892199E+03  0.17893017930E+03  0.00000000000E+00 0. -1.
          2    1    6    6  502    0  0.21855261741E+02  0.44989050269E+01  0.41907533441E+02  0.47477720789E+02  0.00000000000E+00 0. -1.
          1    1    5    5  503    0 -0.17642990361E+03  0.12366867526E+01 -0.36506951444E+02  0.18017157874E+03  0.00000000000E+00 0. -1.
         -2    1    5    5    0  503 -0.57311441931E+03 -0.57206406270E+02  0.10972252286E+02  0.57606692394E+03  0.00000000000E+00 0.  1.
         -1    1    6    6    0  502  0.18736283897E+03  0.14553462833E+03  0.96318998402E+02  0.25605177391E+03  0.00000000000E+00 0.  1.
<mgrwt>
<rscale>  0 0.17078093E+04</rscale>
<asrwt>0</asrwt>
<pdfrwt beam="1">  1        1 0.11312618E+00 0.17078093E+04</pdfrwt>
<pdfrwt beam="2">  1       -1 0.15255588E+00 0.17078093E+04</pdfrwt>
<totfact> 0.80061287E+00</totfact>
</mgrwt>
</event>
<event>
12    1  0.2588309E-007  0.1913676E+04  0.7818608E-02  0.8648079E-01
         -1   -1    0    0    0  501 -0.00000000000E+00  0.00000000000E+00  0.75774787691E+03  0.75774787691E+03  0.00000000000E+00 0.  1.
          1   -1    0    0  501    0  0.00000000000E+00 -0.00000000000E+00 -0.12082370555E+04  0.12082370555E+04  0.00000000000E+00 0. -1.
         23    2    1    2    0    0  0.13619726115E+03 -0.55910044126E+03 -0.65342570421E+03  0.87523881764E+03  0.89077716816E+02 0.  0.
        254    2    1    2    0    0 -0.13619726115E+03  0.55910044126E+03  0.20293652560E+03  0.10907461148E+04  0.90410223764E+03 0.  0.
        -24    2    4    4    0    0 -0.27651313341E+03  0.49383727403E+03 -0.23699310634E+03  0.61804301192E+03  0.74004499624E+02 0.  0.
         24    2    4    4    0    0  0.14031587227E+03  0.65263167228E+02  0.43992963194E+03  0.47270310285E+03  0.77216043520E+02 0.  0.
         13    1    3    3    0    0  0.10276156297E+03 -0.46725158535E+03 -0.58600913009E+03  0.75649896457E+03  0.00000000000E+00 0.  1.
        -13    1    3    3    0    0  0.33435698173E+02 -0.91848855906E+02 -0.67416574117E+02  0.11873985308E+03  0.00000000000E+00 0. -1.
          4    1    6    6  502    0  0.14216550963E+03  0.60240924590E+02  0.34915886481E+03  0.38177469010E+03  0.00000000000E+00 0. -1.
          3    1    5    5  503    0 -0.24695369260E+03  0.41168167570E+03 -0.17504665197E+03  0.51098851138E+03  0.00000000000E+00 0. -1.
         -4    1    5    5    0  503 -0.29559440818E+02  0.82155598327E+02 -0.61946454369E+02  0.10705450054E+03  0.00000000000E+00 0.  1.
         -3    1    6    6    0  502 -0.18496373693E+01  0.50222426386E+01  0.90770767134E+02  0.90928412752E+02  0.00000000000E+00 0.  1.
<mgrwt>
<rscale>  0 0.19136761E+04</rscale>
<asrwt>0</asrwt>
<pdfrwt beam="1">  1        1 0.18588262E+00 0.19136761E+04</pdfrwt>
<pdfrwt beam="2">  1       -1 0.11657660E+00 0.19136761E+04</pdfrwt>
<totfact> 0.65425560E+00</totfact>
</mgrwt>
</event>
<event>
12    1  0.2588309E-007  0.1673578E+04  0.7818608E-02  0.8776579E-01
         -2   -1    0    0    0  501 -0.00000000000E+00  0.00000000000E+00  0.43470892280E+03  0.43470892280E+03  0.00000000000E+00 0.  1.
          2   -1    0    0  501    0  0.00000000000E+00 -0.00000000000E+00 -0.16107701803E+04  0.16107701803E+04  0.00000000000E+00 0. -1.
         23    2    1    2    0    0  0.57993331614E+03  0.15372831373E+02 -0.55850885299E+03  0.81051465231E+03  0.91885187158E+02 0.  0.
        254    2    1    2    0    0 -0.57993331614E+03 -0.15372831373E+02 -0.61755240453E+03  0.12349644508E+04  0.89844713108E+03 0.  0.
        -24    2    4    4    0    0 -0.66691113066E+03 -0.25600395269E+03 -0.21298183831E+03  0.74970130578E+03  0.79889326264E+02 0.  0.
         24    2    4    4    0    0  0.86977814517E+02  0.24063112131E+03 -0.40457056622E+03  0.48526314505E+03  0.79589572948E+02 0.  0.
         13    1    3    3    0    0  0.10496559042E+03 -0.11511070343E+02 -0.60060379471E+02  0.12148057086E+03  0.00000000000E+00 0.  1.
        -13    1    3    3    0    0  0.47496772572E+03  0.26883901716E+02 -0.49844847352E+03  0.68903408145E+03  0.00000000000E+00 0. -1.
          4    1    6    6  502    0  0.88587907486E+02  0.24555747195E+03 -0.40236873856E+03  0.47963203725E+03  0.00000000000E+00 0. -1.
          1    1    5    5  503    0 -0.64167275626E+03 -0.22868539587E+03 -0.19619471693E+03  0.70889583393E+03  0.00000000000E+00 0. -1.
         -2    1    5    5    0  503 -0.25238374401E+02 -0.27318556818E+02 -0.16787121377E+02  0.40805471853E+02  0.00000000000E+00 0.  1.
         -3    1    6    6    0  502 -0.16100929690E+01 -0.49263506366E+01 -0.22018276611E+01  0.56311077963E+01  0.00000000000E+00 0.  1.
<mgrwt>
<rscale>  0 0.16735784E+04</rscale>
<asrwt>0</asrwt>
<pdfrwt beam="1">  1        2 0.24781080E+00 0.16735784E+04</pdfrwt>
<pdfrwt beam="2">  1       -2 0.66878295E-01 0.16735784E+04</pdfrwt>
<totfact> 0.21526552E+01</totfact>
</mgrwt>
</event>
<event>
12    1  0.2588309E-007  0.2499725E+04  0.7818608E-02  0.8403083E-01
          2   -1    0    0  501    0  0.00000000000E+00  0.00000000000E+00  0.16110511597E+04  0.16110511597E+04  0.00000000000E+00 0. -1.
         -2   -1    0    0    0  501 -0.00000000000E+00 -0.00000000000E+00 -0.96965041838E+03  0.96965041838E+03  0.00000000000E+00 0.  1.
         23    2    1    2    0    0  0.19008733211E+03  0.92617437357E+03  0.83234796119E+03  0.12627782313E+04  0.88733133447E+02 0.  0.
        254    2    1    2    0    0 -0.19008733211E+03 -0.92617437357E+03 -0.19094721986E+03  0.13179233467E+04  0.89806956469E+03 0.  0.
        -24    2    4    4    0    0 -0.18130726190E+03  0.11976289514E+02  0.21522663741E+03  0.29249666969E+03  0.78841877211E+02 0.  0.
         24    2    4    4    0    0 -0.87800702086E+01 -0.93815066309E+03 -0.40617385727E+03  0.10254266770E+04  0.79491580658E+02 0.  0.
         11    1    3    3    0    0  0.29610429412E+02  0.35281674240E+03  0.32249255028E+03  0.47891322412E+03  0.00000000000E+00 0. -1.
        -11    1    3    3    0    0  0.16047690270E+03  0.57335763117E+03  0.50985541091E+03  0.78386500723E+03  0.00000000000E+00 0.  1.
          4    1    6    6  502    0 -0.57789456204E+00 -0.67771682558E+03 -0.33104554017E+03  0.75424901678E+03  0.00000000000E+00 0. -1.
          3    1    5    5  503    0 -0.16114949894E+03  0.31687526933E+02  0.20460914752E+03  0.26237027961E+03  0.00000000000E+00 0. -1.
         -4    1    5    5    0  503 -0.20157762958E+02 -0.19711237419E+02  0.10617489893E+02  0.30126390087E+02  0.00000000000E+00 0.  1.
         -3    1    6    6    0  502 -0.82021756466E+01 -0.26043383750E+03 -0.75128317098E+02  0.27117766027E+03  0.00000000000E+00 0.  1.
<mgrwt>
<rscale>  0 0.24997251E+04</rscale>
<asrwt>0</asrwt>
<pdfrwt beam="1">  1        2 0.24785402E+00 0.24997251E+04</pdfrwt>
<pdfrwt beam="2">  1       -2 0.14917699E+00 0.24997251E+04</pdfrwt>
<totfact> 0.29816456E+00</totfact>
</mgrwt>
</event>
<event>
12    1  0.2588309E-007  0.1716800E+04  0.7818608E-02  0.8751840E-01
          2   -1    0    0  501    0  0.00000000000E+00  0.00000000000E+00  0.35538546493E+04  0.35538546493E+04  0.00000000000E+00 0. -1.
         -2   -1    0    0    0  501 -0.00000000000E+00 -0.00000000000E+00 -0.20733849431E+03  0.20733849431E+03  0.00000000000E+00 0.  1.
         23    2    1    2    0    0 -0.32483108171E+03 -0.51244814033E+03  0.96053393344E+03  0.11399180392E+04  0.93109454984E+02 0.  0.
        254    2    1    2    0    0  0.32483108171E+03  0.51244814033E+03  0.23859822216E+04  0.26212751044E+04  0.90002982357E+03 0.  0.
        -24    2    4    4    0    0 -0.79896519365E+02  0.26729745047E+02  0.16229143740E+04  0.16270361560E+04  0.79357763980E+02 0.  0.
         24    2    4    4    0    0  0.40472760107E+03  0.48571839529E+03  0.76306784760E+03  0.99423894841E+03  0.80695451535E+02 0.  0.
         11    1    3    3    0    0 -0.18330239164E+03 -0.35696690809E+03  0.58230792411E+03  0.70718290331E+03  0.00000000000E+00 0.  1.
        -11    1    3    3    0    0 -0.14152869007E+03 -0.15548123224E+03  0.37822600932E+03  0.43273513588E+03  0.00000000000E+00 0. -1.
          2    1    6    6  502    0  0.28826143367E+03  0.33543770910E+03  0.47446011984E+03  0.64863357617E+03  0.00000000000E+00 0. -1.
          3    1    5    5  503    0  0.97391332356E+00  0.81568843723E+01  0.78091160965E+03  0.78095481646E+03  0.00000000000E+00 0. -1.
         -4    1    5    5    0  503 -0.80870432688E+02  0.18572860674E+02  0.84200276434E+03  0.84608133958E+03  0.00000000000E+00 0.  1.
         -1    1    6    6    0  502  0.11646616740E+03  0.15028068619E+03  0.28860772776E+03  0.34560537223E+03  0.00000000000E+00 0.  1.
<mgrwt>
<rscale>  0 0.17168004E+04</rscale>
<asrwt>0</asrwt>
<pdfrwt beam="1">  1        2 0.54674682E+00 0.17168004E+04</pdfrwt>
<pdfrwt beam="2">  1       -2 0.31898232E-01 0.17168004E+04</pdfrwt>
<totfact> 0.65360097E+00</totfact>
</mgrwt>
</event>
<event>
12    1  0.2588309E-007  0.1536300E+04  0.7818608E-02  0.8860667E-01
         -2   -1    0    0    0  501 -0.00000000000E+00  0.00000000000E+00  0.57502614246E+03  0.57502614246E+03  0.00000000000E+00 0.  1.
          2   -1    0    0  501    0  0.00000000000E+00 -0.00000000000E+00 -0.10261343599E+04  0.10261343599E+04  0.00000000000E+00 0. -1.
         23    2    1    2    0    0  0.45279687074E+03  0.20236640124E+03 -0.92130419975E+02  0.51247410709E+03  0.90357786867E+02 0.  0.
        254    2    1    2    0    0 -0.45279687074E+03 -0.20236640124E+03 -0.35897779750E+03  0.10886863953E+04  0.90021988523E+03 0.  0.
        -24    2    4    4    0    0 -0.50266172415E+03  0.17054781835E+03  0.34795144115E+02  0.53833105947E+03  0.82669584901E+02 0.  0.
         24    2    4    4    0    0  0.49864853412E+02 -0.37291421959E+03 -0.39377294161E+03  0.55035533585E+03  0.79261260241E+02 0.  0.
         11    1    3    3    0    0  0.37797777062E+03  0.14553787150E+03 -0.10292491587E+03  0.41790190886E+03  0.00000000000E+00 0. -1.
        -11    1    3    3    0    0  0.74819100119E+02  0.56828529746E+02  0.10794495897E+02  0.94572198226E+02  0.00000000000E+00 0.  1.
          2    1    6    6  502    0  0.55070157675E+02 -0.22177076506E+03 -0.27821901548E+03  0.36002890867E+03  0.00000000000E+00 0. -1.
          3    1    5    5  503    0 -0.45320330732E+03  0.13704406003E+03  0.97925264388E+01  0.47357175352E+03  0.00000000000E+00 0. -1.
         -4    1    5    5    0  503 -0.49458416824E+02  0.33503758316E+02  0.25002617676E+02  0.64759305947E+02  0.00000000000E+00 0.  1.
         -1    1    6    6    0  502 -0.52053042636E+01 -0.15114345453E+03 -0.11555392613E+03  0.19032642718E+03  0.00000000000E+00 0.  1.
<mgrwt>
<rscale>  0 0.15362996E+04</rscale>
<asrwt>0</asrwt>
<pdfrwt beam="1">  1        2 0.15786682E+00 0.15362996E+04</pdfrwt>
<pdfrwt beam="2">  1       -2 0.88465561E-01 0.15362996E+04</pdfrwt>
<totfact> 0.25684507E+01</totfact>
</mgrwt>
</event>
<event>
12    1  0.2588309E-007  0.3911087E+04  0.7818608E-02  0.8022727E-01
         -2   -1    0    0    0  501 -0.00000000000E+00  0.00000000000E+00  0.13024452731E+04  0.13024452731E+04  0.00000000000E+00 0.  1.
          2   -1    0    0  501    0  0.00000000000E+00 -0.00000000000E+00 -0.29361311534E+04  0.29361311534E+04  0.00000000000E+00 0. -1.
         23    2    1    2    0    0 -0.72200180462E+03  0.92502079481E+03  0.77706551445E+03  0.14103744737E+04  0.91516477807E+02 0.  0.
        254    2    1    2    0    0  0.72200180462E+03 -0.92502079481E+03 -0.24107513947E+04  0.28282019527E+04  0.90002995576E+03 0.  0.
        -24    2    4    4    0    0  0.43207801230E+03 -0.53595936207E+03 -0.21759970514E+04  0.22837280296E+04  0.80664113451E+02 0.  0.
         24    2    4    4    0    0  0.28992379231E+03 -0.38906143273E+03 -0.23475434336E+03  0.54447392306E+03  0.76926246336E+02 0.  0.
         11    1    3    3    0    0 -0.24045348675E+03  0.38021157410E+03  0.30005120822E+03  0.54074896942E+03  0.00000000000E+00 0. -1.
        -11    1    3    3    0    0 -0.48154831787E+03  0.54480922070E+03  0.47701430623E+03  0.86962550431E+03  0.00000000000E+00 0.  1.
          4    1    6    6  502    0  0.24375795306E+03 -0.35197521083E+03 -0.22745230855E+03  0.48480825219E+03  0.00000000000E+00 0. -1.
          1    1    5    5  503    0  0.14771014170E+03 -0.14323801678E+03 -0.74059429277E+03  0.76864512091E+03  0.00000000000E+00 0. -1.
         -2    1    5    5    0  503  0.28436787060E+03 -0.39272134529E+03 -0.14354027586E+04  0.15150829087E+04  0.00000000000E+00 0.  1.
         -3    1    6    6    0  502  0.46165839251E+02 -0.37086221900E+02 -0.73020348126E+01  0.59665670875E+02  0.00000000000E+00 0.  1.
<mgrwt>
<rscale>  0 0.39110869E+04</rscale>
<asrwt>0</asrwt>
<pdfrwt beam="1">  1        2 0.45171248E+00 0.39110869E+04</pdfrwt>
<pdfrwt beam="2">  1       -2 0.20037620E+00 0.39110869E+04</pdfrwt>
<totfact> 0.20042415E-01</totfact>
</mgrwt>
</event>
<event>
12    1  0.2588309E-007  0.1148294E+04  0.7818608E-02  0.9159359E-01
          1   -1    0    0  501    0  0.00000000000E+00  0.00000000000E+00  0.13476362167E+04  0.13476362167E+04  0.00000000000E+00 0. -1.
         -1   -1    0    0    0  501 -0.00000000000E+00 -0.00000000000E+00 -0.24460956541E+03  0.24460956541E+03  0.00000000000E+00 0.  1.
         23    2    1    2    0    0  0.49576061286E+01  0.96691645291E+02 -0.35602194482E+02  0.13696516692E+03  0.90100436010E+02 0.  0.
        254    2    1    2    0    0 -0.49576061286E+01 -0.96691645291E+02  0.11386288457E+04  0.14552806151E+04  0.90110608052E+03 0.  0.
        -24    2    4    4    0    0  0.41375718486E+03  0.88013210368E+02  0.43540179021E+03  0.61244638870E+03  0.81083456356E+02 0.  0.
         24    2    4    4    0    0 -0.41871479099E+03 -0.18470485566E+03  0.70322705552E+03  0.84283422644E+03  0.80020508313E+02 0.  0.
         13    1    3    3    0    0  0.46751661443E+02  0.40769586490E+02 -0.22146519648E+02  0.65866116956E+02  0.00000000000E+00 0. -1.
        -13    1    3    3    0    0 -0.41794055315E+02  0.55922058801E+02 -0.13455674834E+02  0.71099049962E+02  0.00000000000E+00 0.  1.
          2    1    6    6  502    0 -0.50439387153E+02  0.32718248984E+01  0.90257431666E+02  0.10344680075E+03  0.00000000000E+00 0. -1.
          1    1    5    5  503    0  0.10214129562E+03 -0.11090211432E+02  0.86997951742E+02  0.13462719141E+03  0.00000000000E+00 0. -1.
         -2    1    5    5    0  503  0.31161588924E+03  0.99103421800E+02  0.34840383847E+03  0.47781919729E+03  0.00000000000E+00 0.  1.
         -1    1    6    6    0  502 -0.36827540383E+03 -0.18797668056E+03  0.61296962385E+03  0.73938742569E+03  0.00000000000E+00 0.  1.
<mgrwt>
<rscale>  0 0.11482939E+04</rscale>
<asrwt>0</asrwt>
<pdfrwt beam="1">  1        1 0.20732864E+00 0.11482939E+04</pdfrwt>
<pdfrwt beam="2">  1       -1 0.37632242E-01 0.11482939E+04</pdfrwt>
<totfact> 0.56540710E+01</totfact>
</mgrwt>
</event>
<event>
12    1  0.2588309E-007  0.2114692E+04  0.7818608E-02  0.8554799E-01
         -2   -1    0    0    0  501 -0.00000000000E+00  0.00000000000E+00  0.61084897276E+03  0.61084897276E+03  0.00000000000E+00 0.  1.
          2   -1    0    0  501    0  0.00000000000E+00 -0.00000000000E+00 -0.18302071073E+04  0.18302071073E+04  0.00000000000E+00 0. -1.
         23    2    1    2    0    0 -0.36337959378E+03  0.74155713715E+03 -0.21311647626E+03  0.85784006850E+03  0.92299695718E+02 0.  0.
        254    2    1    2    0    0  0.36337959378E+03 -0.74155713715E+03 -0.10062416583E+04  0.15832160116E+04  0.90116532755E+03 0.  0.
        -24    2    4    4    0    0  0.59603198198E+03 -0.49957678416E+03 -0.95603602029E+03  0.12350481655E+04  0.80672252265E+02 0.  0.
         24    2    4    4    0    0 -0.23265238820E+03 -0.24198035299E+03 -0.50205637972E+02  0.34816784601E+03  0.77579752155E+02 0.  0.
         13    1    3    3    0    0 -0.32407172428E+03  0.67641419858E+03 -0.21947614182E+03  0.78149115628E+03  0.00000000000E+00 0. -1.
        -13    1    3    3    0    0 -0.39307869497E+02  0.65142938574E+02  0.63596655623E+01  0.76348912216E+02  0.00000000000E+00 0.  1.
          4    1    6    6  502    0 -0.15257867282E+03 -0.17503529156E+03 -0.68741222963E+02  0.24216308642E+03  0.00000000000E+00 0. -1.
          1    1    5    5  503    0  0.18321731069E+03 -0.10867852556E+03 -0.24467854511E+03  0.32441824130E+03  0.00000000000E+00 0. -1.
         -2    1    5    5    0  503  0.41281467129E+03 -0.39089825860E+03 -0.71135747518E+03  0.91062992423E+03  0.00000000000E+00 0.  1.
         -3    1    6    6    0  502 -0.80073715383E+02 -0.66945061423E+02  0.18535584991E+02  0.10600475959E+03  0.00000000000E+00 0.  1.
<mgrwt>
<rscale>  0 0.21146916E+04</rscale>
<asrwt>0</asrwt>
<pdfrwt beam="1">  1        2 0.28157032E+00 0.21146916E+04</pdfrwt>
<pdfrwt beam="2">  1       -2 0.93976766E-01 0.21146916E+04</pdfrwt>
<totfact> 0.73042196E+00</totfact>
</mgrwt>
</event>
<event>
12    1  0.2588309E-007  0.1354332E+04  0.7818608E-02  0.8987555E-01
          1   -1    0    0  501    0  0.00000000000E+00  0.00000000000E+00  0.40790439923E+03  0.40790439923E+03  0.00000000000E+00 0. -1.
         -1   -1    0    0    0  501 -0.00000000000E+00 -0.00000000000E+00 -0.11241696807E+04  0.11241696807E+04  0.00000000000E+00 0.  1.
         23    2    1    2    0    0 -0.66134886235E+01 -0.33137140485E+03 -0.38670676928E+03  0.51737839274E+03  0.91035870281E+02 0.  0.
        254    2    1    2    0    0  0.66134886235E+01  0.33137140485E+03 -0.32955851222E+03  0.10146956872E+04  0.90063742901E+03 0.  0.
        -24    2    4    4    0    0  0.20603655316E+03  0.32884367120E+03 -0.56905639267E+03  0.69279521228E+03  0.74503736719E+02 0.  0.
         24    2    4    4    0    0 -0.19942306454E+03  0.25277336528E+01  0.23949788045E+03  0.32190047496E+03  0.80527839481E+02 0.  0.
         11    1    3    3    0    0 -0.33962228617E+02 -0.21922651093E+03 -0.20470131688E+03  0.30185480814E+03  0.00000000000E+00 0. -1.
        -11    1    3    3    0    0  0.27348739993E+02 -0.11214489392E+03 -0.18200545240E+03  0.21552358460E+03  0.00000000000E+00 0.  1.
          2    1    6    6  502    0 -0.13799352983E+03  0.38156444831E+02  0.14592059698E+03  0.20442834730E+03  0.00000000000E+00 0. -1.
          3    1    5    5  503    0  0.18789655485E+03  0.24175278911E+03 -0.44118317500E+03  0.53702152682E+03  0.00000000000E+00 0. -1.
         -2    1    5    5    0  503  0.18139998306E+02  0.87090882088E+02 -0.12787321767E+03  0.15577368545E+03  0.00000000000E+00 0.  1.
         -1    1    6    6    0  502 -0.61429534704E+02 -0.35628711179E+02  0.93577283472E+02  0.11747212766E+03  0.00000000000E+00 0.  1.
<mgrwt>
<rscale>  0 0.13543320E+04</rscale>
<asrwt>0</asrwt>
<pdfrwt beam="1">  1        1 0.62754524E-01 0.13543320E+04</pdfrwt>
<pdfrwt beam="2">  1       -1 0.17294918E+00 0.13543320E+04</pdfrwt>
<totfact> 0.13388161E+01</totfact>
</mgrwt>
</event>
<event>
12    1  0.2588309E-007  0.1942892E+04  0.7818608E-02  0.8633796E-01
          1   -1    0    0  501    0  0.00000000000E+00  0.00000000000E+00  0.25884254511E+04  0.25884254511E+04  0.00000000000E+00 0. -1.
         -1   -1    0    0    0  501 -0.00000000000E+00 -0.00000000000E+00 -0.36458730437E+03  0.36458730437E+03  0.00000000000E+00 0.  1.
         23    2    1    2    0    0 -0.75746797710E+03 -0.37311030317E+02  0.80210925049E+03  0.11077066558E+04  0.92113713385E+02 0.  0.
        254    2    1    2    0    0  0.75746797710E+03  0.37311030317E+02  0.14217288962E+04  0.18453060997E+04  0.89927287178E+03 0.  0.
        -24    2    4    4    0    0  0.92897951897E+03  0.14687938181E+03  0.12555664862E+04  0.15707871548E+04  0.79678007949E+02 0.  0.
         24    2    4    4    0    0 -0.17151154188E+03 -0.10956835149E+03  0.16616241001E+03  0.27451894489E+03  0.79556721625E+02 0.  0.
         11    1    3    3    0    0 -0.55829872257E+03 -0.54092907171E+01  0.63690435462E+03  0.84697926833E+03  0.00000000000E+00 0. -1.
        -11    1    3    3    0    0 -0.19916925453E+03 -0.31901739600E+02  0.16520489587E+03  0.26072738743E+03  0.00000000000E+00 0.  1.
          4    1    6    6  502    0 -0.14674982991E+03 -0.53004851351E+02  0.12901753860E+03  0.20246123607E+03  0.00000000000E+00 0. -1.
          1    1    5    5  503    0  0.41958663045E+03  0.33328321655E+02  0.59811636643E+03  0.73137330090E+03  0.00000000000E+00 0. -1.
         -2    1    5    5    0  503  0.50939288852E+03  0.11355106015E+03  0.65745011980E+03  0.83941385393E+03  0.00000000000E+00 0.  1.
         -3    1    6    6    0  502 -0.24761711966E+02 -0.56563500138E+02  0.37144871414E+02  0.72057708815E+02  0.00000000000E+00 0.  1.
<mgrwt>
<rscale>  0 0.19428917E+04</rscale>
<asrwt>0</asrwt>
<pdfrwt beam="1">  1        1 0.39821929E+00 0.19428917E+04</pdfrwt>
<pdfrwt beam="2">  1       -1 0.56090356E-01 0.19428917E+04</pdfrwt>
<totfact> 0.35269825E+00</totfact>
</mgrwt>
</event>
<event>
12    1  0.2588309E-007  0.2110534E+04  0.7818608E-02  0.8556617E-01
         -2   -1    0    0    0  501 -0.00000000000E+00  0.00000000000E+00  0.44689274109E+03  0.44689274109E+03  0.00000000000E+00 0. -1.
          2   -1    0    0  501    0  0.00000000000E+00 -0.00000000000E+00 -0.24918480423E+04  0.24918480423E+04  0.00000000000E+00 0.  1.
         23    2    1    2    0    0  0.72531330149E+03  0.11440822464E+03 -0.21382723969E+03  0.77024665033E+03  0.91592503705E+02 0.  0.
        254    2    1    2    0    0 -0.72531330149E+03 -0.11440822464E+03 -0.18311280615E+04  0.21684941330E+04  0.90009343971E+03 0.  0.
        -24    2    4    4    0    0  0.10180002032E+03 -0.28403238010E+03 -0.47790025087E+03  0.57147138861E+03  0.84576953956E+02 0.  0.
         24    2    4    4    0    0 -0.82711332180E+03  0.16962415546E+03 -0.13532278106E+04  0.15970227444E+04  0.79795598333E+02 0.  0.
         11    1    3    3    0    0  0.39363875918E+03  0.21619667520E+02 -0.91069364237E+02  0.40461402824E+03  0.00000000000E+00 0. -1.
        -11    1    3    3    0    0  0.33167454231E+03  0.92788557117E+02 -0.12275787545E+03  0.36563262209E+03  0.00000000000E+00 0.  1.
          2    1    6    6  502    0 -0.79317540563E+03  0.15059778362E+03 -0.12661301585E+04  0.15016299460E+04  0.00000000000E+00 0. -1.
          3    1    5    5  503    0  0.50588792740E+02 -0.24128203132E+03 -0.36964893888E+03  0.44431585905E+03  0.00000000000E+00 0. -1.
         -4    1    5    5    0  503  0.51211227577E+02 -0.42750348777E+02 -0.10825131199E+03  0.12715552956E+03  0.00000000000E+00 0.  1.
         -1    1    6    6    0  502 -0.33937916176E+02  0.19026371844E+02 -0.87097652136E+02  0.95392798405E+02  0.00000000000E+00 0.  1.
<mgrwt>
<rscale>  0 0.21105343E+04</rscale>
<asrwt>0</asrwt>
<pdfrwt beam="1">  1        2 0.38336124E+00 0.21105343E+04</pdfrwt>
<pdfrwt beam="2">  1       -2 0.68752730E-01 0.21105343E+04</pdfrwt>
<totfact> 0.62662632E+00</totfact>
</mgrwt>
</event>
<event>
12    1  0.2588309E-007  0.2910359E+04  0.7818608E-02  0.8269802E-01
         -1   -1    0    0    0  501 -0.00000000000E+00  0.00000000000E+00  0.11682243259E+04  0.11682243259E+04  0.00000000000E+00 0.  1.
          1   -1    0    0  501    0  0.00000000000E+00 -0.00000000000E+00 -0.18126201619E+04  0.18126201619E+04  0.00000000000E+00 0. -1.
         23    2    1    2    0    0 -0.11065113765E+04  0.71560309611E+03 -0.30433349354E+03  0.13555187114E+04  0.91415995669E+02 0.  0.
        254    2    1    2    0    0  0.11065113765E+04 -0.71560309611E+03 -0.34006234251E+03  0.16253257763E+04  0.88858666707E+03 0.  0.
        -24    2    4    4    0    0  0.66388611314E+03 -0.46564854284E+03 -0.63469580119E+03  0.10328695299E+04  0.80046043963E+02 0.  0.
         24    2    4    4    0    0  0.44262526337E+03 -0.24995455327E+03  0.29463345868E+03  0.59245624639E+03  0.76165126115E+02 0.  0.
         11    1    3    3    0    0 -0.42313367829E+03  0.30982963912E+03 -0.87364195929E+02  0.53166626536E+03  0.00000000000E+00 0. -1.
        -11    1    3    3    0    0 -0.68337769822E+03  0.40577345698E+03 -0.21696929761E+03  0.82385244609E+03  0.00000000000E+00 0.  1.
          4    1    6    6  502    0  0.21509700850E+03 -0.11508104470E+03  0.98100496273E+02  0.26293359862E+03  0.00000000000E+00 0. -1.
          1    1    5    5  503    0  0.33288916825E+03 -0.28091361895E+03 -0.32756331828E+03  0.54500035517E+03  0.00000000000E+00 0. -1.
         -2    1    5    5    0  503  0.33099694489E+03 -0.18473492389E+03 -0.30713248291E+03  0.48786917477E+03  0.00000000000E+00 0.  1.
         -3    1    6    6    0  502  0.22752825487E+03 -0.13487350857E+03  0.19653296241E+03  0.32952264777E+03  0.00000000000E+00 0.  1.
<mgrwt>
<rscale>  0 0.29103587E+04</rscale>
<asrwt>0</asrwt>
<pdfrwt beam="1">  1        1 0.27886464E+00 0.29103587E+04</pdfrwt>
<pdfrwt beam="2">  1       -1 0.17972682E+00 0.29103587E+04</pdfrwt>
<totfact> 0.71614119E-01</totfact>
</mgrwt>
</event>
<event>
12    1  0.2588309E-007  0.2413416E+04  0.7818608E-02  0.8434498E-01
          1   -1    0    0  501    0  0.00000000000E+00  0.00000000000E+00  0.26322894266E+04  0.26322894266E+04  0.00000000000E+00 0. -1.
         -1   -1    0    0    0  501 -0.00000000000E+00 -0.00000000000E+00 -0.55318546252E+03  0.55318546252E+03  0.00000000000E+00 0.  1.
         23    2    1    2    0    0 -0.56184677361E+03  0.21301780099E+03  0.20103818421E+04  0.20997463896E+04  0.79065598331E+02 0.  0.
        254    2    1    2    0    0  0.56184677361E+03 -0.21301780099E+03  0.68722121968E+02  0.10857284996E+04  0.90168468111E+03 0.  0.
        -24    2    4    4    0    0  0.79065135955E+03 -0.81749660547E+02  0.10291707257E+03  0.80538426422E+03  0.78989302206E+02 0.  0.
         24    2    4    4    0    0 -0.22880458594E+03 -0.13126814044E+03 -0.34194950601E+02  0.28034423534E+03  0.88547910162E+02 0.  0.
         13    1    3    3    0    0 -0.46207544007E+03  0.15248883992E+03  0.15364671170E+04  0.16116754512E+04  0.00000000000E+00 0. -1.
        -13    1    3    3    0    0 -0.99771333537E+02  0.60528961073E+02  0.47391472516E+03  0.48807093834E+03  0.00000000000E+00 0.  1.
          4    1    6    6  502    0 -0.17658529107E+03 -0.11780142256E+03  0.71476827648E+01  0.21239263063E+03  0.00000000000E+00 0. -1.
          3    1    5    5  503    0  0.12254366907E+03  0.42771035642E+01 -0.71558458997E+01  0.12282691307E+03  0.00000000000E+00 0. -1.
         -4    1    5    5    0  503  0.66810769048E+03 -0.86026764111E+02  0.11007291847E+03  0.68255735115E+03  0.00000000000E+00 0.  1.
         -3    1    6    6    0  502 -0.52219294877E+02 -0.13466717886E+02 -0.41342633365E+02  0.67951604702E+02  0.00000000000E+00 0.  1.
<mgrwt>
<rscale>  0 0.24134160E+04</rscale>
<asrwt>0</asrwt>
<pdfrwt beam="1">  1        1 0.40496760E+00 0.24134160E+04</pdfrwt>
<pdfrwt beam="2">  1       -1 0.85105457E-01 0.24134160E+04</pdfrwt>
<totfact> 0.13383301E+00</totfact>
</mgrwt>
</event>
<event>
12    1  0.2588309E-007  0.2811077E+04  0.7818608E-02  0.8299838E-01
          2   -1    0    0  501    0  0.00000000000E+00  0.00000000000E+00  0.14172660207E+04  0.14172660207E+04  0.00000000000E+00 0.  1.
         -2   -1    0    0    0  501 -0.00000000000E+00 -0.00000000000E+00 -0.13939081224E+04  0.13939081224E+04  0.00000000000E+00 0. -1.
         23    2    1    2    0    0  0.51601563323E+03 -0.11452705040E+04  0.97075514629E+02  0.12631716950E+04  0.90897824812E+02 0.  0.
        254    2    1    2    0    0 -0.51601563323E+03  0.11452705040E+04 -0.73717616333E+02  0.15480024480E+04  0.90164329481E+03 0.  0.
        -24    2    4    4    0    0 -0.49172095832E+03  0.18419909223E+03 -0.21545080848E+03  0.57319234768E+03  0.80072530430E+02 0.  0.
         24    2    4    4    0    0 -0.24294674907E+02  0.96107141174E+03  0.14173319215E+03  0.97481010033E+03  0.76928175892E+02 0.  0.
         13    1    3    3    0    0  0.33028196574E+03 -0.69913086342E+03  0.17586086484E+02  0.77342059161E+03  0.00000000000E+00 0. -1.
        -13    1    3    3    0    0  0.18573366749E+03 -0.44613964055E+03  0.79489428146E+02  0.48975110341E+03  0.00000000000E+00 0.  1.
          4    1    6    6  502    0 -0.34276893063E+01  0.83926862322E+02  0.34818185388E+02  0.90927296820E+02  0.00000000000E+00 0. -1.
          1    1    5    5  503    0 -0.30830328698E+01 -0.60481797753E+01 -0.25185006803E+01  0.72407469191E+01  0.00000000000E+00 0. -1.
         -2    1    5    5    0  503 -0.48863792545E+03  0.19024727200E+03 -0.21293230780E+03  0.56595160076E+03  0.00000000000E+00 0.  1.
         -3    1    6    6    0  502 -0.20866985601E+02  0.87714454942E+03  0.10691500676E+03  0.88388280351E+03  0.00000000000E+00 0.  1.
<mgrwt>
<rscale>  0 0.28110771E+04</rscale>
<asrwt>0</asrwt>
<pdfrwt beam="1">  1        2 0.21804092E+00 0.28110771E+04</pdfrwt>
<pdfrwt beam="2">  1       -2 0.21444740E+00 0.28110771E+04</pdfrwt>
<totfact> 0.13186018E+00</totfact>
</mgrwt>
</event>
<event>
12    1  0.2588309E-007  0.1865306E+04  0.7818608E-02  0.8672321E-01
          2   -1    0    0  501    0  0.00000000000E+00  0.00000000000E+00  0.31308609724E+03  0.31308609724E+03  0.00000000000E+00 0. -1.
         -2   -1    0    0    0  501 -0.00000000000E+00 -0.00000000000E+00 -0.27782816994E+04  0.27782816994E+04  0.00000000000E+00 0.  1.
         23    2    1    2    0    0 -0.44342617843E+03 -0.39603079215E+03 -0.15993930784E+04  0.17087322062E+04  0.90776479450E+02 0.  0.
        254    2    1    2    0    0  0.44342617843E+03  0.39603079215E+03 -0.86580252373E+03  0.13826355904E+04  0.89922188681E+03 0.  0.
        -24    2    4    4    0    0 -0.97934059502E+02  0.14172909096E+03 -0.74284340860E+03  0.76662702138E+03  0.78882475710E+02 0.  0.
         24    2    4    4    0    0  0.54136023793E+03  0.25430170119E+03 -0.12295911513E+03  0.61600856903E+03  0.81285611745E+02 0.  0.
         13    1    3    3    0    0 -0.31414401823E+03 -0.31069035114E+03 -0.12717384903E+04  0.13463037348E+04  0.00000000000E+00 0.  1.
        -13    1    3    3    0    0 -0.12928216020E+03 -0.85340441007E+02 -0.32765458813E+03  0.36242847148E+03  0.00000000000E+00 0. -1.
          4    1    6    6  502    0  0.16976705965E+03  0.75479482926E+02 -0.36777637850E+00  0.18579058680E+03  0.00000000000E+00 0. -1.
          1    1    5    5  503    0 -0.15301194139E+02  0.41887499801E+02 -0.83451942898E+02  0.94619849689E+02  0.00000000000E+00 0. -1.
         -2    1    5    5    0  503 -0.82632865363E+02  0.99841591157E+02 -0.65939146570E+03  0.67200717169E+03  0.00000000000E+00 0.  1.
         -3    1    6    6    0  502  0.37159317828E+03  0.17882221827E+03 -0.12259133875E+03  0.43021798223E+03  0.00000000000E+00 0.  1.
<mgrwt>
<rscale>  0 0.18653057E+04</rscale>
<asrwt>0</asrwt>
<pdfrwt beam="1">  1        2 0.48167091E-01 0.18653057E+04</pdfrwt>
<pdfrwt beam="2">  1       -2 0.42742796E+00 0.18653057E+04</pdfrwt>
<totfact> 0.48320081E-01</totfact>
</mgrwt>
</event>
<event>
12    1  0.2588309E-007  0.5463665E+04  0.7818608E-02  0.7760709E-01
          2   -1    0    0  501    0  0.00000000000E+00  0.00000000000E+00  0.41498131343E+04  0.41498131343E+04  0.00000000000E+00 0. -1.
         -2   -1    0    0    0  501 -0.00000000000E+00 -0.00000000000E+00 -0.17983720463E+04  0.17983720463E+04  0.00000000000E+00 0.  1.
         23    2    1    2    0    0  0.49105018888E+03 -0.78728318609E+03 -0.15658564568E+04  0.18221735491E+04  0.86399632887E+02 0.  0.
        254    2    1    2    0    0 -0.49105018888E+03  0.78728318609E+03  0.39172975449E+04  0.41260116315E+04  0.90432672494E+03 0.  0.
        -24    2    4    4    0    0 -0.73863230722E+03  0.56286370160E+03  0.25239044972E+04  0.26906146120E+04  0.83185619657E+02 0.  0.
         24    2    4    4    0    0  0.24758211834E+03  0.22441948449E+03  0.13933930476E+04  0.14353970195E+04  0.84613285851E+02 0.  0.
         13    1    3    3    0    0  0.15580513875E+02 -0.56088796216E+01 -0.21377894187E+02  0.27041196406E+02  0.00000000000E+00 0. -1.
        -13    1    3    3    0    0  0.47546967500E+03 -0.78167430647E+03 -0.15444785626E+04  0.17951323527E+04  0.00000000000E+00 0.  1.
          2    1    6    6  502    0  0.78337087947E+02  0.11833035695E+03  0.48699293521E+03  0.50724835305E+03  0.00000000000E+00 0. -1.
          1    1    5    5  503    0 -0.49757933670E+03  0.34727387430E+03  0.17324194710E+04  0.18356093167E+04  0.00000000000E+00 0. -1.
         -2    1    5    5    0  503 -0.24105297052E+03  0.21558982730E+03  0.79148502626E+03  0.85500529532E+03  0.00000000000E+00 0.  1.
         -1    1    6    6    0  502  0.16924503040E+03  0.10608912754E+03  0.90640011243E+03  0.92814866650E+03  0.00000000000E+00 0.  1.
<mgrwt>
<rscale>  0 0.54636647E+04</rscale>
<asrwt>0</asrwt>
<pdfrwt beam="1">  1        2 0.63843279E+00 0.54636647E+04</pdfrwt>
<pdfrwt beam="2">  1       -2 0.27667262E+00 0.54636647E+04</pdfrwt>
<totfact> 0.79034298E-03</totfact>
</mgrwt>
</event>
<event>
12    1  0.2588309E-007  0.1983665E+04  0.7818608E-02  0.8614296E-01
          2   -1    0    0  501    0  0.00000000000E+00  0.00000000000E+00  0.15998962426E+04  0.15998962426E+04  0.00000000000E+00 0. -1.
         -2   -1    0    0    0  501 -0.00000000000E+00 -0.00000000000E+00 -0.61487208351E+03  0.61487208351E+03  0.00000000000E+00 0.  1.
         23    2    1    2    0    0  0.10805670505E+03  0.64801447369E+03  0.87186666587E+03  0.10956241187E+04  0.92960835208E+02 0.  0.
        254    2    1    2    0    0 -0.10805670505E+03 -0.64801447369E+03  0.11315749324E+03  0.11191442074E+04  0.89893277226E+03 0.  0.
        -24    2    4    4    0    0  0.35183567293E+03 -0.13874420522E+03  0.17746493440E+03  0.42535566046E+03  0.79970867920E+02 0.  0.
         24    2    4    4    0    0 -0.45989237798E+03 -0.50927026847E+03 -0.64307441165E+02  0.69378854693E+03  0.79686229552E+02 0.  0.
         13    1    3    3    0    0  0.11972010751E+03  0.48476141509E+03  0.63775014481E+03  0.80997023459E+03  0.00000000000E+00 0. -1.
        -13    1    3    3    0    0 -0.11663402462E+02  0.16325305860E+03  0.23411652106E+03  0.28565388415E+03  0.00000000000E+00 0.  1.
          4    1    6    6  502    0 -0.22619423563E+03 -0.30760798725E+03 -0.25338429206E+02  0.38265982549E+03  0.00000000000E+00 0. -1.
          1    1    5    5  503    0  0.33125945848E+03 -0.11219443063E+03  0.14489980919E+03  0.37857149101E+03  0.00000000000E+00 0. -1.
         -2    1    5    5    0  503  0.20576214448E+02 -0.26549774584E+02  0.32565125213E+02  0.46784169455E+02  0.00000000000E+00 0.  1.
         -3    1    6    6    0  502 -0.23369814236E+03 -0.20166228122E+03 -0.38969011959E+02  0.31112872143E+03  0.00000000000E+00 0.  1.
<mgrwt>
<rscale>  0 0.19836648E+04</rscale>
<asrwt>0</asrwt>
<pdfrwt beam="1">  1        2 0.24613788E+00 0.19836648E+04</pdfrwt>
<pdfrwt beam="2">  1       -2 0.94595706E-01 0.19836648E+04</pdfrwt>
<totfact> 0.97677709E+00</totfact>
</mgrwt>
</event>
<event>
12    1  0.2588309E-007  0.1574791E+04  0.7818608E-02  0.8836187E-01
          2   -1    0    0  501    0  0.00000000000E+00  0.00000000000E+00  0.97307379795E+03  0.97307379795E+03  0.00000000000E+00 0. -1.
         -2   -1    0    0    0  501 -0.00000000000E+00 -0.00000000000E+00 -0.63714733351E+03  0.63714733351E+03  0.00000000000E+00 0.  1.
         23    2    1    2    0    0 -0.49780192919E+02 -0.20092772817E+03 -0.38067426898E+03  0.44254451242E+03  0.89903986909E+02 0.  0.
        254    2    1    2    0    0  0.49780192919E+02  0.20092772817E+03  0.71660073341E+03  0.11676766190E+04  0.89838858852E+03 0.  0.
        -24    2    4    4    0    0 -0.23968851005E+03  0.40745092099E+02  0.78040428998E+03  0.82146298618E+03  0.81607827193E+02 0.  0.
         24    2    4    4    0    0  0.28946870297E+03  0.16018263607E+03 -0.63803556563E+02  0.34621363287E+03  0.79639053586E+02 0.  0.
         11    1    3    3    0    0  0.14195084740E+02 -0.79158660235E+02 -0.88326759323E+02  0.11945380000E+03  0.00000000000E+00 0. -1.
        -11    1    3    3    0    0 -0.63975277659E+02 -0.12176906793E+03 -0.29234750965E+03  0.32309071243E+03  0.00000000000E+00 0.  1.
          2    1    6    6  502    0  0.45972429651E+02  0.23257562643E+02  0.18893704879E+02  0.54875774183E+02  0.00000000000E+00 0. -1.
          1    1    5    5  503    0  0.66594079566E+01 -0.40032609907E+00  0.22240347739E+02  0.23219410907E+02  0.00000000000E+00 0. -1.
         -2    1    5    5    0  503 -0.24634791801E+03  0.41145418198E+02  0.75816394224E+03  0.79824357527E+03  0.00000000000E+00 0.  1.
         -1    1    6    6    0  502  0.24349627332E+03  0.13692507343E+03 -0.82697261442E+02  0.29133785869E+03  0.00000000000E+00 0.  1.
<mgrwt>
<rscale>  0 0.15747906E+04</rscale>
<asrwt>0</asrwt>
<pdfrwt beam="1">  1        2 0.14970366E+00 0.15747906E+04</pdfrwt>
<pdfrwt beam="2">  1       -2 0.98022666E-01 0.15747906E+04</pdfrwt>
<totfact> 0.21818882E+01</totfact>
</mgrwt>
</event>
<event>
12    1  0.2588309E-007  0.3850887E+04  0.7818608E-02  0.8035322E-01
          1   -1    0    0  501    0  0.00000000000E+00  0.00000000000E+00  0.22278036679E+04  0.22278036679E+04  0.00000000000E+00 0.  1.
         -1   -1    0    0    0  501 -0.00000000000E+00 -0.00000000000E+00 -0.16641202254E+04  0.16641202254E+04  0.00000000000E+00 0. -1.
         23    2    1    2    0    0 -0.89409198263E+03  0.34069179349E+03  0.18298575745E+04  0.20668405087E+04  0.89328459084E+02 0.  0.
        254    2    1    2    0    0  0.89409198263E+03 -0.34069179349E+03 -0.12661741320E+04  0.18250833846E+04  0.90125526709E+03 0.  0.
        -24    2    4    4    0    0  0.74952025263E+01 -0.30974502442E+03 -0.70054568500E+03  0.76997457269E+03  0.78092429858E+02 0.  0.
         24    2    4    4    0    0  0.88659678010E+03 -0.30946769062E+02 -0.56562844704E+03  0.10551088119E+04  0.79419845229E+02 0.  0.
         13    1    3    3    0    0 -0.63789304896E+03  0.21948844541E+03  0.13600446736E+04  0.15181581715E+04  0.00000000000E+00 0.  1.
        -13    1    3    3    0    0 -0.25619893367E+03  0.12120334808E+03  0.46981290093E+03  0.54868233713E+03  0.00000000000E+00 0. -1.
          4    1    6    6  502    0  0.82522977694E+03 -0.47565367696E+02 -0.53414229568E+03  0.98416189775E+03  0.00000000000E+00 0. -1.
          3    1    5    5  503    0  0.90413837335E+01 -0.29744257780E+03 -0.61142913435E+03  0.67999957356E+03  0.00000000000E+00 0. -1.
         -4    1    5    5    0  503 -0.15461812071E+01 -0.12302446629E+02 -0.89116550646E+02  0.89974999130E+02  0.00000000000E+00 0.  1.
         -3    1    6    6    0  502  0.61367003162E+02  0.16618598633E+02 -0.31486151354E+02  0.70946914131E+02  0.00000000000E+00 0.  1.
<mgrwt>
<rscale>  0 0.38508872E+04</rscale>
<asrwt>0</asrwt>
<pdfrwt beam="1">  1        1 0.34273903E+00 0.38508872E+04</pdfrwt>
<pdfrwt beam="2">  1       -1 0.25601850E+00 0.38508872E+04</pdfrwt>
<totfact> 0.10524058E-01</totfact>
</mgrwt>
</event>
<event>
12    1  0.2588309E-007  0.1348525E+04  0.7818608E-02  0.8991946E-01
          2   -1    0    0  501    0  0.00000000000E+00  0.00000000000E+00  0.15496972232E+04  0.15496972232E+04  0.00000000000E+00 0. -1.
         -2   -1    0    0    0  501 -0.00000000000E+00 -0.00000000000E+00 -0.29336676730E+03  0.29336676730E+03  0.00000000000E+00 0.  1.
         23    2    1    2    0    0 -0.19671210432E+03 -0.31881971745E+02 -0.68115784182E+02  0.22935246005E+03  0.90833247050E+02 0.  0.
        254    2    1    2    0    0  0.19671210432E+03  0.31881971745E+02  0.13244462401E+04  0.16137115304E+04  0.90010829821E+03 0.  0.
        -24    2    4    4    0    0  0.12198146187E+03  0.23083433707E+03  0.35775310619E+01  0.27355716925E+03  0.81588957047E+02 0.  0.
         24    2    4    4    0    0  0.74730642455E+02 -0.19895236532E+03  0.13208687090E+04  0.13401543612E+04  0.78440122114E+02 0.  0.
         11    1    3    3    0    0 -0.11292153292E+03  0.17439376817E+02 -0.69228506987E+01  0.11446977908E+03  0.00000000000E+00 0. -1.
        -11    1    3    3    0    0 -0.83790571399E+02 -0.49321348562E+02 -0.61192933483E+02  0.11488268097E+03  0.00000000000E+00 0.  1.
          4    1    6    6  502    0  0.29738487177E+02 -0.76801211581E+02  0.75639067882E+03  0.76086113235E+03  0.00000000000E+00 0. -1.
          3    1    5    5  503    0  0.43626336828E+01  0.89289130252E+01 -0.18951452455E+02  0.21398962840E+02  0.00000000000E+00 0. -1.
         -4    1    5    5    0  503  0.11761882818E+03  0.22190542404E+03  0.22528983517E+02  0.25215820641E+03  0.00000000000E+00 0.  1.
         -3    1    6    6    0  502  0.44992155277E+02 -0.12215115374E+03  0.56447803021E+03  0.57929322884E+03  0.00000000000E+00 0.  1.
<mgrwt>
<rscale>  0 0.13485246E+04</rscale>
<asrwt>0</asrwt>
<pdfrwt beam="1">  1        2 0.23841495E+00 0.13485246E+04</pdfrwt>
<pdfrwt beam="2">  1       -2 0.45133350E-01 0.13485246E+04</pdfrwt>
<totfact> 0.54107607E+01</totfact>
</mgrwt>
</event>
<event>
12    1  0.2588309E-007  0.3483854E+04  0.7818608E-02  0.8117627E-01
         -2   -1    0    0    0  501 -0.00000000000E+00  0.00000000000E+00  0.10173023770E+04  0.10173023770E+04  0.00000000000E+00 0. -1.
          2   -1    0    0  501    0  0.00000000000E+00 -0.00000000000E+00 -0.29827020512E+04  0.29827020512E+04  0.00000000000E+00 0.  1.
         23    2    1    2    0    0 -0.12056690993E+04 -0.52494358074E+03 -0.20121166756E+04  0.24055391632E+04  0.93815829696E+02 0.  0.
        254    2    1    2    0    0  0.12056690993E+04  0.52494358074E+03  0.46717001391E+02  0.15944652649E+04  0.90051833019E+03 0.  0.
        -24    2    4    4    0    0 -0.18912572836E+02 -0.10618844414E+03  0.16126129897E+03  0.20956868366E+03  0.79247432430E+02 0.  0.
         24    2    4    4    0    0  0.12245816721E+04  0.63113202487E+03 -0.11454429758E+03  0.13848965813E+04  0.83007471160E+02 0.  0.
         13    1    3    3    0    0 -0.46627785418E+03 -0.24528588584E+03 -0.75993904144E+03  0.92470944074E+03  0.00000000000E+00 0. -1.
        -13    1    3    3    0    0 -0.73939124508E+03 -0.27965769489E+03 -0.12521776341E+04  0.14808297225E+04  0.00000000000E+00 0.  1.
          2    1    6    6  502    0  0.14311915713E+03  0.44814071420E+02 -0.13656481772E+02  0.15059181130E+03  0.00000000000E+00 0. -1.
          3    1    5    5  503    0  0.34861716111E+01  0.11248094560E+02  0.28904526219E+02  0.31211290580E+02  0.00000000000E+00 0. -1.
         -4    1    5    5    0  503 -0.22398744447E+02 -0.11743653870E+03  0.13235677275E+03  0.17835739308E+03  0.00000000000E+00 0.  1.
         -1    1    6    6    0  502  0.10814625150E+04  0.58631795345E+03 -0.10088781581E+03  0.12343047700E+04  0.00000000000E+00 0.  1.
<mgrwt>
<rscale>  0 0.34838541E+04</rscale>
<asrwt>0</asrwt>
<pdfrwt beam="1">  1        2 0.45887723E+00 0.34838541E+04</pdfrwt>
<pdfrwt beam="2">  1       -2 0.15650806E+00 0.34838541E+04</pdfrwt>
<totfact> 0.39255191E-01</totfact>
</mgrwt>
</event>
<event>
12    1  0.2588309E-007  0.2050498E+04  0.7818608E-02  0.8583368E-01
          2   -1    0    0  501    0  0.00000000000E+00  0.00000000000E+00  0.11901361941E+04  0.11901361941E+04  0.00000000000E+00 0. -1.
         -2   -1    0    0    0  501 -0.00000000000E+00 -0.00000000000E+00 -0.88320643264E+03  0.88320643264E+03  0.00000000000E+00 0.  1.
         23    2    1    2    0    0  0.40870162070E+03  0.20829478778E+03  0.81720091423E+03  0.94168026048E+03  0.92307341960E+02 0.  0.
        254    2    1    2    0    0 -0.40870162070E+03 -0.20829478778E+03 -0.51027115276E+03  0.11316623663E+04  0.89992184579E+03 0.  0.
        -24    2    4    4    0    0 -0.53596913657E+03 -0.64804062682E+01  0.22264682853E+02  0.54264202928E+03  0.81607259627E+02 0.  0.
         24    2    4    4    0    0  0.12726751587E+03 -0.20181438151E+03 -0.53253583561E+03  0.58902033699E+03  0.80152829023E+02 0.  0.
         13    1    3    3    0    0  0.16972731431E+03  0.12613858865E+03  0.31365474126E+03  0.37828243613E+03  0.00000000000E+00 0.  1.
        -13    1    3    3    0    0  0.23897430639E+03  0.82156199133E+02  0.50354617297E+03  0.56339782435E+03  0.00000000000E+00 0. -1.
          4    1    6    6  502    0  0.10386617179E+02  0.25806274995E+01 -0.60760169499E+01  0.12306885743E+02  0.00000000000E+00 0. -1.
          1    1    5    5  503    0 -0.28416057165E+03  0.11963406508E+02 -0.25960234708E+02  0.28559462068E+03  0.00000000000E+00 0. -1.
         -2    1    5    5    0  503 -0.25180856492E+03 -0.18443812776E+02  0.48224917560E+02  0.25704740861E+03  0.00000000000E+00 0.  1.
         -3    1    6    6    0  502  0.11688089869E+03 -0.20439500901E+03 -0.52645981866E+03  0.57671345125E+03  0.00000000000E+00 0.  1.
<mgrwt>
<rscale>  0 0.20504984E+04</rscale>
<asrwt>0</asrwt>
<pdfrwt beam="1">  1        2 0.18309788E+00 0.20504984E+04</pdfrwt>
<pdfrwt beam="2">  1       -2 0.13587791E+00 0.20504984E+04</pdfrwt>
<totfact> 0.68942247E+00</totfact>
</mgrwt>
</event>
<event>
12    1  0.2588309E-007  0.1324578E+04  0.7818608E-02  0.9010298E-01
         -3   -1    0    0    0  501 -0.00000000000E+00  0.00000000000E+00  0.35684393021E+03  0.35684393021E+03  0.00000000000E+00 0.  1.
          3   -1    0    0  501    0  0.00000000000E+00 -0.00000000000E+00 -0.12291842962E+04  0.12291842962E+04  0.00000000000E+00 0. -1.
         23    2    1    2    0    0  0.30195828481E+03 -0.82384137319E+02 -0.48733001052E+02  0.32958680103E+03  0.91030775975E+02 0.  0.
        254    2    1    2    0    0 -0.30195828481E+03  0.82384137319E+02 -0.82360736491E+03  0.12564414253E+04  0.89573992428E+03 0.  0.
        -24    2    4    4    0    0 -0.44869989852E+03 -0.94466996436E+02 -0.77536099946E+02  0.47171825250E+03  0.79061056164E+02 0.  0.
         24    2    4    4    0    0  0.14674161371E+03  0.17685113375E+03 -0.74607126496E+03  0.78472317284E+03  0.79741462822E+02 0.  0.
         11    1    3    3    0    0  0.61613243388E+02  0.10656000903E+02  0.14566268518E+02  0.64202167367E+02  0.00000000000E+00 0.  1.
        -11    1    3    3    0    0  0.24034504142E+03 -0.93040138222E+02 -0.63299269570E+02  0.26538463366E+03  0.00000000000E+00 0. -1.
          2    1    6    6  502    0  0.30778005772E+01  0.47492767437E+02 -0.10829615969E+03  0.11829240897E+03  0.00000000000E+00 0. -1.
          3    1    5    5  503    0 -0.17319844416E+02 -0.16554150627E+02  0.76659833098E+01  0.25155202517E+02  0.00000000000E+00 0. -1.
         -4    1    5    5    0  503 -0.43138005410E+03 -0.77912845808E+02 -0.85202083256E+02  0.44656304998E+03  0.00000000000E+00 0.  1.
         -1    1    6    6    0  502  0.14366381313E+03  0.12935836632E+03 -0.63777510527E+03  0.66643076388E+03  0.00000000000E+00 0.  1.
<mgrwt>
<rscale>  0 0.13245784E+04</rscale>
<asrwt>0</asrwt>
<pdfrwt beam="1">  1        3 0.18910527E+00 0.13245784E+04</pdfrwt>
<pdfrwt beam="2">  1       -3 0.54899067E-01 0.13245784E+04</pdfrwt>
<totfact> 0.14518950E+00</totfact>
</mgrwt>
</event>
<event>
12    1  0.2588309E-007  0.1390563E+04  0.7818608E-02  0.8960678E-01
         -1   -1    0    0    0  501 -0.00000000000E+00  0.00000000000E+00  0.74185272313E+03  0.74185272313E+03  0.00000000000E+00 0.  1.
          1   -1    0    0  501    0  0.00000000000E+00 -0.00000000000E+00 -0.65163362772E+03  0.65163362772E+03  0.00000000000E+00 0. -1.
         23    2    1    2    0    0 -0.70911496944E+02  0.34324227878E+03 -0.15914833723E+03  0.39555425150E+03  0.91056412720E+02 0.  0.
        254    2    1    2    0    0  0.70911496944E+02 -0.34324227878E+03  0.24936743264E+03  0.99793209935E+03  0.90046691006E+03 0.  0.
        -24    2    4    4    0    0 -0.14160093886E+03  0.80630529841E+02 -0.24705689444E+03  0.30674420929E+03  0.80639894699E+02 0.  0.
         24    2    4    4    0    0  0.21251243580E+03 -0.42387280862E+03  0.49642432709E+03  0.69118789006E+03  0.80460509459E+02 0.  0.
         11    1    3    3    0    0 -0.74195409394E+02  0.29543900022E+03 -0.10258392121E+03  0.32142280958E+03  0.00000000000E+00 0.  1.
        -11    1    3    3    0    0  0.32839124505E+01  0.47803278562E+02 -0.56564416022E+02  0.74131441927E+02  0.00000000000E+00 0. -1.
          4    1    6    6  502    0  0.11881729702E+03 -0.24549790141E+03  0.34138853533E+03  0.43695869567E+03  0.00000000000E+00 0. -1.
          1    1    5    5  503    0 -0.94102787278E+01 -0.72141349419E+01 -0.61204729880E+02  0.62342730518E+02  0.00000000000E+00 0. -1.
         -2    1    5    5    0  503 -0.13219066013E+03  0.87844664783E+02 -0.18585216456E+03  0.24440147878E+03  0.00000000000E+00 0.  1.
         -3    1    6    6    0  502  0.93695138778E+02 -0.17837490721E+03  0.15503579176E+03  0.25422919439E+03  0.00000000000E+00 0.  1.
<mgrwt>
<rscale>  0 0.13905627E+04</rscale>
<asrwt>0</asrwt>
<pdfrwt beam="1">  1        1 0.10025133E+00 0.13905627E+04</pdfrwt>
<pdfrwt beam="2">  1       -1 0.11413119E+00 0.13905627E+04</pdfrwt>
<totfact> 0.20704748E+01</totfact>
</mgrwt>
</event>
<event>
12    1  0.2588309E-007  0.2254913E+04  0.7818608E-02  0.8495914E-01
         -4   -1    0    0    0  501 -0.00000000000E+00  0.00000000000E+00  0.62172671177E+03  0.62172671177E+03  0.00000000000E+00 0.  1.
          4   -1    0    0  501    0  0.00000000000E+00 -0.00000000000E+00 -0.20445605031E+04  0.20445605031E+04  0.00000000000E+00 0. -1.
         23    2    1    2    0    0  0.61649869466E+03 -0.71112852303E+03 -0.69899507546E+03  0.11758723902E+04  0.91144642322E+02 0.  0.
        254    2    1    2    0    0 -0.61649869466E+03  0.71112852303E+03 -0.72383871584E+03  0.14904148246E+04  0.90089924300E+03 0.  0.
        -24    2    4    4    0    0 -0.69637615142E+03  0.46041213227E+03 -0.84479781477E+03  0.11904168948E+04  0.80560285971E+02 0.  0.
         24    2    4    4    0    0  0.79877456755E+02  0.25071639075E+03  0.12095909893E+03  0.29999792984E+03  0.78284976856E+02 0.  0.
         11    1    3    3    0    0  0.56133865399E+03 -0.66266952468E+03 -0.61420360723E+03  0.10637095725E+04  0.00000000000E+00 0.  1.
        -11    1    3    3    0    0  0.55160040670E+02 -0.48458998345E+02 -0.84791468231E+02  0.11216281778E+03  0.00000000000E+00 0. -1.
          4    1    6    6  502    0  0.45864842656E+02  0.22920935448E+03  0.96377086904E+02  0.25284195628E+03  0.00000000000E+00 0. -1.
          3    1    5    5  503    0 -0.96925130780E+02  0.41481988922E+02 -0.13480066665E+03  0.17113286099E+03  0.00000000000E+00 0. -1.
         -4    1    5    5    0  503 -0.59945102064E+03  0.41893014335E+03 -0.70999714812E+03  0.10192840338E+04  0.00000000000E+00 0.  1.
         -3    1    6    6    0  502  0.34012614099E+02  0.21507036273E+02  0.24582012027E+02  0.47155973560E+02  0.00000000000E+00 0.  1.
<mgrwt>
<rscale>  0 0.22549128E+04</rscale>
<asrwt>0</asrwt>
<pdfrwt beam="1">  1        4 0.31454777E+00 0.22549128E+04</pdfrwt>
<pdfrwt beam="2">  1       -4 0.95650264E-01 0.22549128E+04</pdfrwt>
<totfact> 0.41797298E-02</totfact>
</mgrwt>
</event>
<event>
12    1  0.2588309E-007  0.2851748E+04  0.7818608E-02  0.8287380E-01
          2   -1    0    0  501    0  0.00000000000E+00  0.00000000000E+00  0.12454073108E+04  0.12454073108E+04  0.00000000000E+00 0.  1.
         -2   -1    0    0    0  501 -0.00000000000E+00 -0.00000000000E+00 -0.16324910748E+04  0.16324910748E+04  0.00000000000E+00 0. -1.
         23    2    1    2    0    0  0.10574564125E+04  0.52734283156E+03 -0.68049677248E+03  0.13651589520E+04  0.65410859267E+02 0.  0.
        254    2    1    2    0    0 -0.10574564125E+04 -0.52734283156E+03  0.29341300844E+03  0.15127394336E+04  0.89776660342E+03 0.  0.
        -24    2    4    4    0    0 -0.67725411614E+03 -0.76613441270E+03  0.24176317990E+03  0.10536539125E+04  0.78115658156E+02 0.  0.
         24    2    4    4    0    0 -0.38020229632E+03  0.23879158113E+03  0.51649828547E+02  0.45908552110E+03  0.80725495038E+02 0.  0.
         11    1    3    3    0    0  0.53781711588E+03  0.27416639915E+03 -0.38481936867E+03  0.71589134026E+03  0.00000000000E+00 0.  1.
        -11    1    3    3    0    0  0.51963929657E+03  0.25317643242E+03 -0.29567740381E+03  0.64926761169E+03  0.00000000000E+00 0. -1.
          2    1    6    6  502    0 -0.10846458120E+03  0.92422940703E+02  0.48147006411E+02  0.15041509090E+03  0.00000000000E+00 0. -1.
          3    1    5    5  503    0 -0.57549565928E+03 -0.64139564781E+03  0.17469817655E+03  0.87926280700E+03  0.00000000000E+00 0. -1.
         -4    1    5    5    0  503 -0.10175845685E+03 -0.12473876488E+03  0.67065003347E+02  0.17439110551E+03  0.00000000000E+00 0.  1.
         -1    1    6    6    0  502 -0.27173771512E+03  0.14636864043E+03  0.35028221359E+01  0.30867043020E+03  0.00000000000E+00 0.  1.
<mgrwt>
<rscale>  0 0.28517478E+04</rscale>
<asrwt>0</asrwt>
<pdfrwt beam="1">  1        2 0.19160112E+00 0.28517478E+04</pdfrwt>
<pdfrwt beam="2">  1       -2 0.25115247E+00 0.28517478E+04</pdfrwt>
<totfact> 0.97499237E-01</totfact>
</mgrwt>
</event>
<event>
12    1  0.2588309E-007  0.1310375E+04  0.7818608E-02  0.9021378E-01
         -1   -1    0    0    0  501 -0.00000000000E+00  0.00000000000E+00  0.33789486080E+03  0.33789486080E+03  0.00000000000E+00 0.  1.
          1   -1    0    0  501    0  0.00000000000E+00 -0.00000000000E+00 -0.12704273537E+04  0.12704273537E+04  0.00000000000E+00 0. -1.
         23    2    1    2    0    0  0.19106398927E+03  0.11075353500E+03 -0.54652948371E+03  0.59640504964E+03  0.90734299771E+02 0.  0.
        254    2    1    2    0    0 -0.19106398927E+03 -0.11075353500E+03 -0.38600300923E+03  0.10119171649E+04  0.90895887254E+03 0.  0.
        -24    2    4    4    0    0  0.23540340819E+02 -0.48355855907E+03 -0.26621397405E+03  0.55823437102E+03  0.79829225938E+02 0.  0.
         24    2    4    4    0    0 -0.21460433009E+03  0.37280502408E+03 -0.11978903518E+03  0.45368279387E+03  0.80249984659E+02 0.  0.
         13    1    3    3    0    0  0.14142897407E+03  0.12198481008E+03 -0.45155493080E+03  0.48865560892E+03  0.00000000000E+00 0. -1.
        -13    1    3    3    0    0  0.49635015204E+02 -0.11231275087E+02 -0.94974552907E+02  0.10774944071E+03  0.00000000000E+00 0.  1.
          4    1    6    6  502    0 -0.19121487793E+03  0.35387221478E+03 -0.12866848525E+03  0.42230824409E+03  0.00000000000E+00 0. -1.
          3    1    5    5  503    0  0.33799806230E+02 -0.38207018935E+03 -0.17581785380E+03  0.42193835356E+03  0.00000000000E+00 0. -1.
         -4    1    5    5    0  503 -0.10259465411E+02 -0.10148836972E+03 -0.90396120250E+02  0.13629601746E+03  0.00000000000E+00 0.  1.
         -3    1    6    6    0  502 -0.23389452164E+02  0.18932809297E+02  0.88794500682E+01  0.31374549781E+02  0.00000000000E+00 0.  1.
<mgrwt>
<rscale>  0 0.13103753E+04</rscale>
<asrwt>0</asrwt>
<pdfrwt beam="1">  1        1 0.19545036E+00 0.13103753E+04</pdfrwt>
<pdfrwt beam="2">  1       -1 0.51983825E-01 0.13103753E+04</pdfrwt>
<totfact> 0.34739136E+01</totfact>
</mgrwt>
</event>
<event>
12    1  0.2588309E-007  0.2140403E+04  0.7818608E-02  0.8543651E-01
          1   -1    0    0  501    0  0.00000000000E+00  0.00000000000E+00  0.77784942195E+03  0.77784942195E+03  0.00000000000E+00 0. -1.
         -1   -1    0    0    0  501 -0.00000000000E+00 -0.00000000000E+00 -0.14724337284E+04  0.14724337284E+04  0.00000000000E+00 0.  1.
         23    2    1    2    0    0  0.14438758362E+03 -0.28745812344E+03 -0.11453367884E+04  0.11930696805E+04  0.90216166100E+02 0.  0.
        254    2    1    2    0    0 -0.14438758362E+03  0.28745812344E+03  0.45075248200E+03  0.10572134698E+04  0.90057902133E+03 0.  0.
        -24    2    4    4    0    0  0.36050352666E+03  0.23642672415E+03  0.16062262798E+03  0.46740873138E+03  0.82528206868E+02 0.  0.
         24    2    4    4    0    0 -0.50489111027E+03  0.51031399287E+02  0.29012985402E+03  0.58980473842E+03  0.78581552028E+02 0.  0.
         11    1    3    3    0    0  0.11431724355E+03 -0.13787411527E+03 -0.68917936071E+03  0.71207155193E+03  0.00000000000E+00 0. -1.
        -11    1    3    3    0    0  0.30070340066E+02 -0.14958400817E+03 -0.45615742769E+03  0.48099812857E+03  0.00000000000E+00 0.  1.
          2    1    6    6  502    0 -0.22444987021E+03 -0.11212733847E+02  0.10497436637E+03  0.24803847934E+03  0.00000000000E+00 0. -1.
          1    1    5    5  503    0  0.30462975872E+03  0.19235538407E+03  0.16467941663E+03  0.39613027395E+03  0.00000000000E+00 0. -1.
         -2    1    5    5    0  503  0.55873767932E+02  0.44071340083E+02 -0.40567886461E+01  0.71278457431E+02  0.00000000000E+00 0.  1.
         -1    1    6    6    0  502 -0.28044124006E+03  0.62244133134E+02  0.18515548765E+03  0.34176625908E+03  0.00000000000E+00 0.  1.
<mgrwt>
<rscale>  0 0.21404034E+04</rscale>
<asrwt>0</asrwt>
<pdfrwt beam="1">  1        1 0.11966914E+00 0.21404034E+04</pdfrwt>
<pdfrwt beam="2">  1       -1 0.22652826E+00 0.21404034E+04</pdfrwt>
<totfact> 0.21093431E+00</totfact>
</mgrwt>
</event>
<event>
12    1  0.2588309E-007  0.2452704E+04  0.7818608E-02  0.8420032E-01
         -4   -1    0    0    0  501 -0.00000000000E+00  0.00000000000E+00  0.12313082164E+04  0.12313082164E+04  0.00000000000E+00 0.  1.
          4   -1    0    0  501    0  0.00000000000E+00 -0.00000000000E+00 -0.12214153131E+04  0.12214153131E+04  0.00000000000E+00 0. -1.
         23    2    1    2    0    0  0.66079785310E+03  0.20301740074E+03  0.80615239172E+03  0.10658176205E+04  0.90640244355E+02 0.  0.
        254    2    1    2    0    0 -0.66079785310E+03 -0.20301740074E+03 -0.79625948841E+03  0.13869059090E+04  0.90089342315E+03 0.  0.
        -24    2    4    4    0    0  0.67303557939E+02 -0.18632787222E+03  0.94576748346E+02  0.23333155336E+03  0.79063313801E+02 0.  0.
         24    2    4    4    0    0 -0.72810141104E+03 -0.16689528521E+02 -0.89083623676E+03  0.11535743556E+04  0.82063317902E+02 0.  0.
         13    1    3    3    0    0  0.22647038542E+03  0.36136745540E+02  0.22408029605E+03  0.32063480618E+03  0.00000000000E+00 0. -1.
        -13    1    3    3    0    0  0.43432746768E+03  0.16688065520E+03  0.58207209567E+03  0.74518281436E+03  0.00000000000E+00 0.  1.
          2    1    6    6  502    0 -0.34006321211E+02  0.16237231922E+01 -0.74358971181E+02  0.81782167704E+02  0.00000000000E+00 0. -1.
          3    1    5    5  503    0  0.34842827768E+02 -0.10593077861E+03  0.95204750726E+02  0.14662638598E+03  0.00000000000E+00 0. -1.
         -4    1    5    5    0  503  0.32460730171E+02 -0.80397093613E+02 -0.62800238034E+00  0.86705167387E+02  0.00000000000E+00 0.  1.
         -1    1    6    6    0  502 -0.69409508983E+03 -0.18313251713E+02 -0.81647726558E+03  0.10717921879E+04  0.00000000000E+00 0.  1.
<mgrwt>
<rscale>  0 0.24527036E+04</rscale>
<asrwt>0</asrwt>
<pdfrwt beam="1">  1        4 0.18791005E+00 0.24527036E+04</pdfrwt>
<pdfrwt beam="2">  1       -4 0.18943203E+00 0.24527036E+04</pdfrwt>
<totfact> 0.43878302E-02</totfact>
</mgrwt>
</event>
<event>
12    1  0.2588309E-007  0.2326189E+04  0.7818608E-02  0.8467666E-01
         -1   -1    0    0    0  501 -0.00000000000E+00  0.00000000000E+00  0.96754938184E+03  0.96754938184E+03  0.00000000000E+00 0.  1.
          1   -1    0    0  501    0  0.00000000000E+00 -0.00000000000E+00 -0.13981604299E+04  0.13981604299E+04  0.00000000000E+00 0. -1.
         23    2    1    2    0    0 -0.17169188633E+03  0.76849271285E+03  0.42173087145E+03  0.89788691347E+03  0.91021030091E+02 0.  0.
        254    2    1    2    0    0  0.17169188633E+03 -0.76849271285E+03 -0.85234191952E+03  0.14678228983E+04  0.89886492835E+03 0.  0.
        -24    2    4    4    0    0 -0.21131480886E+03 -0.72608817527E+03 -0.73400604120E+03  0.10569181506E+04  0.80331326030E+02 0.  0.
         24    2    4    4    0    0  0.38300669519E+03 -0.42404537581E+02 -0.11833587832E+03  0.41090474763E+03  0.79668426390E+02 0.  0.
         13    1    3    3    0    0 -0.21377633648E+02  0.29494060281E+03  0.14947160927E+03  0.33134381597E+03  0.00000000000E+00 0.  1.
        -13    1    3    3    0    0 -0.15031425268E+03  0.47355211004E+03  0.27225926218E+03  0.56654309750E+03  0.00000000000E+00 0. -1.
          2    1    6    6  502    0  0.30323246495E+03 -0.34511975880E+01 -0.76434399225E+02  0.31273640010E+03  0.00000000000E+00 0. -1.
          1    1    5    5  503    0 -0.12731243594E+03 -0.40010353282E+03 -0.35340559813E+03  0.54880489257E+03  0.00000000000E+00 0. -1.
         -2    1    5    5    0  503 -0.84002372922E+02 -0.32598464245E+03 -0.38060044307E+03  0.50811325808E+03  0.00000000000E+00 0.  1.
         -1    1    6    6    0  502  0.79774230241E+02 -0.38953339993E+02 -0.41901479091E+02  0.98168347532E+02  0.00000000000E+00 0.  1.
<mgrwt>
<rscale>  0 0.23261894E+04</rscale>
<asrwt>0</asrwt>
<pdfrwt beam="1">  1        1 0.21510160E+00 0.23261894E+04</pdfrwt>
<pdfrwt beam="2">  1       -1 0.14885375E+00 0.23261894E+04</pdfrwt>
<totfact> 0.24754609E+00</totfact>
</mgrwt>
</event>
<event>
12    1  0.2588309E-007  0.2373488E+04  0.7818608E-02  0.8449496E-01
          2   -1    0    0  501    0  0.00000000000E+00  0.00000000000E+00  0.11685369988E+04  0.11685369988E+04  0.00000000000E+00 0. -1.
         -2   -1    0    0    0  501 -0.00000000000E+00 -0.00000000000E+00 -0.12052348922E+04  0.12052348922E+04  0.00000000000E+00 0.  1.
         23    2    1    2    0    0  0.26382764255E+03 -0.79669713355E+03  0.55256517847E+03  0.10089714340E+04  0.91453434397E+02 0.  0.
        254    2    1    2    0    0 -0.26382764255E+03  0.79669713355E+03 -0.58926307181E+03  0.13648004570E+04  0.90062088141E+03 0.  0.
        -24    2    4    4    0    0 -0.43154482132E+03  0.73065887012E+03 -0.73004437254E+03  0.11225362396E+04  0.83842149308E+02 0.  0.
         24    2    4    4    0    0  0.16771717877E+03  0.66038263431E+02  0.14078130074E+03  0.24226421741E+03  0.79890375563E+02 0.  0.
         11    1    3    3    0    0  0.20358841029E+03 -0.54448246131E+03  0.42425669697E+03  0.71965487312E+03  0.00000000000E+00 0. -1.
        -11    1    3    3    0    0  0.60239232258E+02 -0.25221467224E+03  0.12830848150E+03  0.28931656092E+03  0.00000000000E+00 0.  1.
          2    1    6    6  502    0  0.16694627981E+03  0.40934786344E+02  0.12595191733E+03  0.21309763620E+03  0.00000000000E+00 0. -1.
          1    1    5    5  503    0 -0.23929685215E+03  0.32864145544E+03 -0.36867077667E+03  0.54880445630E+03  0.00000000000E+00 0. -1.
         -2    1    5    5    0  503 -0.19224796917E+03  0.40201741468E+03 -0.36137359587E+03  0.57373178328E+03  0.00000000000E+00 0.  1.
         -1    1    6    6    0  502  0.77089895924E+00  0.25103477087E+02  0.14829383409E+02  0.29166581208E+02  0.00000000000E+00 0.  1.
<mgrwt>
<rscale>  0 0.23734882E+04</rscale>
<asrwt>0</asrwt>
<pdfrwt beam="1">  1        2 0.17977492E+00 0.23734882E+04</pdfrwt>
<pdfrwt beam="2">  1       -2 0.18542075E+00 0.23734882E+04</pdfrwt>
<totfact> 0.29675728E+00</totfact>
</mgrwt>
</event>
<event>
12    1  0.2588309E-007  0.3663339E+04  0.7818608E-02  0.8076135E-01
          2   -1    0    0  501    0  0.00000000000E+00  0.00000000000E+00  0.40048155158E+04  0.40048155158E+04  0.00000000000E+00 0.  1.
         -2   -1    0    0    0  501 -0.00000000000E+00 -0.00000000000E+00 -0.83774473083E+03  0.83774473083E+03  0.00000000000E+00 0. -1.
         23    2    1    2    0    0 -0.96583022975E+03  0.13889482170E+04  0.10795593092E+04  0.20088912733E+04  0.90502285271E+02 0.  0.
        254    2    1    2    0    0  0.96583022975E+03 -0.13889482170E+04  0.20875114758E+04  0.28336689733E+04  0.89998361458E+03 0.  0.
        -24    2    4    4    0    0  0.26601895816E+02 -0.74616121976E+03  0.10558095534E+04  0.12954689520E+04  0.77728797315E+02 0.  0.
         24    2    4    4    0    0  0.93922833394E+03 -0.64278699727E+03  0.10317019224E+04  0.15382000213E+04  0.79532771030E+02 0.  0.
         11    1    3    3    0    0 -0.49020895307E+03  0.65654069437E+03  0.48016625874E+03  0.94968949508E+03  0.00000000000E+00 0. -1.
        -11    1    3    3    0    0 -0.47562127669E+03  0.73240752267E+03  0.59939305047E+03  0.10592017782E+04  0.00000000000E+00 0.  1.
          4    1    6    6  502    0  0.72957282664E+03 -0.46010990134E+03  0.79471826095E+03  0.11728404601E+04  0.00000000000E+00 0. -1.
          1    1    5    5  503    0  0.17445940836E+02 -0.71501924839E+03  0.10301111185E+04  0.12540677027E+04  0.00000000000E+00 0. -1.
         -2    1    5    5    0  503  0.91559549807E+01 -0.31141971378E+02  0.25698434825E+02  0.41401249322E+02  0.00000000000E+00 0.  1.
         -3    1    6    6    0  502  0.20965550730E+03 -0.18267709593E+03  0.23698366148E+03  0.36535956115E+03  0.00000000000E+00 0.  1.
<mgrwt>
<rscale>  0 0.36633390E+04</rscale>
<asrwt>0</asrwt>
<pdfrwt beam="1">  1        2 0.61612545E+00 0.36633390E+04</pdfrwt>
<pdfrwt beam="2">  1       -2 0.12888381E+00 0.36633390E+04</pdfrwt>
<totfact> 0.12165527E-01</totfact>
</mgrwt>
</event>
<event>
12    1  0.2588309E-007  0.2855707E+04  0.7818608E-02  0.8286179E-01
          1   -1    0    0  501    0  0.00000000000E+00  0.00000000000E+00  0.18805902128E+04  0.18805902128E+04  0.00000000000E+00 0. -1.
         -1   -1    0    0    0  501 -0.00000000000E+00 -0.00000000000E+00 -0.10841096807E+04  0.10841096807E+04  0.00000000000E+00 0.  1.
         23    2    1    2    0    0 -0.78237907365E+02 -0.12816943043E+04  0.38506745752E+03  0.13436609589E+04  0.91029477590E+02 0.  0.
        254    2    1    2    0    0  0.78237907365E+02  0.12816943043E+04  0.41141307459E+03  0.16210389345E+04  0.89980278362E+03 0.  0.
        -24    2    4    4    0    0  0.18224705374E+03  0.13212775922E+04  0.53163981483E+03  0.14380441346E+04  0.79634014010E+02 0.  0.
         24    2    4    4    0    0 -0.10400914637E+03 -0.39583287900E+02 -0.12022674025E+03  0.18299479987E+03  0.81534584683E+02 0.  0.
         11    1    3    3    0    0  0.14663811334E+02 -0.41536875207E+03  0.13971889626E+03  0.43848329219E+03  0.00000000000E+00 0.  1.
        -11    1    3    3    0    0 -0.92901718699E+02 -0.86632555225E+03  0.24534856126E+03  0.90517766672E+03  0.00000000000E+00 0. -1.
          2    1    6    6  502    0  0.12565239538E+02 -0.10511336875E+02 -0.67045912347E+01  0.17700988423E+02  0.00000000000E+00 0. -1.
          1    1    5    5  503    0  0.62673216608E+01  0.25121966086E+03  0.85824877840E+02  0.26554944357E+03  0.00000000000E+00 0. -1.
         -2    1    5    5    0  503  0.17597973208E+03  0.10700579314E+04  0.44581493699E+03  0.11724946911E+04  0.00000000000E+00 0.  1.
         -1    1    6    6    0  502 -0.11657438591E+03 -0.29071951025E+02 -0.11352214901E+03  0.16529381145E+03  0.00000000000E+00 0.  1.
<mgrwt>
<rscale>  0 0.28557073E+04</rscale>
<asrwt>0</asrwt>
<pdfrwt beam="1">  1        1 0.28932157E+00 0.28557073E+04</pdfrwt>
<pdfrwt beam="2">  1       -1 0.16678610E+00 0.28557073E+04</pdfrwt>
<totfact> 0.80423858E-01</totfact>
</mgrwt>
</event>
<event>
12    1  0.2588309E-007  0.1060193E+04  0.7818608E-02  0.9244884E-01
         -2   -1    0    0    0  501 -0.00000000000E+00  0.00000000000E+00  0.13995784976E+03  0.13995784976E+03  0.00000000000E+00 0.  1.
          2   -1    0    0  501    0  0.00000000000E+00 -0.00000000000E+00 -0.20077622713E+04  0.20077622713E+04  0.00000000000E+00 0. -1.
         23    2    1    2    0    0 -0.11676071685E+02 -0.12075974244E+03 -0.28706763965E+03  0.32490355386E+03  0.91843581881E+02 0.  0.
        254    2    1    2    0    0  0.11676071685E+02  0.12075974244E+03 -0.15807367819E+04  0.18228165672E+04  0.89956223686E+03 0.  0.
        -24    2    4    4    0    0  0.96124837888E+02  0.49759001573E+03 -0.89616354133E+03  0.10326235397E+04  0.79790185229E+02 0.  0.
         24    2    4    4    0    0 -0.84448766203E+02 -0.37683027329E+03 -0.68457324052E+03  0.79019302750E+03  0.81436171802E+02 0.  0.
         13    1    3    3    0    0  0.26962931972E+02 -0.91410916080E+02 -0.23571856322E+03  0.25425616281E+03  0.00000000000E+00 0. -1.
        -13    1    3    3    0    0 -0.38639003657E+02 -0.29348826356E+02 -0.51349076428E+02  0.70647391049E+02  0.00000000000E+00 0.  1.
          2    1    6    6  502    0  0.81409659531E+01 -0.54879284753E+02 -0.61904359486E+02  0.83127377831E+02  0.00000000000E+00 0. -1.
          3    1    5    5  503    0  0.34570584445E+00  0.16831510085E+03 -0.33668839444E+03  0.37641621596E+03  0.00000000000E+00 0. -1.
         -2    1    5    5    0  503  0.95779132044E+02  0.32927491488E+03 -0.55947514689E+03  0.65620732371E+03  0.00000000000E+00 0.  1.
         -1    1    6    6    0  502 -0.92589732156E+02 -0.32195098854E+03 -0.62266888104E+03  0.70706564966E+03  0.00000000000E+00 0.  1.
<mgrwt>
<rscale>  0 0.10601926E+04</rscale>
<asrwt>0</asrwt>
<pdfrwt beam="1">  1        2 0.30888651E+00 0.10601926E+04</pdfrwt>
<pdfrwt beam="2">  1       -2 0.21531977E-01 0.10601926E+04</pdfrwt>
<totfact> 0.12383535E+02</totfact>
</mgrwt>
</event>
<event>
12    1  0.2588309E-007  0.3816214E+04  0.7818608E-02  0.8042684E-01
         -1   -1    0    0    0  501 -0.00000000000E+00  0.00000000000E+00  0.15329868942E+04  0.15329868942E+04  0.00000000000E+00 0.  1.
          1   -1    0    0  501    0  0.00000000000E+00 -0.00000000000E+00 -0.23750183213E+04  0.23750183213E+04  0.00000000000E+00 0. -1.
         23    2    1    2    0    0  0.17085416478E+03 -0.12311136776E+04  0.93623034979E+03  0.15587179722E+04  0.90787753843E+02 0.  0.
        254    2    1    2    0    0 -0.17085416478E+03  0.12311136776E+04 -0.17782617769E+04  0.23492872433E+04  0.90116789293E+03 0.  0.
        -24    2    4    4    0    0 -0.78459189169E+02  0.13490951025E+04 -0.16615540619E+04  0.21432883804E+04  0.81913008147E+02 0.  0.
         24    2    4    4    0    0 -0.92394975607E+02 -0.11798142489E+03 -0.11670771500E+03  0.20599886286E+03  0.79739529879E+02 0.  0.
         11    1    3    3    0    0  0.21418034275E+02 -0.31006672755E+03  0.27605502009E+03  0.41569999019E+03  0.00000000000E+00 0. -1.
        -11    1    3    3    0    0  0.14943613050E+03 -0.92104695004E+03  0.66017532969E+03  0.11430179820E+04  0.00000000000E+00 0.  1.
          4    1    6    6  502    0 -0.10712767438E+03 -0.10352210895E+03 -0.10510195228E+03  0.18231726750E+03  0.00000000000E+00 0. -1.
          1    1    5    5  503    0 -0.36143742103E+02  0.11251686130E+04 -0.13673112545E+04  0.17711157061E+04  0.00000000000E+00 0. -1.
         -2    1    5    5    0  503 -0.42315447066E+02  0.22392648947E+03 -0.29424280746E+03  0.37217267429E+03  0.00000000000E+00 0.  1.
         -3    1    6    6    0  502  0.14732698768E+02 -0.14459315939E+02 -0.11605762723E+02  0.23681595360E+02  0.00000000000E+00 0.  1.
<mgrwt>
<rscale>  0 0.38162138E+04</rscale>
<asrwt>0</asrwt>
<pdfrwt beam="1">  1        1 0.36538743E+00 0.38162138E+04</pdfrwt>
<pdfrwt beam="2">  1       -1 0.23584414E+00 0.38162138E+04</pdfrwt>
<totfact> 0.11341536E-01</totfact>
</mgrwt>
</event>
<event>
12    1  0.2588309E-007  0.2079789E+04  0.7818608E-02  0.8570199E-01
          1   -1    0    0  501    0  0.00000000000E+00  0.00000000000E+00  0.13767960349E+04  0.13767960349E+04  0.00000000000E+00 0. -1.
         -1   -1    0    0    0  501 -0.00000000000E+00 -0.00000000000E+00 -0.78543283403E+03  0.78543283403E+03  0.00000000000E+00 0.  1.
         23    2    1    2    0    0  0.37579713495E+03 -0.56173536364E+03  0.75984974839E+03  0.10207109337E+04  0.87801279058E+02 0.  0.
        254    2    1    2    0    0 -0.37579713495E+03  0.56173536364E+03 -0.16848654750E+03  0.11415179353E+04  0.90438121080E+03 0.  0.
        -24    2    4    4    0    0 -0.71504972712E+01 -0.22670082609E+03  0.38683941844E+02  0.24326680034E+03  0.78980343304E+02 0.  0.
         24    2    4    4    0    0 -0.36864663768E+03  0.78843618973E+03 -0.20717048935E+03  0.89825113493E+03  0.80022003229E+02 0.  0.
         11    1    3    3    0    0  0.27409511168E+03 -0.46268234680E+03  0.56995869922E+03  0.78361725549E+03  0.00000000000E+00 0.  1.
        -11    1    3    3    0    0  0.10170202327E+03 -0.99053016844E+02  0.18989104917E+03  0.23709367819E+03  0.00000000000E+00 0. -1.
          4    1    6    6  502    0 -0.10428313971E+03  0.20747557106E+03 -0.19879569110E+02  0.23305854003E+03  0.00000000000E+00 0. -1.
          1    1    5    5  503    0 -0.18189689069E+02 -0.11901799232E+02 -0.80239096978E+01  0.23171118665E+02  0.00000000000E+00 0. -1.
         -2    1    5    5    0  503  0.11039191797E+02 -0.21479902686E+03  0.46707851541E+02  0.22009568167E+03  0.00000000000E+00 0.  1.
         -3    1    6    6    0  502 -0.26436349797E+03  0.58096061868E+03 -0.18729092024E+03  0.66519259491E+03  0.00000000000E+00 0.  1.
<mgrwt>
<rscale>  0 0.20797892E+04</rscale>
<asrwt>0</asrwt>
<pdfrwt beam="1">  1        1 0.21181477E+00 0.20797892E+04</pdfrwt>
<pdfrwt beam="2">  1       -1 0.12083582E+00 0.20797892E+04</pdfrwt>
<totfact> 0.44732412E+00</totfact>
</mgrwt>
</event>
<event>
12    1  0.2588309E-007  0.1330793E+04  0.7818608E-02  0.9005497E-01
         -1   -1    0    0    0  501 -0.00000000000E+00  0.00000000000E+00  0.26334010155E+03  0.26334010155E+03  0.00000000000E+00 0.  1.
          1   -1    0    0  501    0  0.00000000000E+00 -0.00000000000E+00 -0.16812942716E+04  0.16812942716E+04  0.00000000000E+00 0. -1.
         23    2    1    2    0    0 -0.30989152813E+03  0.61066399402E+02 -0.15826384187E+03  0.36497519860E+03  0.91638352269E+02 0.  0.
        254    2    1    2    0    0  0.30989152813E+03 -0.61066399402E+02 -0.12596903282E+04  0.15796591745E+04  0.89930057293E+03 0.  0.
        -24    2    4    4    0    0 -0.74071373180E+02  0.60897981541E+02  0.10172708920E+03  0.15751240489E+03  0.72571513246E+02 0.  0.
         24    2    4    4    0    0  0.38396290131E+03 -0.12196438094E+03 -0.13614174174E+04  0.14221467696E+04  0.82104995632E+02 0.  0.
         13    1    3    3    0    0 -0.17379845891E+03  0.79874222568E+02 -0.85575418574E+02  0.20954462058E+03  0.00000000000E+00 0. -1.
        -13    1    3    3    0    0 -0.13609306922E+03 -0.18807823165E+02 -0.72688423296E+02  0.15543057802E+03  0.00000000000E+00 0.  1.
          4    1    6    6  502    0  0.24159776147E+03 -0.59083014786E+02 -0.70683927018E+03  0.74932104925E+03  0.00000000000E+00 0. -1.
          3    1    5    5  503    0 -0.82810926835E+02  0.44362092384E+02  0.59167726282E+02  0.11102461293E+03  0.00000000000E+00 0. -1.
         -4    1    5    5    0  503  0.87395536553E+01  0.16535889157E+02  0.42559362920E+02  0.46487791951E+02  0.00000000000E+00 0.  1.
         -3    1    6    6    0  502  0.14236513984E+03 -0.62881366157E+02 -0.65457814718E+03  0.67282572039E+03  0.00000000000E+00 0.  1.
<mgrwt>
<rscale>  0 0.13307926E+04</rscale>
<asrwt>0</asrwt>
<pdfrwt beam="1">  1        1 0.25866066E+00 0.13307926E+04</pdfrwt>
<pdfrwt beam="2">  1       -1 0.40513861E-01 0.13307926E+04</pdfrwt>
<totfact> 0.28631272E+01</totfact>
</mgrwt>
</event>
<event>
12    1  0.2588309E-007  0.1945498E+04  0.7818608E-02  0.8632535E-01
         -2   -1    0    0    0  501 -0.00000000000E+00  0.00000000000E+00  0.13027439615E+04  0.13027439615E+04  0.00000000000E+00 0.  1.
          2   -1    0    0  501    0  0.00000000000E+00 -0.00000000000E+00 -0.72634458434E+03  0.72634458434E+03  0.00000000000E+00 0. -1.
         23    2    1    2    0    0 -0.91001541701E+02  0.70642839141E+03  0.49214802302E+03  0.87054269480E+03  0.91173209414E+02 0.  0.
        254    2    1    2    0    0  0.91001541701E+02 -0.70642839141E+03  0.84251354136E+02  0.11585458510E+04  0.90983946140E+03 0.  0.
        -24    2    4    4    0    0  0.29340802843E+03 -0.11319652240E+03  0.34646845735E+03  0.47440201989E+03  0.78199493002E+02 0.  0.
         24    2    4    4    0    0 -0.20240648673E+03 -0.59323186901E+03 -0.26221710322E+03  0.68414383116E+03  0.80015849747E+02 0.  0.
         13    1    3    3    0    0 -0.10236991074E+03  0.60442992503E+03  0.44545662033E+03  0.75779069240E+03  0.00000000000E+00 0.  1.
        -13    1    3    3    0    0  0.11368369036E+02  0.10199846638E+03  0.46691402695E+02  0.11275200239E+03  0.00000000000E+00 0. -1.
          2    1    6    6  502    0 -0.13470994351E+02 -0.14989145910E+02 -0.22720026952E+02  0.30370080813E+02  0.00000000000E+00 0. -1.
          1    1    5    5  503    0  0.98377865309E+02 -0.75181089778E+02  0.11087506143E+03  0.16620373007E+03  0.00000000000E+00 0. -1.
         -2    1    5    5    0  503  0.19503016312E+03 -0.38015432621E+02  0.23559339592E+03  0.30819828982E+03  0.00000000000E+00 0.  1.
         -1    1    6    6    0  502 -0.18893549238E+03 -0.57824272310E+03 -0.23949707626E+03  0.65377375034E+03  0.00000000000E+00 0.  1.
<mgrwt>
<rscale>  0 0.19454984E+04</rscale>
<asrwt>0</asrwt>
<pdfrwt beam="1">  1        2 0.11174532E+00 0.19454984E+04</pdfrwt>
<pdfrwt beam="2">  1       -2 0.20042215E+00 0.19454984E+04</pdfrwt>
<totfact> 0.48169529E+00</totfact>
</mgrwt>
</event>
<event>
12    1  0.2588309E-007  0.2754395E+04  0.7818608E-02  0.8317568E-01
          2   -1    0    0  501    0  0.00000000000E+00  0.00000000000E+00  0.12266168226E+04  0.12266168226E+04  0.00000000000E+00 0. -1.
         -2   -1    0    0    0  501 -0.00000000000E+00 -0.00000000000E+00 -0.15462632156E+04  0.15462632156E+04  0.00000000000E+00 0.  1.
         23    2    1    2    0    0  0.96256669024E+03 -0.71827600876E+03 -0.40186299627E+03  0.12697111983E+04  0.90650987395E+02 0.  0.
        254    2    1    2    0    0 -0.96256669024E+03  0.71827600876E+03  0.82216603343E+02  0.15031688398E+04  0.90016772508E+03 0.  0.
        -24    2    4    4    0    0 -0.69062171178E+03  0.73249172463E+03 -0.27500140099E+03  0.10469051881E+04  0.82959188762E+02 0.  0.
         24    2    4    4    0    0 -0.27194497846E+03 -0.14215715864E+02  0.35721800434E+03  0.45626365169E+03  0.80097811101E+02 0.  0.
         13    1    3    3    0    0  0.49357596062E+03 -0.35462602249E+03 -0.24966988856E+03  0.65704786582E+03  0.00000000000E+00 0. -1.
        -13    1    3    3    0    0  0.46899072963E+03 -0.36364998627E+03 -0.15219310770E+03  0.61266333253E+03  0.00000000000E+00 0.  1.
          4    1    6    6  502    0 -0.63452607126E+02  0.90653172310E+01  0.38727463356E+02  0.74888114848E+02  0.00000000000E+00 0. -1.
          1    1    5    5  503    0 -0.32294036102E+03  0.40296160297E+03 -0.14126502842E+03  0.53537308346E+03  0.00000000000E+00 0. -1.
         -2    1    5    5    0  503 -0.36768135076E+03  0.32953012166E+03 -0.13373637257E+03  0.51153210469E+03  0.00000000000E+00 0.  1.
         -3    1    6    6    0  502 -0.20849237134E+03 -0.23281033095E+02  0.31849054098E+03  0.38137553684E+03  0.00000000000E+00 0.  1.
<mgrwt>
<rscale>  0 0.27543947E+04</rscale>
<asrwt>0</asrwt>
<pdfrwt beam="1">  1        2 0.18871028E+00 0.27543947E+04</pdfrwt>
<pdfrwt beam="2">  1       -2 0.23788665E+00 0.27543947E+04</pdfrwt>
<totfact> 0.12176390E+00</totfact>
</mgrwt>
</event>
<event>
12    1  0.2588309E-007  0.3170954E+04  0.7818608E-02  0.8196531E-01
          2   -1    0    0  501    0  0.00000000000E+00  0.00000000000E+00  0.23030954622E+04  0.23030954622E+04  0.00000000000E+00 0.  1.
         -2   -1    0    0    0  501 -0.00000000000E+00 -0.00000000000E+00 -0.10914600027E+04  0.10914600027E+04  0.00000000000E+00 0. -1.
         23    2    1    2    0    0  0.12025804773E+04  0.65617395888E+03  0.10854057188E+04  0.17502684956E+04  0.92575178536E+02 0.  0.
        254    2    1    2    0    0 -0.12025804773E+04 -0.65617395888E+03  0.12622974064E+03  0.16442869693E+04  0.90054517995E+03 0.  0.
        -24    2    4    4    0    0 -0.82040291338E+03  0.13751180114E+02  0.24471734089E+03  0.85996685553E+03  0.80039867866E+02 0.  0.
         24    2    4    4    0    0 -0.38217756394E+03 -0.66992513900E+03 -0.11848760025E+03  0.78432011373E+03  0.79116035995E+02 0.  0.
         11    1    3    3    0    0  0.49633156243E+03  0.28857661473E+03  0.50984033002E+03  0.76782722311E+03  0.00000000000E+00 0.  1.
        -11    1    3    3    0    0  0.70624891489E+03  0.36759734415E+03  0.57556538879E+03  0.98244127254E+03  0.00000000000E+00 0. -1.
          2    1    6    6  502    0 -0.25354126491E+03 -0.36996368165E+03 -0.81519425517E+02  0.45585273443E+03  0.00000000000E+00 0. -1.
          1    1    5    5  503    0 -0.78481644058E+03  0.97708780037E+01  0.25008915496E+03  0.82375779261E+03  0.00000000000E+00 0. -1.
         -2    1    5    5    0  503 -0.35586472804E+02  0.39803021104E+01 -0.53718140700E+01  0.36209062925E+02  0.00000000000E+00 0.  1.
         -3    1    6    6    0  502 -0.12863629904E+03 -0.29996145735E+03 -0.36968174736E+02  0.32846737931E+03  0.00000000000E+00 0.  1.
<mgrwt>
<rscale>  0 0.31709535E+04</rscale>
<asrwt>0</asrwt>
<pdfrwt beam="1">  1        2 0.35432238E+00 0.31709535E+04</pdfrwt>
<pdfrwt beam="2">  1       -2 0.16791692E+00 0.31709535E+04</pdfrwt>
<totfact> 0.84058864E-01</totfact>
</mgrwt>
</event>
<event>
12    1  0.2588309E-007  0.1133200E+04  0.7818608E-02  0.9173424E-01
         -1   -1    0    0    0  501 -0.00000000000E+00  0.00000000000E+00  0.79632152450E+03  0.79632152450E+03  0.00000000000E+00 0.  1.
          1   -1    0    0  501    0  0.00000000000E+00 -0.00000000000E+00 -0.40314812752E+03  0.40314812752E+03  0.00000000000E+00 0. -1.
         23    2    1    2    0    0 -0.97688166622E+02 -0.33116987156E+02  0.24517423391E+03  0.28092858771E+03  0.90392221351E+02 0.  0.
        254    2    1    2    0    0  0.97688166622E+02  0.33116987156E+02  0.14799916307E+03  0.91854106431E+03  0.90065210920E+03 0.  0.
        -24    2    4    4    0    0 -0.21412279393E+03 -0.25438046298E+02  0.42964937662E+03  0.48732842935E+03  0.79967156671E+02 0.  0.
         24    2    4    4    0    0  0.31181096055E+03  0.58555033454E+02 -0.28165021355E+03  0.43121263496E+03  0.77218693916E+02 0.  0.
         11    1    3    3    0    0 -0.10221233876E+03 -0.18642255648E+02  0.13827585470E+03  0.17295984471E+03  0.00000000000E+00 0. -1.
        -11    1    3    3    0    0  0.45241721347E+01 -0.14474731508E+02  0.10689837922E+03  0.10796874300E+03  0.00000000000E+00 0.  1.
          2    1    6    6  502    0  0.27184647290E+03  0.43169621310E+02 -0.27269647191E+03  0.38746288445E+03  0.00000000000E+00 0. -1.
          3    1    5    5  503    0 -0.13706807122E+03 -0.97779241572E+01  0.34715817639E+03  0.37336585728E+03  0.00000000000E+00 0. -1.
         -4    1    5    5    0  503 -0.77054722715E+02 -0.15660122141E+02  0.82491200226E+02  0.11396257207E+03  0.00000000000E+00 0.  1.
         -1    1    6    6    0  502  0.39964487651E+02  0.15385412144E+02 -0.89537416364E+01  0.43749750506E+02  0.00000000000E+00 0.  1.
<mgrwt>
<rscale>  0 0.11331999E+04</rscale>
<asrwt>0</asrwt>
<pdfrwt beam="1">  1        1 0.62022789E-01 0.11331999E+04</pdfrwt>
<pdfrwt beam="2">  1       -1 0.12251100E+00 0.11331999E+04</pdfrwt>
<totfact> 0.34740691E+01</totfact>
</mgrwt>
</event>
<event>
12    1  0.2588309E-007  0.2559840E+04  0.7818608E-02  0.8381972E-01
         -2   -1    0    0    0  501 -0.00000000000E+00  0.00000000000E+00  0.50662079558E+03  0.50662079558E+03  0.00000000000E+00 0.  1.
          2   -1    0    0  501    0  0.00000000000E+00 -0.00000000000E+00 -0.32335740142E+04  0.32335740142E+04  0.00000000000E+00 0. -1.
         23    2    1    2    0    0 -0.28345745138E+03 -0.10762334096E+04 -0.13730044601E+04  0.17698320516E+04  0.92400024867E+02 0.  0.
        254    2    1    2    0    0  0.28345745138E+03  0.10762334096E+04 -0.13539487585E+04  0.19703627582E+04  0.90029199692E+03 0.  0.
        -24    2    4    4    0    0  0.23963479017E+02  0.48166409374E+03 -0.23890487969E+02  0.48827888409E+03  0.72601416739E+02 0.  0.
         24    2    4    4    0    0  0.25949397237E+03  0.59456931583E+03 -0.13300582705E+04  0.14820838741E+04  0.81656683298E+02 0.  0.
         11    1    3    3    0    0 -0.28884631046E+03 -0.10538582107E+04 -0.13325915901E+04  0.17233251769E+04  0.00000000000E+00 0.  1.
        -11    1    3    3    0    0  0.53888590819E+01 -0.22375198846E+02 -0.40412870062E+02  0.46506874677E+02  0.00000000000E+00 0. -1.
          4    1    6    6  502    0  0.90729738837E+02  0.14285186262E+03 -0.29210660694E+03  0.33758674438E+03  0.00000000000E+00 0. -1.
          3    1    5    5  503    0  0.92839143251E+01  0.78328156705E+02  0.22489079506E+02  0.82019814039E+02  0.00000000000E+00 0. -1.
         -4    1    5    5    0  503  0.14679564692E+02  0.40333593703E+03 -0.46379567475E+02  0.40625907005E+03  0.00000000000E+00 0.  1.
         -3    1    6    6    0  502  0.16876423353E+03  0.45171745321E+03 -0.10379516636E+04  0.11444971297E+04  0.00000000000E+00 0.  1.
<mgrwt>
<rscale>  0 0.25598405E+04</rscale>
<asrwt>0</asrwt>
<pdfrwt beam="1">  1        2 0.49747293E+00 0.25598405E+04</pdfrwt>
<pdfrwt beam="2">  1       -2 0.77941660E-01 0.25598405E+04</pdfrwt>
<totfact> 0.16039135E+00</totfact>
</mgrwt>
</event>
<event>
12    1  0.2588309E-007  0.1588563E+04  0.7818608E-02  0.8827605E-01
         -3   -1    0    0    0  501 -0.00000000000E+00  0.00000000000E+00  0.88707399981E+03  0.88707399981E+03  0.00000000000E+00 0.  1.
          3   -1    0    0  501    0  0.00000000000E+00 -0.00000000000E+00 -0.71119530808E+03  0.71119530808E+03  0.00000000000E+00 0. -1.
         23    2    1    2    0    0  0.13824493537E+03  0.37619887272E+03 -0.29555453868E+03  0.50506858531E+03  0.84288412838E+02 0.  0.
        254    2    1    2    0    0 -0.13824493537E+03 -0.37619887272E+03  0.47143323040E+03  0.10932007226E+04  0.90122210089E+03 0.  0.
        -24    2    4    4    0    0 -0.23828302293E+03  0.10667823690E+03  0.52429204035E+03  0.59121142634E+03  0.80559057979E+02 0.  0.
         24    2    4    4    0    0  0.10003808757E+03 -0.48287710962E+03 -0.52858809943E+02  0.50198929624E+03  0.77596892933E+02 0.  0.
         13    1    3    3    0    0  0.11197187178E+03  0.34594386326E+03 -0.28898234829E+03  0.46446275870E+03  0.00000000000E+00 0. -1.
        -13    1    3    3    0    0  0.26273063587E+02  0.30255009457E+02 -0.65721903868E+01  0.40605826601E+02  0.00000000000E+00 0.  1.
          2    1    6    6  502    0  0.44228904461E+02 -0.33674749589E+03 -0.62192812322E+02  0.34528686317E+03  0.00000000000E+00 0. -1.
          1    1    5    5  503    0 -0.11933304536E+03  0.25979810372E+02  0.30986096300E+03  0.33306026880E+03  0.00000000000E+00 0. -1.
         -4    1    5    5    0  503 -0.11894997758E+03  0.80698426530E+02  0.21443107735E+03  0.25815115755E+03  0.00000000000E+00 0.  1.
         -1    1    6    6    0  502  0.55809183106E+02 -0.14612961373E+03  0.93340023785E+01  0.15670243307E+03  0.00000000000E+00 0.  1.
<mgrwt>
<rscale>  0 0.15885627E+04</rscale>
<asrwt>0</asrwt>
<pdfrwt beam="1">  1        3 0.10941466E+00 0.15885627E+04</pdfrwt>
<pdfrwt beam="2">  1       -3 0.13647292E+00 0.15885627E+04</pdfrwt>
<totfact> 0.73040756E-01</totfact>
</mgrwt>
</event>
<event>
12    1  0.2588309E-007  0.1163965E+04  0.7818608E-02  0.9144996E-01
          1   -1    0    0  501    0  0.00000000000E+00  0.00000000000E+00  0.13014116076E+04  0.13014116076E+04  0.00000000000E+00 0. -1.
         -1   -1    0    0    0  501 -0.00000000000E+00 -0.00000000000E+00 -0.26025883140E+03  0.26025883140E+03  0.00000000000E+00 0.  1.
         23    2    1    2    0    0 -0.19928985717E+03 -0.58044683834E+02  0.32027657160E+03  0.39271262612E+03  0.92522926386E+02 0.  0.
        254    2    1    2    0    0  0.19928985717E+03  0.58044683834E+02  0.72087620456E+03  0.11689578128E+04  0.89650110620E+03 0.  0.
        -24    2    4    4    0    0  0.28344648122E+03 -0.95754732092E+01  0.89985734120E+03  0.94681483470E+03  0.79255910207E+02 0.  0.
         24    2    4    4    0    0 -0.84156624050E+02  0.67620157044E+02 -0.17898113664E+03  0.22214297814E+03  0.75222552810E+02 0.  0.
         13    1    3    3    0    0 -0.11201442845E+03 -0.12411509576E+02  0.24183513619E+03  0.26680612970E+03  0.00000000000E+00 0. -1.
        -13    1    3    3    0    0 -0.87275428719E+02 -0.45633174258E+02  0.78441435406E+02  0.12590649642E+03  0.00000000000E+00 0.  1.
          2    1    6    6  502    0 -0.78898143576E+02  0.17443691808E+02 -0.10248992580E+03  0.13051200839E+03  0.00000000000E+00 0. -1.
          3    1    5    5  503    0  0.24679725592E+03 -0.17940599164E+02  0.67690838475E+03  0.72071888554E+03  0.00000000000E+00 0. -1.
         -4    1    5    5    0  503  0.36649225303E+02  0.83651259544E+01  0.22294895645E+03  0.22609594916E+03  0.00000000000E+00 0.  1.
         -1    1    6    6    0  502 -0.52584804739E+01  0.50176465235E+02 -0.76491210839E+02  0.91630969743E+02  0.00000000000E+00 0.  1.
<mgrwt>
<rscale>  0 0.11639654E+04</rscale>
<asrwt>0</asrwt>
<pdfrwt beam="1">  1        1 0.20021717E+00 0.11639654E+04</pdfrwt>
<pdfrwt beam="2">  1       -1 0.40039821E-01 0.11639654E+04</pdfrwt>
<totfact> 0.54413517E+01</totfact>
</mgrwt>
</event>
<event>
12    1  0.2588309E-007  0.1911480E+04  0.7818608E-02  0.8649163E-01
         -1   -1    0    0    0  501 -0.00000000000E+00  0.00000000000E+00  0.42458016565E+03  0.42458016565E+03  0.00000000000E+00 0.  1.
          1   -1    0    0  501    0  0.00000000000E+00 -0.00000000000E+00 -0.21513923481E+04  0.21513923481E+04  0.00000000000E+00 0. -1.
         23    2    1    2    0    0 -0.61383765593E+03 -0.27929750537E+03 -0.11106006372E+04  0.13023723643E+04  0.89085552359E+02 0.  0.
        254    2    1    2    0    0  0.61383765593E+03  0.27929750537E+03 -0.61621154522E+03  0.12736001494E+04  0.88743276241E+03 0.  0.
        -24    2    4    4    0    0  0.72684806695E+03  0.12003736635E+03 -0.72546726487E+03  0.10373854550E+04  0.84550269445E+02 0.  0.
         24    2    4    4    0    0 -0.11301041102E+03  0.15926013902E+03  0.10925571965E+03  0.23621469444E+03  0.75666536283E+02 0.  0.
         13    1    3    3    0    0 -0.27493549482E+03 -0.79581889325E+02 -0.43966012783E+03  0.52461779556E+03  0.00000000000E+00 0.  1.
        -13    1    3    3    0    0 -0.33890216111E+03 -0.19971561604E+03 -0.67094050940E+03  0.77775456878E+03  0.00000000000E+00 0. -1.
          2    1    6    6  502    0 -0.32296645002E+02  0.62311290885E+01  0.34735507426E+02  0.47837806432E+02  0.00000000000E+00 0. -1.
          3    1    5    5  503    0  0.17174252039E+03  0.49866964739E+02 -0.21842770450E+03  0.28229925536E+03  0.00000000000E+00 0. -1.
         -4    1    5    5    0  503  0.55510554656E+03  0.70170401610E+02 -0.50703956036E+03  0.75508619962E+03  0.00000000000E+00 0.  1.
         -1    1    6    6    0  502 -0.80713766019E+02  0.15302900993E+03  0.74520212224E+02  0.18837688801E+03  0.00000000000E+00 0.  1.
<mgrwt>
<rscale>  0 0.19114796E+04</rscale>
<asrwt>0</asrwt>
<pdfrwt beam="1">  1        1 0.33098344E+00 0.19114796E+04</pdfrwt>
<pdfrwt beam="2">  1       -1 0.65320025E-01 0.19114796E+04</pdfrwt>
<totfact> 0.52224536E+00</totfact>
</mgrwt>
</event>
<event>
12    1  0.2588309E-007  0.1645192E+04  0.7818608E-02  0.8793256E-01
         -2   -1    0    0    0  501 -0.00000000000E+00  0.00000000000E+00  0.23705013164E+04  0.23705013164E+04  0.00000000000E+00 0.  1.
          2   -1    0    0  501    0  0.00000000000E+00 -0.00000000000E+00 -0.28545195690E+03  0.28545195690E+03  0.00000000000E+00 0. -1.
         23    2    1    2    0    0  0.85178268700E+02  0.53736262270E+03  0.10212206835E+04  0.11607348975E+04  0.91650924951E+02 0.  0.
        254    2    1    2    0    0 -0.85178268700E+02 -0.53736262270E+03  0.10638286759E+04  0.14952183758E+04  0.89885071830E+03 0.  0.
        -24    2    4    4    0    0  0.86844714386E+02 -0.73308091270E+03  0.58892118094E+03  0.94776289573E+03  0.80478072661E+02 0.  0.
         24    2    4    4    0    0 -0.17202298309E+03  0.19571829000E+03  0.47490749501E+03  0.54745548006E+03  0.79201124242E+02 0.  0.
         11    1    3    3    0    0  0.58412664644E+02  0.18062311406E+03  0.42416134408E+03  0.46470377073E+03  0.00000000000E+00 0.  1.
        -11    1    3    3    0    0  0.26765604056E+02  0.35673950864E+03  0.59705933943E+03  0.69603112674E+03  0.00000000000E+00 0. -1.
          4    1    6    6  502    0 -0.14036428744E+03  0.19415724945E+03  0.40238267546E+03  0.46830651096E+03  0.00000000000E+00 0. -1.
          1    1    5    5  503    0  0.61570245491E+02 -0.53988451806E+03  0.47710709616E+03  0.72311642851E+03  0.00000000000E+00 0. -1.
         -2    1    5    5    0  503  0.25274468895E+02 -0.19319639464E+03  0.11181408477E+03  0.22464646721E+03  0.00000000000E+00 0.  1.
         -3    1    6    6    0  502 -0.31658695647E+02  0.15610405448E+01  0.72524819559E+02  0.79148969101E+02  0.00000000000E+00 0.  1.
<mgrwt>
<rscale>  0 0.16451921E+04</rscale>
<asrwt>0</asrwt>
<pdfrwt beam="1">  1        2 0.43915687E-01 0.16451921E+04</pdfrwt>
<pdfrwt beam="2">  1       -2 0.36469250E+00 0.16451921E+04</pdfrwt>
<totfact> 0.14004002E+00</totfact>
</mgrwt>
</event>
<event>
12    1  0.2588309E-007  0.2068953E+04  0.7818608E-02  0.8575044E-01
          1   -1    0    0  501    0  0.00000000000E+00  0.00000000000E+00  0.14265500151E+04  0.14265500151E+04  0.00000000000E+00 0. -1.
         -1   -1    0    0    0  501 -0.00000000000E+00 -0.00000000000E+00 -0.75016067172E+03  0.75016067172E+03  0.00000000000E+00 0.  1.
         23    2    1    2    0    0 -0.73969067176E+02 -0.28957539504E+03 -0.54763551315E+03  0.62793308841E+03  0.71203763618E+02 0.  0.
        254    2    1    2    0    0  0.73969067176E+02  0.28957539504E+03  0.12240248565E+04  0.15487775984E+04  0.90063858878E+03 0.  0.
        -24    2    4    4    0    0 -0.20745652059E+02  0.47700703142E+03  0.12323636356E+04  0.13240022329E+04  0.79345398989E+02 0.  0.
         24    2    4    4    0    0  0.94714719235E+02 -0.18743163638E+03 -0.83387790599E+01  0.22477536549E+03  0.79705290539E+02 0.  0.
         11    1    3    3    0    0 -0.65596177755E+02 -0.21627463132E+03 -0.34647033038E+03  0.41366564339E+03  0.00000000000E+00 0.  1.
        -11    1    3    3    0    0 -0.83728894209E+01 -0.73300763727E+02 -0.20116518277E+03  0.21426744503E+03  0.00000000000E+00 0. -1.
          2    1    6    6  502    0  0.10812701710E+03 -0.16226492355E+03 -0.14744020345E+02  0.19554729192E+03  0.00000000000E+00 0. -1.
          1    1    5    5  503    0 -0.25710662206E+02  0.44262571396E+03  0.10748630906E+04  0.11627163129E+04  0.00000000000E+00 0. -1.
         -2    1    5    5    0  503  0.49650101472E+01  0.34381317465E+02  0.15750054495E+03  0.16128591996E+03  0.00000000000E+00 0.  1.
         -1    1    6    6    0  502 -0.13412297866E+02 -0.25166712832E+02  0.64052412849E+01  0.29228073572E+02  0.00000000000E+00 0.  1.
<mgrwt>
<rscale>  0 0.20689531E+04</rscale>
<asrwt>0</asrwt>
<pdfrwt beam="1">  1        1 0.21946923E+00 0.20689531E+04</pdfrwt>
<pdfrwt beam="2">  1       -1 0.11540933E+00 0.20689531E+04</pdfrwt>
<totfact> 0.46192016E+00</totfact>
</mgrwt>
</event>
<event>
12    1  0.2588309E-007  0.1683112E+04  0.7818608E-02  0.8771055E-01
         -1   -1    0    0    0  501 -0.00000000000E+00  0.00000000000E+00  0.81956745849E+03  0.81956745849E+03  0.00000000000E+00 0.  1.
          1   -1    0    0  501    0  0.00000000000E+00 -0.00000000000E+00 -0.86413441323E+03  0.86413441323E+03  0.00000000000E+00 0. -1.
         23    2    1    2    0    0  0.23875515010E+02 -0.58626828639E+03  0.91079263882E+02  0.60048966206E+03  0.89508983249E+02 0.  0.
        254    2    1    2    0    0 -0.23875515010E+02  0.58626828639E+03 -0.13564621862E+03  0.10832122097E+04  0.90037117385E+03 0.  0.
        -24    2    4    4    0    0 -0.11600304318E+03  0.31873797397E+03  0.36371890638E+03  0.50374912378E+03  0.80131983471E+02 0.  0.
         24    2    4    4    0    0  0.92127528170E+02  0.26753031242E+03 -0.49936512500E+03  0.57946308588E+03  0.79699374628E+02 0.  0.
         13    1    3    3    0    0  0.77389417949E+01 -0.76080672149E+00  0.44375539076E+00  0.77889001674E+01  0.00000000000E+00 0. -1.
        -13    1    3    3    0    0  0.16136573215E+02 -0.58550747967E+03  0.90635508491E+02  0.59270076189E+03  0.00000000000E+00 0.  1.
          4    1    6    6  502    0  0.34399111228E+02  0.11128145978E+03 -0.28576927808E+03  0.30859511085E+03  0.00000000000E+00 0. -1.
          1    1    5    5  503    0  0.31234930897E+01  0.37450699356E+02  0.15826174918E+02  0.40777186070E+02  0.00000000000E+00 0. -1.
         -2    1    5    5    0  503 -0.11912653627E+03  0.28128727461E+03  0.34789273147E+03  0.46297193771E+03  0.00000000000E+00 0.  1.
         -3    1    6    6    0  502  0.57728416942E+02  0.15624885265E+03 -0.21359584692E+03  0.27086797503E+03  0.00000000000E+00 0.  1.
<mgrwt>
<rscale>  0 0.16831119E+04</rscale>
<asrwt>0</asrwt>
<pdfrwt beam="1">  1        1 0.13294376E+00 0.16831119E+04</pdfrwt>
<pdfrwt beam="2">  1       -1 0.12608730E+00 0.16831119E+04</pdfrwt>
<totfact> 0.10172150E+01</totfact>
</mgrwt>
</event>
<event>
12    1  0.2588309E-007  0.2601927E+04  0.7818608E-02  0.8367547E-01
         -2   -1    0    0    0  501 -0.00000000000E+00  0.00000000000E+00  0.55995601906E+03  0.55995601906E+03  0.00000000000E+00 0.  1.
          2   -1    0    0  501    0  0.00000000000E+00 -0.00000000000E+00 -0.30225695407E+04  0.30225695407E+04  0.00000000000E+00 0. -1.
         23    2    1    2    0    0  0.71235129596E+03  0.49641251181E+03 -0.64817941261E+02  0.87542359438E+03  0.91078830411E+02 0.  0.
        254    2    1    2    0    0 -0.71235129596E+03 -0.49641251181E+03 -0.23977955804E+04  0.27071019654E+04  0.90835436638E+03 0.  0.
        -24    2    4    4    0    0  0.17165501665E+02  0.17033073155E+03 -0.83624793141E+03  0.85737013523E+03  0.80409784467E+02 0.  0.
         24    2    4    4    0    0 -0.72951679763E+03 -0.66674324336E+03 -0.15615476490E+04  0.18497318302E+04  0.79595683783E+02 0.  0.
         11    1    3    3    0    0  0.43574342186E+03  0.35431713853E+03 -0.54916157665E+02  0.56429491290E+03  0.00000000000E+00 0. -1.
        -11    1    3    3    0    0  0.27660787410E+03  0.14209537328E+03 -0.99017835969E+01  0.31112868148E+03  0.00000000000E+00 0.  1.
          2    1    6    6  502    0 -0.15748471917E+03 -0.16435392226E+03 -0.30570684984E+03  0.38114344619E+03  0.00000000000E+00 0. -1.
          3    1    5    5  503    0 -0.17249560264E+02  0.80739772705E+02 -0.53128932340E+03  0.53766607052E+03  0.00000000000E+00 0. -1.
         -4    1    5    5    0  503  0.34415061929E+02  0.89590958849E+02 -0.30495860801E+03  0.31970406471E+03  0.00000000000E+00 0.  1.
         -1    1    6    6    0  502 -0.57203207846E+03 -0.50238932110E+03 -0.12558407992E+04  0.14685883840E+04  0.00000000000E+00 0.  1.
<mgrwt>
<rscale>  0 0.26019270E+04</rscale>
<asrwt>0</asrwt>
<pdfrwt beam="1">  1        2 0.46501070E+00 0.26019270E+04</pdfrwt>
<pdfrwt beam="2">  1       -2 0.86147080E-01 0.26019270E+04</pdfrwt>
<totfact> 0.17415663E+00</totfact>
</mgrwt>
</event>
<event>
12    1  0.2588309E-007  0.3299860E+04  0.7818608E-02  0.8162931E-01
         -2   -1    0    0    0  501 -0.00000000000E+00  0.00000000000E+00  0.14226652045E+04  0.14226652045E+04  0.00000000000E+00 0.  1.
          2   -1    0    0  501    0  0.00000000000E+00 -0.00000000000E+00 -0.19134993640E+04  0.19134993640E+04  0.00000000000E+00 0. -1.
         23    2    1    2    0    0  0.12398487322E+04 -0.50286337259E+03 -0.96853598741E+03  0.16543026866E+04  0.92514701386E+02 0.  0.
        254    2    1    2    0    0 -0.12398487322E+04  0.50286337259E+03  0.47770182784E+03  0.16818618819E+04  0.90020214576E+03 0.  0.
        -24    2    4    4    0    0 -0.11417919978E+04  0.36947236398E+03  0.70170242095E+03  0.13924489961E+04  0.79555798674E+02 0.  0.
         24    2    4    4    0    0 -0.98056734389E+02  0.13339100861E+03 -0.22400059311E+03  0.28941288582E+03  0.78582876172E+02 0.  0.
         11    1    3    3    0    0  0.73396231782E+03 -0.25365367752E+03 -0.53569643258E+03  0.94340422937E+03  0.00000000000E+00 0.  1.
        -11    1    3    3    0    0  0.50588641435E+03 -0.24920969507E+03 -0.43283955483E+03  0.71089845728E+03  0.00000000000E+00 0. -1.
          2    1    6    6  502    0 -0.59522228879E+02  0.13047152253E+03 -0.16200872750E+03  0.21636206162E+03  0.00000000000E+00 0. -1.
          1    1    5    5  503    0 -0.67899638715E+03  0.18585212130E+03  0.43675143248E+03  0.82844970791E+03  0.00000000000E+00 0. -1.
         -2    1    5    5    0  503 -0.46279561063E+03  0.18362024268E+03  0.26495098847E+03  0.56399928815E+03  0.00000000000E+00 0.  1.
         -1    1    6    6    0  502 -0.38534505510E+02  0.29194860720E+01 -0.61991865612E+02  0.73050824197E+02  0.00000000000E+00 0.  1.
<mgrwt>
<rscale>  0 0.32998600E+04</rscale>
<asrwt>0</asrwt>
<pdfrwt beam="1">  1        2 0.29438452E+00 0.32998600E+04</pdfrwt>
<pdfrwt beam="2">  1       -2 0.21887157E+00 0.32998600E+04</pdfrwt>
<totfact> 0.62639629E-01</totfact>
</mgrwt>
</event>
<event>
12    1  0.2588309E-007  0.1519465E+04  0.7818608E-02  0.8871611E-01
         -1   -1    0    0    0  501 -0.00000000000E+00  0.00000000000E+00  0.38054038631E+03  0.38054038631E+03  0.00000000000E+00 0.  1.
          1   -1    0    0  501    0  0.00000000000E+00 -0.00000000000E+00 -0.15167727317E+04  0.15167727317E+04  0.00000000000E+00 0. -1.
         23    2    1    2    0    0  0.44079007428E+03  0.36991426503E+02 -0.62832299606E+03  0.77371648711E+03  0.90460819244E+02 0.  0.
        254    2    1    2    0    0 -0.44079007428E+03 -0.36991426503E+02 -0.50790934934E+03  0.11235966309E+04  0.89935155898E+03 0.  0.
        -24    2    4    4    0    0  0.13794168620E+03  0.22083967628E+03  0.48405046257E+02  0.27666496369E+03  0.80014887495E+02 0.  0.
         24    2    4    4    0    0 -0.57873176048E+03 -0.25783110278E+03 -0.55631439559E+03  0.84693166722E+03  0.80001337770E+02 0.  0.
         11    1    3    3    0    0  0.39325626726E+03  0.43294181781E+01 -0.56006664145E+03  0.68435654338E+03  0.00000000000E+00 0. -1.
        -11    1    3    3    0    0  0.47533807021E+02  0.32662008325E+02 -0.68256354612E+02  0.89359943726E+02  0.00000000000E+00 0.  1.
          4    1    6    6  502    0 -0.28911070553E+02 -0.34529165845E+02 -0.43667235814E+02  0.62729106307E+02  0.00000000000E+00 0. -1.
          3    1    5    5  503    0 -0.39584202128E+01 -0.12704519503E+00  0.10645236176E+02  0.11358093339E+02  0.00000000000E+00 0. -1.
         -4    1    5    5    0  503  0.14190010641E+03  0.22096672147E+03  0.37759810081E+02  0.26530687035E+03  0.00000000000E+00 0.  1.
         -3    1    6    6    0  502 -0.54982068993E+03 -0.22330193694E+03 -0.51264715978E+03  0.78420256091E+03  0.00000000000E+00 0.  1.
<mgrwt>
<rscale>  0 0.15194647E+04</rscale>
<asrwt>0</asrwt>
<pdfrwt beam="1">  1        1 0.23334965E+00 0.15194647E+04</pdfrwt>
<pdfrwt beam="2">  1       -1 0.58544676E-01 0.15194647E+04</pdfrwt>
<totfact> 0.18185789E+01</totfact>
</mgrwt>
</event>
<event>
12    1  0.2588309E-007  0.2094311E+04  0.7818608E-02  0.8563754E-01
          2   -1    0    0  501    0  0.00000000000E+00  0.00000000000E+00  0.18105243078E+04  0.18105243078E+04  0.00000000000E+00 0.  1.
         -2   -1    0    0    0  501 -0.00000000000E+00 -0.00000000000E+00 -0.60564464579E+03  0.60564464579E+03  0.00000000000E+00 0. -1.
         23    2    1    2    0    0 -0.72178353040E+03  0.33986877062E+03  0.15103920180E+03  0.81725250715E+03  0.92771622640E+02 0.  0.
        254    2    1    2    0    0  0.72178353040E+03 -0.33986877062E+03  0.10538404602E+04  0.15989164465E+04  0.89970653057E+03 0.  0.
        -24    2    4    4    0    0  0.20237830178E+03  0.56212759738E+02 -0.11787120153E+03  0.25501930283E+03  0.83811534293E+02 0.  0.
         24    2    4    4    0    0  0.51940522863E+03 -0.39608153036E+03  0.11717116618E+04  0.13438971436E+04  0.80553982781E+02 0.  0.
         13    1    3    3    0    0 -0.24855874535E+03  0.15722527512E+03  0.81998999964E+02  0.30532781240E+03  0.00000000000E+00 0.  1.
        -13    1    3    3    0    0 -0.47322478505E+03  0.18264349550E+03  0.69040201839E+02  0.51192469476E+03  0.00000000000E+00 0. -1.
          4    1    6    6  502    0  0.20333623115E+03 -0.16272399658E+03  0.38922642870E+03  0.46831819820E+03  0.00000000000E+00 0. -1.
          3    1    5    5  503    0  0.25520398068E+02  0.27111629252E+02  0.52042026027E+01  0.37595410397E+02  0.00000000000E+00 0. -1.
         -4    1    5    5    0  503  0.17685790371E+03  0.29101130487E+02 -0.12307540413E+03  0.21742389244E+03  0.00000000000E+00 0.  1.
         -3    1    6    6    0  502  0.31606899747E+03 -0.23335753378E+03  0.78248523305E+03  0.87557894543E+03  0.00000000000E+00 0.  1.
<mgrwt>
<rscale>  0 0.20943107E+04</rscale>
<asrwt>0</asrwt>
<pdfrwt beam="1">  1        2 0.27854220E+00 0.20943107E+04</pdfrwt>
<pdfrwt beam="2">  1       -2 0.93176100E-01 0.20943107E+04</pdfrwt>
<totfact> 0.76539290E+00</totfact>
</mgrwt>
</event>
<event>
12    1  0.2588309E-007  0.1051915E+04  0.7818608E-02  0.9253369E-01
         -2   -1    0    0    0  501 -0.00000000000E+00  0.00000000000E+00  0.76319089719E+02  0.76319089719E+02  0.00000000000E+00 0.  1.
          2   -1    0    0  501    0  0.00000000000E+00 -0.00000000000E+00 -0.36246689766E+04  0.36246689766E+04  0.00000000000E+00 0. -1.
         23    2    1    2    0    0 -0.89657577278E+02 -0.44194549053E+02 -0.65784972883E+03  0.67177769059E+03  0.92343708625E+02 0.  0.
        254    2    1    2    0    0  0.89657577278E+02  0.44194549053E+02 -0.28905001580E+04  0.30292103757E+04  0.90062905649E+03 0.  0.
        -24    2    4    4    0    0  0.30804085341E+02  0.42810065760E+03 -0.90582674080E+03  0.10053355670E+04  0.77191017933E+02 0.  0.
         24    2    4    4    0    0  0.58853491937E+02 -0.38390610855E+03 -0.19846734172E+04  0.20238748087E+04  0.79328648695E+02 0.  0.
         11    1    3    3    0    0  0.11608344830E+02 -0.17828440827E+02 -0.41785265017E+02  0.46889394798E+02  0.00000000000E+00 0.  1.
        -11    1    3    3    0    0 -0.10126592211E+03 -0.26366108226E+02 -0.61606446382E+03  0.62488829580E+03  0.00000000000E+00 0. -1.
          4    1    6    6  502    0  0.77076705988E+02 -0.26120882969E+03 -0.13737216570E+04  0.14004578045E+04  0.00000000000E+00 0. -1.
          3    1    5    5  503    0 -0.65996057910E+01  0.29912289295E+03 -0.67395033131E+03  0.73737853844E+03  0.00000000000E+00 0. -1.
         -4    1    5    5    0  503  0.37403691132E+02  0.12897776464E+03 -0.23187640949E+03  0.26795702857E+03  0.00000000000E+00 0.  1.
         -3    1    6    6    0  502 -0.18223214051E+02 -0.12269727885E+03 -0.61095176024E+03  0.62341700418E+03  0.00000000000E+00 0.  1.
<mgrwt>
<rscale>  0 0.10519153E+04</rscale>
<asrwt>0</asrwt>
<pdfrwt beam="1">  1        2 0.55764153E+00 0.10519153E+04</pdfrwt>
<pdfrwt beam="2">  1       -2 0.11741395E-01 0.10519153E+04</pdfrwt>
<totfact> 0.36282601E+01</totfact>
</mgrwt>
</event>
<event>
12    1  0.2588309E-007  0.1248966E+04  0.7818608E-02  0.9071045E-01
         -1   -1    0    0    0  501 -0.00000000000E+00  0.00000000000E+00  0.59693886450E+03  0.59693886450E+03  0.00000000000E+00 0.  1.
          1   -1    0    0  501    0  0.00000000000E+00 -0.00000000000E+00 -0.65329757485E+03  0.65329757485E+03  0.00000000000E+00 0. -1.
         23    2    1    2    0    0 -0.19453809912E+03 -0.14202266936E+03 -0.17778547052E+03  0.31275750704E+03  0.90521124923E+02 0.  0.
        254    2    1    2    0    0  0.19453809912E+03  0.14202266936E+03  0.12142676017E+03  0.93747893232E+03  0.89783449468E+03 0.  0.
        -24    2    4    4    0    0  0.19780907950E+03  0.50539575427E+03  0.70987189921E+01  0.54857720680E+03  0.79581779547E+02 0.  0.
         24    2    4    4    0    0 -0.32709803799E+01 -0.36337308492E+03  0.11432804118E+03  0.38890172552E+03  0.78249300051E+02 0.  0.
         13    1    3    3    0    0  0.90084351305E+01 -0.14372728824E+02 -0.97449849373E+01  0.19562514378E+02  0.00000000000E+00 0. -1.
        -13    1    3    3    0    0 -0.20354653425E+03 -0.12764994053E+03 -0.16804048558E+03  0.29319499266E+03  0.00000000000E+00 0.  1.
          2    1    6    6  502    0  0.12386378779E+02 -0.35223105838E+03  0.10697150953E+03  0.36832464581E+03  0.00000000000E+00 0. -1.
          3    1    5    5  503    0  0.13618205969E+03  0.39706473484E+03  0.33758841845E+02  0.42112422922E+03  0.00000000000E+00 0. -1.
         -4    1    5    5    0  503  0.61627019815E+02  0.10833101944E+03 -0.26660122853E+02  0.12745297758E+03  0.00000000000E+00 0.  1.
         -1    1    6    6    0  502 -0.15657359159E+02 -0.11142026540E+02  0.73565316485E+01  0.20577079704E+02  0.00000000000E+00 0.  1.
<mgrwt>
<rscale>  0 0.12489655E+04</rscale>
<asrwt>0</asrwt>
<pdfrwt beam="1">  1        1 0.10050732E+00 0.12489655E+04</pdfrwt>
<pdfrwt beam="2">  1       -1 0.91836749E-01 0.12489655E+04</pdfrwt>
<totfact> 0.34452241E+01</totfact>
</mgrwt>
</event>
<event>
12    1  0.2669705E-007  0.2459869E+04  0.7818608E-02  0.8417424E-01
         -2   -1    0    0    0  501 -0.00000000000E+00  0.00000000000E+00  0.17798928364E+04  0.17798928364E+04  0.00000000000E+00 0.  1.
          2   -1    0    0  501    0  0.00000000000E+00 -0.00000000000E+00 -0.84990443830E+03  0.84990443830E+03  0.00000000000E+00 0. -1.
         23    2    1    2    0    0  0.67678884614E+03  0.72324807770E+03  0.81595771320E+03  0.12864122381E+04  0.89098442200E+02 0.  0.
        254    2    1    2    0    0 -0.67678884614E+03 -0.72324807770E+03  0.11403068487E+03  0.13433850366E+04  0.90030519008E+03 0.  0.
        -24    2    4    4    0    0 -0.66471263004E+03 -0.89660060085E+02  0.18632077399E+03  0.70059250722E+03  0.78946966012E+02 0.  0.
         24    2    4    4    0    0 -0.12076216098E+02 -0.63358801762E+03 -0.72290089114E+02  0.64279252937E+03  0.79854666515E+02 0.  0.
         11    1    3    3    0    0  0.31819011118E+03  0.28030141646E+03  0.32668701094E+03  0.53529266204E+03  0.00000000000E+00 0. -1.
        -11    1    3    3    0    0  0.35859873497E+03  0.44294666124E+03  0.48927070226E+03  0.75111957604E+03  0.00000000000E+00 0.  1.
          4    1    6    6  502    0  0.22309589902E+02 -0.65679475584E+02 -0.79656824819E+00  0.69369631941E+02  0.00000000000E+00 0. -1.
          3    1    5    5  503    0 -0.75769896419E+02 -0.35883589047E+02  0.18588385812E+02  0.85873379189E+02  0.00000000000E+00 0. -1.
         -4    1    5    5    0  503 -0.58894273362E+03 -0.53776471037E+02  0.16773238817E+03  0.61471912803E+03  0.00000000000E+00 0.  1.
         -3    1    6    6    0  502 -0.34385806001E+02 -0.56790854203E+03 -0.71493520865E+02  0.57342289743E+03  0.00000000000E+00 0.  1.
<mgrwt>
<rscale>  0 0.24598690E+04</rscale>
<asrwt>0</asrwt>
<pdfrwt beam="1">  1        2 0.13075453E+00 0.24598690E+04</pdfrwt>
<pdfrwt beam="2">  1       -2 0.27382967E+00 0.24598690E+04</pdfrwt>
<totfact> 0.13045270E+00</totfact>
</mgrwt>
</event>
<event>
12    1  0.2588309E-007  0.1431985E+04  0.7818608E-02  0.8930986E-01
          2   -1    0    0  501    0  0.00000000000E+00  0.00000000000E+00  0.78262277819E+03  0.78262277819E+03  0.00000000000E+00 0.  1.
         -2   -1    0    0    0  501 -0.00000000000E+00 -0.00000000000E+00 -0.65503527106E+03  0.65503527106E+03  0.00000000000E+00 0. -1.
         23    2    1    2    0    0 -0.35094265370E+03  0.54460786596E+01 -0.20105247635E+03  0.41482545606E+03  0.92019860856E+02 0.  0.
        254    2    1    2    0    0  0.35094265370E+03 -0.54460786596E+01  0.32863998348E+03  0.10228325932E+04  0.90276900090E+03 0.  0.
        -24    2    4    4    0    0 -0.26223656720E+03  0.11313038667E+03 -0.29686814983E+02  0.29807908666E+03  0.80020830778E+02 0.  0.
         24    2    4    4    0    0  0.61317922090E+03 -0.11857646533E+03  0.35832679846E+03  0.72475350653E+03  0.82585807871E+02 0.  0.
         13    1    3    3    0    0 -0.34363207171E+03 -0.12063076324E+02 -0.19169863026E+03  0.39367103445E+03  0.00000000000E+00 0. -1.
        -13    1    3    3    0    0 -0.73105819906E+01  0.17509154983E+02 -0.93538460882E+01  0.21154421616E+02  0.00000000000E+00 0.  1.
          2    1    6    6  502    0  0.18392939783E+03 -0.36381921552E+02  0.15241203415E+03  0.24162594181E+03  0.00000000000E+00 0. -1.
          1    1    5    5  503    0 -0.19966368250E+03  0.10078157796E+03 -0.53554757494E+02  0.22997961783E+03  0.00000000000E+00 0. -1.
         -2    1    5    5    0  503 -0.62572884696E+02  0.12348808707E+02  0.23867942511E+02  0.68099468833E+02  0.00000000000E+00 0.  1.
         -1    1    6    6    0  502  0.42924982307E+03 -0.82194543778E+02  0.20591476431E+03  0.48312756472E+03  0.00000000000E+00 0.  1.
<mgrwt>
<rscale>  0 0.14319854E+04</rscale>
<asrwt>0</asrwt>
<pdfrwt beam="1">  1        2 0.12040350E+00 0.14319854E+04</pdfrwt>
<pdfrwt beam="2">  1       -2 0.10077466E+00 0.14319854E+04</pdfrwt>
<totfact> 0.27935159E+01</totfact>
</mgrwt>
</event>
<event>
12    1  0.2588309E-007  0.3324544E+04  0.7818608E-02  0.8156678E-01
         -2   -1    0    0    0  501 -0.00000000000E+00  0.00000000000E+00  0.14578900595E+04  0.14578900595E+04  0.00000000000E+00 0.  1.
          2   -1    0    0  501    0  0.00000000000E+00 -0.00000000000E+00 -0.18953066806E+04  0.18953066806E+04  0.00000000000E+00 0. -1.
         23    2    1    2    0    0 -0.15382267609E+04  0.55249123054E+02 -0.12020966682E+03  0.15470991727E+04  0.99355184668E+02 0.  0.
        254    2    1    2    0    0  0.15382267609E+04 -0.55249123054E+02 -0.31720695427E+03  0.18060975673E+04  0.89004164913E+03 0.  0.
        -24    2    4    4    0    0  0.10847066789E+04 -0.40743318697E+03 -0.36476259025E+02  0.11619683015E+04  0.79053369680E+02 0.  0.
         24    2    4    4    0    0  0.45352008204E+03  0.35218406391E+03 -0.28073069525E+03  0.64412926577E+03  0.79866814640E+02 0.  0.
         11    1    3    3    0    0 -0.85197637511E+03  0.68464840177E+02 -0.98481701125E+02  0.86037772143E+03  0.00000000000E+00 0. -1.
        -11    1    3    3    0    0 -0.68625038579E+03 -0.13215717124E+02 -0.21727965696E+02  0.68672145129E+03  0.00000000000E+00 0.  1.
          2    1    6    6  502    0  0.45204240821E+03  0.35207451807E+03 -0.28476182991E+03  0.63983443551E+03  0.00000000000E+00 0. -1.
          3    1    5    5  503    0  0.21085688297E+03 -0.94458599260E+02 -0.35517385653E+02  0.23376170934E+03  0.00000000000E+00 0. -1.
         -4    1    5    5    0  503  0.87384979588E+03 -0.31297458771E+03 -0.95887337204E+00  0.92820659217E+03  0.00000000000E+00 0.  1.
         -1    1    6    6    0  502  0.14776738315E+01  0.10954584235E+00  0.40311346659E+01  0.42948302572E+01  0.00000000000E+00 0.  1.
<mgrwt>
<rscale>  0 0.33245443E+04</rscale>
<asrwt>0</asrwt>
<pdfrwt beam="1">  1        2 0.29158564E+00 0.33245443E+04</pdfrwt>
<pdfrwt beam="2">  1       -2 0.22429078E+00 0.33245443E+04</pdfrwt>
<totfact> 0.59129527E-01</totfact>
</mgrwt>
</event>
<event>
12    1  0.2588309E-007  0.2266365E+04  0.7818608E-02  0.8491302E-01
          1   -1    0    0  501    0  0.00000000000E+00  0.00000000000E+00  0.66610520390E+03  0.66610520390E+03  0.00000000000E+00 0. -1.
         -1   -1    0    0    0  501 -0.00000000000E+00 -0.00000000000E+00 -0.19277779067E+04  0.19277779067E+04  0.00000000000E+00 0.  1.
         23    2    1    2    0    0  0.15314526293E+03  0.92962190757E+03 -0.37196026527E+03  0.10169954077E+04  0.90966244646E+02 0.  0.
        254    2    1    2    0    0 -0.15314526293E+03 -0.92962190757E+03 -0.88971243750E+03  0.15768877029E+04  0.89851891664E+03 0.  0.
        -24    2    4    4    0    0  0.14432751367E+03 -0.67421542510E+03 -0.94724819839E+03  0.11743009832E+04  0.79415232185E+02 0.  0.
         24    2    4    4    0    0 -0.29747277660E+03 -0.25540648247E+03  0.57535760896E+02  0.40258671973E+03  0.71015343532E+02 0.  0.
         13    1    3    3    0    0  0.57007782836E+02  0.20230183811E+03 -0.51406844308E+02  0.21637602605E+03  0.00000000000E+00 0. -1.
        -13    1    3    3    0    0  0.96137480089E+02  0.72732006945E+03 -0.32055342096E+03  0.80061938160E+03  0.00000000000E+00 0.  1.
          2    1    6    6  502    0 -0.20491243808E+02 -0.20604061014E+02 -0.14377682056E+02  0.32421229840E+02  0.00000000000E+00 0. -1.
          1    1    5    5  503    0  0.30959287297E+01 -0.10229625579E+03 -0.17894430466E+03  0.20614357349E+03  0.00000000000E+00 0. -1.
         -2    1    5    5    0  503  0.14123158494E+03 -0.57191916931E+03 -0.76830389373E+03  0.96815740969E+03  0.00000000000E+00 0.  1.
         -1    1    6    6    0  502 -0.27698153279E+03 -0.23480242146E+03  0.71913442952E+02  0.37016548989E+03  0.00000000000E+00 0.  1.
<mgrwt>
<rscale>  0 0.22663653E+04</rscale>
<asrwt>0</asrwt>
<pdfrwt beam="1">  1        1 0.10247773E+00 0.22663653E+04</pdfrwt>
<pdfrwt beam="2">  1       -1 0.29658121E+00 0.22663653E+04</pdfrwt>
<totfact> 0.92537976E-01</totfact>
</mgrwt>
</event>
<event>
12    1  0.2588309E-007  0.1566458E+04  0.7818608E-02  0.8841423E-01
         -2   -1    0    0    0  501 -0.00000000000E+00  0.00000000000E+00  0.90907323338E+03  0.90907323338E+03  0.00000000000E+00 0.  1.
          2   -1    0    0  501    0  0.00000000000E+00 -0.00000000000E+00 -0.67480532310E+03  0.67480532310E+03  0.00000000000E+00 0. -1.
         23    2    1    2    0    0  0.18555918525E+03 -0.28777592947E+03 -0.31640498800E+03  0.47479766586E+03  0.89852714278E+02 0.  0.
        254    2    1    2    0    0 -0.18555918525E+03  0.28777592947E+03  0.55067289827E+03  0.11090808906E+04  0.89976251546E+03 0.  0.
        -24    2    4    4    0    0 -0.48411928863E+03  0.18638111781E+03  0.58002063127E+03  0.78224929514E+03  0.79878785330E+02 0.  0.
         24    2    4    4    0    0  0.29856010337E+03  0.10139481165E+03 -0.29347732994E+02  0.32683159548E+03  0.80861358000E+02 0.  0.
         13    1    3    3    0    0  0.98460817127E+02 -0.17961046483E+03 -0.13095131118E+03  0.24311046355E+03  0.00000000000E+00 0.  1.
        -13    1    3    3    0    0  0.87098368128E+02 -0.10816546463E+03 -0.18545367682E+03  0.23168720231E+03  0.00000000000E+00 0. -1.
          2    1    6    6  502    0  0.16634481781E+03  0.41154675041E+02 -0.53561200110E+02  0.17953581216E+03  0.00000000000E+00 0. -1.
          1    1    5    5  503    0 -0.29270398343E+03  0.10545798632E+03  0.40393068742E+03  0.50985979351E+03  0.00000000000E+00 0. -1.
         -2    1    5    5    0  503 -0.19141530519E+03  0.80923131490E+02  0.17608994385E+03  0.27238950163E+03  0.00000000000E+00 0.  1.
         -1    1    6    6    0  502  0.13221528556E+03  0.60240136612E+02  0.24213467116E+02  0.14729578332E+03  0.00000000000E+00 0.  1.
<mgrwt>
<rscale>  0 0.15664577E+04</rscale>
<asrwt>0</asrwt>
<pdfrwt beam="1">  1        2 0.10381620E+00 0.15664577E+04</pdfrwt>
<pdfrwt beam="2">  1       -2 0.13985742E+00 0.15664577E+04</pdfrwt>
<totfact> 0.14849159E+01</totfact>
</mgrwt>
</event>
<event>
12    1  0.2588309E-007  0.1304830E+04  0.7818608E-02  0.9025744E-01
          1   -1    0    0  501    0  0.00000000000E+00  0.00000000000E+00  0.55598554256E+03  0.55598554256E+03  0.00000000000E+00 0. -1.
         -1   -1    0    0    0  501 -0.00000000000E+00 -0.00000000000E+00 -0.76556886441E+03  0.76556886441E+03  0.00000000000E+00 0.  1.
         23    2    1    2    0    0 -0.14006488623E+03 -0.27803086709E+03  0.65042269289E+02  0.33151036631E+03  0.93537643581E+02 0.  0.
        254    2    1    2    0    0  0.14006488623E+03  0.27803086709E+03 -0.27462559114E+03  0.99004404067E+03  0.89880401187E+03 0.  0.
        -24    2    4    4    0    0 -0.23090312196E+03 -0.54425101210E+02 -0.39822036998E+03  0.47043617631E+03  0.80326767297E+02 0.  0.
         24    2    4    4    0    0  0.37096800819E+03  0.33245596830E+03  0.12359477884E+03  0.51960786436E+03  0.81070521075E+02 0.  0.
         11    1    3    3    0    0 -0.97684472481E+02 -0.19091709232E+03 -0.65751292350E+00  0.21445751240E+03  0.00000000000E+00 0.  1.
        -11    1    3    3    0    0 -0.42380413752E+02 -0.87113774768E+02  0.65699782213E+02  0.11705285390E+03  0.00000000000E+00 0. -1.
          4    1    6    6  502    0  0.12726499223E+03  0.73254985770E+02  0.57751569767E+02  0.15779073166E+03  0.00000000000E+00 0. -1.
          3    1    5    5  503    0 -0.36878273754E+02  0.20707016440E+02 -0.72446698543E+02  0.83888686572E+02  0.00000000000E+00 0. -1.
         -4    1    5    5    0  503 -0.19402484821E+03 -0.75132117650E+02 -0.32577367144E+03  0.38654748974E+03  0.00000000000E+00 0.  1.
         -3    1    6    6    0  502  0.24370301596E+03  0.25920098253E+03  0.65843209073E+02  0.36181713270E+03  0.00000000000E+00 0.  1.
<mgrwt>
<rscale>  0 0.13048298E+04</rscale>
<asrwt>0</asrwt>
<pdfrwt beam="1">  1        1 0.85536237E-01 0.13048298E+04</pdfrwt>
<pdfrwt beam="2">  1       -1 0.11777983E+00 0.13048298E+04</pdfrwt>
<totfact> 0.24321054E+01</totfact>
</mgrwt>
</event>
<event>
12    1  0.2588309E-007  0.1726296E+04  0.7818608E-02  0.8746507E-01
          1   -1    0    0  501    0  0.00000000000E+00  0.00000000000E+00  0.10071328390E+04  0.10071328390E+04  0.00000000000E+00 0.  1.
         -1   -1    0    0    0  501 -0.00000000000E+00 -0.00000000000E+00 -0.73974812139E+03  0.73974812139E+03  0.00000000000E+00 0. -1.
         23    2    1    2    0    0 -0.26564507675E+03 -0.23593738274E+03 -0.42186575726E+03  0.55909204791E+03  0.91539311308E+02 0.  0.
        254    2    1    2    0    0  0.26564507675E+03  0.23593738274E+03  0.68925047485E+03  0.11877889125E+04  0.89974581307E+03 0.  0.
        -24    2    4    4    0    0  0.24629287582E+03 -0.20949389036E+02 -0.15471857987E+03  0.30192848562E+03  0.78255440023E+02 0.  0.
         24    2    4    4    0    0  0.19352200933E+02  0.25688677178E+03  0.84396905472E+03  0.88586042685E+03  0.78099995827E+02 0.  0.
         11    1    3    3    0    0 -0.18074692905E+03 -0.11512879012E+03 -0.20376671531E+03  0.29571094830E+03  0.00000000000E+00 0.  1.
        -11    1    3    3    0    0 -0.84898147696E+02 -0.12080859262E+03 -0.21809904195E+03  0.26338109961E+03  0.00000000000E+00 0. -1.
          2    1    6    6  502    0 -0.87370616464E+01  0.53456082284E+01  0.89144234006E+02  0.89730742948E+02  0.00000000000E+00 0. -1.
          1    1    5    5  503    0  0.10640369023E+03  0.16521749420E+02 -0.32636666382E+02  0.11251606770E+03  0.00000000000E+00 0. -1.
         -2    1    5    5    0  503  0.13988918559E+03 -0.37471138456E+02 -0.12208191349E+03  0.18941241792E+03  0.00000000000E+00 0.  1.
         -1    1    6    6    0  502  0.28089262580E+02  0.25154116355E+03  0.75482482071E+03  0.79612968390E+03  0.00000000000E+00 0.  1.
<mgrwt>
<rscale>  0 0.17262962E+04</rscale>
<asrwt>0</asrwt>
<pdfrwt beam="1">  1        1 0.15494351E+00 0.17262962E+04</pdfrwt>
<pdfrwt beam="2">  1       -1 0.11380740E+00 0.17262962E+04</pdfrwt>
<totfact> 0.99842933E+00</totfact>
</mgrwt>
</event>
<event>
12    1  0.2588309E-007  0.2916619E+04  0.7818608E-02  0.8267950E-01
          2   -1    0    0  501    0  0.00000000000E+00  0.00000000000E+00  0.12958987784E+04  0.12958987784E+04  0.00000000000E+00 0. -1.
         -2   -1    0    0    0  501 -0.00000000000E+00 -0.00000000000E+00 -0.16410742251E+04  0.16410742251E+04  0.00000000000E+00 0.  1.
         23    2    1    2    0    0 -0.92534727806E+03 -0.93769891956E+03 -0.11459317121E+03  0.13256218853E+04  0.92708895057E+02 0.  0.
        254    2    1    2    0    0  0.92534727806E+03  0.93769891956E+03 -0.23058227548E+03  0.16113511181E+04  0.89874211609E+03 0.  0.
        -24    2    4    4    0    0  0.84002133240E+03  0.50327027792E+03  0.18442276027E+03  0.99955265629E+03  0.78593553572E+02 0.  0.
         24    2    4    4    0    0  0.85325945667E+02  0.43442864164E+03 -0.41500503576E+03  0.61179846180E+03  0.77842253808E+02 0.  0.
         13    1    3    3    0    0 -0.26242427271E+03 -0.24462758630E+03  0.73157324428E+01  0.35883516386E+03  0.00000000000E+00 0.  1.
        -13    1    3    3    0    0 -0.66292300536E+03 -0.69307133326E+03 -0.12190890365E+03  0.96678672147E+03  0.00000000000E+00 0. -1.
          4    1    6    6  502    0  0.88994510149E+02  0.38754972629E+03 -0.39567632286E+03  0.56095861314E+03  0.00000000000E+00 0. -1.
          1    1    5    5  503    0  0.71012685303E+03  0.39075034228E+03  0.15335868625E+03  0.82491506474E+03  0.00000000000E+00 0. -1.
         -2    1    5    5    0  503  0.12989447937E+03  0.11251993564E+03  0.31064074028E+02  0.17463759155E+03  0.00000000000E+00 0.  1.
         -3    1    6    6    0  502 -0.36685644823E+01  0.46878915344E+02 -0.19328712896E+02  0.50839848656E+02  0.00000000000E+00 0.  1.
<mgrwt>
<rscale>  0 0.29166186E+04</rscale>
<asrwt>0</asrwt>
<pdfrwt beam="1">  1        2 0.19936904E+00 0.29166186E+04</pdfrwt>
<pdfrwt beam="2">  1       -2 0.25247296E+00 0.29166186E+04</pdfrwt>
<totfact> 0.88899415E-01</totfact>
</mgrwt>
</event>
<event>
12    1  0.2588309E-007  0.2892263E+04  0.7818608E-02  0.8275183E-01
         -2   -1    0    0    0  501 -0.00000000000E+00  0.00000000000E+00  0.17118250411E+04  0.17118250411E+04  0.00000000000E+00 0.  1.
          2   -1    0    0  501    0  0.00000000000E+00 -0.00000000000E+00 -0.12216763306E+04  0.12216763306E+04  0.00000000000E+00 0. -1.
         23    2    1    2    0    0  0.32307959862E+03 -0.32657071041E+03 -0.10167457332E+04  0.11191503592E+04  0.87731320533E+02 0.  0.
        254    2    1    2    0    0 -0.32307959862E+03  0.32657071041E+03  0.15068944437E+04  0.18143510125E+04  0.90006104023E+03 0.  0.
        -24    2    4    4    0    0  0.77907843254E+02  0.46271802937E+03  0.11830401554E+04  0.12751954189E+04  0.79760518775E+02 0.  0.
         24    2    4    4    0    0 -0.40098744187E+03 -0.13614731896E+03  0.32385428823E+03  0.53915559353E+03  0.80499273494E+02 0.  0.
         13    1    3    3    0    0  0.11895317165E+03 -0.15340736792E+03 -0.34208657038E+03  0.39332797919E+03  0.00000000000E+00 0.  1.
        -13    1    3    3    0    0  0.20412642697E+03 -0.17316334250E+03 -0.67465916277E+03  0.72582237998E+03  0.00000000000E+00 0. -1.
          4    1    6    6  502    0 -0.12246882620E+03 -0.34190110168E+01  0.93638573945E+02  0.15420274173E+03  0.00000000000E+00 0. -1.
          1    1    5    5  503    0 -0.13441957197E+00 -0.23102079646E+01  0.90015282743E+00  0.24830232729E+01  0.00000000000E+00 0. -1.
         -4    1    5    5    0  503  0.78042262826E+02  0.46502823734E+03  0.11821400026E+04  0.12727123957E+04  0.00000000000E+00 0.  1.
         -3    1    6    6    0  502 -0.27851861567E+03 -0.13272830794E+03  0.23021571429E+03  0.38495285180E+03  0.00000000000E+00 0.  1.
<mgrwt>
<rscale>  0 0.28922629E+04</rscale>
<asrwt>0</asrwt>
<pdfrwt beam="1">  1        2 0.18795020E+00 0.28922629E+04</pdfrwt>
<pdfrwt beam="2">  1       -2 0.26335770E+00 0.28922629E+04</pdfrwt>
<totfact> 0.84491734E-01</totfact>
</mgrwt>
</event>
<event>
12    1  0.2588309E-007  0.1997192E+04  0.7818608E-02  0.8607934E-01
          1   -1    0    0  501    0  0.00000000000E+00  0.00000000000E+00  0.72116217359E+03  0.72116217359E+03  0.00000000000E+00 0.  1.
         -1   -1    0    0    0  501 -0.00000000000E+00 -0.00000000000E+00 -0.13827600500E+04  0.13827600500E+04  0.00000000000E+00 0. -1.
         23    2    1    2    0    0  0.23542767583E+02 -0.35186798716E+03  0.48345911666E+03  0.60539440196E+03  0.91675090099E+02 0.  0.
        254    2    1    2    0    0 -0.23542767583E+02  0.35186798716E+03 -0.11450569931E+04  0.14985278216E+04  0.90003598401E+03 0.  0.
        -24    2    4    4    0    0 -0.25043353453E+03 -0.22166466236E+03 -0.40033230412E+03  0.52818028403E+03  0.82802662800E+02 0.  0.
         24    2    4    4    0    0  0.22689076694E+03  0.57353264951E+03 -0.74472468894E+03  0.97034753758E+03  0.80872499639E+02 0.  0.
         11    1    3    3    0    0  0.44458020695E+02 -0.11398053565E+03  0.20323735389E+03  0.23722036196E+03  0.00000000000E+00 0. -1.
        -11    1    3    3    0    0 -0.20915253112E+02 -0.23788745151E+03  0.28022176277E+03  0.36817404000E+03  0.00000000000E+00 0.  1.
          4    1    6    6  502    0  0.25082243876E+02  0.46525432788E+02 -0.10312045912E+03  0.11587736597E+03  0.00000000000E+00 0. -1.
          1    1    5    5  503    0 -0.12130089186E+02 -0.10800795600E+02 -0.60443530559E+02  0.62587671595E+02  0.00000000000E+00 0. -1.
         -4    1    5    5    0  503 -0.23830344534E+03 -0.21086386676E+03 -0.33988877356E+03  0.46559261244E+03  0.00000000000E+00 0.  1.
         -1    1    6    6    0  502  0.20180852307E+03  0.52700721673E+03 -0.64160422982E+03  0.85447017162E+03  0.00000000000E+00 0.  1.
<mgrwt>
<rscale>  0 0.19971923E+04</rscale>
<asrwt>0</asrwt>
<pdfrwt beam="1">  1        1 0.11094803E+00 0.19971923E+04</pdfrwt>
<pdfrwt beam="2">  1       -1 0.21273232E+00 0.19971923E+04</pdfrwt>
<totfact> 0.29747522E+00</totfact>
</mgrwt>
</event>
<event>
12    1  0.2588309E-007  0.1673213E+04  0.7818608E-02  0.8776791E-01
          1   -1    0    0  501    0  0.00000000000E+00  0.00000000000E+00  0.45172823389E+03  0.45172823389E+03  0.00000000000E+00 0. -1.
         -1   -1    0    0    0  501 -0.00000000000E+00 -0.00000000000E+00 -0.15494055098E+04  0.15494055098E+04  0.00000000000E+00 0.  1.
         23    2    1    2    0    0 -0.47163790635E+02 -0.48348817112E+03 -0.79341803703E+03  0.93480932612E+03  0.91493496775E+02 0.  0.
        254    2    1    2    0    0  0.47163790635E+02  0.48348817112E+03 -0.30425923889E+03  0.10663244176E+04  0.89916007713E+03 0.  0.
        -24    2    4    4    0    0  0.22770168339E+03  0.69192676181E+03 -0.18505137020E+03  0.75575724253E+03  0.79462567876E+02 0.  0.
         24    2    4    4    0    0 -0.18053789276E+03 -0.20843859069E+03 -0.11920786869E+03  0.31056717504E+03  0.78745650345E+02 0.  0.
         13    1    3    3    0    0 -0.92903392158E+01 -0.36011697905E+03 -0.52154268606E+03  0.63385907139E+03  0.00000000000E+00 0. -1.
        -13    1    3    3    0    0 -0.37873451420E+02 -0.12337119208E+03 -0.27187535097E+03  0.30095025473E+03  0.00000000000E+00 0.  1.
          4    1    6    6  502    0 -0.77288274826E+02 -0.13280008461E+03 -0.93974588638E+02  0.18011264033E+03  0.00000000000E+00 0. -1.
          1    1    5    5  503    0  0.21955857795E+03  0.67478421733E+03 -0.16578665863E+03  0.72871457052E+03  0.00000000000E+00 0. -1.
         -2    1    5    5    0  503  0.81431054411E+01  0.17142544477E+02 -0.19264711568E+02  0.27042672005E+02  0.00000000000E+00 0.  1.
         -3    1    6    6    0  502 -0.10324961793E+03 -0.75638506079E+02 -0.25233280052E+02  0.13045453471E+03  0.00000000000E+00 0.  1.
<mgrwt>
<rscale>  0 0.16732127E+04</rscale>
<asrwt>0</asrwt>
<pdfrwt beam="1">  1        1 0.69496652E-01 0.16732127E+04</pdfrwt>
<pdfrwt beam="2">  1       -1 0.23837008E+00 0.16732127E+04</pdfrwt>
<totfact> 0.40375271E+00</totfact>
</mgrwt>
</event>
<event>
12    1  0.2588309E-007  0.1741238E+04  0.7818608E-02  0.8738188E-01
         -1   -1    0    0    0  501 -0.00000000000E+00  0.00000000000E+00  0.65900236227E+03  0.65900236227E+03  0.00000000000E+00 0.  1.
          1   -1    0    0  501    0  0.00000000000E+00 -0.00000000000E+00 -0.11501893256E+04  0.11501893256E+04  0.00000000000E+00 0. -1.
         23    2    1    2    0    0 -0.44548553840E+03  0.30445613128E+03 -0.52473328202E+03  0.75765883424E+03  0.86896438600E+02 0.  0.
        254    2    1    2    0    0  0.44548553840E+03 -0.30445613128E+03  0.33546318701E+02  0.10515328536E+04  0.90191190587E+03 0.  0.
        -24    2    4    4    0    0 -0.39091426464E+02 -0.39404368668E+03 -0.25258823558E+03  0.47629472999E+03  0.79103011543E+02 0.  0.
         24    2    4    4    0    0  0.48457696486E+03  0.89587555393E+02  0.28613455428E+03  0.57523812363E+03  0.78645729523E+02 0.  0.
         13    1    3    3    0    0 -0.18640930619E+03  0.78165841625E+02 -0.18008766539E+03  0.27072106578E+03  0.00000000000E+00 0.  1.
        -13    1    3    3    0    0 -0.25907623221E+03  0.22629028966E+03 -0.34464561663E+03  0.48693776846E+03  0.00000000000E+00 0. -1.
          2    1    6    6  502    0  0.23800434874E+03  0.51336083195E+02  0.18591149744E+03  0.30634057573E+03  0.00000000000E+00 0. -1.
          1    1    5    5  503    0  0.27338482773E+00 -0.23991485193E+03 -0.18718393657E+03  0.30429761259E+03  0.00000000000E+00 0. -1.
         -2    1    5    5    0  503 -0.39364811291E+02 -0.15412883474E+03 -0.65404299011E+02  0.17199711741E+03  0.00000000000E+00 0.  1.
         -1    1    6    6    0  502  0.24657261612E+03  0.38251472198E+02  0.10022305683E+03  0.26889754790E+03  0.00000000000E+00 0.  1.
<mgrwt>
<rscale>  0 0.17412380E+04</rscale>
<asrwt>0</asrwt>
<pdfrwt beam="1">  1        1 0.17695220E+00 0.17412380E+04</pdfrwt>
<pdfrwt beam="2">  1       -1 0.10138498E+00 0.17412380E+04</pdfrwt>
<totfact> 0.10184680E+01</totfact>
</mgrwt>
</event>
<event>
12    1  0.2588309E-007  0.2157351E+04  0.7818608E-02  0.8536392E-01
         -1   -1    0    0    0  501 -0.00000000000E+00  0.00000000000E+00  0.57482510560E+03  0.57482510560E+03  0.00000000000E+00 0.  1.
          1   -1    0    0  501    0  0.00000000000E+00 -0.00000000000E+00 -0.20241650811E+04  0.20241650811E+04  0.00000000000E+00 0. -1.
         23    2    1    2    0    0  0.48028079760E+02 -0.40942289818E+03 -0.15472695120E+04  0.16038629664E+04  0.91649693105E+02 0.  0.
        254    2    1    2    0    0 -0.48028079760E+02  0.40942289818E+03  0.97929536507E+02  0.99512722029E+03  0.90041889387E+03 0.  0.
        -24    2    4    4    0    0 -0.30225239624E+03 -0.93071394617E+02 -0.16863907129E+03  0.36695911992E+03  0.78746833555E+02 0.  0.
         24    2    4    4    0    0  0.25422431648E+03  0.50249429280E+03  0.26656860780E+03  0.62816810037E+03  0.80036380933E+02 0.  0.
         11    1    3    3    0    0  0.49201784945E+02 -0.25650561795E+03 -0.11200520001E+04  0.11501010523E+04  0.00000000000E+00 0. -1.
        -11    1    3    3    0    0 -0.11737051849E+01 -0.15291728023E+03 -0.42721751190E+03  0.45376191406E+03  0.00000000000E+00 0.  1.
          2    1    6    6  502    0  0.15185256166E+03  0.21418678790E+03  0.11287991575E+03  0.28579198025E+03  0.00000000000E+00 0. -1.
          1    1    5    5  503    0 -0.22931023539E+03 -0.65148272312E+02 -0.86446595640E+02  0.25357542337E+03  0.00000000000E+00 0. -1.
         -2    1    5    5    0  503 -0.72942160853E+02 -0.27923122305E+02 -0.82192475653E+02  0.11338369655E+03  0.00000000000E+00 0.  1.
         -1    1    6    6    0  502  0.10237175482E+03  0.28830750490E+03  0.15368869205E+03  0.34237612013E+03  0.00000000000E+00 0.  1.
<mgrwt>
<rscale>  0 0.21573511E+04</rscale>
<asrwt>0</asrwt>
<pdfrwt beam="1">  1        1 0.31141002E+00 0.21573511E+04</pdfrwt>
<pdfrwt beam="2">  1       -1 0.88434631E-01 0.21573511E+04</pdfrwt>
<totfact> 0.32965510E+00</totfact>
</mgrwt>
</event>
<event>
12    1  0.2588309E-007  0.1572556E+04  0.7818608E-02  0.8837588E-01
          2   -1    0    0  501    0  0.00000000000E+00  0.00000000000E+00  0.24856006169E+04  0.24856006169E+04  0.00000000000E+00 0. -1.
         -2   -1    0    0    0  501 -0.00000000000E+00 -0.00000000000E+00 -0.24872574473E+03  0.24872574473E+03  0.00000000000E+00 0.  1.
         23    2    1    2    0    0 -0.14596858634E+03  0.42211520395E+03  0.29095106242E+03  0.54188488077E+03  0.97460913612E+02 0.  0.
        254    2    1    2    0    0  0.14596858634E+03 -0.42211520395E+03  0.19459238097E+04  0.21924414809E+04  0.90592058154E+03 0.  0.
        -24    2    4    4    0    0 -0.22908502391E+02  0.25862823908E+03  0.81695368600E+03  0.86103903687E+03  0.81003286383E+02 0.  0.
         24    2    4    4    0    0  0.16887708873E+03 -0.68074344303E+03  0.11289701237E+04  0.13314024440E+04  0.78280401358E+02 0.  0.
         11    1    3    3    0    0 -0.98160374263E+02  0.15812612670E+03  0.14868165846E+03  0.23821327961E+03  0.00000000000E+00 0. -1.
        -11    1    3    3    0    0 -0.47808212075E+02  0.26398907724E+03  0.14226940396E+03  0.30367160115E+03  0.00000000000E+00 0.  1.
          2    1    6    6  502    0  0.61634077770E+02 -0.33334214576E+03  0.48199089960E+03  0.58926307620E+03  0.00000000000E+00 0. -1.
          1    1    5    5  503    0 -0.36539944843E+02  0.74644325414E+02  0.33013842460E+03  0.34043842656E+03  0.00000000000E+00 0. -1.
         -2    1    5    5    0  503  0.13631442452E+02  0.18398391367E+03  0.48681526140E+03  0.52060061030E+03  0.00000000000E+00 0.  1.
         -1    1    6    6    0  502  0.10724301096E+03 -0.34740129727E+03  0.64697922415E+03  0.74213936779E+03  0.00000000000E+00 0.  1.
<mgrwt>
<rscale>  0 0.15725557E+04</rscale>
<asrwt>0</asrwt>
<pdfrwt beam="1">  1        2 0.38240008E+00 0.15725557E+04</pdfrwt>
<pdfrwt beam="2">  1       -2 0.38265501E-01 0.15725557E+04</pdfrwt>
<totfact> 0.22040502E+01</totfact>
</mgrwt>
</event>
<event>
12    1  0.2588309E-007  0.3287357E+04  0.7818608E-02  0.8166120E-01
          2   -1    0    0  501    0  0.00000000000E+00  0.00000000000E+00  0.10172962864E+04  0.10172962864E+04  0.00000000000E+00 0. -1.
         -2   -1    0    0    0  501 -0.00000000000E+00 -0.00000000000E+00 -0.26557446083E+04  0.26557446083E+04  0.00000000000E+00 0.  1.
         23    2    1    2    0    0 -0.14869314156E+04 -0.19205172088E+03 -0.10035348113E+04  0.18060401970E+04  0.82765799184E+02 0.  0.
        254    2    1    2    0    0  0.14869314156E+04  0.19205172088E+03 -0.63491351070E+03  0.18670006977E+04  0.91363424898E+03 0.  0.
        -24    2    4    4    0    0  0.87940257415E+03 -0.14710840415E+03  0.37837207005E+02  0.89582010931E+03  0.77924604669E+02 0.  0.
         24    2    4    4    0    0  0.60752884146E+03  0.33916012503E+03 -0.67275071770E+03  0.97118058839E+03  0.80481820787E+02 0.  0.
         11    1    3    3    0    0 -0.46144135560E+03 -0.91438957185E+02 -0.34099027970E+03  0.58100221893E+03  0.00000000000E+00 0.  1.
        -11    1    3    3    0    0 -0.10254900600E+04 -0.10061276369E+03 -0.66254453159E+03  0.12250379781E+04  0.00000000000E+00 0. -1.
          4    1    6    6  502    0  0.54442118165E+03  0.29927036315E+03 -0.63160379111E+03  0.88593482956E+03  0.00000000000E+00 0. -1.
          3    1    5    5  503    0  0.84811154362E+03 -0.15187561342E+03  0.25900484602E+02  0.86199201126E+03  0.00000000000E+00 0. -1.
         -4    1    5    5    0  503  0.31291030526E+02  0.47672092673E+01  0.11936722403E+02  0.33828098045E+02  0.00000000000E+00 0.  1.
         -3    1    6    6    0  502  0.63107659810E+02  0.39889761880E+02 -0.41146926590E+02  0.85245758823E+02  0.00000000000E+00 0.  1.
<mgrwt>
<rscale>  0 0.32873571E+04</rscale>
<asrwt>0</asrwt>
<pdfrwt beam="1">  1        2 0.15650712E+00 0.32873571E+04</pdfrwt>
<pdfrwt beam="2">  1       -2 0.40857610E+00 0.32873571E+04</pdfrwt>
<totfact> 0.13372896E-01</totfact>
</mgrwt>
</event>
<event>
12    1  0.2588309E-007  0.2229524E+04  0.7818608E-02  0.8506239E-01
         -2   -1    0    0    0  501 -0.00000000000E+00  0.00000000000E+00  0.93748160716E+03  0.93748160716E+03  0.00000000000E+00 0.  1.
          2   -1    0    0  501    0  0.00000000000E+00 -0.00000000000E+00 -0.13255661605E+04  0.13255661605E+04  0.00000000000E+00 0. -1.
         23    2    1    2    0    0 -0.87066340871E+03  0.29254608892E+03 -0.32058615985E+03  0.97705761196E+03  0.90708906920E+02 0.  0.
        254    2    1    2    0    0  0.87066340871E+03 -0.29254608892E+03 -0.67498393452E+02  0.12859901557E+04  0.89753922584E+03 0.  0.
        -24    2    4    4    0    0  0.10285693322E+04 -0.27987886482E+03 -0.16823057867E+03  0.10824774309E+04  0.84668828956E+02 0.  0.
         24    2    4    4    0    0 -0.15790592353E+03 -0.12667224093E+02  0.10073218521E+03  0.20351272476E+03  0.78585728671E+02 0.  0.
         11    1    3    3    0    0 -0.53828151532E+03  0.13780987908E+03 -0.17462443476E+03  0.58243647356E+03  0.00000000000E+00 0.  1.
        -11    1    3    3    0    0 -0.33238189339E+03  0.15473620983E+03 -0.14596172509E+03  0.39462113841E+03  0.00000000000E+00 0. -1.
          4    1    6    6  502    0 -0.15270604882E+03  0.57650456929E+01  0.71863495865E+02  0.16886898808E+03  0.00000000000E+00 0. -1.
          3    1    5    5  503    0  0.74128759672E+03 -0.24068189949E+03 -0.12297727812E+03  0.78902375676E+03  0.00000000000E+00 0. -1.
         -4    1    5    5    0  503  0.28728173552E+03 -0.39196965339E+02 -0.45253300545E+02  0.29345367414E+03  0.00000000000E+00 0.  1.
         -3    1    6    6    0  502 -0.51998747080E+01 -0.18432269785E+02  0.28868689349E+02  0.34643736680E+02  0.00000000000E+00 0.  1.
<mgrwt>
<rscale>  0 0.22295236E+04</rscale>
<asrwt>0</asrwt>
<pdfrwt beam="1">  1        2 0.20393326E+00 0.22295236E+04</pdfrwt>
<pdfrwt beam="2">  1       -2 0.14422794E+00 0.22295236E+04</pdfrwt>
<totfact> 0.48410301E+00</totfact>
</mgrwt>
</event>
<event>
12    1  0.2588309E-007  0.2254095E+04  0.7818608E-02  0.8496244E-01
          2   -1    0    0  501    0  0.00000000000E+00  0.00000000000E+00  0.28485016703E+04  0.28485016703E+04  0.00000000000E+00 0. -1.
         -2   -1    0    0    0  501 -0.00000000000E+00 -0.00000000000E+00 -0.44593133483E+03  0.44593133483E+03  0.00000000000E+00 0.  1.
         23    2    1    2    0    0 -0.35986747519E+03 -0.72615875696E+03  0.30436395852E+03  0.87030705405E+03  0.89363354282E+02 0.  0.
        254    2    1    2    0    0  0.35986747519E+03  0.72615875696E+03  0.20982063770E+04  0.24241259511E+04  0.90393887318E+03 0.  0.
        -24    2    4    4    0    0 -0.10684722070E+03 -0.14142118656E+03  0.58813191207E+03  0.61947024463E+03  0.80174543386E+02 0.  0.
         24    2    4    4    0    0  0.46671469589E+03  0.86757994352E+03  0.15100744649E+04  0.18046557065E+04  0.77069861898E+02 0.  0.
         11    1    3    3    0    0 -0.29115412661E+03 -0.65220669038E+03  0.27229649919E+03  0.76438843260E+03  0.00000000000E+00 0. -1.
        -11    1    3    3    0    0 -0.68713348573E+02 -0.73952066577E+02  0.32067459333E+02  0.10591862146E+03  0.00000000000E+00 0.  1.
          2    1    6    6  502    0  0.32378387865E+02  0.31144006893E+02  0.55040422500E+02  0.71047570508E+02  0.00000000000E+00 0. -1.
          1    1    5    5  503    0 -0.35626726764E+02 -0.53576675945E+00  0.85387684994E+02  0.92523550811E+02  0.00000000000E+00 0. -1.
         -2    1    5    5    0  503 -0.71220493935E+02 -0.14088541980E+03  0.50274422707E+03  0.52694669382E+03  0.00000000000E+00 0.  1.
         -1    1    6    6    0  502  0.43433630802E+03  0.83643593662E+03  0.14550340424E+04  0.17336081360E+04  0.00000000000E+00 0.  1.
<mgrwt>
<rscale>  0 0.22540951E+04</rscale>
<asrwt>0</asrwt>
<pdfrwt beam="1">  1        2 0.43823101E+00 0.22540951E+04</pdfrwt>
<pdfrwt beam="2">  1       -2 0.68604823E-01 0.22540951E+04</pdfrwt>
<totfact> 0.38213393E+00</totfact>
</mgrwt>
</event>
<event>
12    1  0.2588309E-007  0.3128632E+04  0.7818608E-02  0.8207924E-01
         -2   -1    0    0    0  501 -0.00000000000E+00  0.00000000000E+00  0.13015238570E+04  0.13015238570E+04  0.00000000000E+00 0.  1.
          2   -1    0    0  501    0  0.00000000000E+00 -0.00000000000E+00 -0.18801687598E+04  0.18801687598E+04  0.00000000000E+00 0. -1.
         23    2    1    2    0    0  0.13424227767E+04  0.48151198597E+03 -0.11954388076E+03  0.14339291027E+04  0.88933841111E+02 0.  0.
        254    2    1    2    0    0 -0.13424227767E+04 -0.48151198597E+03 -0.45910102198E+03  0.17477635140E+04  0.89997269318E+03 0.  0.
        -24    2    4    4    0    0 -0.14365852333E+04 -0.33538769720E+03 -0.32117590406E+03  0.15119015168E+04  0.80188498929E+02 0.  0.
         24    2    4    4    0    0  0.94162456531E+02 -0.14612428877E+03 -0.13792511792E+03  0.23586199721E+03  0.79929141027E+02 0.  0.
         13    1    3    3    0    0  0.47003407611E+03  0.12403565566E+03 -0.36744498463E+02  0.48751106116E+03  0.00000000000E+00 0. -1.
        -13    1    3    3    0    0  0.87238870063E+03  0.35747633031E+03 -0.82799382301E+02  0.94641804158E+03  0.00000000000E+00 0.  1.
          4    1    6    6  502    0  0.40999513618E+01 -0.16906267225E+02 -0.55354464302E+02  0.58023686464E+02  0.00000000000E+00 0. -1.
          3    1    5    5  503    0 -0.17148433933E+03 -0.14292423602E+02 -0.31749301506E+02  0.17498334251E+03  0.00000000000E+00 0. -1.
         -4    1    5    5    0  503 -0.12651008939E+04 -0.32109527360E+03 -0.28942660256E+03  0.13369181743E+04  0.00000000000E+00 0.  1.
         -3    1    6    6    0  502  0.90062505169E+02 -0.12921802155E+03 -0.82570653613E+02  0.17783831074E+03  0.00000000000E+00 0.  1.
<mgrwt>
<rscale>  0 0.31286320E+04</rscale>
<asrwt>0</asrwt>
<pdfrwt beam="1">  1        2 0.28925673E+00 0.31286320E+04</pdfrwt>
<pdfrwt beam="2">  1       -2 0.20023444E+00 0.31286320E+04</pdfrwt>
<totfact> 0.87437284E-01</totfact>
</mgrwt>
</event>
<event>
12    1  0.2588309E-007  0.2345438E+04  0.7818608E-02  0.8460218E-01
         -2   -1    0    0    0  501 -0.00000000000E+00  0.00000000000E+00  0.16341194383E+04  0.16341194383E+04  0.00000000000E+00 0. -1.
          2   -1    0    0  501    0  0.00000000000E+00 -0.00000000000E+00 -0.84159706811E+03  0.84159706811E+03  0.00000000000E+00 0.  1.
         23    2    1    2    0    0  0.85180208421E+02  0.98301774619E+03  0.47885274243E+03  0.11032523477E+04  0.11952504558E+03 0.  0.
        254    2    1    2    0    0 -0.85180208421E+02 -0.98301774619E+03  0.31366962780E+03  0.13724641588E+04  0.90093821900E+03 0.  0.
        -24    2    4    4    0    0  0.28261773027E+03 -0.20491546583E+03  0.35894759345E+03  0.50668023648E+03  0.77578074190E+02 0.  0.
         24    2    4    4    0    0 -0.36779793870E+03 -0.77810228036E+03 -0.45277965647E+02  0.86578392229E+03  0.82542252807E+02 0.  0.
         13    1    3    3    0    0  0.19966643189E+02  0.61089541809E+03  0.34855427392E+03  0.70362060839E+03  0.00000000000E+00 0.  1.
        -13    1    3    3    0    0  0.65213565232E+02  0.37212232810E+03  0.13029846851E+03  0.39963173930E+03  0.00000000000E+00 0. -1.
          2    1    6    6  502    0 -0.22782746181E+03 -0.39810463723E+03 -0.37252350405E+01  0.45870091772E+03  0.00000000000E+00 0. -1.
          3    1    5    5  503    0  0.25127522324E+03 -0.18747550092E+03  0.34966723346E+03  0.46963121214E+03  0.00000000000E+00 0. -1.
         -2    1    5    5    0  503  0.31342507033E+02 -0.17439964910E+02  0.92803599923E+01  0.37049024343E+02  0.00000000000E+00 0.  1.
         -1    1    6    6    0  502 -0.13997047688E+03 -0.37999764314E+03 -0.41552730607E+02  0.40708300457E+03  0.00000000000E+00 0.  1.
<mgrwt>
<rscale>  0 0.23454382E+04</rscale>
<asrwt>0</asrwt>
<pdfrwt beam="1">  1        2 0.12947647E+00 0.23454382E+04</pdfrwt>
<pdfrwt beam="2">  1       -2 0.25140299E+00 0.23454382E+04</pdfrwt>
<totfact> 0.18303743E+00</totfact>
</mgrwt>
</event>
<event>
12    1  0.2588309E-007  0.2264389E+04  0.7818608E-02  0.8492096E-01
         -1   -1    0    0    0  501 -0.00000000000E+00  0.00000000000E+00  0.12561314357E+04  0.12561314357E+04  0.00000000000E+00 0.  1.
          1   -1    0    0  501    0  0.00000000000E+00 -0.00000000000E+00 -0.10204863041E+04  0.10204863041E+04  0.00000000000E+00 0. -1.
         23    2    1    2    0    0  0.58641729531E+02 -0.94722876569E+03  0.11790491923E+03  0.96060279094E+03  0.90415513095E+02 0.  0.
        254    2    1    2    0    0 -0.58641729531E+02  0.94722876569E+03  0.11774021232E+03  0.13160149488E+04  0.90407488683E+03 0.  0.
        -24    2    4    4    0    0 -0.39425972258E+02  0.74560443199E+03 -0.32830499621E+03  0.81946406432E+03  0.79099973930E+02 0.  0.
         24    2    4    4    0    0 -0.19215757273E+02  0.20162433369E+03  0.44604520853E+03  0.49655088452E+03  0.81146999954E+02 0.  0.
         11    1    3    3    0    0 -0.78622424203E+01 -0.42886212473E+03  0.23893818558E+02  0.42959917533E+03  0.00000000000E+00 0. -1.
        -11    1    3    3    0    0  0.66503971951E+02 -0.51836664096E+03  0.94011100670E+02  0.53100361561E+03  0.00000000000E+00 0.  1.
          2    1    6    6  502    0 -0.18957822332E+01 -0.52838397615E+01  0.13538569395E+01  0.57745892940E+01  0.00000000000E+00 0. -1.
          3    1    5    5  503    0  0.54788167983E+01  0.32780127816E+02  0.35663020375E+00  0.33236747708E+02  0.00000000000E+00 0. -1.
         -4    1    5    5    0  503 -0.44904789057E+02  0.71282430418E+03 -0.32866162641E+03  0.78622731661E+03  0.00000000000E+00 0.  1.
         -1    1    6    6    0  502 -0.17319975039E+02  0.20690817345E+03  0.44469135159E+03  0.49077629523E+03  0.00000000000E+00 0.  1.
<mgrwt>
<rscale>  0 0.22643895E+04</rscale>
<asrwt>0</asrwt>
<pdfrwt beam="1">  1        1 0.15699789E+00 0.22643895E+04</pdfrwt>
<pdfrwt beam="2">  1       -1 0.19325099E+00 0.22643895E+04</pdfrwt>
<totfact> 0.22171024E+00</totfact>
</mgrwt>
</event>
<event>
12    1  0.2588309E-007  0.2389586E+04  0.7818608E-02  0.8443413E-01
         -1   -1    0    0    0  501 -0.00000000000E+00  0.00000000000E+00  0.15831169230E+04  0.15831169230E+04  0.00000000000E+00 0.  1.
          1   -1    0    0  501    0  0.00000000000E+00 -0.00000000000E+00 -0.90172101126E+03  0.90172101126E+03  0.00000000000E+00 0. -1.
         23    2    1    2    0    0  0.29036211871E+03 -0.96755213854E+03  0.12493666946E+03  0.10219076359E+04  0.90657289994E+02 0.  0.
        254    2    1    2    0    0 -0.29036211871E+03  0.96755213854E+03  0.55645924227E+03  0.14629302983E+04  0.90002825989E+03 0.  0.
        -24    2    4    4    0    0 -0.60804593377E+03  0.62936515829E+03  0.31512999337E+03  0.93351185714E+03  0.79480278386E+02 0.  0.
         24    2    4    4    0    0  0.31768381506E+03  0.33818698025E+03  0.24132924890E+03  0.52941844116E+03  0.82162275422E+02 0.  0.
         13    1    3    3    0    0  0.11156539187E+03 -0.24779270754E+03  0.52162555886E+02  0.27671103124E+03  0.00000000000E+00 0.  1.
        -13    1    3    3    0    0  0.17879672685E+03 -0.71975943100E+03  0.72774113570E+02  0.74519660470E+03  0.00000000000E+00 0. -1.
          4    1    6    6  502    0  0.14092712896E+03  0.11695963941E+03  0.58080847747E+02  0.19212859705E+03  0.00000000000E+00 0. -1.
          1    1    5    5  503    0 -0.47276340319E+03  0.51163335991E+03  0.27990698955E+03  0.75074752958E+03  0.00000000000E+00 0. -1.
         -2    1    5    5    0  503 -0.13528253059E+03  0.11773179838E+03  0.35223003817E+02  0.18276432757E+03  0.00000000000E+00 0.  1.
         -3    1    6    6    0  502  0.17675668610E+03  0.22122734084E+03  0.18324840115E+03  0.33728984411E+03  0.00000000000E+00 0.  1.
<mgrwt>
<rscale>  0 0.23895856E+04</rscale>
<asrwt>0</asrwt>
<pdfrwt beam="1">  1        1 0.13872631E+00 0.23895856E+04</pdfrwt>
<pdfrwt beam="2">  1       -1 0.24355645E+00 0.23895856E+04</pdfrwt>
<totfact> 0.12498004E+00</totfact>
</mgrwt>
</event>
<event>
12    1  0.2588309E-007  0.3375983E+04  0.7818608E-02  0.8143826E-01
         -1   -1    0    0    0  501 -0.00000000000E+00  0.00000000000E+00  0.23046072607E+04  0.23046072607E+04  0.00000000000E+00 0.  1.
          1   -1    0    0  501    0  0.00000000000E+00 -0.00000000000E+00 -0.12363563961E+04  0.12363563961E+04  0.00000000000E+00 0. -1.
         23    2    1    2    0    0  0.87263935869E+03  0.11243360270E+04 -0.18855190923E+03  0.14385190366E+04  0.90300853243E+02 0.  0.
        254    2    1    2    0    0 -0.87263935869E+03 -0.11243360270E+04  0.12568027739E+04  0.21024446202E+04  0.90282291549E+03 0.  0.
        -24    2    4    4    0    0 -0.36371110523E+03 -0.74564314929E+03  0.18410414441E+03  0.85318980909E+03  0.75954197957E+02 0.  0.
         24    2    4    4    0    0 -0.50892825346E+03 -0.37869287773E+03  0.10726986295E+04  0.12492548111E+04  0.86827246321E+02 0.  0.
         11    1    3    3    0    0  0.61367760614E+03  0.77820983007E+03 -0.89959102586E+02  0.99513988164E+03  0.00000000000E+00 0.  1.
        -11    1    3    3    0    0  0.25896175255E+03  0.34612619695E+03 -0.98592806647E+02  0.44337915493E+03  0.00000000000E+00 0. -1.
          2    1    6    6  502    0 -0.66289143823E+01 -0.64326081761E+01  0.21024722188E+01  0.94731907648E+01  0.00000000000E+00 0. -1.
          1    1    5    5  503    0 -0.28988946589E+03 -0.52126882558E+03  0.14418761478E+03  0.61363438562E+03  0.00000000000E+00 0. -1.
         -2    1    5    5    0  503 -0.73821639337E+02 -0.22437432371E+03  0.39916529625E+02  0.23955542347E+03  0.00000000000E+00 0.  1.
         -1    1    6    6    0  502 -0.50229933908E+03 -0.37226026955E+03  0.10705961572E+04  0.12397816204E+04  0.00000000000E+00 0.  1.
<mgrwt>
<rscale>  0 0.33759834E+04</rscale>
<asrwt>0</asrwt>
<pdfrwt beam="1">  1        1 0.19020868E+00 0.33759834E+04</pdfrwt>
<pdfrwt beam="2">  1       -1 0.35455496E+00 0.33759834E+04</pdfrwt>
<totfact> 0.12004447E-01</totfact>
</mgrwt>
</event>
<event>
12    1  0.2588309E-007  0.2203856E+04  0.7818608E-02  0.8516825E-01
          1   -1    0    0  501    0  0.00000000000E+00  0.00000000000E+00  0.31224269776E+04  0.31224269776E+04  0.00000000000E+00 0. -1.
         -1   -1    0    0    0  501 -0.00000000000E+00 -0.00000000000E+00 -0.38887861102E+03  0.38887861102E+03  0.00000000000E+00 0.  1.
         23    2    1    2    0    0  0.30128861873E+03 -0.66652984727E+03  0.26295879793E+03  0.78247559707E+03  0.89910297132E+02 0.  0.
        254    2    1    2    0    0 -0.30128861873E+03  0.66652984727E+03  0.24705895687E+04  0.27288299916E+04  0.89870097194E+03 0.  0.
        -24    2    4    4    0    0 -0.10983011530E+03 -0.18108956678E+03  0.93937414492E+03  0.96631472628E+03  0.80525031227E+02 0.  0.
         24    2    4    4    0    0 -0.19145850343E+03  0.84761941404E+03  0.15312154237E+04  0.17625152653E+04  0.82002175819E+02 0.  0.
         11    1    3    3    0    0  0.21875502859E+03 -0.38693462860E+03  0.17820166476E+03  0.47888203418E+03  0.00000000000E+00 0. -1.
        -11    1    3    3    0    0  0.82533590145E+02 -0.27959521867E+03  0.84757133174E+02  0.30359356289E+03  0.00000000000E+00 0.  1.
          2    1    6    6  502    0 -0.14737563684E+03  0.51594318324E+03  0.88955628260E+03  0.10388586653E+04  0.00000000000E+00 0. -1.
          1    1    5    5  503    0 -0.94779687014E+02 -0.16095094034E+03  0.90288375485E+03  0.92200188125E+03  0.00000000000E+00 0. -1.
         -2    1    5    5    0  503 -0.15050428291E+02 -0.20138626439E+02  0.36490390074E+02  0.44312845026E+02  0.00000000000E+00 0.  1.
         -1    1    6    6    0  502 -0.44082866590E+02  0.33167623081E+03  0.64165914114E+03  0.72365659992E+03  0.00000000000E+00 0.  1.
<mgrwt>
<rscale>  0 0.22038558E+04</rscale>
<asrwt>0</asrwt>
<pdfrwt beam="1">  1        1 0.48037337E+00 0.22038558E+04</pdfrwt>
<pdfrwt beam="2">  1       -1 0.59827481E-01 0.22038558E+04</pdfrwt>
<totfact> 0.12555258E+00</totfact>
</mgrwt>
</event>
<event>
12    1  0.2588309E-007  0.3018870E+04  0.7818608E-02  0.8238363E-01
          1   -1    0    0  501    0  0.00000000000E+00  0.00000000000E+00  0.33431630199E+04  0.33431630199E+04  0.00000000000E+00 0. -1.
         -1   -1    0    0    0  501 -0.00000000000E+00 -0.00000000000E+00 -0.68150849925E+03  0.68150849925E+03  0.00000000000E+00 0.  1.
         23    2    1    2    0    0  0.69691917057E+03  0.99824422254E+02  0.27895841048E+04  0.28784767487E+04  0.90485742335E+02 0.  0.
        254    2    1    2    0    0 -0.69691917057E+03 -0.99824422254E+02 -0.12792958415E+03  0.11461947704E+04  0.89539668733E+03 0.  0.
        -24    2    4    4    0    0  0.13672014810E+03  0.72492411891E+01 -0.24671513885E+03  0.29398646243E+03  0.82551377710E+02 0.  0.
         24    2    4    4    0    0 -0.83363931867E+03 -0.10707366344E+03  0.11878555470E+03  0.85220830800E+03  0.75694842485E+02 0.  0.
         13    1    3    3    0    0  0.22277822246E+03  0.70630157639E+02  0.99585404054E+03  0.10229095882E+04  0.00000000000E+00 0. -1.
        -13    1    3    3    0    0  0.47414094811E+03  0.29194264615E+02  0.17937300643E+04  0.18555671605E+04  0.00000000000E+00 0.  1.
          4    1    6    6  502    0 -0.71154938296E+03 -0.11601116108E+03  0.90866646621E+02  0.72664837532E+03  0.00000000000E+00 0. -1.
          1    1    5    5  503    0  0.14359220551E+03  0.10326628665E+02 -0.19862555304E+03  0.24531096808E+03  0.00000000000E+00 0. -1.
         -2    1    5    5    0  503 -0.68720574063E+01 -0.30773874761E+01 -0.48089585813E+02  0.48675494352E+02  0.00000000000E+00 0.  1.
         -3    1    6    6    0  502 -0.12208993571E+03  0.89374976409E+01  0.27918908076E+02  0.12555993268E+03  0.00000000000E+00 0.  1.
<mgrwt>
<rscale>  0 0.30188700E+04</rscale>
<asrwt>0</asrwt>
<pdfrwt beam="1">  1        1 0.51433276E+00 0.30188700E+04</pdfrwt>
<pdfrwt beam="2">  1       -1 0.10484746E+00 0.30188700E+04</pdfrwt>
<totfact> 0.24002290E-01</totfact>
</mgrwt>
</event>
<event>
12    1  0.2588309E-007  0.2560695E+04  0.7818608E-02  0.8381676E-01
         -1   -1    0    0    0  501 -0.00000000000E+00  0.00000000000E+00  0.94655552161E+03  0.94655552161E+03  0.00000000000E+00 0.  1.
          1   -1    0    0  501    0  0.00000000000E+00 -0.00000000000E+00 -0.17318471027E+04  0.17318471027E+04  0.00000000000E+00 0. -1.
         23    2    1    2    0    0  0.19881401642E+03  0.10992123425E+04 -0.26053481907E+03  0.11506088909E+04  0.90706343661E+02 0.  0.
        254    2    1    2    0    0 -0.19881401642E+03 -0.10992123425E+04 -0.52475676199E+03  0.15277937334E+04  0.90054941322E+03 0.  0.
        -24    2    4    4    0    0  0.15847253020E+03 -0.80560857291E+03 -0.64066134908E+03  0.10445545523E+04  0.80799338096E+02 0.  0.
         24    2    4    4    0    0 -0.35728654662E+03 -0.29360376957E+03  0.11590458709E+03  0.48323918108E+03  0.78926439963E+02 0.  0.
         11    1    3    3    0    0  0.21277602774E+02  0.30409373084E+02 -0.12169853220E+02  0.39058567288E+02  0.00000000000E+00 0.  1.
        -11    1    3    3    0    0  0.17753641365E+03  0.10688029694E+04 -0.24836496585E+03  0.11115503236E+04  0.00000000000E+00 0. -1.
          4    1    6    6  502    0 -0.52205208421E+01  0.89506798784E+00  0.11287934709E+02  0.12468859393E+02  0.00000000000E+00 0. -1.
          3    1    5    5  503    0 -0.11733820988E+00 -0.98367206814E+02 -0.54946633183E+02  0.11267321617E+03  0.00000000000E+00 0. -1.
         -4    1    5    5    0  503  0.15858986841E+03 -0.70724136610E+03 -0.58571471590E+03  0.93188133617E+03  0.00000000000E+00 0.  1.
         -3    1    6    6    0  502 -0.35206602578E+03 -0.29449883756E+03  0.10461665238E+03  0.47077032169E+03  0.00000000000E+00 0.  1.
<mgrwt>
<rscale>  0 0.25606948E+04</rscale>
<asrwt>0</asrwt>
<pdfrwt beam="1">  1        1 0.26643801E+00 0.25606948E+04</pdfrwt>
<pdfrwt beam="2">  1       -1 0.14562393E+00 0.25606948E+04</pdfrwt>
<totfact> 0.15133267E+00</totfact>
</mgrwt>
</event>
<event>
12    1  0.2588309E-007  0.1138757E+04  0.7818608E-02  0.9168219E-01
          2   -1    0    0  501    0  0.00000000000E+00  0.00000000000E+00  0.89556282978E+03  0.89556282978E+03  0.00000000000E+00 0. -1.
         -2   -1    0    0    0  501 -0.00000000000E+00 -0.00000000000E+00 -0.36199763989E+03  0.36199763989E+03  0.00000000000E+00 0.  1.
         23    2    1    2    0    0  0.17769521612E+03  0.65729730192E+02  0.38739800569E+02  0.21429333673E+03  0.92330248313E+02 0.  0.
        254    2    1    2    0    0 -0.17769521612E+03 -0.65729730192E+02  0.49482538932E+03  0.10432671329E+04  0.89869803466E+03 0.  0.
        -24    2    4    4    0    0 -0.16742751226E+03 -0.40082925516E+03  0.16801826984E+01  0.44157055574E+03  0.79282211288E+02 0.  0.
         24    2    4    4    0    0 -0.10267703858E+02  0.33509952496E+03  0.49314520662E+03  0.60169657721E+03  0.80308522806E+02 0.  0.
         13    1    3    3    0    0  0.12497246698E+03  0.48176737084E+02  0.69377581890E+02  0.15083886889E+03  0.00000000000E+00 0. -1.
        -13    1    3    3    0    0  0.52722749142E+02  0.17552993108E+02 -0.30637781321E+02  0.63454467836E+02  0.00000000000E+00 0.  1.
          4    1    6    6  502    0  0.27706901957E+02  0.62935260918E+02  0.11961900015E+03  0.13797544955E+03  0.00000000000E+00 0. -1.
          1    1    5    5  503    0 -0.58275424939E+02 -0.61012174238E+02  0.64958132974E+01  0.84620955723E+02  0.00000000000E+00 0. -1.
         -2    1    5    5    0  503 -0.10915208733E+03 -0.33981708092E+03 -0.48156305991E+01  0.35694960001E+03  0.00000000000E+00 0.  1.
         -3    1    6    6    0  502 -0.37974605815E+02  0.27216426405E+03  0.37352620648E+03  0.46372112766E+03  0.00000000000E+00 0.  1.
<mgrwt>
<rscale>  0 0.11387566E+04</rscale>
<asrwt>0</asrwt>
<pdfrwt beam="1">  1        2 0.13777890E+00 0.11387566E+04</pdfrwt>
<pdfrwt beam="2">  1       -2 0.55691945E-01 0.11387566E+04</pdfrwt>
<totfact> 0.88598508E+01</totfact>
</mgrwt>
</event>
<event>
12    1  0.2588309E-007  0.3442052E+04  0.7818608E-02  0.8127662E-01
         -2   -1    0    0    0  501 -0.00000000000E+00  0.00000000000E+00  0.15778675272E+04  0.15778675272E+04  0.00000000000E+00 0.  1.
          2   -1    0    0  501    0  0.00000000000E+00 -0.00000000000E+00 -0.18771734090E+04  0.18771734090E+04  0.00000000000E+00 0. -1.
         23    2    1    2    0    0 -0.13176258900E+04 -0.83215939119E+03  0.23743137159E+03  0.15788711270E+04  0.88505033960E+02 0.  0.
        254    2    1    2    0    0  0.13176258900E+04  0.83215939119E+03 -0.53673725338E+03  0.18761698092E+04  0.89626951039E+03 0.  0.
        -24    2    4    4    0    0 -0.88022629300E+02 -0.47775005279E+02 -0.90721773624E+02  0.15684978008E+03  0.79630263747E+02 0.  0.
         24    2    4    4    0    0  0.14056485193E+04  0.87993439647E+03 -0.44601547976E+03  0.17193200291E+04  0.83661533949E+02 0.  0.
         13    1    3    3    0    0 -0.76045879070E+03 -0.45485717781E+03  0.17355946998E+03  0.90294823449E+03  0.00000000000E+00 0.  1.
        -13    1    3    3    0    0 -0.55716709931E+03 -0.37730221338E+03  0.63871901615E+02  0.67592289249E+03  0.00000000000E+00 0. -1.
          4    1    6    6  502    0  0.10005968225E+04  0.58101675951E+03 -0.31082293928E+03  0.11980756970E+04  0.00000000000E+00 0. -1.
          3    1    5    5  503    0 -0.64771845581E+02  0.63854276505E+01 -0.28219893146E+02  0.70940313189E+02  0.00000000000E+00 0. -1.
         -4    1    5    5    0  503 -0.23250783719E+02 -0.54160432930E+02 -0.62501880478E+02  0.85909466894E+02  0.00000000000E+00 0.  1.
         -3    1    6    6    0  502  0.40505169679E+03  0.29891763696E+03 -0.13519254048E+03  0.52124433211E+03  0.00000000000E+00 0.  1.
<mgrwt>
<rscale>  0 0.34420523E+04</rscale>
<asrwt>0</asrwt>
<pdfrwt beam="1">  1        2 0.28879591E+00 0.34420523E+04</pdfrwt>
<pdfrwt beam="2">  1       -2 0.24274885E+00 0.34420523E+04</pdfrwt>
<totfact> 0.45980654E-01</totfact>
</mgrwt>
</event>
<event>
12    1  0.2588309E-007  0.2414960E+04  0.7818608E-02  0.8433924E-01
          1   -1    0    0  501    0  0.00000000000E+00  0.00000000000E+00  0.92570999785E+03  0.92570999785E+03  0.00000000000E+00 0. -1.
         -1   -1    0    0    0  501 -0.00000000000E+00 -0.00000000000E+00 -0.15750159079E+04  0.15750159079E+04  0.00000000000E+00 0.  1.
         23    2    1    2    0    0  0.34532444704E+03  0.15504393856E+03  0.72018615139E+03  0.81945442775E+03  0.97723435822E+02 0.  0.
        254    2    1    2    0    0 -0.34532444704E+03 -0.15504393856E+03 -0.13694920615E+04  0.16812714780E+04  0.89882015987E+03 0.  0.
        -24    2    4    4    0    0 -0.36574049477E+01 -0.42759380130E+03 -0.31547087811E+03  0.53742491601E+03  0.80335732310E+02 0.  0.
         24    2    4    4    0    0 -0.34166704209E+03  0.27254986274E+03 -0.10540211834E+04  0.11438465620E+04  0.80028164639E+02 0.  0.
         11    1    3    3    0    0  0.23074691047E+03  0.14005430674E+03  0.43756817862E+03  0.51412572049E+03  0.00000000000E+00 0.  1.
        -11    1    3    3    0    0  0.11457753657E+03  0.14989631814E+02  0.28261797277E+03  0.30532870726E+03  0.00000000000E+00 0. -1.
          2    1    6    6  502    0 -0.29709565909E+03  0.19715112600E+03 -0.83302785248E+03  0.90612901959E+03  0.00000000000E+00 0. -1.
          3    1    5    5  503    0  0.37575607117E+02 -0.24222521260E+03 -0.18249643599E+03  0.30559765872E+03  0.00000000000E+00 0. -1.
         -4    1    5    5    0  503 -0.41233012064E+02 -0.18536858870E+03 -0.13297444212E+03  0.23182725728E+03  0.00000000000E+00 0.  1.
         -1    1    6    6    0  502 -0.44571383003E+02  0.75398736743E+02 -0.22099333089E+03  0.23771754244E+03  0.00000000000E+00 0.  1.
<mgrwt>
<rscale>  0 0.24149600E+04</rscale>
<asrwt>0</asrwt>
<pdfrwt beam="1">  1        1 0.14241692E+00 0.24149600E+04</pdfrwt>
<pdfrwt beam="2">  1       -1 0.24231014E+00 0.24149600E+04</pdfrwt>
<totfact> 0.12147884E+00</totfact>
</mgrwt>
</event>
<event>
12    1  0.4109859E-007  0.2204762E+04  0.7818608E-02  0.8516448E-01
         -1   -1    0    0    0  501 -0.00000000000E+00  0.00000000000E+00  0.51652913203E+03  0.51652913203E+03  0.00000000000E+00 0.  1.
          1   -1    0    0  501    0  0.00000000000E+00 -0.00000000000E+00 -0.23527122357E+04  0.23527122357E+04  0.00000000000E+00 0. -1.
         23    2    1    2    0    0  0.79017985105E+03  0.17425551073E+03 -0.13244150348E+04  0.15548182892E+04  0.92927649864E+02 0.  0.
        254    2    1    2    0    0 -0.79017985105E+03 -0.17425551073E+03 -0.51176806891E+03  0.13144230785E+04  0.90058441747E+03 0.  0.
        -24    2    4    4    0    0 -0.72119070345E+03  0.21521891837E+03 -0.50549527649E+03  0.91024116958E+03  0.81106711627E+02 0.  0.
         24    2    4    4    0    0 -0.68989147599E+02 -0.38947442910E+03 -0.62727924173E+01  0.40418190895E+03  0.82908589386E+02 0.  0.
         13    1    3    3    0    0  0.28564123720E+03  0.93594658515E+02 -0.55570792537E+03  0.63179282587E+03  0.00000000000E+00 0. -1.
        -13    1    3    3    0    0  0.50453861384E+03  0.80660852211E+02 -0.76870710941E+03  0.92302546335E+03  0.00000000000E+00 0.  1.
          2    1    6    6  502    0  0.15656260797E+02 -0.71665321712E+02  0.13959342646E+02  0.74671949789E+02  0.00000000000E+00 0. -1.
          3    1    5    5  503    0 -0.16955646101E+03  0.16349584032E+02 -0.12359139273E+03  0.21045554097E+03  0.00000000000E+00 0. -1.
         -4    1    5    5    0  503 -0.55163424244E+03  0.19886933434E+03 -0.38190388376E+03  0.69978562860E+03  0.00000000000E+00 0.  1.
         -1    1    6    6    0  502 -0.84645408396E+02 -0.31780910738E+03 -0.20232135064E+02  0.32950995916E+03  0.00000000000E+00 0.  1.
<mgrwt>
<rscale>  0 0.22047625E+04</rscale>
<asrwt>0</asrwt>
<pdfrwt beam="1">  1        1 0.36195573E+00 0.22047625E+04</pdfrwt>
<pdfrwt beam="2">  1       -1 0.79466021E-01 0.22047625E+04</pdfrwt>
<totfact> 0.24690724E+00</totfact>
</mgrwt>
</event>
<event>
12    1  0.2588309E-007  0.1820086E+04  0.7818608E-02  0.8695690E-01
         -1   -1    0    0    0  501 -0.00000000000E+00  0.00000000000E+00  0.32420187536E+03  0.32420187536E+03  0.00000000000E+00 0.  1.
          1   -1    0    0  501    0  0.00000000000E+00 -0.00000000000E+00 -0.25545135568E+04  0.25545135568E+04  0.00000000000E+00 0. -1.
         23    2    1    2    0    0 -0.55071283144E+03  0.39934917655E+03 -0.73656880729E+03  0.10069263593E+04  0.92750728932E+02 0.  0.
        254    2    1    2    0    0  0.55071283144E+03 -0.39934917655E+03 -0.14937428742E+04  0.18717890729E+04  0.89975672912E+03 0.  0.
        -24    2    4    4    0    0  0.69156124971E+03 -0.46089233521E+03 -0.79811160420E+03  0.11548191420E+04  0.77112977489E+02 0.  0.
         24    2    4    4    0    0 -0.14084841827E+03  0.61543158656E+02 -0.69563126998E+03  0.71696993083E+03  0.80729056937E+02 0.  0.
         13    1    3    3    0    0 -0.22966084189E+03  0.15266785869E+03 -0.36436559836E+03  0.45696155926E+03  0.00000000000E+00 0. -1.
        -13    1    3    3    0    0 -0.32105198955E+03  0.24668131787E+03 -0.37220320892E+03  0.54996480006E+03  0.00000000000E+00 0.  1.
          4    1    6    6  502    0 -0.38542804234E+02 -0.94372544921E+01 -0.85462314149E+02  0.94225350465E+02  0.00000000000E+00 0. -1.
          1    1    5    5  503    0  0.59262326393E+03 -0.38326181984E+03 -0.71122552925E+03  0.10019649240E+04  0.00000000000E+00 0. -1.
         -2    1    5    5    0  503  0.98937985777E+02 -0.77630515367E+02 -0.86886074949E+02  0.15285421802E+03  0.00000000000E+00 0.  1.
         -3    1    6    6    0  502 -0.10230561403E+03  0.70980413148E+02 -0.61016895583E+03  0.62274458036E+03  0.00000000000E+00 0.  1.
<mgrwt>
<rscale>  0 0.18200858E+04</rscale>
<asrwt>0</asrwt>
<pdfrwt beam="1">  1        1 0.39300209E+00 0.18200858E+04</pdfrwt>
<pdfrwt beam="2">  1       -1 0.49877210E-01 0.18200858E+04</pdfrwt>
<totfact> 0.47215481E+00</totfact>
</mgrwt>
</event>
<event>
12    1  0.2588309E-007  0.3060061E+04  0.7818608E-02  0.8226785E-01
          2   -1    0    0  501    0  0.00000000000E+00  0.00000000000E+00  0.21072445134E+04  0.21072445134E+04  0.00000000000E+00 0. -1.
         -2   -1    0    0    0  501 -0.00000000000E+00 -0.00000000000E+00 -0.11109262967E+04  0.11109262967E+04  0.00000000000E+00 0.  1.
         23    2    1    2    0    0  0.21703501525E+03 -0.13309711884E+04  0.80647742885E+03  0.15739068394E+04  0.90489742844E+02 0.  0.
        254    2    1    2    0    0 -0.21703501525E+03  0.13309711884E+04  0.18984078776E+03  0.16442639707E+04  0.92139892468E+03 0.  0.
        -24    2    4    4    0    0 -0.17761956745E+00 -0.11496759907E+03 -0.70412655843E+02  0.15705779760E+03  0.80570647880E+02 0.  0.
         24    2    4    4    0    0 -0.21685739568E+03  0.14459387875E+04  0.26025344360E+03  0.14872061731E+04  0.79273193436E+02 0.  0.
         11    1    3    3    0    0  0.34123787301E+02 -0.11195306327E+03  0.94286166958E+02  0.15029239007E+03  0.00000000000E+00 0. -1.
        -11    1    3    3    0    0  0.18291122795E+03 -0.12190181252E+04  0.71219126189E+03  0.14236144493E+04  0.00000000000E+00 0.  1.
          4    1    6    6  502    0  0.62946199603E+01  0.21055840252E+02  0.50675759058E+01  0.22553291882E+02  0.00000000000E+00 0. -1.
          3    1    5    5  503    0 -0.26819391943E+02 -0.60635678360E+01 -0.75168281983E+01  0.28505251188E+02  0.00000000000E+00 0. -1.
         -4    1    5    5    0  503  0.26641772376E+02 -0.10890403123E+03 -0.62895827645E+02  0.12855254641E+03  0.00000000000E+00 0.  1.
         -3    1    6    6    0  502 -0.22315201564E+03  0.14248829472E+04  0.25518586769E+03  0.14646528812E+04  0.00000000000E+00 0.  1.
<mgrwt>
<rscale>  0 0.30600610E+04</rscale>
<asrwt>0</asrwt>
<pdfrwt beam="1">  1        2 0.32419146E+00 0.30600610E+04</pdfrwt>
<pdfrwt beam="2">  1       -2 0.17091174E+00 0.30600610E+04</pdfrwt>
<totfact> 0.10412324E+00</totfact>
</mgrwt>
</event>
<event>
12    1  0.2588309E-007  0.3149044E+04  0.7818608E-02  0.8202406E-01
          1   -1    0    0  501    0  0.00000000000E+00  0.00000000000E+00  0.20645578313E+04  0.20645578313E+04  0.00000000000E+00 0. -1.
         -1   -1    0    0    0  501 -0.00000000000E+00 -0.00000000000E+00 -0.12007991309E+04  0.12007991309E+04  0.00000000000E+00 0.  1.
         23    2    1    2    0    0  0.13587362648E+04  0.98915792661E+02  0.89185224225E+03  0.16326236836E+04  0.11879014649E+03 0.  0.
        254    2    1    2    0    0 -0.13587362648E+04 -0.98915792661E+02 -0.28093541786E+02  0.16327332786E+04  0.89948882181E+03 0.  0.
        -24    2    4    4    0    0 -0.79023325391E+03  0.65333849039E+02 -0.43710122169E+03  0.90895647039E+03  0.80045484890E+02 0.  0.
         24    2    4    4    0    0 -0.56850301092E+03 -0.16424964170E+03  0.40900767991E+03  0.72377680820E+03  0.79949782054E+02 0.  0.
         13    1    3    3    0    0  0.57073505910E+03  0.89678186329E+02  0.33712441885E+03  0.66890474552E+03  0.00000000000E+00 0.  1.
        -13    1    3    3    0    0  0.78800120573E+03  0.92376063315E+01  0.55472782340E+03  0.96371893810E+03  0.00000000000E+00 0. -1.
          4    1    6    6  502    0 -0.17513917486E+03 -0.67584426272E+02  0.17116243150E+03  0.25404323097E+03  0.00000000000E+00 0. -1.
          1    1    5    5  503    0 -0.47684437006E+03  0.15355485729E+02 -0.22684609825E+03  0.52827596623E+03  0.00000000000E+00 0. -1.
         -2    1    5    5    0  503 -0.31338888384E+03  0.49978363310E+02 -0.21025512345E+03  0.38068050417E+03  0.00000000000E+00 0.  1.
         -3    1    6    6    0  502 -0.39336383605E+03 -0.96665215428E+02  0.23784524841E+03  0.46973357723E+03  0.00000000000E+00 0.  1.
<mgrwt>
<rscale>  0 0.31490438E+04</rscale>
<asrwt>0</asrwt>
<pdfrwt beam="1">  1        1 0.31762428E+00 0.31490438E+04</pdfrwt>
<pdfrwt beam="2">  1       -1 0.18473833E+00 0.31490438E+04</pdfrwt>
<totfact> 0.43573213E-01</totfact>
</mgrwt>
</event>
<event>
12    1  0.2588309E-007  0.1433406E+04  0.7818608E-02  0.8929986E-01
         -2   -1    0    0    0  501 -0.00000000000E+00  0.00000000000E+00  0.36360501962E+03  0.36360501962E+03  0.00000000000E+00 0.  1.
          2   -1    0    0  501    0  0.00000000000E+00 -0.00000000000E+00 -0.14126952398E+04  0.14126952398E+04  0.00000000000E+00 0. -1.
         23    2    1    2    0    0 -0.29065638997E+03 -0.23433512414E+03 -0.60906834241E+02  0.38935344569E+03  0.92154087134E+02 0.  0.
        254    2    1    2    0    0  0.29065638997E+03  0.23433512414E+03 -0.98818338596E+03  0.13869468138E+04  0.89873298173E+03 0.  0.
        -24    2    4    4    0    0 -0.49477204253E+01  0.12120414454E+03 -0.10456640347E+04  0.10556504687E+04  0.79181526306E+02 0.  0.
         24    2    4    4    0    0  0.29560411039E+03  0.11313097960E+03  0.57480648730E+02  0.33129634502E+03  0.79201228628E+02 0.  0.
         11    1    3    3    0    0 -0.73416903675E+02 -0.56919761733E+02  0.24654189367E+02  0.96113110834E+02  0.00000000000E+00 0.  1.
        -11    1    3    3    0    0 -0.21723948629E+03 -0.17741536241E+03 -0.85561023609E+02  0.29324033485E+03  0.00000000000E+00 0. -1.
          2    1    6    6  502    0  0.59428754882E+02  0.55216164556E+02 -0.12557305525E+01  0.81130626734E+02  0.00000000000E+00 0. -1.
          3    1    5    5  503    0 -0.16887503477E+02  0.13190610344E+02 -0.54729434598E+02  0.58774918004E+02  0.00000000000E+00 0. -1.
         -4    1    5    5    0  503  0.11939783052E+02  0.10801353420E+03 -0.99093460009E+03  0.99687555073E+03  0.00000000000E+00 0.  1.
         -3    1    6    6    0  502  0.23617535551E+03  0.57914815044E+02  0.58736379282E+02  0.25016571828E+03  0.00000000000E+00 0.  1.
<mgrwt>
<rscale>  0 0.14334058E+04</rscale>
<asrwt>0</asrwt>
<pdfrwt beam="1">  1        2 0.21733773E+00 0.14334058E+04</pdfrwt>
<pdfrwt beam="2">  1       -2 0.55939233E-01 0.14334058E+04</pdfrwt>
<totfact> 0.41460609E+01</totfact>
</mgrwt>
</event>
<event>
12    1  0.2588309E-007  0.2542212E+04  0.7818608E-02  0.8388100E-01
          1   -1    0    0  501    0  0.00000000000E+00  0.00000000000E+00  0.13057633130E+04  0.13057633130E+04  0.00000000000E+00 0. -1.
         -1   -1    0    0    0  501 -0.00000000000E+00 -0.00000000000E+00 -0.12373687178E+04  0.12373687178E+04  0.00000000000E+00 0.  1.
         23    2    1    2    0    0  0.95208997153E+03  0.37444075822E+03 -0.39981968257E+03  0.11020453212E+04  0.89257583255E+02 0.  0.
        254    2    1    2    0    0 -0.95208997153E+03 -0.37444075822E+03  0.46821427776E+03  0.14410867096E+04  0.90045827181E+03 0.  0.
        -24    2    4    4    0    0 -0.14429600546E+03  0.48083457369E+02 -0.23197633950E+03  0.28884757794E+03  0.80539090692E+02 0.  0.
         24    2    4    4    0    0 -0.80779396608E+03 -0.42252421559E+03  0.70019061727E+03  0.11522391316E+04  0.79563255043E+02 0.  0.
         13    1    3    3    0    0  0.28168503034E+03  0.12780005729E+03 -0.80731782426E+02  0.31968254825E+03  0.00000000000E+00 0.  1.
        -13    1    3    3    0    0  0.67040494120E+03  0.24664070093E+03 -0.31908790015E+03  0.78236277298E+03  0.00000000000E+00 0. -1.
          2    1    6    6  502    0 -0.57555165321E+03 -0.32672334831E+03  0.47245467398E+03  0.81315513330E+03  0.00000000000E+00 0. -1.
          1    1    5    5  503    0 -0.41089407438E+02  0.45632244219E+02 -0.12982659220E+03  0.14361610341E+03  0.00000000000E+00 0. -1.
         -2    1    5    5    0  503 -0.10320659802E+03  0.24512131504E+01 -0.10214974730E+03  0.14523147453E+03  0.00000000000E+00 0.  1.
         -1    1    6    6    0  502 -0.23224231286E+03 -0.95800867278E+02  0.22773594329E+03  0.33908399833E+03  0.00000000000E+00 0.  1.
<mgrwt>
<rscale>  0 0.25422122E+04</rscale>
<asrwt>0</asrwt>
<pdfrwt beam="1">  1        1 0.20088666E+00 0.25422122E+04</pdfrwt>
<pdfrwt beam="2">  1       -1 0.19036442E+00 0.25422122E+04</pdfrwt>
<totfact> 0.13932698E+00</totfact>
</mgrwt>
</event>
<event>
12    1  0.2588309E-007  0.1523486E+04  0.7818608E-02  0.8868983E-01
          2   -1    0    0  501    0  0.00000000000E+00  0.00000000000E+00  0.15360134409E+04  0.15360134409E+04  0.00000000000E+00 0. -1.
         -2   -1    0    0    0  501 -0.00000000000E+00 -0.00000000000E+00 -0.37776541547E+03  0.37776541547E+03  0.00000000000E+00 0.  1.
         23    2    1    2    0    0  0.38856846880E+03 -0.25061172535E+03  0.60122141969E+03  0.76457184645E+03  0.96494668546E+02 0.  0.
        254    2    1    2    0    0 -0.38856846880E+03  0.25061172535E+03  0.55702660569E+03  0.11492070099E+04  0.89252810615E+03 0.  0.
        -24    2    4    4    0    0 -0.56368346865E+03 -0.65909186594E+02  0.13746648405E+03  0.58954499406E+03  0.81136872490E+02 0.  0.
         24    2    4    4    0    0  0.17511499985E+03  0.31652091195E+03  0.41956012164E+03  0.55966201582E+03  0.79624904460E+02 0.  0.
         13    1    3    3    0    0  0.25200909498E+03 -0.15396077231E+03  0.45466880445E+03  0.54215885596E+03  0.00000000000E+00 0. -1.
        -13    1    3    3    0    0  0.13655937382E+03 -0.96650953037E+02  0.14655261525E+03  0.22241299049E+03  0.00000000000E+00 0.  1.
          4    1    6    6  502    0  0.22937536697E+02  0.11666107569E+03  0.14537454379E+03  0.18780227675E+03  0.00000000000E+00 0. -1.
          1    1    5    5  503    0 -0.43852048285E+03 -0.77299945970E+02  0.84841766361E+02  0.45329198189E+03  0.00000000000E+00 0. -1.
         -2    1    5    5    0  503 -0.12516298580E+03  0.11390759376E+02  0.52624717693E+02  0.13625301217E+03  0.00000000000E+00 0.  1.
         -3    1    6    6    0  502  0.15217746315E+03  0.19985983625E+03  0.27418557785E+03  0.37185973906E+03  0.00000000000E+00 0.  1.
<mgrwt>
<rscale>  0 0.15234865E+04</rscale>
<asrwt>0</asrwt>
<pdfrwt beam="1">  1        2 0.23630976E+00 0.15234865E+04</pdfrwt>
<pdfrwt beam="2">  1       -2 0.58117757E-01 0.15234865E+04</pdfrwt>
<totfact> 0.32360205E+01</totfact>
</mgrwt>
</event>
<event>
12    1  0.2588309E-007  0.1791032E+04  0.7818608E-02  0.8711083E-01
          2   -1    0    0  501    0  0.00000000000E+00  0.00000000000E+00  0.10551475168E+04  0.10551475168E+04  0.00000000000E+00 0. -1.
         -2   -1    0    0    0  501 -0.00000000000E+00 -0.00000000000E+00 -0.76003474846E+03  0.76003474846E+03  0.00000000000E+00 0.  1.
         23    2    1    2    0    0  0.12726860824E+03 -0.63999221737E+03 -0.22629147916E+02  0.65904916517E+03  0.89701654617E+02 0.  0.
        254    2    1    2    0    0 -0.12726860824E+03  0.63999221737E+03  0.31774191621E+03  0.11561331000E+04  0.89994248859E+03 0.  0.
        -24    2    4    4    0    0 -0.25775298257E+03 -0.68492450117E+02  0.32887577454E+03  0.43098013476E+03  0.80354127048E+02 0.  0.
         24    2    4    4    0    0  0.13048437433E+03  0.70848466749E+03 -0.11133858327E+02  0.72515296529E+03  0.82135036715E+02 0.  0.
         13    1    3    3    0    0  0.76282101173E+02 -0.17687613872E+03 -0.12389932675E+02  0.19302237652E+03  0.00000000000E+00 0. -1.
        -13    1    3    3    0    0  0.50986507063E+02 -0.46311607865E+03 -0.10239215241E+02  0.46602678865E+03  0.00000000000E+00 0.  1.
          2    1    6    6  502    0  0.65139770143E+02  0.34740977645E+03  0.35585394795E+02  0.35525070409E+03  0.00000000000E+00 0. -1.
          3    1    5    5  503    0 -0.62024081045E+02 -0.38221083726E+02  0.47805096465E+02  0.87138769320E+02  0.00000000000E+00 0. -1.
         -4    1    5    5    0  503 -0.19572890152E+03 -0.30271366391E+02  0.28107067807E+03  0.34384136544E+03  0.00000000000E+00 0.  1.
         -1    1    6    6    0  502  0.65344604189E+02  0.36107489103E+03 -0.46719253122E+02  0.36990226120E+03  0.00000000000E+00 0.  1.
<mgrwt>
<rscale>  0 0.17910319E+04</rscale>
<asrwt>0</asrwt>
<pdfrwt beam="1">  1        2 0.16233039E+00 0.17910319E+04</pdfrwt>
<pdfrwt beam="2">  1       -2 0.11692842E+00 0.17910319E+04</pdfrwt>
<totfact> 0.12428217E+01</totfact>
</mgrwt>
</event>
<event>
12    1  0.2588309E-007  0.4017200E+04  0.7818608E-02  0.8001086E-01
          2   -1    0    0  501    0  0.00000000000E+00  0.00000000000E+00  0.29314943563E+04  0.29314943563E+04  0.00000000000E+00 0. -1.
         -2   -1    0    0    0  501 -0.00000000000E+00 -0.00000000000E+00 -0.13762519169E+04  0.13762519169E+04  0.00000000000E+00 0.  1.
         23    2    1    2    0    0 -0.12498021743E+04  0.66169148226E+03 -0.63162827771E+03  0.15513631928E+04  0.89063921617E+02 0.  0.
        254    2    1    2    0    0  0.12498021743E+04 -0.66169148226E+03  0.21868707171E+04  0.27563830805E+04  0.90299671123E+03 0.  0.
        -24    2    4    4    0    0  0.84231291519E+03  0.45316813440E+02  0.95738398327E+03  0.12785520151E+04  0.81033963024E+02 0.  0.
         24    2    4    4    0    0  0.40748925911E+03 -0.70700829570E+03  0.12294867338E+04  0.14778310654E+04  0.80242150684E+02 0.  0.
         11    1    3    3    0    0 -0.24381176296E+03  0.16861336131E+03 -0.12184283196E+03  0.32050010463E+03  0.00000000000E+00 0. -1.
        -11    1    3    3    0    0 -0.10059904113E+04  0.49307812095E+03 -0.50978544575E+03  0.12308630881E+04  0.00000000000E+00 0.  1.
          2    1    6    6  502    0  0.68426772761E+01 -0.43232819761E+02  0.82342541718E+02  0.93253381244E+02  0.00000000000E+00 0. -1.
          3    1    5    5  503    0  0.35019527608E+03 -0.13256496655E+02  0.36094255556E+03  0.50308249274E+03  0.00000000000E+00 0. -1.
         -4    1    5    5    0  503  0.49211763910E+03  0.58573310095E+02  0.59644142772E+03  0.77546952234E+03  0.00000000000E+00 0.  1.
         -1    1    6    6    0  502  0.40064658184E+03 -0.66377547593E+03  0.11471441921E+04  0.13845776842E+04  0.00000000000E+00 0.  1.
<mgrwt>
<rscale>  0 0.40172004E+04</rscale>
<asrwt>0</asrwt>
<pdfrwt beam="1">  1        2 0.45099913E+00 0.40172004E+04</pdfrwt>
<pdfrwt beam="2">  1       -2 0.21173106E+00 0.40172004E+04</pdfrwt>
<totfact> 0.16882657E-01</totfact>
</mgrwt>
</event>
<event>
12    1  0.2588309E-007  0.2883632E+04  0.7818608E-02  0.8277764E-01
         -1   -1    0    0    0  501 -0.00000000000E+00  0.00000000000E+00  0.95347773014E+03  0.95347773014E+03  0.00000000000E+00 0.  1.
          1   -1    0    0  501    0  0.00000000000E+00 -0.00000000000E+00 -0.21802644027E+04  0.21802644027E+04  0.00000000000E+00 0. -1.
         23    2    1    2    0    0 -0.26138819939E+03 -0.10116589899E+04 -0.13952991670E+04  0.17454723217E+04  0.89644618225E+02 0.  0.
        254    2    1    2    0    0  0.26138819939E+03  0.10116589899E+04  0.16851249450E+03  0.13882698111E+04  0.89839796589E+03 0.  0.
        -24    2    4    4    0    0  0.53579498347E+03  0.77328151863E+03 -0.69336756053E+02  0.94674746259E+03  0.80514599972E+02 0.  0.
         24    2    4    4    0    0 -0.27440678408E+03  0.23837747125E+03  0.23784925056E+03  0.44152234855E+03  0.79036803659E+02 0.  0.
         13    1    3    3    0    0 -0.61450455296E+02 -0.37570514837E+03 -0.46461531922E+03  0.60066455849E+03  0.00000000000E+00 0. -1.
        -13    1    3    3    0    0 -0.19993774410E+03 -0.63595384152E+03 -0.93068384782E+03  0.11448077632E+04  0.00000000000E+00 0.  1.
          2    1    6    6  502    0 -0.22135798378E+03  0.21932112485E+03  0.22314414393E+03  0.38326808080E+03  0.00000000000E+00 0. -1.
          1    1    5    5  503    0  0.49862769907E+03  0.73571701651E+03 -0.81576963605E+02  0.89250429223E+03  0.00000000000E+00 0. -1.
         -4    1    5    5    0  503  0.37167284404E+02  0.37564502123E+02  0.12240207552E+02  0.54243170360E+02  0.00000000000E+00 0.  1.
         -1    1    6    6    0  502 -0.53048800292E+02  0.19056346408E+02  0.14705106631E+02  0.58254267757E+02  0.00000000000E+00 0.  1.
<mgrwt>
<rscale>  0 0.28836321E+04</rscale>
<asrwt>0</asrwt>
<pdfrwt beam="1">  1        1 0.33542529E+00 0.28836321E+04</pdfrwt>
<pdfrwt beam="2">  1       -1 0.14668888E+00 0.28836321E+04</pdfrwt>
<totfact> 0.71542984E-01</totfact>
</mgrwt>
</event>
<event>
12    1  0.2588309E-007  0.2074867E+04  0.7818608E-02  0.8572396E-01
          2   -1    0    0  501    0  0.00000000000E+00  0.00000000000E+00  0.18584719824E+04  0.18584719824E+04  0.00000000000E+00 0.  1.
         -2   -1    0    0    0  501 -0.00000000000E+00 -0.00000000000E+00 -0.57911434015E+03  0.57911434015E+03  0.00000000000E+00 0. -1.
         23    2    1    2    0    0 -0.46347268992E+03 -0.42411003414E+03  0.11740233111E+04  0.13347936803E+04  0.93097683672E+02 0.  0.
        254    2    1    2    0    0  0.46347268992E+03  0.42411003414E+03  0.10533433119E+03  0.11027926422E+04  0.90021110585E+03 0.  0.
        -24    2    4    4    0    0  0.31502110696E+03  0.69510258685E+03  0.75577173442E+00  0.76722505151E+03  0.78916439361E+02 0.  0.
         24    2    4    4    0    0  0.14845158296E+03 -0.27099255272E+03  0.10457855946E+03  0.33556759073E+03  0.78702584072E+02 0.  0.
         11    1    3    3    0    0 -0.13598037575E+03 -0.16643819309E+03  0.33554772123E+03  0.39847786379E+03  0.00000000000E+00 0. -1.
        -11    1    3    3    0    0 -0.32749231418E+03 -0.25767184105E+03  0.83847558984E+03  0.93631581652E+03  0.00000000000E+00 0.  1.
          4    1    6    6  502    0  0.52145977169E+02 -0.69124383558E+02 -0.45380300818E+01  0.86706268829E+02  0.00000000000E+00 0. -1.
          3    1    5    5  503    0  0.18384870137E+03  0.45920920593E+03  0.31056091957E+02  0.49561872509E+03  0.00000000000E+00 0. -1.
         -4    1    5    5    0  503  0.13117240559E+03  0.23589338092E+03 -0.30300320223E+02  0.27160632643E+03  0.00000000000E+00 0.  1.
         -3    1    6    6    0  502  0.96305605792E+02 -0.20186816916E+03  0.10911658954E+03  0.24886132190E+03  0.00000000000E+00 0.  1.
<mgrwt>
<rscale>  0 0.20748665E+04</rscale>
<asrwt>0</asrwt>
<pdfrwt beam="1">  1        2 0.28591876E+00 0.20748665E+04</pdfrwt>
<pdfrwt beam="2">  1       -2 0.89094515E-01 0.20748665E+04</pdfrwt>
<totfact> 0.79984159E+00</totfact>
</mgrwt>
</event>
<event>
12    1  0.2588309E-007  0.1331982E+04  0.7818608E-02  0.9004581E-01
         -2   -1    0    0    0  501 -0.00000000000E+00  0.00000000000E+00  0.13851455492E+03  0.13851455492E+03  0.00000000000E+00 0.  1.
          2   -1    0    0  501    0  0.00000000000E+00 -0.00000000000E+00 -0.32021476793E+04  0.32021476793E+04  0.00000000000E+00 0. -1.
         23    2    1    2    0    0  0.29835600835E+03  0.19729866132E+03 -0.87760162243E+03  0.95220508833E+03  0.92557296137E+02 0.  0.
        254    2    1    2    0    0 -0.29835600835E+03 -0.19729866132E+03 -0.21860315020E+04  0.23884571459E+04  0.89333685740E+03 0.  0.
        -24    2    4    4    0    0 -0.15657410286E+03  0.16514807266E+02 -0.20982945469E+04  0.21057332704E+04  0.80525847581E+02 0.  0.
         24    2    4    4    0    0 -0.14178190549E+03 -0.21381346858E+03 -0.87736955113E+02  0.28272387552E+03  0.80104359599E+02 0.  0.
         11    1    3    3    0    0  0.12096518067E+03  0.99521456178E+02 -0.27515199800E+03  0.31661604062E+03  0.00000000000E+00 0.  1.
        -11    1    3    3    0    0  0.17739082768E+03  0.97777205137E+02 -0.60244962443E+03  0.63558904771E+03  0.00000000000E+00 0. -1.
          4    1    6    6  502    0 -0.12837390084E+03 -0.12585759493E+03 -0.60147363133E+02  0.18957240810E+03  0.00000000000E+00 0. -1.
          3    1    5    5  503    0 -0.15731640581E+03  0.83822161876E+01 -0.16827199497E+04  0.16900784426E+04  0.00000000000E+00 0. -1.
         -2    1    5    5    0  503  0.74230294197E+00  0.81325910780E+01 -0.41557459720E+03  0.41565482781E+03  0.00000000000E+00 0.  1.
         -3    1    6    6    0  502 -0.13408004645E+02 -0.87955873647E+02 -0.27589591980E+02  0.93151467423E+02  0.00000000000E+00 0.  1.
<mgrwt>
<rscale>  0 0.13319821E+04</rscale>
<asrwt>0</asrwt>
<pdfrwt beam="1">  1        2 0.49263809E+00 0.13319821E+04</pdfrwt>
<pdfrwt beam="2">  1       -2 0.21309932E-01 0.13319821E+04</pdfrwt>
<totfact> 0.24495099E+01</totfact>
</mgrwt>
</event>
<event>
12    1  0.2588309E-007  0.1942687E+04  0.7818608E-02  0.8633896E-01
          2   -1    0    0  501    0  0.00000000000E+00  0.00000000000E+00  0.16337542617E+04  0.16337542617E+04  0.00000000000E+00 0. -1.
         -2   -1    0    0    0  501 -0.00000000000E+00 -0.00000000000E+00 -0.57750898518E+03  0.57750898518E+03  0.00000000000E+00 0.  1.
         23    2    1    2    0    0  0.63488730311E+03  0.15739084895E+03 -0.23875254027E+02  0.66069222813E+03  0.89946793017E+02 0.  0.
        254    2    1    2    0    0 -0.63488730311E+03 -0.15739084895E+03  0.10801205305E+04  0.15505710187E+04  0.89986463243E+03 0.  0.
        -24    2    4    4    0    0 -0.83503924854E+03 -0.24205733684E+03  0.77591481814E+03  0.11680221369E+04  0.79684417342E+02 0.  0.
         24    2    4    4    0    0  0.20015194542E+03  0.84666487894E+02  0.30420571239E+03  0.38254888184E+03  0.81075989759E+02 0.  0.
         11    1    3    3    0    0  0.56282051180E+03  0.14526740730E+03  0.71259230244E+01  0.58130914916E+03  0.00000000000E+00 0. -1.
        -11    1    3    3    0    0  0.72066791315E+02  0.12123441646E+02 -0.31001177051E+02  0.79383078968E+02  0.00000000000E+00 0.  1.
          2    1    6    6  502    0  0.17075697446E+03  0.48668813812E+02  0.19423598471E+03  0.26316195683E+03  0.00000000000E+00 0. -1.
          3    1    5    5  503    0 -0.62311463953E+03 -0.16516179309E+03  0.61590667221E+03  0.89156676742E+03  0.00000000000E+00 0. -1.
         -4    1    5    5    0  503 -0.21192460901E+03 -0.76895543753E+02  0.16000814593E+03  0.27645536948E+03  0.00000000000E+00 0.  1.
         -1    1    6    6    0  502  0.29394970962E+02  0.35997674082E+02  0.10996972768E+03  0.11938692501E+03  0.00000000000E+00 0.  1.
<mgrwt>
<rscale>  0 0.19426866E+04</rscale>
<asrwt>0</asrwt>
<pdfrwt beam="1">  1        2 0.25134681E+00 0.19426866E+04</pdfrwt>
<pdfrwt beam="2">  1       -2 0.88847537E-01 0.19426866E+04</pdfrwt>
<totfact> 0.10849970E+01</totfact>
</mgrwt>
</event>
<event>
12    1  0.2588309E-007  0.1851876E+04  0.7818608E-02  0.8679189E-01
          2   -1    0    0  501    0  0.00000000000E+00  0.00000000000E+00  0.93094268974E+03  0.93094268974E+03  0.00000000000E+00 0. -1.
         -2   -1    0    0    0  501 -0.00000000000E+00 -0.00000000000E+00 -0.92096025732E+03  0.92096025732E+03  0.00000000000E+00 0.  1.
         23    2    1    2    0    0  0.27823650669E+03  0.64651909660E+03  0.25288703065E+02  0.71018518769E+03  0.91219440829E+02 0.  0.
        254    2    1    2    0    0 -0.27823650669E+03 -0.64651909660E+03 -0.15306270652E+02  0.11417177594E+04  0.89882293263E+03 0.  0.
        -24    2    4    4    0    0 -0.49957081687E+03 -0.11758374682E+03  0.14825989709E+03  0.54023169671E+03  0.80450919548E+02 0.  0.
         24    2    4    4    0    0  0.22133431018E+03 -0.52893534978E+03 -0.16356616774E+03  0.60148606266E+03  0.79184033977E+02 0.  0.
         11    1    3    3    0    0  0.21779053970E+03  0.46781999906E+03  0.55982538342E+02  0.51905906726E+03  0.00000000000E+00 0.  1.
        -11    1    3    3    0    0  0.60445966996E+02  0.17869909754E+03 -0.30693835276E+02  0.19112612043E+03  0.00000000000E+00 0. -1.
          2    1    6    6  502    0  0.14929364123E+03 -0.41436197157E+03 -0.15083428610E+03  0.46554851160E+03  0.00000000000E+00 0. -1.
          3    1    5    5  503    0 -0.33108068909E+03 -0.65481358751E+02  0.13458867212E+03  0.36334053131E+03  0.00000000000E+00 0. -1.
         -4    1    5    5    0  503 -0.16849012778E+03 -0.52102388066E+02  0.13671224971E+02  0.17689116539E+03  0.00000000000E+00 0.  1.
         -1    1    6    6    0  502  0.72040668946E+02 -0.11457337822E+03 -0.12731881642E+02  0.13593755106E+03  0.00000000000E+00 0.  1.
<mgrwt>
<rscale>  0 0.18518760E+04</rscale>
<asrwt>0</asrwt>
<pdfrwt beam="1">  1        2 0.14322195E+00 0.18518760E+04</pdfrwt>
<pdfrwt beam="2">  1       -2 0.14168619E+00 0.18518760E+04</pdfrwt>
<totfact> 0.91470962E+00</totfact>
</mgrwt>
</event>
<event>
12    1  0.2588309E-007  0.3286167E+04  0.7818608E-02  0.8166424E-01
          2   -1    0    0  501    0  0.00000000000E+00  0.00000000000E+00  0.36671848329E+04  0.36671848329E+04  0.00000000000E+00 0.  1.
         -2   -1    0    0    0  501 -0.00000000000E+00 -0.00000000000E+00 -0.73618401284E+03  0.73618401284E+03  0.00000000000E+00 0. -1.
         23    2    1    2    0    0  0.93291619557E+03 -0.10393726007E+04  0.21529634676E+04  0.25679639304E+04  0.92514992069E+02 0.  0.
        254    2    1    2    0    0 -0.93291619557E+03  0.10393726007E+04  0.77803735246E+03  0.18354049154E+04  0.90152151986E+03 0.  0.
        -24    2    4    4    0    0 -0.39020695387E+03  0.27536390163E+03  0.75228454478E+03  0.89452866247E+03  0.78503162308E+02 0.  0.
         24    2    4    4    0    0 -0.54270924169E+03  0.76400869902E+03  0.25752807677E+02  0.94087625294E+03  0.79638577638E+02 0.  0.
         11    1    3    3    0    0  0.40048551053E+03 -0.45315507173E+03  0.84918827710E+03  0.10425252482E+04  0.00000000000E+00 0.  1.
        -11    1    3    3    0    0  0.53243068504E+03 -0.58621752892E+03  0.13037751905E+04  0.15254386822E+04  0.00000000000E+00 0. -1.
          4    1    6    6  502    0 -0.51999308076E+02  0.12015986243E+03 -0.26750483290E+00  0.13092895837E+03  0.00000000000E+00 0. -1.
          1    1    5    5  503    0 -0.38280161988E+02  0.89377830549E+01  0.36827506567E+02  0.53865759140E+02  0.00000000000E+00 0. -1.
         -2    1    5    5    0  503 -0.35192679189E+03  0.26642611858E+03  0.71545703822E+03  0.84066290333E+03  0.00000000000E+00 0.  1.
         -3    1    6    6    0  502 -0.49070993361E+03  0.64384883659E+03  0.26020312510E+02  0.80994729457E+03  0.00000000000E+00 0.  1.
<mgrwt>
<rscale>  0 0.32861667E+04</rscale>
<asrwt>0</asrwt>
<pdfrwt beam="1">  1        2 0.56418227E+00 0.32861667E+04</pdfrwt>
<pdfrwt beam="2">  1       -2 0.11325908E+00 0.32861667E+04</pdfrwt>
<totfact> 0.31526381E-01</totfact>
</mgrwt>
</event>
<event>
12    1  0.2588309E-007  0.2131974E+04  0.7818608E-02  0.8547288E-01
          2   -1    0    0  501    0  0.00000000000E+00  0.00000000000E+00  0.23911505894E+04  0.23911505894E+04  0.00000000000E+00 0. -1.
         -2   -1    0    0    0  501 -0.00000000000E+00 -0.00000000000E+00 -0.47522257943E+03  0.47522257943E+03  0.00000000000E+00 0.  1.
         23    2    1    2    0    0  0.70472342895E+03  0.43360563910E+03  0.11638363198E+04  0.14308739936E+04  0.90754861503E+02 0.  0.
        254    2    1    2    0    0 -0.70472342895E+03 -0.43360563910E+03  0.75209169019E+03  0.14354991752E+04  0.90020387131E+03 0.  0.
        -24    2    4    4    0    0 -0.65674361302E+03 -0.47347469178E+03  0.15226728644E+03  0.82720889820E+03  0.74824980705E+02 0.  0.
         24    2    4    4    0    0 -0.47979815925E+02  0.39869052684E+02  0.59982440374E+03  0.60829027698E+03  0.79599884653E+02 0.  0.
         13    1    3    3    0    0  0.36399456410E+03  0.19139314619E+03  0.63891226471E+03  0.75982383557E+03  0.00000000000E+00 0. -1.
        -13    1    3    3    0    0  0.34072886485E+03  0.24221249291E+03  0.52492405505E+03  0.67105015806E+03  0.00000000000E+00 0.  1.
          4    1    6    6  502    0 -0.69971886708E+02  0.36305648783E+02  0.46214821642E+03  0.46882314256E+03  0.00000000000E+00 0. -1.
          1    1    5    5  503    0 -0.58162387182E+03 -0.38785920632E+03  0.13517180015E+03  0.71203406362E+03  0.00000000000E+00 0. -1.
         -2    1    5    5    0  503 -0.75119741197E+02 -0.85615485457E+02  0.17095486287E+02  0.11517483457E+03  0.00000000000E+00 0.  1.
         -3    1    6    6    0  502  0.21992070783E+02  0.35634039006E+01  0.13767618733E+03  0.13946713441E+03  0.00000000000E+00 0.  1.
<mgrwt>
<rscale>  0 0.21319744E+04</rscale>
<asrwt>0</asrwt>
<pdfrwt beam="1">  1        2 0.36786931E+00 0.21319744E+04</pdfrwt>
<pdfrwt beam="2">  1       -2 0.73111167E-01 0.21319744E+04</pdfrwt>
<totfact> 0.62467549E+00</totfact>
</mgrwt>
</event>
<event>
12    1  0.2588309E-007  0.1118479E+04  0.7818608E-02  0.9187366E-01
          1   -1    0    0  501    0  0.00000000000E+00  0.00000000000E+00  0.62343412315E+03  0.62343412315E+03  0.00000000000E+00 0. -1.
         -1   -1    0    0    0  501 -0.00000000000E+00 -0.00000000000E+00 -0.50165505035E+03  0.50165505035E+03  0.00000000000E+00 0.  1.
         23    2    1    2    0    0  0.11295442390E+03 -0.59321010112E+02 -0.87444936292E+02  0.19120670346E+03  0.11240864044E+03 0.  0.
        254    2    1    2    0    0 -0.11295442390E+03  0.59321010112E+02  0.20922400909E+03  0.93388247004E+03  0.90115708828E+03 0.  0.
        -24    2    4    4    0    0 -0.47982761076E+03  0.32779600830E+02  0.26283261923E+03  0.55397059259E+03  0.80581594961E+02 0.  0.
         24    2    4    4    0    0  0.36687318686E+03  0.26541409282E+02 -0.53608610140E+02  0.37991187745E+03  0.78477830680E+02 0.  0.
         13    1    3    3    0    0  0.85687277687E+02 -0.37611241237E+01 -0.95993154983E+02  0.12872894552E+03  0.00000000000E+00 0.  1.
        -13    1    3    3    0    0  0.27267146212E+02 -0.55559885988E+02  0.85482186911E+01  0.62477757933E+02  0.00000000000E+00 0. -1.
          2    1    6    6  502    0  0.19587107670E+03 -0.23414810484E+02 -0.39692871978E+02  0.20121942283E+03  0.00000000000E+00 0. -1.
          1    1    5    5  503    0 -0.90470143125E+02  0.16798950350E+02  0.18014062404E+02  0.93763308251E+02  0.00000000000E+00 0. -1.
         -4    1    5    5    0  503 -0.38935746763E+03  0.15980650480E+02  0.24481855683E+03  0.46020728434E+03  0.00000000000E+00 0.  1.
         -1    1    6    6    0  502  0.17100211016E+03  0.49956219766E+02 -0.13915738162E+02  0.17869245463E+03  0.00000000000E+00 0.  1.
<mgrwt>
<rscale>  0 0.11184791E+04</rscale>
<asrwt>0</asrwt>
<pdfrwt beam="1">  1        1 0.95912942E-01 0.11184791E+04</pdfrwt>
<pdfrwt beam="2">  1       -1 0.77177700E-01 0.11184791E+04</pdfrwt>
<totfact> 0.54295995E+01</totfact>
</mgrwt>
</event>
<event>
12    1  0.2588309E-007  0.1555793E+04  0.7818608E-02  0.8848176E-01
         -2   -1    0    0    0  501 -0.00000000000E+00  0.00000000000E+00  0.17139028591E+04  0.17139028591E+04  0.00000000000E+00 0.  1.
          2   -1    0    0  501    0  0.00000000000E+00 -0.00000000000E+00 -0.35306745628E+03  0.35306745628E+03  0.00000000000E+00 0. -1.
         23    2    1    2    0    0  0.24074450809E+03  0.44140415924E+03  0.56228536157E+03  0.76201016789E+03  0.10816246189E+03 0.  0.
        254    2    1    2    0    0 -0.24074450809E+03 -0.44140415924E+03  0.79855004128E+03  0.13049601475E+04  0.90135634919E+03 0.  0.
        -24    2    4    4    0    0 -0.52177158195E+03 -0.14006131413E+03  0.21648473884E+03  0.58730688265E+03  0.78746281285E+02 0.  0.
         24    2    4    4    0    0  0.28102707386E+03 -0.30134284511E+03  0.58206530244E+03  0.71765326487E+03  0.80264972051E+02 0.  0.
         13    1    3    3    0    0  0.21311510029E+03  0.28820720334E+03  0.40118635357E+03  0.53798878085E+03  0.00000000000E+00 0. -1.
        -13    1    3    3    0    0  0.27629407793E+02  0.15319695590E+03  0.16109900800E+03  0.22402138704E+03  0.00000000000E+00 0.  1.
          4    1    6    6  502    0  0.23002842264E+03 -0.27820789113E+03  0.52951069244E+03  0.64085433549E+03  0.00000000000E+00 0. -1.
          3    1    5    5  503    0 -0.44216263642E+03 -0.88043493945E+02  0.18025492863E+03  0.48554226713E+03  0.00000000000E+00 0. -1.
         -4    1    5    5    0  503 -0.79608945524E+02 -0.52017820188E+02  0.36229810209E+02  0.10176461552E+03  0.00000000000E+00 0.  1.
         -3    1    6    6    0  502  0.50998651221E+02 -0.23134953979E+02  0.52554609993E+02  0.76798929377E+02  0.00000000000E+00 0.  1.
<mgrwt>
<rscale>  0 0.15557935E+04</rscale>
<asrwt>0</asrwt>
<pdfrwt beam="1">  1        2 0.54318071E-01 0.15557935E+04</pdfrwt>
<pdfrwt beam="2">  1       -2 0.26367736E+00 0.15557935E+04</pdfrwt>
<totfact> 0.46694980E+00</totfact>
</mgrwt>
</event>
<event>
12    1  0.2588309E-007  0.2034680E+04  0.7818608E-02  0.8590576E-01
          1   -1    0    0  501    0  0.00000000000E+00  0.00000000000E+00  0.58963121611E+03  0.58963121611E+03  0.00000000000E+00 0. -1.
         -1   -1    0    0    0  501 -0.00000000000E+00 -0.00000000000E+00 -0.17553021500E+04  0.17553021500E+04  0.00000000000E+00 0.  1.
         23    2    1    2    0    0  0.76556288128E+02 -0.27265099456E+03 -0.13514212685E+04  0.13837739551E+04  0.91057584795E+02 0.  0.
        254    2    1    2    0    0 -0.76556288128E+02  0.27265099456E+03  0.18575033464E+03  0.96115941099E+03  0.89951364438E+03 0.  0.
        -24    2    4    4    0    0 -0.24632129375E+03  0.23169048536E+03 -0.28693334864E+03  0.45109874901E+03  0.82490448148E+02 0.  0.
         24    2    4    4    0    0  0.16976500562E+03  0.40960509199E+02  0.47268368329E+03  0.51006066197E+03  0.78956279044E+02 0.  0.
         11    1    3    3    0    0  0.11216957075E+02 -0.27910632160E+02 -0.53609141743E+02  0.61471648685E+02  0.00000000000E+00 0. -1.
        -11    1    3    3    0    0  0.65339331053E+02 -0.24474036240E+03 -0.12978121268E+04  0.13223023064E+04  0.00000000000E+00 0.  1.
          4    1    6    6  502    0  0.14389108186E+03  0.40557051830E+02  0.45444129941E+03  0.47839984585E+03  0.00000000000E+00 0. -1.
          3    1    5    5  503    0 -0.12967647413E+03  0.11525869978E+03 -0.20000416810E+03  0.26476824408E+03  0.00000000000E+00 0. -1.
         -4    1    5    5    0  503 -0.11664481962E+03  0.11643178558E+03 -0.86929180547E+02  0.18633050493E+03  0.00000000000E+00 0.  1.
         -3    1    6    6    0  502  0.25873923759E+02  0.40345736812E+00  0.18242383873E+02  0.31660816128E+02  0.00000000000E+00 0.  1.
<mgrwt>
<rscale>  0 0.20346803E+04</rscale>
<asrwt>0</asrwt>
<pdfrwt beam="1">  1        1 0.90712495E-01 0.20346803E+04</pdfrwt>
<pdfrwt beam="2">  1       -1 0.27004648E+00 0.20346803E+04</pdfrwt>
<totfact> 0.16775447E+00</totfact>
</mgrwt>
</event>
<event>
12    1  0.2588309E-007  0.2161618E+04  0.7818608E-02  0.8534575E-01
          2   -1    0    0  501    0  0.00000000000E+00  0.00000000000E+00  0.11522718548E+04  0.11522718548E+04  0.00000000000E+00 0.  1.
         -2   -1    0    0    0  501 -0.00000000000E+00 -0.00000000000E+00 -0.10137784346E+04  0.10137784346E+04  0.00000000000E+00 0. -1.
         23    2    1    2    0    0  0.64922653385E+03  0.50143863974E+03  0.40108572981E+03  0.91901219239E+03  0.10381640248E+03 0.  0.
        254    2    1    2    0    0 -0.64922653385E+03 -0.50143863974E+03 -0.26259230967E+03  0.12470380970E+04  0.90178350654E+03 0.  0.
        -24    2    4    4    0    0  0.59952651235E+01 -0.36271224039E+03  0.20669996026E+03  0.42524227838E+03  0.80684628114E+02 0.  0.
         24    2    4    4    0    0 -0.65522179898E+03 -0.13872639935E+03 -0.46929226993E+03  0.82179581865E+03  0.80947595402E+02 0.  0.
         13    1    3    3    0    0  0.93662389891E+02  0.10253903479E+03  0.10316865796E+03  0.17300482340E+03  0.00000000000E+00 0.  1.
        -13    1    3    3    0    0  0.55556414396E+03  0.39889960495E+03  0.29791707185E+03  0.74600736899E+03  0.00000000000E+00 0. -1.
          4    1    6    6  502    0 -0.11574151039E+03 -0.17174939254E+02 -0.47450068985E+02  0.12626394898E+03  0.00000000000E+00 0. -1.
          1    1    5    5  503    0  0.21428410298E+02 -0.67911326726E+02  0.70239485425E+02  0.10002354912E+03  0.00000000000E+00 0. -1.
         -2    1    5    5    0  503 -0.15433145174E+02 -0.29480091367E+03  0.13646047484E+03  0.32521872926E+03  0.00000000000E+00 0.  1.
         -3    1    6    6    0  502 -0.53948028859E+03 -0.12155146009E+03 -0.42184220095E+03  0.69553186967E+03  0.00000000000E+00 0.  1.
<mgrwt>
<rscale>  0 0.21616182E+04</rscale>
<asrwt>0</asrwt>
<pdfrwt beam="1">  1        2 0.17727259E+00 0.21616182E+04</pdfrwt>
<pdfrwt beam="2">  1       -2 0.15596591E+00 0.21616182E+04</pdfrwt>
<totfact> 0.50097684E+00</totfact>
</mgrwt>
</event>
<event>
12    1  0.2588309E-007  0.1475668E+04  0.7818608E-02  0.8900797E-01
         -2   -1    0    0    0  501 -0.00000000000E+00  0.00000000000E+00  0.48962591615E+03  0.48962591615E+03  0.00000000000E+00 0.  1.
          2   -1    0    0  501    0  0.00000000000E+00 -0.00000000000E+00 -0.11118672424E+04  0.11118672424E+04  0.00000000000E+00 0. -1.
         23    2    1    2    0    0 -0.25880852108E+03  0.25088724577E+03 -0.50067383011E+03  0.62371974965E+03  0.91792054467E+02 0.  0.
        254    2    1    2    0    0  0.25880852108E+03 -0.25088724577E+03 -0.12156749611E+03  0.97777340888E+03  0.90074187331E+03 0.  0.
        -24    2    4    4    0    0  0.45714796364E+03 -0.31424540301E+02 -0.36131272569E+03  0.58888843957E+03  0.79189305596E+02 0.  0.
         24    2    4    4    0    0 -0.19833944256E+03 -0.21946270547E+03  0.23974522958E+03  0.38888496931E+03  0.79065357054E+02 0.  0.
         11    1    3    3    0    0 -0.19213971403E+03  0.15697876010E+03 -0.27518238956E+03  0.37052037508E+03  0.00000000000E+00 0.  1.
        -11    1    3    3    0    0 -0.66668807053E+02  0.93908485674E+02 -0.22549144055E+03  0.25319937456E+03  0.00000000000E+00 0. -1.
          4    1    6    6  502    0 -0.16265577102E+03 -0.21464319139E+03  0.22045341820E+03  0.34803492504E+03  0.00000000000E+00 0. -1.
          3    1    5    5  503    0  0.11708942214E+03 -0.82385802482E+01 -0.13908002998E+03  0.18199192763E+03  0.00000000000E+00 0. -1.
         -4    1    5    5    0  503  0.34005854150E+03 -0.23185960053E+02 -0.22223269570E+03  0.40689651194E+03  0.00000000000E+00 0.  1.
         -3    1    6    6    0  502 -0.35683671541E+02 -0.48195140846E+01  0.19291811377E+02  0.40850044270E+02  0.00000000000E+00 0.  1.
<mgrwt>
<rscale>  0 0.14756680E+04</rscale>
<asrwt>0</asrwt>
<pdfrwt beam="1">  1        2 0.17105650E+00 0.14756680E+04</pdfrwt>
<pdfrwt beam="2">  1       -2 0.75327064E-01 0.14756680E+04</pdfrwt>
<totfact> 0.32797736E+01</totfact>
</mgrwt>
</event>
<event>
12    1  0.2588309E-007  0.1413172E+04  0.7818608E-02  0.8944339E-01
         -2   -1    0    0    0  501 -0.00000000000E+00  0.00000000000E+00  0.42755464066E+03  0.42755464066E+03  0.00000000000E+00 0.  1.
          2   -1    0    0  501    0  0.00000000000E+00 -0.00000000000E+00 -0.11677188577E+04  0.11677188577E+04  0.00000000000E+00 0. -1.
         23    2    1    2    0    0  0.14098203712E+03  0.31193008844E+03 -0.47465775751E+03  0.59215858523E+03  0.90418407574E+02 0.  0.
        254    2    1    2    0    0 -0.14098203712E+03 -0.31193008844E+03 -0.26550645955E+03  0.10031149131E+04  0.90474832635E+03 0.  0.
        -24    2    4    4    0    0 -0.42932307243E+03  0.10874468963E+03 -0.93939936163E+02  0.45906020049E+03  0.75946349669E+02 0.  0.
         24    2    4    4    0    0  0.28834103530E+03 -0.42067477807E+03 -0.17156652338E+03  0.54405471265E+03  0.80328306758E+02 0.  0.
         13    1    3    3    0    0  0.10854224711E+03  0.29713616690E+03 -0.40496689959E+03  0.51387694135E+03  0.00000000000E+00 0.  1.
        -13    1    3    3    0    0  0.32439790012E+02  0.14793921542E+02 -0.69690857920E+02  0.78281643878E+02  0.00000000000E+00 0. -1.
          2    1    6    6  502    0  0.27542629646E+03 -0.39463243488E+03 -0.14011033063E+03  0.50122381047E+03  0.00000000000E+00 0. -1.
          1    1    5    5  503    0 -0.42209370263E+03  0.93313710575E+02 -0.89547282903E+02  0.44146263518E+03  0.00000000000E+00 0. -1.
         -2    1    5    5    0  503 -0.72293697908E+01  0.15430979055E+02 -0.43926532599E+01  0.17597565310E+02  0.00000000000E+00 0.  1.
         -1    1    6    6    0  502  0.12914738840E+02 -0.26042343199E+02 -0.31456192758E+02  0.42830902178E+02  0.00000000000E+00 0.  1.
<mgrwt>
<rscale>  0 0.14131718E+04</rscale>
<asrwt>0</asrwt>
<pdfrwt beam="1">  1        2 0.17964905E+00 0.14131718E+04</pdfrwt>
<pdfrwt beam="2">  1       -2 0.65777637E-01 0.14131718E+04</pdfrwt>
<totfact> 0.40985908E+01</totfact>
</mgrwt>
</event>
<event>
12    1  0.2588309E-007  0.1222289E+04  0.7818608E-02  0.9093567E-01
          2   -1    0    0  501    0  0.00000000000E+00  0.00000000000E+00  0.17268677813E+04  0.17268677813E+04  0.00000000000E+00 0. -1.
         -2   -1    0    0    0  501 -0.00000000000E+00 -0.00000000000E+00 -0.21628625792E+03  0.21628625792E+03  0.00000000000E+00 0.  1.
         23    2    1    2    0    0  0.84818689092E+02  0.24205172060E+03  0.22148552189E+03  0.34979972232E+03  0.86722337738E+02 0.  0.
        254    2    1    2    0    0 -0.84818689092E+02 -0.24205172060E+03  0.12890960015E+04  0.15933543169E+04  0.90068098272E+03 0.  0.
        -24    2    4    4    0    0  0.15206791277E+03 -0.36898795956E+03  0.17191481771E+03  0.44180777122E+03  0.79766144291E+02 0.  0.
         24    2    4    4    0    0 -0.23688660186E+03  0.12693623895E+03  0.11171811838E+04  0.11515465456E+04  0.75746805548E+02 0.  0.
         11    1    3    3    0    0  0.22741816805E+02  0.18510936475E+03  0.15129180595E+03  0.24014969851E+03  0.00000000000E+00 0. -1.
        -11    1    3    3    0    0  0.62076872287E+02  0.56942355854E+02  0.70193715940E+02  0.10965002381E+03  0.00000000000E+00 0.  1.
          4    1    6    6  502    0 -0.75832147810E+02  0.75815661832E+01  0.38187396042E+03  0.38940430973E+03  0.00000000000E+00 0. -1.
          1    1    5    5  503    0  0.49390373772E+02 -0.14123863542E+03  0.24170483757E+02  0.15156507989E+03  0.00000000000E+00 0. -1.
         -2    1    5    5    0  503  0.10267753900E+03 -0.22774932414E+03  0.14774433395E+03  0.29024269134E+03  0.00000000000E+00 0.  1.
         -3    1    6    6    0  502 -0.16105445405E+03  0.11935467277E+03  0.73530722333E+03  0.76214223592E+03  0.00000000000E+00 0.  1.
<mgrwt>
<rscale>  0 0.12222893E+04</rscale>
<asrwt>0</asrwt>
<pdfrwt beam="1">  1        2 0.26567196E+00 0.12222893E+04</pdfrwt>
<pdfrwt beam="2">  1       -2 0.33274810E-01 0.12222893E+04</pdfrwt>
<totfact> 0.78754156E+01</totfact>
</mgrwt>
</event>
<event>
12    1  0.2588309E-007  0.1468613E+04  0.7818608E-02  0.8905598E-01
          1   -1    0    0  501    0  0.00000000000E+00  0.00000000000E+00  0.11915013227E+04  0.11915013227E+04  0.00000000000E+00 0. -1.
         -1   -1    0    0    0  501 -0.00000000000E+00 -0.00000000000E+00 -0.45254326413E+03  0.45254326413E+03  0.00000000000E+00 0.  1.
         23    2    1    2    0    0  0.84631583230E+02 -0.42525689377E+03  0.75922900287E+02  0.44925470669E+03  0.89775130818E+02 0.  0.
        254    2    1    2    0    0 -0.84631583230E+02  0.42525689377E+03  0.66303515824E+03  0.11947898801E+04  0.89437201764E+03 0.  0.
        -24    2    4    4    0    0 -0.28740102273E+03  0.52047788411E+03  0.13372793749E+03  0.61474425050E+03  0.80813096377E+02 0.  0.
         24    2    4    4    0    0  0.20276943950E+03 -0.95220990334E+02  0.52930722075E+03  0.58004562960E+03  0.78130121451E+02 0.  0.
         11    1    3    3    0    0  0.61412766338E+02 -0.27961130748E+03  0.92480979108E+02  0.30084338557E+03  0.00000000000E+00 0. -1.
        -11    1    3    3    0    0  0.23218816892E+02 -0.14564558629E+03 -0.16558078821E+02  0.14841132113E+03  0.00000000000E+00 0.  1.
          4    1    6    6  502    0  0.16833816603E+02 -0.26278350425E+02  0.13647344091E+03  0.13999617551E+03  0.00000000000E+00 0. -1.
          3    1    5    5  503    0  0.48226698284E+01  0.17966940912E+02  0.20559997093E+01  0.18716202734E+02  0.00000000000E+00 0. -1.
         -4    1    5    5    0  503 -0.29222369256E+03  0.50251094320E+03  0.13167193778E+03  0.59602804777E+03  0.00000000000E+00 0.  1.
         -3    1    6    6    0  502  0.18593562290E+03 -0.68942639909E+02  0.39283377984E+03  0.44004945409E+03  0.00000000000E+00 0.  1.
<mgrwt>
<rscale>  0 0.14686128E+04</rscale>
<asrwt>0</asrwt>
<pdfrwt beam="1">  1        1 0.18330790E+00 0.14686128E+04</pdfrwt>
<pdfrwt beam="2">  1       -1 0.69622041E-01 0.14686128E+04</pdfrwt>
<totfact> 0.21933939E+01</totfact>
</mgrwt>
</event>
<event>
12    1  0.2588309E-007  0.3458043E+04  0.7818608E-02  0.8123806E-01
          2   -1    0    0  501    0  0.00000000000E+00  0.00000000000E+00  0.24389754784E+04  0.24389754784E+04  0.00000000000E+00 0. -1.
         -2   -1    0    0    0  501 -0.00000000000E+00 -0.00000000000E+00 -0.12257258091E+04  0.12257258091E+04  0.00000000000E+00 0.  1.
         23    2    1    2    0    0  0.13707340074E+04 -0.55085869728E+03 -0.11490860470E+03  0.14844897810E+04  0.90271253215E+02 0.  0.
        254    2    1    2    0    0 -0.13707340074E+04  0.55085869728E+03  0.13281582740E+04  0.21802115064E+04  0.89830996237E+03 0.  0.
        -24    2    4    4    0    0 -0.11548418109E+04  0.17986494300E+03  0.12891272438E+04  0.17420142313E+04  0.82179834998E+02 0.  0.
         24    2    4    4    0    0 -0.21589219646E+03  0.37099375428E+03  0.39031030233E+02  0.43819727515E+03  0.79041915579E+02 0.  0.
         13    1    3    3    0    0  0.35888360356E+03 -0.16933583756E+03  0.17115919177E+01  0.39683119375E+03  0.00000000000E+00 0. -1.
        -13    1    3    3    0    0  0.10118504038E+04 -0.38152285972E+03 -0.11662019661E+03  0.10876585873E+04  0.00000000000E+00 0.  1.
          2    1    6    6  502    0 -0.59208989201E+02  0.57552003736E+02 -0.14114374953E+02  0.83768449410E+02  0.00000000000E+00 0. -1.
          3    1    5    5  503    0 -0.81983185012E+03  0.12490695006E+03  0.96870868900E+03  0.12751950960E+04  0.00000000000E+00 0. -1.
         -4    1    5    5    0  503 -0.33500996081E+03  0.54957992933E+02  0.32041855480E+03  0.46681913530E+03  0.00000000000E+00 0.  1.
         -1    1    6    6    0  502 -0.15668320726E+03  0.31344175054E+03  0.53145405187E+02  0.35442882574E+03  0.00000000000E+00 0.  1.
<mgrwt>
<rscale>  0 0.34580429E+04</rscale>
<asrwt>0</asrwt>
<pdfrwt beam="1">  1        2 0.37522700E+00 0.34580429E+04</pdfrwt>
<pdfrwt beam="2">  1       -2 0.18857320E+00 0.34580429E+04</pdfrwt>
<totfact> 0.49328221E-01</totfact>
</mgrwt>
</event>
<event>
12    1  0.2588309E-007  0.3059895E+04  0.7818608E-02  0.8226831E-01
          2   -1    0    0  501    0  0.00000000000E+00  0.00000000000E+00  0.15461369919E+04  0.15461369919E+04  0.00000000000E+00 0. -1.
         -2   -1    0    0    0  501 -0.00000000000E+00 -0.00000000000E+00 -0.15139278936E+04  0.15139278936E+04  0.00000000000E+00 0.  1.
         23    2    1    2    0    0 -0.11749403512E+04 -0.25813187276E+03 -0.69356664389E+03  0.13915562806E+04  0.90979666491E+02 0.  0.
        254    2    1    2    0    0  0.11749403512E+04  0.25813187276E+03  0.72577574211E+03  0.16685086050E+04  0.90002980186E+03 0.  0.
        -24    2    4    4    0    0  0.10458629397E+04  0.37346590582E+03  0.22913388528E+03  0.11365076469E+04  0.76427891392E+02 0.  0.
         24    2    4    4    0    0  0.12907741155E+03 -0.11533403306E+03  0.49664185683E+03  0.53200095807E+03  0.80056030879E+02 0.  0.
         13    1    3    3    0    0 -0.56298493326E+03 -0.11886819357E+03 -0.27967849328E+03  0.63976694360E+03  0.00000000000E+00 0. -1.
        -13    1    3    3    0    0 -0.61195541799E+03 -0.13926367919E+03 -0.41388815061E+03  0.75178933696E+03  0.00000000000E+00 0.  1.
          4    1    6    6  502    0  0.13415582899E+02 -0.72631176998E+01  0.15178514189E+03  0.15254986083E+03  0.00000000000E+00 0. -1.
          3    1    5    5  503    0  0.31832452469E+03  0.86337807721E+02  0.43990110964E+02  0.33274592398E+03  0.00000000000E+00 0. -1.
         -4    1    5    5    0  503  0.72753841501E+03  0.28712809809E+03  0.18514377432E+03  0.80376172290E+03  0.00000000000E+00 0.  1.
         -1    1    6    6    0  502  0.11566182865E+03 -0.10807091536E+03  0.34485671495E+03  0.37945109724E+03  0.00000000000E+00 0.  1.
<mgrwt>
<rscale>  0 0.30598954E+04</rscale>
<asrwt>0</asrwt>
<pdfrwt beam="1">  1        2 0.23786723E+00 0.30598954E+04</pdfrwt>
<pdfrwt beam="2">  1       -2 0.23291198E+00 0.30598954E+04</pdfrwt>
<totfact> 0.83502770E-01</totfact>
</mgrwt>
</event>
<event>
12    1  0.2588309E-007  0.2082535E+04  0.7818608E-02  0.8568976E-01
         -1   -1    0    0    0  501 -0.00000000000E+00  0.00000000000E+00  0.48544144561E+03  0.48544144561E+03  0.00000000000E+00 0.  1.
          1   -1    0    0  501    0  0.00000000000E+00 -0.00000000000E+00 -0.22335097942E+04  0.22335097942E+04  0.00000000000E+00 0. -1.
         23    2    1    2    0    0  0.77269993383E+03 -0.28577504269E+03 -0.94409922299E+03  0.12572550132E+04  0.10312256050E+03 0.  0.
        254    2    1    2    0    0 -0.77269993383E+03  0.28577504269E+03 -0.80396912561E+03  0.14616962267E+04  0.90080904822E+03 0.  0.
        -24    2    4    4    0    0 -0.81498982701E+03  0.14081527902E+03 -0.22885619199E+03  0.86179660372E+03  0.79251931491E+02 0.  0.
         24    2    4    4    0    0  0.42289893184E+02  0.14495976367E+03 -0.57511293362E+03  0.59989962294E+03  0.79516684009E+02 0.  0.
         11    1    3    3    0    0  0.40260378523E+03 -0.96992125062E+02 -0.49700493166E+03  0.64692440231E+03  0.00000000000E+00 0.  1.
        -11    1    3    3    0    0  0.37009614860E+03 -0.18878291763E+03 -0.44709429133E+03  0.61033061085E+03  0.00000000000E+00 0. -1.
          2    1    6    6  502    0  0.46102158673E+02  0.14520360569E+03 -0.57614160330E+03  0.59594348993E+03  0.00000000000E+00 0. -1.
          3    1    5    5  503    0 -0.32536711084E+03  0.31407079424E+02 -0.12158201211E+03  0.34875829326E+03  0.00000000000E+00 0. -1.
         -4    1    5    5    0  503 -0.48962271617E+03  0.10940819960E+03 -0.10727417988E+03  0.51303831046E+03  0.00000000000E+00 0.  1.
         -1    1    6    6    0  502 -0.38122654897E+01 -0.24384201475E+00  0.10286696767E+01  0.39561330104E+01  0.00000000000E+00 0.  1.
<mgrwt>
<rscale>  0 0.20825352E+04</rscale>
<asrwt>0</asrwt>
<pdfrwt beam="1">  1        1 0.34361689E+00 0.20825352E+04</pdfrwt>
<pdfrwt beam="2">  1       -1 0.74683299E-01 0.20825352E+04</pdfrwt>
<totfact> 0.34337181E+00</totfact>
</mgrwt>
</event>
<event>
12    1  0.2588309E-007  0.1214132E+04  0.7818608E-02  0.9100576E-01
          1   -1    0    0  501    0  0.00000000000E+00  0.00000000000E+00  0.26188399565E+03  0.26188399565E+03  0.00000000000E+00 0. -1.
         -1   -1    0    0    0  501 -0.00000000000E+00 -0.00000000000E+00 -0.14072222922E+04  0.14072222922E+04  0.00000000000E+00 0.  1.
         23    2    1    2    0    0  0.16744340902E+03 -0.17673878444E+03 -0.39046340739E+03  0.46899061137E+03  0.90645617084E+02 0.  0.
        254    2    1    2    0    0 -0.16744340902E+03  0.17673878444E+03 -0.75487488920E+03  0.12001156765E+04  0.90064845835E+03 0.  0.
        -24    2    4    4    0    0 -0.31779430790E+03  0.48315105405E+03 -0.46636003059E+03  0.74651551239E+03  0.73250043955E+02 0.  0.
         24    2    4    4    0    0  0.15035089888E+03 -0.30641226961E+03 -0.28851485861E+03  0.45360016413E+03  0.77578434509E+02 0.  0.
         13    1    3    3    0    0  0.17814013223E+03 -0.16852516607E+03 -0.35900718171E+03  0.43476521806E+03  0.00000000000E+00 0. -1.
        -13    1    3    3    0    0 -0.10696723205E+02 -0.82136183706E+01 -0.31456225674E+02  0.34225393317E+02  0.00000000000E+00 0.  1.
          4    1    6    6  502    0  0.23246410277E+02 -0.67196232704E+02 -0.10345912641E+03  0.12553692731E+03  0.00000000000E+00 0. -1.
          1    1    5    5  503    0 -0.12624252695E+03  0.15944623427E+03 -0.20298982073E+03  0.28734151206E+03  0.00000000000E+00 0. -1.
         -2    1    5    5    0  503 -0.19155178095E+03  0.32370481978E+03 -0.26337020986E+03  0.45917400033E+03  0.00000000000E+00 0.  1.
         -3    1    6    6    0  502  0.12710448860E+03 -0.23921603691E+03 -0.18505573220E+03  0.32806323682E+03  0.00000000000E+00 0.  1.
<mgrwt>
<rscale>  0 0.12141318E+04</rscale>
<asrwt>0</asrwt>
<pdfrwt beam="1">  1        1 0.40289845E-01 0.12141318E+04</pdfrwt>
<pdfrwt beam="2">  1       -1 0.21649574E+00 0.12141318E+04</pdfrwt>
<totfact> 0.12033499E+01</totfact>
</mgrwt>
</event>
<event>
12    1  0.2588309E-007  0.1118648E+04  0.7818608E-02  0.9187204E-01
         -1   -1    0    0    0  501 -0.00000000000E+00  0.00000000000E+00  0.75551039950E+03  0.75551039950E+03  0.00000000000E+00 0.  1.
          1   -1    0    0  501    0  0.00000000000E+00 -0.00000000000E+00 -0.41408233240E+03  0.41408233240E+03  0.00000000000E+00 0. -1.
         23    2    1    2    0    0  0.18968810682E+02  0.17688015398E+03  0.10098627629E+03  0.22419015887E+03  0.91742000669E+02 0.  0.
        254    2    1    2    0    0 -0.18968810682E+02 -0.17688015398E+03  0.24044179081E+03  0.94540257303E+03  0.89684299946E+03 0.  0.
        -24    2    4    4    0    0  0.81296562339E+02 -0.85507217846E+02  0.56575567802E+03  0.58334331319E+03  0.79305223482E+02 0.  0.
         24    2    4    4    0    0 -0.10026537302E+03 -0.91372936131E+02 -0.32531388721E+03  0.36205925985E+03  0.82798695296E+02 0.  0.
         11    1    3    3    0    0 -0.22058929566E+01  0.14778723626E+03  0.11321990566E+03  0.18618453267E+03  0.00000000000E+00 0.  1.
        -11    1    3    3    0    0  0.21174703638E+02  0.29092917713E+02 -0.12233629379E+02  0.38005626202E+02  0.00000000000E+00 0. -1.
          4    1    6    6  502    0  0.24579711481E+01 -0.46010993838E+02 -0.81357094618E+02  0.93498823633E+02  0.00000000000E+00 0. -1.
          3    1    5    5  503    0  0.41600191130E+02 -0.14927281508E+02  0.84883317278E+02  0.95700455524E+02  0.00000000000E+00 0. -1.
         -4    1    5    5    0  503  0.39696371209E+02 -0.70579936338E+02  0.48087236075E+03  0.48764285766E+03  0.00000000000E+00 0.  1.
         -3    1    6    6    0  502 -0.10272334417E+03 -0.45361942293E+02 -0.24395679259E+03  0.26856043621E+03  0.00000000000E+00 0.  1.
<mgrwt>
<rscale>  0 0.11186483E+04</rscale>
<asrwt>0</asrwt>
<pdfrwt beam="1">  1        1 0.63704974E-01 0.11186483E+04</pdfrwt>
<pdfrwt beam="2">  1       -1 0.11623237E+00 0.11186483E+04</pdfrwt>
<totfact> 0.38157717E+01</totfact>
</mgrwt>
</event>
<event>
12    1  0.2588309E-007  0.2091995E+04  0.7818608E-02  0.8564778E-01
         -1   -1    0    0    0  501 -0.00000000000E+00  0.00000000000E+00  0.16754072753E+04  0.16754072753E+04  0.00000000000E+00 0.  1.
          1   -1    0    0  501    0  0.00000000000E+00 -0.00000000000E+00 -0.65304140793E+03  0.65304140793E+03  0.00000000000E+00 0. -1.
         23    2    1    2    0    0 -0.55460751353E+03  0.21047410685E+03  0.10936286168E+04  0.12473596255E+04  0.89407160235E+02 0.  0.
        254    2    1    2    0    0  0.55460751353E+03 -0.21047410685E+03 -0.71262749381E+02  0.10810890577E+04  0.90099185762E+03 0.  0.
        -24    2    4    4    0    0  0.71337127069E+03 -0.16314938834E+03  0.19073817842E+03  0.76036218968E+03  0.79077898395E+02 0.  0.
         24    2    4    4    0    0 -0.15876375716E+03 -0.47324718511E+02 -0.26200092780E+03  0.32072686801E+03  0.82314507395E+02 0.  0.
         11    1    3    3    0    0 -0.30757531919E+03  0.13138850927E+03  0.70226174888E+03  0.77784129569E+03  0.00000000000E+00 0.  1.
        -11    1    3    3    0    0 -0.24703219434E+03  0.79085597585E+02  0.39136686788E+03  0.46951832985E+03  0.00000000000E+00 0. -1.
          2    1    6    6  502    0  0.79728036920E+01  0.31295573765E+01 -0.40790382091E+01  0.94867423700E+01  0.00000000000E+00 0. -1.
          3    1    5    5  503    0  0.50609791594E+02 -0.31791547308E+02  0.24248206269E+02  0.64498286742E+02  0.00000000000E+00 0. -1.
         -4    1    5    5    0  503  0.66276147910E+03 -0.13135784103E+03  0.16648997215E+03  0.69586390293E+03  0.00000000000E+00 0.  1.
         -1    1    6    6    0  502 -0.16673656085E+03 -0.50454275887E+02 -0.25792188959E+03  0.31124012564E+03  0.00000000000E+00 0.  1.
<mgrwt>
<rscale>  0 0.20919946E+04</rscale>
<asrwt>0</asrwt>
<pdfrwt beam="1">  1        1 0.10046791E+00 0.20919946E+04</pdfrwt>
<pdfrwt beam="2">  1       -1 0.25775496E+00 0.20919946E+04</pdfrwt>
<totfact> 0.17273636E+00</totfact>
</mgrwt>
</event>
<event>
12    1  0.2588309E-007  0.3136762E+04  0.7818608E-02  0.8205721E-01
         -2   -1    0    0    0  501 -0.00000000000E+00  0.00000000000E+00  0.87633327670E+03  0.87633327670E+03  0.00000000000E+00 0.  1.
          2   -1    0    0  501    0  0.00000000000E+00 -0.00000000000E+00 -0.28069437597E+04  0.28069437597E+04  0.00000000000E+00 0. -1.
         23    2    1    2    0    0 -0.32039540691E+03  0.13826560760E+04 -0.61805081804E+03  0.15512757350E+04  0.10039198731E+03 0.  0.
        254    2    1    2    0    0  0.32039540691E+03 -0.13826560760E+04 -0.13125596650E+04  0.21320013014E+04  0.89901370059E+03 0.  0.
        -24    2    4    4    0    0 -0.85803644683E+02 -0.11858476011E+04 -0.75666378903E+03  0.14115987286E+04  0.80461684491E+02 0.  0.
         24    2    4    4    0    0  0.40619905160E+03 -0.19680847492E+03 -0.55589587592E+03  0.72040257275E+03  0.78920191621E+02 0.  0.
         11    1    3    3    0    0 -0.21654753021E+03  0.10391024236E+04 -0.50135034452E+03  0.11738734376E+04  0.00000000000E+00 0. -1.
        -11    1    3    3    0    0 -0.10384787671E+03  0.34355365238E+03 -0.11670047352E+03  0.37740229739E+03  0.00000000000E+00 0.  1.
          2    1    6    6  502    0  0.28615313356E+03 -0.15381122659E+03 -0.44782357829E+03  0.55325172078E+03  0.00000000000E+00 0. -1.
          3    1    5    5  503    0 -0.68557399273E+02 -0.10214892665E+04 -0.61786281936E+03  0.11957821299E+04  0.00000000000E+00 0. -1.
         -4    1    5    5    0  503 -0.17246245410E+02 -0.16435833455E+03 -0.13880096968E+03  0.21581659876E+03  0.00000000000E+00 0.  1.
         -1    1    6    6    0  502  0.12004591803E+03 -0.42997248327E+02 -0.10807229763E+03  0.16715085197E+03  0.00000000000E+00 0.  1.
<mgrwt>
<rscale>  0 0.31367615E+04</rscale>
<asrwt>0</asrwt>
<pdfrwt beam="1">  1        2 0.43183750E+00 0.31367615E+04</pdfrwt>
<pdfrwt beam="2">  1       -2 0.13482050E+00 0.31367615E+04</pdfrwt>
<totfact> 0.76699412E-01</totfact>
</mgrwt>
</event>
<event>
12    1  0.2588309E-007  0.2301375E+04  0.7818608E-02  0.8477379E-01
          2   -1    0    0  501    0  0.00000000000E+00  0.00000000000E+00  0.13881865488E+04  0.13881865488E+04  0.00000000000E+00 0. -1.
         -2   -1    0    0    0  501 -0.00000000000E+00 -0.00000000000E+00 -0.95382088305E+03  0.95382088305E+03  0.00000000000E+00 0.  1.
         23    2    1    2    0    0 -0.37123421121E+03  0.26984787935E+02  0.10977736268E+04  0.11629121319E+04  0.93352409903E+02 0.  0.
        254    2    1    2    0    0  0.37123421121E+03 -0.26984787935E+02 -0.66340796107E+03  0.11790953000E+04  0.90089543522E+03 0.  0.
        -24    2    4    4    0    0  0.59488763049E+03 -0.21389019392E+03 -0.58835786154E+03  0.86728219902E+03  0.79831895466E+02 0.  0.
         24    2    4    4    0    0 -0.22365341928E+03  0.18690540598E+03 -0.75050099536E+02  0.31181310093E+03  0.81488709227E+02 0.  0.
         11    1    3    3    0    0 -0.40902458002E+02  0.27807579412E+02  0.94580183000E+02  0.10673183011E+03  0.00000000000E+00 0.  1.
        -11    1    3    3    0    0 -0.33033175321E+03 -0.82279147610E+00  0.10031934438E+04  0.10561803018E+04  0.00000000000E+00 0. -1.
          4    1    6    6  502    0 -0.30797157523E+02  0.54722101381E+02  0.88376750016E+01  0.63411968826E+02  0.00000000000E+00 0. -1.
          3    1    5    5  503    0  0.36085655941E+03 -0.16967243933E+03 -0.38037326265E+03  0.55108076729E+03  0.00000000000E+00 0. -1.
         -4    1    5    5    0  503  0.23403107108E+03 -0.44217754583E+02 -0.20798459889E+03  0.31620143173E+03  0.00000000000E+00 0.  1.
         -3    1    6    6    0  502 -0.19285626176E+03  0.13218330460E+03 -0.83887774538E+02  0.24840113211E+03  0.00000000000E+00 0.  1.
<mgrwt>
<rscale>  0 0.23013746E+04</rscale>
<asrwt>0</asrwt>
<pdfrwt beam="1">  1        2 0.21356716E+00 0.23013746E+04</pdfrwt>
<pdfrwt beam="2">  1       -2 0.14674167E+00 0.23013746E+04</pdfrwt>
<totfact> 0.42316082E+00</totfact>
</mgrwt>
</event>
<event>
12    1  0.2588309E-007  0.1610941E+04  0.7818608E-02  0.8813855E-01
          2   -1    0    0  501    0  0.00000000000E+00  0.00000000000E+00  0.14017232742E+04  0.14017232742E+04  0.00000000000E+00 0. -1.
         -2   -1    0    0    0  501 -0.00000000000E+00 -0.00000000000E+00 -0.46284651026E+03  0.46284651026E+03  0.00000000000E+00 0.  1.
         23    2    1    2    0    0 -0.53291323228E+03  0.10390814042E+02  0.17174683931E+03  0.56747927909E+03  0.91821964869E+02 0.  0.
        254    2    1    2    0    0  0.53291323228E+03 -0.10390814042E+02  0.76712992466E+03  0.12970905054E+04  0.89991720492E+03 0.  0.
        -24    2    4    4    0    0  0.46394260891E+03  0.34915404696E+03  0.20426067553E+03  0.62090038816E+03  0.81508131995E+02 0.  0.
         24    2    4    4    0    0  0.68970623367E+02 -0.35954486101E+03  0.56286924913E+03  0.67619011723E+03  0.79886350854E+02 0.  0.
         11    1    3    3    0    0 -0.45784437370E+03  0.96768798402E+01  0.17979472182E+03  0.49197688414E+03  0.00000000000E+00 0. -1.
        -11    1    3    3    0    0 -0.75068858578E+02  0.71393420220E+00 -0.80478825187E+01  0.75502394951E+02  0.00000000000E+00 0.  1.
          4    1    6    6  502    0  0.27228188863E+02 -0.14284872771E+03  0.29681934752E+03  0.33052815061E+03  0.00000000000E+00 0. -1.
          3    1    5    5  503    0  0.43770411243E+03  0.30573137616E+03  0.17266811477E+03  0.56113353337E+03  0.00000000000E+00 0. -1.
         -4    1    5    5    0  503  0.26238496474E+02  0.43422670800E+02  0.31592560760E+02  0.59766854794E+02  0.00000000000E+00 0.  1.
         -3    1    6    6    0  502  0.41742434504E+02 -0.21669613330E+03  0.26604990161E+03  0.34566196662E+03  0.00000000000E+00 0.  1.
<mgrwt>
<rscale>  0 0.16109410E+04</rscale>
<asrwt>0</asrwt>
<pdfrwt beam="1">  1        2 0.21564973E+00 0.16109410E+04</pdfrwt>
<pdfrwt beam="2">  1       -2 0.71207156E-01 0.16109410E+04</pdfrwt>
<totfact> 0.24769053E+01</totfact>
</mgrwt>
</event>
<event>
12    1  0.2588309E-007  0.1782201E+04  0.7818608E-02  0.8715823E-01
          3   -1    0    0  501    0  0.00000000000E+00  0.00000000000E+00  0.94343104527E+03  0.94343104527E+03  0.00000000000E+00 0. -1.
         -3   -1    0    0    0  501 -0.00000000000E+00 -0.00000000000E+00 -0.84167217799E+03  0.84167217799E+03  0.00000000000E+00 0.  1.
         23    2    1    2    0    0 -0.51626815536E+03 -0.33426560281E+03  0.26278259637E+03  0.67535344907E+03  0.93708520197E+02 0.  0.
        254    2    1    2    0    0  0.51626815536E+03  0.33426560281E+03 -0.16102372908E+03  0.11097497742E+04  0.90958760904E+03 0.  0.
        -24    2    4    4    0    0  0.56496497207E+03  0.49448497741E+03 -0.36112261076E+03  0.83696427098E+03  0.79992739316E+02 0.  0.
         24    2    4    4    0    0 -0.48696816709E+02 -0.16021937459E+03  0.20009888168E+03  0.27278550321E+03  0.79565949743E+02 0.  0.
         13    1    3    3    0    0 -0.49025508364E+03 -0.28848282733E+03  0.24884404428E+03  0.62088303816E+03  0.00000000000E+00 0. -1.
        -13    1    3    3    0    0 -0.26013071726E+02 -0.45782775480E+02  0.13938552091E+02  0.54470410918E+02  0.00000000000E+00 0.  1.
          2    1    6    6  502    0 -0.16211855833E+01 -0.26598025921E+02  0.88540202272E+02  0.92463239419E+02  0.00000000000E+00 0. -1.
          3    1    5    5  503    0  0.22065566103E+03  0.14879959040E+03 -0.14827434502E+03  0.30465639701E+03  0.00000000000E+00 0. -1.
         -4    1    5    5    0  503  0.34430931104E+03  0.34568538701E+03 -0.21284826575E+03  0.53230787397E+03  0.00000000000E+00 0.  1.
         -3    1    6    6    0  502 -0.47075631126E+02 -0.13362134867E+03  0.11155867941E+03  0.18032226379E+03  0.00000000000E+00 0.  1.
<mgrwt>
<rscale>  0 0.17822005E+04</rscale>
<asrwt>0</asrwt>
<pdfrwt beam="1">  1        3 0.14514324E+00 0.17822005E+04</pdfrwt>
<pdfrwt beam="2">  1       -3 0.12948803E+00 0.17822005E+04</pdfrwt>
<totfact> 0.40820891E-01</totfact>
</mgrwt>
</event>
<event>
12    1  0.2588309E-007  0.1803545E+04  0.7818608E-02  0.8704417E-01
         -1   -1    0    0    0  501 -0.00000000000E+00  0.00000000000E+00  0.74736735583E+03  0.74736735583E+03  0.00000000000E+00 0.  1.
          1   -1    0    0  501    0  0.00000000000E+00 -0.00000000000E+00 -0.10880770171E+04  0.10880770171E+04  0.00000000000E+00 0. -1.
         23    2    1    2    0    0  0.13725474215E+03  0.61962303858E+03 -0.35177125274E+03  0.73131470294E+03  0.91140585328E+02 0.  0.
        254    2    1    2    0    0 -0.13725474215E+03 -0.61962303858E+03  0.11061591429E+02  0.11041296700E+04  0.90344252460E+03 0.  0.
        -24    2    4    4    0    0 -0.64908601176E+02 -0.47060072750E+03 -0.41781331774E+03  0.63764216636E+03  0.79632861377E+02 0.  0.
         24    2    4    4    0    0 -0.72346140969E+02 -0.14902231108E+03  0.42887490917E+03  0.46648750367E+03  0.78963852865E+02 0.  0.
         13    1    3    3    0    0  0.10878899213E+03  0.32703794866E+03 -0.15738874858E+03  0.37889323411E+03  0.00000000000E+00 0.  1.
        -13    1    3    3    0    0  0.28465750019E+02  0.29258508992E+03 -0.19438250417E+03  0.35242146883E+03  0.00000000000E+00 0. -1.
          4    1    6    6  502    0 -0.44928127987E+02 -0.11647658039E+03  0.38757895374E+03  0.40718886999E+03  0.00000000000E+00 0. -1.
          1    1    5    5  503    0 -0.72177096164E+02 -0.35642128283E+03 -0.34956616883E+03  0.50442261097E+03  0.00000000000E+00 0. -1.
         -2    1    5    5    0  503  0.72684949881E+01 -0.11417944467E+03 -0.68247148904E+02  0.13321955539E+03  0.00000000000E+00 0.  1.
         -3    1    6    6    0  502 -0.27418012981E+02 -0.32545730691E+02  0.41295955429E+02  0.59298633685E+02  0.00000000000E+00 0.  1.
<mgrwt>
<rscale>  0 0.18035446E+04</rscale>
<asrwt>0</asrwt>
<pdfrwt beam="1">  1        1 0.16739646E+00 0.18035446E+04</pdfrwt>
<pdfrwt beam="2">  1       -1 0.11497959E+00 0.18035446E+04</pdfrwt>
<totfact> 0.83864342E+00</totfact>
</mgrwt>
</event>
<event>
12    1  0.2588309E-007  0.1277068E+04  0.7818608E-02  0.9047951E-01
          1   -1    0    0  501    0  0.00000000000E+00  0.00000000000E+00  0.57459444421E+03  0.57459444421E+03  0.00000000000E+00 0. -1.
         -1   -1    0    0    0  501 -0.00000000000E+00 -0.00000000000E+00 -0.70958857555E+03  0.70958857555E+03  0.00000000000E+00 0.  1.
         23    2    1    2    0    0 -0.22555516352E+03 -0.15473406999E+03  0.11320067093E+03  0.30983067445E+03  0.91448842101E+02 0.  0.
        254    2    1    2    0    0  0.22555516352E+03  0.15473406999E+03 -0.24819480228E+03  0.97435234531E+03  0.90163411023E+03 0.  0.
        -24    2    4    4    0    0 -0.25712017054E+03  0.28856780162E+03  0.30163264220E+02  0.39621095976E+03  0.81799412571E+02 0.  0.
         24    2    4    4    0    0  0.48267533406E+03 -0.13383373163E+03 -0.27835806650E+03  0.57814138555E+03  0.76663568109E+02 0.  0.
         13    1    3    3    0    0 -0.77310305045E+02 -0.59093121044E+01  0.40998743141E+02  0.87708039397E+02  0.00000000000E+00 0.  1.
        -13    1    3    3    0    0 -0.14824485847E+03 -0.14882475789E+03  0.72201927793E+02  0.22212263505E+03  0.00000000000E+00 0. -1.
          2    1    6    6  502    0  0.39379983924E+03 -0.13501794997E+03 -0.24598520707E+03  0.48354615322E+03  0.00000000000E+00 0. -1.
          3    1    5    5  503    0 -0.13543947528E+03  0.20405063311E+03 -0.54017671205E+00  0.24490978773E+03  0.00000000000E+00 0. -1.
         -4    1    5    5    0  503 -0.12168069526E+03  0.84517168510E+02  0.30703440932E+02  0.15130117203E+03  0.00000000000E+00 0.  1.
         -1    1    6    6    0  502  0.88875494815E+02  0.11842183405E+01 -0.32372859429E+02  0.94595232329E+02  0.00000000000E+00 0.  1.
<mgrwt>
<rscale>  0 0.12770680E+04</rscale>
<asrwt>0</asrwt>
<pdfrwt beam="1">  1        1 0.88399146E-01 0.12770680E+04</pdfrwt>
<pdfrwt beam="2">  1       -1 0.10916747E+00 0.12770680E+04</pdfrwt>
<totfact> 0.27888090E+01</totfact>
</mgrwt>
</event>
<event>
12    1  0.2588309E-007  0.2507049E+04  0.7818608E-02  0.8400478E-01
          1   -1    0    0  501    0  0.00000000000E+00  0.00000000000E+00  0.14203605762E+04  0.14203605762E+04  0.00000000000E+00 0. -1.
         -1   -1    0    0    0  501 -0.00000000000E+00 -0.00000000000E+00 -0.11062853399E+04  0.11062853399E+04  0.00000000000E+00 0.  1.
         23    2    1    2    0    0  0.11813679798E+01 -0.10875662088E+04  0.69159443001E+02  0.10934629786E+04  0.89869922816E+02 0.  0.
        254    2    1    2    0    0 -0.11813679798E+01  0.10875662088E+04  0.24491579333E+03  0.14331829375E+04  0.90068192635E+03 0.  0.
        -24    2    4    4    0    0  0.10084680643E+03 -0.12557877525E+03 -0.27459688323E+02  0.18249669320E+03  0.81307449759E+02 0.  0.
         24    2    4    4    0    0 -0.10202817441E+03  0.12131449840E+04  0.27237548165E+03  0.12506862443E+04  0.88866068115E+02 0.  0.
         11    1    3    3    0    0 -0.28681704432E+02 -0.36219525862E+03 -0.77764788444E+01  0.36341232665E+03  0.00000000000E+00 0.  1.
        -11    1    3    3    0    0  0.29863072411E+02 -0.72537095014E+03  0.76935921845E+02  0.73005065199E+03  0.00000000000E+00 0. -1.
          4    1    6    6  502    0 -0.77633699421E+02  0.63315283419E+03  0.18063392199E+03  0.66297670887E+03  0.00000000000E+00 0. -1.
          3    1    5    5  503    0  0.63386770190E+02 -0.35764179543E+02 -0.42113149151E+02  0.84086125520E+02  0.00000000000E+00 0. -1.
         -4    1    5    5    0  503  0.37460036239E+02 -0.89814595708E+02  0.14653460828E+02  0.98410567682E+02  0.00000000000E+00 0.  1.
         -3    1    6    6    0  502 -0.24394474987E+02  0.57999214983E+03  0.91741559667E+02  0.58770953543E+03  0.00000000000E+00 0.  1.
<mgrwt>
<rscale>  0 0.25070493E+04</rscale>
<asrwt>0</asrwt>
<pdfrwt beam="1">  1        1 0.21851701E+00 0.25070493E+04</pdfrwt>
<pdfrwt beam="2">  1       -1 0.17019774E+00 0.25070493E+04</pdfrwt>
<totfact> 0.16187912E+00</totfact>
</mgrwt>
</event>
<event>
12    1  0.2588309E-007  0.2856273E+04  0.7818608E-02  0.8286008E-01
         -2   -1    0    0    0  501 -0.00000000000E+00  0.00000000000E+00  0.14036617713E+04  0.14036617713E+04  0.00000000000E+00 0.  1.
          2   -1    0    0  501    0  0.00000000000E+00 -0.00000000000E+00 -0.14530376909E+04  0.14530376909E+04  0.00000000000E+00 0. -1.
         23    2    1    2    0    0 -0.95294198517E+03  0.29980065038E+03  0.78495689408E+03  0.12738446482E+04  0.92433788163E+02 0.  0.
        254    2    1    2    0    0  0.95294198517E+03 -0.29980065038E+03 -0.83433281373E+03  0.15828548140E+04  0.90074372668E+03 0.  0.
        -24    2    4    4    0    0  0.17259802433E+03 -0.12362510100E+03  0.17928900575E+03  0.28910337138E+03  0.79768215228E+02 0.  0.
         24    2    4    4    0    0  0.78034396084E+03 -0.17617554938E+03 -0.10136218195E+04  0.12937514426E+04  0.79931727195E+02 0.  0.
         13    1    3    3    0    0 -0.42444655909E+03  0.11892211455E+03  0.40209639072E+03  0.59663963855E+03  0.00000000000E+00 0.  1.
        -13    1    3    3    0    0 -0.52849542607E+03  0.18087853583E+03  0.38286050336E+03  0.67720500968E+03  0.00000000000E+00 0. -1.
          2    1    6    6  502    0  0.23085713495E+03 -0.15298443057E+02 -0.29832031381E+03  0.37752360026E+03  0.00000000000E+00 0. -1.
          3    1    5    5  503    0  0.16885439442E+02 -0.53115980040E+02  0.39959715619E+02  0.68579911586E+02  0.00000000000E+00 0. -1.
         -4    1    5    5    0  503  0.15571258489E+03 -0.70509120956E+02  0.13932929013E+03  0.22052345979E+03  0.00000000000E+00 0.  1.
         -1    1    6    6    0  502  0.54948682588E+03 -0.16087710633E+03 -0.71530150567E+03  0.91622784239E+03  0.00000000000E+00 0.  1.
<mgrwt>
<rscale>  0 0.28562727E+04</rscale>
<asrwt>0</asrwt>
<pdfrwt beam="1">  1        2 0.22354426E+00 0.28562727E+04</pdfrwt>
<pdfrwt beam="2">  1       -2 0.21594796E+00 0.28562727E+04</pdfrwt>
<totfact> 0.12261089E+00</totfact>
</mgrwt>
</event>
<event>
12    1  0.2588309E-007  0.2259334E+04  0.7818608E-02  0.8494130E-01
          2   -1    0    0  501    0  0.00000000000E+00  0.00000000000E+00  0.21525124351E+04  0.21525124351E+04  0.00000000000E+00 0. -1.
         -2   -1    0    0    0  501 -0.00000000000E+00 -0.00000000000E+00 -0.59286410509E+03  0.59286410509E+03  0.00000000000E+00 0.  1.
         23    2    1    2    0    0 -0.88583360860E+03  0.12520817391E+03  0.10402782985E+04  0.13749471251E+04  0.89007805039E+02 0.  0.
        254    2    1    2    0    0  0.88583360860E+03 -0.12520817391E+03  0.51937003151E+03  0.13704294152E+04  0.89886221601E+03 0.  0.
        -24    2    4    4    0    0  0.21549398970E+03 -0.45930347367E+03  0.17635086703E+03  0.54304909904E+03  0.80033462698E+02 0.  0.
         24    2    4    4    0    0  0.67033961890E+03  0.33409529976E+03  0.34301916448E+03  0.82738031612E+03  0.76949115076E+02 0.  0.
         11    1    3    3    0    0 -0.41619383121E+03  0.26899068934E+02  0.43625291474E+03  0.60353746418E+03  0.00000000000E+00 0. -1.
        -11    1    3    3    0    0 -0.46963977739E+03  0.98309104973E+02  0.60402538379E+03  0.77140966087E+03  0.00000000000E+00 0.  1.
          2    1    6    6  502    0  0.38300961039E+03  0.15635408551E+03  0.21356168883E+03  0.46556584565E+03  0.00000000000E+00 0. -1.
          1    1    5    5  503    0  0.29982988325E+02 -0.89652609673E+02  0.29466383522E+01  0.94579345989E+02  0.00000000000E+00 0. -1.
         -2    1    5    5    0  503  0.18551100137E+03 -0.36965086399E+03  0.17340422868E+03  0.44846975306E+03  0.00000000000E+00 0.  1.
         -1    1    6    6    0  502  0.28733000852E+03  0.17774121425E+03  0.12945747566E+03  0.36181447047E+03  0.00000000000E+00 0.  1.
<mgrwt>
<rscale>  0 0.22593338E+04</rscale>
<asrwt>0</asrwt>
<pdfrwt beam="1">  1        2 0.33115576E+00 0.22593338E+04</pdfrwt>
<pdfrwt beam="2">  1       -2 0.91209863E-01 0.22593338E+04</pdfrwt>
<totfact> 0.51173857E+00</totfact>
</mgrwt>
</event>
<event>
12    1  0.2588309E-007  0.1964842E+04  0.7818608E-02  0.8623237E-01
          1   -1    0    0  501    0  0.00000000000E+00  0.00000000000E+00  0.12489498630E+04  0.12489498630E+04  0.00000000000E+00 0. -1.
         -1   -1    0    0    0  501 -0.00000000000E+00 -0.00000000000E+00 -0.77276964963E+03  0.77276964963E+03  0.00000000000E+00 0.  1.
         23    2    1    2    0    0  0.72002694237E+03 -0.25454313826E+03  0.33655773689E+03  0.83954768387E+03  0.91313724351E+02 0.  0.
        254    2    1    2    0    0 -0.72002694237E+03  0.25454313826E+03  0.13962247645E+03  0.11821718287E+04  0.89151824979E+03 0.  0.
        -24    2    4    4    0    0  0.14094832941E+03 -0.14194387218E+03 -0.24645513167E+02  0.21686949348E+03  0.80065482378E+02 0.  0.
         24    2    4    4    0    0 -0.86097527178E+03  0.39648701044E+03  0.16426798961E+03  0.96530233524E+03  0.79650850191E+02 0.  0.
         11    1    3    3    0    0  0.73188010296E+02 -0.35600314891E+02  0.81457507032E+01  0.81793768258E+02  0.00000000000E+00 0.  1.
        -11    1    3    3    0    0  0.64683893208E+03 -0.21894282337E+03  0.32841198619E+03  0.75775391561E+03  0.00000000000E+00 0. -1.
          2    1    6    6  502    0 -0.31750244089E+03  0.12694937778E+03  0.24824915207E+02  0.34284139321E+03  0.00000000000E+00 0. -1.
          3    1    5    5  503    0  0.51133957562E+02 -0.26946635280E+02  0.24673373491E+02  0.62845669129E+02  0.00000000000E+00 0. -1.
         -4    1    5    5    0  503  0.89814371850E+02 -0.11499723690E+03 -0.49318886659E+02  0.15402382435E+03  0.00000000000E+00 0.  1.
         -1    1    6    6    0  502 -0.54347283090E+03  0.26953763267E+03  0.13944307441E+03  0.62246094203E+03  0.00000000000E+00 0.  1.
<mgrwt>
<rscale>  0 0.19648415E+04</rscale>
<asrwt>0</asrwt>
<pdfrwt beam="1">  1        1 0.19214613E+00 0.19648415E+04</pdfrwt>
<pdfrwt beam="2">  1       -1 0.11888764E+00 0.19648415E+04</pdfrwt>
<totfact> 0.58017505E+00</totfact>
</mgrwt>
</event>
<event>
12    1  0.2588309E-007  0.2295329E+04  0.7818608E-02  0.8479765E-01
          2   -1    0    0  501    0  0.00000000000E+00  0.00000000000E+00  0.87448988770E+03  0.87448988770E+03  0.00000000000E+00 0. -1.
         -2   -1    0    0    0  501 -0.00000000000E+00 -0.00000000000E+00 -0.15061737008E+04  0.15061737008E+04  0.00000000000E+00 0.  1.
         23    2    1    2    0    0  0.89048630728E+03  0.30886950292E+03 -0.35689290511E+02  0.94768330421E+03  0.91998295309E+02 0.  0.
        254    2    1    2    0    0 -0.89048630728E+03 -0.30886950292E+03 -0.59599452255E+03  0.14329802842E+04  0.89992043584E+03 0.  0.
        -24    2    4    4    0    0 -0.66559020670E+03  0.10131676430E+03 -0.90988710193E+01  0.67815911070E+03  0.80880034540E+02 0.  0.
         24    2    4    4    0    0 -0.22489610058E+03 -0.41018626722E+03 -0.58689565153E+03  0.75482117355E+03  0.80482720988E+02 0.  0.
         13    1    3    3    0    0  0.40827599131E+02  0.30376319716E+02  0.11974946106E+02  0.52278226677E+02  0.00000000000E+00 0. -1.
        -13    1    3    3    0    0  0.84965870815E+03  0.27849318321E+03 -0.47664236617E+02  0.89540507754E+03  0.00000000000E+00 0.  1.
          4    1    6    6  502    0 -0.22970676657E+03 -0.38625391889E+03 -0.56581510128E+03  0.72256765586E+03  0.00000000000E+00 0. -1.
          3    1    5    5  503    0 -0.54578478284E+03  0.11125197305E+03  0.56827062124E+01  0.55703709377E+03  0.00000000000E+00 0. -1.
         -4    1    5    5    0  503 -0.11980542386E+03 -0.99352087512E+01 -0.14781577232E+02  0.12112201693E+03  0.00000000000E+00 0.  1.
         -3    1    6    6    0  502  0.48106659936E+01 -0.23932348333E+02 -0.21080550251E+02  0.32253517683E+02  0.00000000000E+00 0.  1.
<mgrwt>
<rscale>  0 0.22953289E+04</rscale>
<asrwt>0</asrwt>
<pdfrwt beam="1">  1        2 0.13453691E+00 0.22953289E+04</pdfrwt>
<pdfrwt beam="2">  1       -2 0.23171903E+00 0.22953289E+04</pdfrwt>
<totfact> 0.23082399E+00</totfact>
</mgrwt>
</event>
<event>
12    1  0.2749001E-007  0.3426592E+04  0.7818608E-02  0.8131410E-01
          2   -1    0    0  501    0  0.00000000000E+00  0.00000000000E+00  0.28086850579E+04  0.28086850579E+04  0.00000000000E+00 0. -1.
         -2   -1    0    0    0  501 -0.00000000000E+00 -0.00000000000E+00 -0.10451094628E+04  0.10451094628E+04  0.00000000000E+00 0.  1.
         23    2    1    2    0    0  0.12022275927E+04  0.95939889554E+03  0.12798208230E+04  0.20029631564E+04  0.90125697473E+02 0.  0.
        254    2    1    2    0    0 -0.12022275927E+04 -0.95939889554E+03  0.48375477204E+03  0.18508313643E+04  0.90871372505E+03 0.  0.
        -24    2    4    4    0    0 -0.10475630724E+04 -0.95934076416E+03  0.68974255936E+03  0.15810247065E+04  0.78557188802E+02 0.  0.
         24    2    4    4    0    0 -0.15466452032E+03 -0.58131386391E-01 -0.20598778732E+03  0.26980665780E+03  0.80271706348E+02 0.  0.
         11    1    3    3    0    0  0.95977903393E+03  0.74541743180E+03  0.96683535412E+03  0.15529306306E+04  0.00000000000E+00 0.  1.
        -11    1    3    3    0    0  0.24244855875E+03  0.21398146375E+03  0.31298546892E+03  0.45003252574E+03  0.00000000000E+00 0. -1.
          2    1    6    6  502    0 -0.95751227592E+01  0.25059521900E+02 -0.36329973467E+02  0.45161151290E+02  0.00000000000E+00 0. -1.
          1    1    5    5  503    0 -0.97345615746E+02 -0.88511598579E+02  0.39362797337E+02  0.13733135768E+03  0.00000000000E+00 0. -1.
         -2    1    5    5    0  503 -0.95021745661E+03 -0.87082916558E+03  0.65037976202E+03  0.14436933488E+04  0.00000000000E+00 0.  1.
         -1    1    6    6    0  502 -0.14508939756E+03 -0.25117653287E+02 -0.16965781386E+03  0.22464550651E+03  0.00000000000E+00 0.  1.
<mgrwt>
<rscale>  0 0.34265921E+04</rscale>
<asrwt>0</asrwt>
<pdfrwt beam="1">  1        2 0.43210539E+00 0.34265921E+04</pdfrwt>
<pdfrwt beam="2">  1       -2 0.16078607E+00 0.34265921E+04</pdfrwt>
<totfact> 0.46916882E-01</totfact>
</mgrwt>
</event>
<event>
12    1  0.2588309E-007  0.2402214E+04  0.7818608E-02  0.8438675E-01
          2   -1    0    0  501    0  0.00000000000E+00  0.00000000000E+00  0.25163822476E+04  0.25163822476E+04  0.00000000000E+00 0. -1.
         -2   -1    0    0    0  501 -0.00000000000E+00 -0.00000000000E+00 -0.57330640710E+03  0.57330640710E+03  0.00000000000E+00 0.  1.
         23    2    1    2    0    0 -0.65921878046E+03  0.48253749984E+03  0.28349270290E+02  0.82240048815E+03  0.90150110998E+02 0.  0.
        254    2    1    2    0    0  0.65921878046E+03 -0.48253749984E+03  0.19147265702E+04  0.22672881665E+04  0.89833510018E+03 0.  0.
        -24    2    4    4    0    0  0.72916701088E+03 -0.56705136831E+03  0.10866484277E+04  0.14285174309E+04  0.81396933132E+02 0.  0.
         24    2    4    4    0    0 -0.69948230416E+02  0.84513868467E+02  0.82807814242E+03  0.83877073564E+03  0.76076199322E+02 0.  0.
         13    1    3    3    0    0 -0.24419043396E+03  0.18164313108E+03 -0.32962539439E+02  0.30612044053E+03  0.00000000000E+00 0.  1.
        -13    1    3    3    0    0 -0.41502834650E+03  0.30089436876E+03  0.61311809729E+02  0.51628004762E+03  0.00000000000E+00 0. -1.
          2    1    6    6  502    0 -0.10212327379E+01 -0.10846785122E+02  0.27289041157E+02  0.29383455057E+02  0.00000000000E+00 0. -1.
          3    1    5    5  503    0  0.50268068350E+03 -0.38040177827E+03  0.68300821263E+03  0.92945876778E+03  0.00000000000E+00 0. -1.
         -4    1    5    5    0  503  0.22648632738E+03 -0.18664959004E+03  0.40364021511E+03  0.49905866309E+03  0.00000000000E+00 0.  1.
         -1    1    6    6    0  502 -0.68926997678E+02  0.95360653589E+02  0.80078910127E+03  0.80938728058E+03  0.00000000000E+00 0.  1.
<mgrwt>
<rscale>  0 0.24022140E+04</rscale>
<asrwt>0</asrwt>
<pdfrwt beam="1">  1        2 0.38713572E+00 0.24022140E+04</pdfrwt>
<pdfrwt beam="2">  1       -2 0.88200987E-01 0.24022140E+04</pdfrwt>
<totfact> 0.33896499E+00</totfact>
</mgrwt>
</event>
<event>
12    1  0.2588309E-007  0.3821357E+04  0.7818608E-02  0.8041587E-01
         -2   -1    0    0    0  501 -0.00000000000E+00  0.00000000000E+00  0.20251540384E+04  0.20251540384E+04  0.00000000000E+00 0.  1.
          2   -1    0    0  501    0  0.00000000000E+00 -0.00000000000E+00 -0.18026742385E+04  0.18026742385E+04  0.00000000000E+00 0. -1.
         23    2    1    2    0    0 -0.14856062439E+04  0.66898784301E+03  0.87921747404E+03  0.18532855567E+04  0.84103162339E+02 0.  0.
        254    2    1    2    0    0  0.14856062439E+04 -0.66898784301E+03 -0.65673767413E+03  0.19745427202E+04  0.90163403616E+03 0.  0.
        -24    2    4    4    0    0  0.16150905083E+03  0.83019170419E+02  0.15070877615E+03  0.24907607242E+03  0.79676837838E+02 0.  0.
         24    2    4    4    0    0  0.13240971931E+04 -0.75200701343E+03 -0.80744645028E+03  0.17254666478E+04  0.80730771686E+02 0.  0.
         13    1    3    3    0    0 -0.52357617987E+03  0.19302138284E+03  0.29113052448E+03  0.62940150353E+03  0.00000000000E+00 0. -1.
        -13    1    3    3    0    0 -0.96203006406E+03  0.47596646017E+03  0.58808694957E+03  0.12238840532E+04  0.00000000000E+00 0.  1.
          4    1    6    6  502    0  0.82866291796E+03 -0.44552510712E+03 -0.53537423816E+03  0.10824973106E+04  0.00000000000E+00 0. -1.
          3    1    5    5  503    0  0.11667648523E+03  0.79070308810E+02  0.14741020091E+03  0.20394921739E+03  0.00000000000E+00 0. -1.
         -4    1    5    5    0  503  0.44832565604E+02  0.39488616083E+01  0.32985752352E+01  0.45126855033E+02  0.00000000000E+00 0.  1.
         -3    1    6    6    0  502  0.49543427514E+03 -0.30648190632E+03 -0.27207221213E+03  0.64296933713E+03  0.00000000000E+00 0.  1.
<mgrwt>
<rscale>  0 0.38213574E+04</rscale>
<asrwt>0</asrwt>
<pdfrwt beam="1">  1        2 0.27733450E+00 0.38213574E+04</pdfrwt>
<pdfrwt beam="2">  1       -2 0.31156216E+00 0.38213574E+04</pdfrwt>
<totfact> 0.18576825E-01</totfact>
</mgrwt>
</event>
<event>
12    1  0.2588309E-007  0.2816999E+04  0.7818608E-02  0.8298010E-01
          1   -1    0    0  501    0  0.00000000000E+00  0.00000000000E+00  0.22359845707E+04  0.22359845707E+04  0.00000000000E+00 0. -1.
         -1   -1    0    0    0  501 -0.00000000000E+00 -0.00000000000E+00 -0.88724689540E+03  0.88724689540E+03  0.00000000000E+00 0.  1.
         23    2    1    2    0    0  0.24213988644E+03  0.11301472318E+04  0.43225387172E+02  0.11601389244E+04  0.90495302292E+02 0.  0.
        254    2    1    2    0    0 -0.24213988644E+03 -0.11301472318E+04  0.13055122881E+04  0.19630925417E+04  0.90194539904E+03 0.  0.
        -24    2    4    4    0    0 -0.18639297667E+03  0.57720348150E+02  0.44636773053E+03  0.49390098557E+03  0.81363704086E+02 0.  0.
         24    2    4    4    0    0 -0.55746909764E+02 -0.11878675799E+04  0.85914455761E+03  0.14691915562E+04  0.79103428974E+02 0.  0.
         13    1    3    3    0    0  0.72179393323E+01  0.13825845166E+03 -0.14329422336E+02  0.13918631559E+03  0.00000000000E+00 0.  1.
        -13    1    3    3    0    0  0.23492194710E+03  0.99188878009E+03  0.57554809508E+02  0.10209526088E+04  0.00000000000E+00 0. -1.
          4    1    6    6  502    0  0.59744236640E+01 -0.13298317648E+03  0.12410695854E+03  0.18199658272E+03  0.00000000000E+00 0. -1.
          1    1    5    5  503    0 -0.67509873042E+02  0.38044739836E+02  0.26542690710E+03  0.27650755541E+03  0.00000000000E+00 0. -1.
         -2    1    5    5    0  503 -0.11888310363E+03  0.19675608314E+02  0.18094082343E+03  0.21739343016E+03  0.00000000000E+00 0.  1.
         -3    1    6    6    0  502 -0.61721333428E+02 -0.10548844034E+04  0.73503759908E+03  0.12871949734E+04  0.00000000000E+00 0.  1.
<mgrwt>
<rscale>  0 0.28169987E+04</rscale>
<asrwt>0</asrwt>
<pdfrwt beam="1">  1        1 0.34399762E+00 0.28169987E+04</pdfrwt>
<pdfrwt beam="2">  1       -1 0.13649952E+00 0.28169987E+04</pdfrwt>
<totfact> 0.79662600E-01</totfact>
</mgrwt>
</event>
<event>
12    1  0.2588309E-007  0.2928491E+04  0.7818608E-02  0.8264451E-01
         -2   -1    0    0    0  501 -0.00000000000E+00  0.00000000000E+00  0.97450509407E+03  0.97450509407E+03  0.00000000000E+00 0.  1.
          2   -1    0    0  501    0  0.00000000000E+00 -0.00000000000E+00 -0.22001061142E+04  0.22001061142E+04  0.00000000000E+00 0. -1.
         23    2    1    2    0    0 -0.66478507436E+02  0.13218735961E+04 -0.52021301130E+03  0.14250744775E+04  0.91904804695E+02 0.  0.
        254    2    1    2    0    0  0.66478507436E+02 -0.13218735961E+04 -0.70538800888E+03  0.17495367308E+04  0.90085366923E+03 0.  0.
        -24    2    4    4    0    0 -0.21452547064E+02 -0.10651608770E+04 -0.90745359112E+03  0.14015907539E+04  0.77179761458E+02 0.  0.
         24    2    4    4    0    0  0.87931054500E+02 -0.25671271908E+03  0.20206558225E+03  0.34794597694E+03  0.81256463482E+02 0.  0.
         13    1    3    3    0    0 -0.42809833515E+02  0.12133019237E+04 -0.49523854013E+03  0.13111809377E+04  0.00000000000E+00 0. -1.
        -13    1    3    3    0    0 -0.23668673921E+02  0.10857167246E+03 -0.24974471166E+02  0.11389353974E+03  0.00000000000E+00 0.  1.
          2    1    6    6  502    0  0.45135552348E+02 -0.20145666211E+03  0.18203147124E+03  0.27524073339E+03  0.00000000000E+00 0. -1.
          1    1    5    5  503    0 -0.41333090277E+02 -0.73388201077E+03 -0.65615404038E+03  0.98530673132E+03  0.00000000000E+00 0. -1.
         -2    1    5    5    0  503  0.19880543213E+02 -0.33127886628E+03 -0.25129955074E+03  0.41628402257E+03  0.00000000000E+00 0.  1.
         -1    1    6    6    0  502  0.42795502152E+02 -0.55256056972E+02  0.20034111008E+02  0.72705243556E+02  0.00000000000E+00 0.  1.
<mgrwt>
<rscale>  0 0.29284908E+04</rscale>
<asrwt>0</asrwt>
<pdfrwt beam="1">  1        2 0.33847786E+00 0.29284908E+04</pdfrwt>
<pdfrwt beam="2">  1       -2 0.14992386E+00 0.29284908E+04</pdfrwt>
<totfact> 0.13337694E+00</totfact>
</mgrwt>
</event>
<event>
12    1  0.2588309E-007  0.2447723E+04  0.7818608E-02  0.8421850E-01
         -1   -1    0    0    0  501 -0.00000000000E+00  0.00000000000E+00  0.13066107904E+04  0.13066107904E+04  0.00000000000E+00 0.  1.
          1   -1    0    0  501    0  0.00000000000E+00 -0.00000000000E+00 -0.11463529990E+04  0.11463529990E+04  0.00000000000E+00 0. -1.
         23    2    1    2    0    0 -0.67380021130E+02 -0.55810661809E+03 -0.82645767741E+03  0.10036793932E+04  0.91197408651E+02 0.  0.
        254    2    1    2    0    0  0.67380021130E+02  0.55810661809E+03  0.98671546880E+03  0.14492843962E+04  0.90044143640E+03 0.  0.
        -24    2    4    4    0    0  0.96710315152E+02  0.79720320583E+03  0.77570880573E+03  0.11193751113E+04  0.79941554641E+02 0.  0.
         24    2    4    4    0    0 -0.29330294022E+02 -0.23909658774E+03  0.21100666308E+03  0.32990928490E+03  0.79302458867E+02 0.  0.
         11    1    3    3    0    0 -0.76763869194E+02 -0.33723277001E+03 -0.45684195385E+03  0.57299494202E+03  0.00000000000E+00 0.  1.
        -11    1    3    3    0    0  0.93838480646E+01 -0.22087384808E+03 -0.36961572356E+03  0.43068445117E+03  0.00000000000E+00 0. -1.
          2    1    6    6  502    0 -0.54984740904E+02 -0.15916379197E+03  0.12494741154E+03  0.20968617040E+03  0.00000000000E+00 0. -1.
          1    1    5    5  503    0  0.52911069469E+02  0.66238648535E+03  0.62025367356E+03  0.90899398063E+03  0.00000000000E+00 0. -1.
         -2    1    5    5    0  503  0.43799245683E+02  0.13481672048E+03  0.15545513216E+03  0.21038113071E+03  0.00000000000E+00 0.  1.
         -1    1    6    6    0  502  0.25654446882E+02 -0.79932795768E+02  0.86059251531E+02  0.12022311449E+03  0.00000000000E+00 0.  1.
<mgrwt>
<rscale>  0 0.24477232E+04</rscale>
<asrwt>0</asrwt>
<pdfrwt beam="1">  1        1 0.17636200E+00 0.24477232E+04</pdfrwt>
<pdfrwt beam="2">  1       -1 0.20101704E+00 0.24477232E+04</pdfrwt>
<totfact> 0.15469926E+00</totfact>
</mgrwt>
</event>
<event>
12    1  0.2588309E-007  0.2444098E+04  0.7818608E-02  0.8423176E-01
          1   -1    0    0  501    0  0.00000000000E+00  0.00000000000E+00  0.25421778197E+04  0.25421778197E+04  0.00000000000E+00 0. -1.
         -1   -1    0    0    0  501 -0.00000000000E+00 -0.00000000000E+00 -0.58745037983E+03  0.58745037983E+03  0.00000000000E+00 0.  1.
         23    2    1    2    0    0  0.82990545466E+03  0.59916146343E+03  0.11596934375E+04  0.15497028904E+04  0.94618478940E+02 0.  0.
        254    2    1    2    0    0 -0.82990545466E+03 -0.59916146343E+03  0.79503400230E+03  0.15799253091E+04  0.90351944889E+03 0.  0.
        -24    2    4    4    0    0 -0.64547774337E+03 -0.71006944115E+03  0.90828836639E+03  0.13233570415E+04  0.73796845582E+02 0.  0.
         24    2    4    4    0    0 -0.18442771129E+03  0.11090797772E+03 -0.11325436409E+03  0.25656826755E+03  0.81771417439E+02 0.  0.
         11    1    3    3    0    0  0.77282633647E+03  0.56871126611E+03  0.11152427215E+04  0.14712101748E+04  0.00000000000E+00 0. -1.
        -11    1    3    3    0    0  0.57079118194E+02  0.30450197317E+02  0.44450716044E+02  0.78492715632E+02  0.00000000000E+00 0.  1.
          4    1    6    6  502    0 -0.93224695631E+02  0.28530856285E+02 -0.87500197911E+02  0.13100052775E+03  0.00000000000E+00 0. -1.
          3    1    5    5  503    0 -0.62257997597E+03 -0.66728386731E+03  0.87642268510E+03  0.12653024575E+04  0.00000000000E+00 0. -1.
         -4    1    5    5    0  503 -0.22897767395E+02 -0.42785573846E+02  0.31865681293E+02  0.58054584016E+02  0.00000000000E+00 0.  1.
         -3    1    6    6    0  502 -0.91203015661E+02  0.82377121437E+02 -0.25754166183E+02  0.12556773980E+03  0.00000000000E+00 0.  1.
<mgrwt>
<rscale>  0 0.24440976E+04</rscale>
<asrwt>0</asrwt>
<pdfrwt beam="1">  1        1 0.39110427E+00 0.24440976E+04</pdfrwt>
<pdfrwt beam="2">  1       -1 0.90376983E-01 0.24440976E+04</pdfrwt>
<totfact> 0.13525526E+00</totfact>
</mgrwt>
</event>
<event>
12    1  0.2588309E-007  0.2319933E+04  0.7818608E-02  0.8470103E-01
          2   -1    0    0  501    0  0.00000000000E+00  0.00000000000E+00  0.12940029935E+04  0.12940029935E+04  0.00000000000E+00 0. -1.
         -2   -1    0    0    0  501 -0.00000000000E+00 -0.00000000000E+00 -0.10398140618E+04  0.10398140618E+04  0.00000000000E+00 0.  1.
         23    2    1    2    0    0  0.64597301833E+03  0.40446957266E+03  0.73384776118E+03  0.10617827435E+04  0.89293237410E+02 0.  0.
        254    2    1    2    0    0 -0.64597301833E+03 -0.40446957266E+03 -0.47965882939E+03  0.12720343118E+04  0.89839964498E+03 0.  0.
        -24    2    4    4    0    0 -0.41696405612E+03  0.23145540272E+03 -0.10154822745E+03  0.49339538996E+03  0.75474106726E+02 0.  0.
         24    2    4    4    0    0 -0.22900896221E+03 -0.63592497538E+03 -0.37811060194E+03  0.77863892182E+03  0.80406866526E+02 0.  0.
         11    1    3    3    0    0  0.63501053907E+03  0.40555988651E+03  0.73221557615E+03  0.10506459233E+04  0.00000000000E+00 0. -1.
        -11    1    3    3    0    0  0.10962479264E+02 -0.10903138561E+01  0.16321850298E+01  0.11136820187E+02  0.00000000000E+00 0.  1.
          4    1    6    6  502    0 -0.49586831553E+02 -0.21066542872E+03 -0.89000964715E+02  0.23400843669E+03  0.00000000000E+00 0. -1.
          3    1    5    5  503    0 -0.38133264762E+03  0.18564110254E+03 -0.97711464307E+02  0.43522952261E+03  0.00000000000E+00 0. -1.
         -4    1    5    5    0  503 -0.35631408501E+02  0.45814300183E+02 -0.38367631468E+01  0.58165867349E+02  0.00000000000E+00 0.  1.
         -3    1    6    6    0  502 -0.17942213066E+03 -0.42525954666E+03 -0.28910963723E+03  0.54463048513E+03  0.00000000000E+00 0.  1.
<mgrwt>
<rscale>  0 0.23199332E+04</rscale>
<asrwt>0</asrwt>
<pdfrwt beam="1">  1        2 0.19907738E+00 0.23199332E+04</pdfrwt>
<pdfrwt beam="2">  1       -2 0.15997139E+00 0.23199332E+04</pdfrwt>
<totfact> 0.38019099E+00</totfact>
</mgrwt>
</event>
<event>
12    1  0.2588309E-007  0.2032698E+04  0.7818608E-02  0.8591484E-01
          2   -1    0    0  501    0  0.00000000000E+00  0.00000000000E+00  0.20463189568E+04  0.20463189568E+04  0.00000000000E+00 0. -1.
         -2   -1    0    0    0  501 -0.00000000000E+00 -0.00000000000E+00 -0.50479168494E+03  0.50479168494E+03  0.00000000000E+00 0.  1.
         23    2    1    2    0    0 -0.47375360980E+03  0.28946175590E+03  0.13704218868E+04  0.14809419952E+04  0.83081011093E+02 0.  0.
        254    2    1    2    0    0  0.47375360980E+03 -0.28946175590E+03  0.17110538507E+03  0.10701686466E+04  0.89875096014E+03 0.  0.
        -24    2    4    4    0    0  0.20020678805E+03 -0.50330189663E+00  0.50207691291E+03  0.54653297667E+03  0.80833512960E+02 0.  0.
         24    2    4    4    0    0  0.27354682174E+03 -0.28895845400E+03 -0.33097152783E+03  0.52363566989E+03  0.79544394614E+02 0.  0.
         11    1    3    3    0    0 -0.20324226599E+03  0.16057941596E+03  0.56353618436E+03  0.62021463914E+03  0.00000000000E+00 0.  1.
        -11    1    3    3    0    0 -0.27051134380E+03  0.12888233994E+03  0.80688570243E+03  0.86072735605E+03  0.00000000000E+00 0. -1.
          4    1    6    6  502    0  0.25023659284E+03 -0.25459700209E+03 -0.32286179508E+03  0.48132912294E+03  0.00000000000E+00 0. -1.
          3    1    5    5  503    0  0.10856451837E+03  0.39508974228E+02  0.25283425859E+03  0.27797909276E+03  0.00000000000E+00 0. -1.
         -4    1    5    5    0  503  0.91642269688E+02 -0.40012276124E+02  0.24924265431E+03  0.26855388391E+03  0.00000000000E+00 0.  1.
         -3    1    6    6    0  502  0.23310228898E+02 -0.34361451918E+02 -0.81097327586E+01  0.42306546948E+02  0.00000000000E+00 0.  1.
<mgrwt>
<rscale>  0 0.20326975E+04</rscale>
<asrwt>0</asrwt>
<pdfrwt beam="1">  1        2 0.31481830E+00 0.20326975E+04</pdfrwt>
<pdfrwt beam="2">  1       -2 0.77660261E-01 0.20326975E+04</pdfrwt>
<totfact> 0.86185774E+00</totfact>
</mgrwt>
</event>
<event>
12    1  0.2588309E-007  0.1927780E+04  0.7818608E-02  0.8641151E-01
          2   -1    0    0  501    0  0.00000000000E+00  0.00000000000E+00  0.10066359158E+04  0.10066359158E+04  0.00000000000E+00 0. -1.
         -2   -1    0    0    0  501 -0.00000000000E+00 -0.00000000000E+00 -0.92295910110E+03  0.92295910110E+03  0.00000000000E+00 0.  1.
         23    2    1    2    0    0  0.21871519047E+03  0.49929564749E+03 -0.48366328151E+03  0.73447449512E+03  0.91597685391E+02 0.  0.
        254    2    1    2    0    0 -0.21871519047E+03 -0.49929564749E+03  0.56734009619E+03  0.11951205218E+04  0.89961424992E+03 0.  0.
        -24    2    4    4    0    0 -0.13268881701E+03  0.13819242342E+03 -0.12817895818E+03  0.24450000974E+03  0.81528776477E+02 0.  0.
         24    2    4    4    0    0 -0.86026373463E+02 -0.63748807090E+03  0.69551905437E+03  0.95062051202E+03  0.78364694964E+02 0.  0.
         13    1    3    3    0    0  0.16555051862E+02  0.11568987245E+03 -0.76644225856E+02  0.13975891272E+03  0.00000000000E+00 0.  1.
        -13    1    3    3    0    0  0.20216013861E+03  0.38360577504E+03 -0.40701905565E+03  0.59471558240E+03  0.00000000000E+00 0. -1.
          4    1    6    6  502    0 -0.90794119773E+02 -0.52860521947E+03  0.54363376550E+03  0.76367841480E+03  0.00000000000E+00 0. -1.
          3    1    5    5  503    0 -0.11405104249E+03  0.13751856631E+03 -0.13574019514E+03  0.22437557119E+03  0.00000000000E+00 0. -1.
         -4    1    5    5    0  503 -0.18637774523E+02  0.67385710854E+00  0.75612369577E+01  0.20124438548E+02  0.00000000000E+00 0.  1.
         -3    1    6    6    0  502  0.47677463096E+01 -0.10888285144E+03  0.15188528886E+03  0.18694209722E+03  0.00000000000E+00 0.  1.
<mgrwt>
<rscale>  0 0.19277798E+04</rscale>
<asrwt>0</asrwt>
<pdfrwt beam="1">  1        2 0.15486706E+00 0.19277798E+04</pdfrwt>
<pdfrwt beam="2">  1       -2 0.14199371E+00 0.19277798E+04</pdfrwt>
<totfact> 0.80679765E+00</totfact>
</mgrwt>
</event>
<event>
12    1  0.2588309E-007  0.2179382E+04  0.7818608E-02  0.8527059E-01
         -2   -1    0    0    0  501 -0.00000000000E+00  0.00000000000E+00  0.30839653134E+03  0.30839653134E+03  0.00000000000E+00 0.  1.
          2   -1    0    0  501    0  0.00000000000E+00 -0.00000000000E+00 -0.38503248390E+04  0.38503248390E+04  0.00000000000E+00 0. -1.
         23    2    1    2    0    0  0.24909368985E+03 -0.58428803465E+03 -0.25317443629E+03  0.69005022621E+03  0.92907727028E+02 0.  0.
        254    2    1    2    0    0 -0.24909368985E+03  0.58428803465E+03 -0.32887538714E+04  0.34686711441E+04  0.90129756787E+03 0.  0.
        -24    2    4    4    0    0  0.22140380679E+03 -0.33186625928E+02 -0.31857856915E+03  0.39766370243E+03  0.80765820172E+02 0.  0.
         24    2    4    4    0    0 -0.47049749665E+03  0.61747466058E+03 -0.29701753022E+04  0.30710074417E+04  0.80638267464E+02 0.  0.
         13    1    3    3    0    0  0.11383749599E+03 -0.20213829980E+03 -0.13216265260E+03  0.26699407200E+03  0.00000000000E+00 0.  1.
        -13    1    3    3    0    0  0.13525619386E+03 -0.38214973485E+03 -0.12101178369E+03  0.42305615421E+03  0.00000000000E+00 0. -1.
          4    1    6    6  502    0 -0.40784878655E+03  0.48325976664E+03 -0.24064964179E+04  0.24881932490E+04  0.00000000000E+00 0. -1.
          3    1    5    5  503    0  0.19212530457E+03 -0.30528279610E+02 -0.31177393471E+03  0.36748754384E+03  0.00000000000E+00 0. -1.
         -4    1    5    5    0  503  0.29278502221E+02 -0.26583463178E+01 -0.68046344366E+01  0.30176158591E+02  0.00000000000E+00 0.  1.
         -3    1    6    6    0  502 -0.62648710095E+02  0.13421489393E+03 -0.56367888433E+03  0.58281419275E+03  0.00000000000E+00 0.  1.
<mgrwt>
<rscale>  0 0.21793823E+04</rscale>
<asrwt>0</asrwt>
<pdfrwt beam="1">  1        2 0.59235767E+00 0.21793823E+04</pdfrwt>
<pdfrwt beam="2">  1       -2 0.47445620E-01 0.21793823E+04</pdfrwt>
<totfact> 0.17429247E+00</totfact>
</mgrwt>
</event>
<event>
12    1  0.2588309E-007  0.2294641E+04  0.7818608E-02  0.8480037E-01
          2   -1    0    0  501    0  0.00000000000E+00  0.00000000000E+00  0.29831040220E+04  0.29831040220E+04  0.00000000000E+00 0. -1.
         -2   -1    0    0    0  501 -0.00000000000E+00 -0.00000000000E+00 -0.44126646971E+03  0.44126646971E+03  0.00000000000E+00 0.  1.
         23    2    1    2    0    0 -0.15565192228E+02  0.52315893144E+03 -0.13798722025E+03  0.54894691561E+03  0.91458736325E+02 0.  0.
        254    2    1    2    0    0  0.15565192228E+02 -0.52315893144E+03  0.26798247726E+04  0.28754235761E+04  0.90147789089E+03 0.  0.
        -24    2    4    4    0    0  0.37602238654E+03 -0.18009922131E+03  0.19014506502E+04  0.19482372977E+04  0.79280693611E+02 0.  0.
         24    2    4    4    0    0 -0.36045719431E+03 -0.34305971013E+03  0.77837412239E+03  0.92718627844E+03  0.78668715983E+02 0.  0.
         11    1    3    3    0    0 -0.36509875333E+02  0.49227481229E+03 -0.13350786583E+03  0.51136270108E+03  0.00000000000E+00 0.  1.
        -11    1    3    3    0    0  0.20944683105E+02  0.30884119144E+02 -0.44793544142E+01  0.37584214527E+02  0.00000000000E+00 0. -1.
          4    1    6    6  502    0 -0.26981898426E+03 -0.25628005066E+03  0.51427061750E+03  0.63478816676E+03  0.00000000000E+00 0. -1.
          3    1    5    5  503    0  0.18085206910E+03 -0.49406424618E+02  0.93964102514E+03  0.95816163658E+03  0.00000000000E+00 0. -1.
         -4    1    5    5    0  503  0.19517031744E+03 -0.13069279669E+03  0.96180962506E+03  0.99007566113E+03  0.00000000000E+00 0.  1.
         -3    1    6    6    0  502 -0.90638210047E+02 -0.86779659470E+02  0.26410350489E+03  0.29239811168E+03  0.00000000000E+00 0.  1.
<mgrwt>
<rscale>  0 0.22946405E+04</rscale>
<asrwt>0</asrwt>
<pdfrwt beam="1">  1        2 0.45893907E+00 0.22946405E+04</pdfrwt>
<pdfrwt beam="2">  1       -2 0.67887151E-01 0.22946405E+04</pdfrwt>
<totfact> 0.32184234E+00</totfact>
</mgrwt>
</event>
<event>
12    1  0.2588309E-007  0.2767572E+04  0.7818608E-02  0.8313407E-01
         -1   -1    0    0    0  501 -0.00000000000E+00  0.00000000000E+00  0.87727465166E+03  0.87727465166E+03  0.00000000000E+00 0.  1.
          1   -1    0    0  501    0  0.00000000000E+00 -0.00000000000E+00 -0.21827410844E+04  0.21827410844E+04  0.00000000000E+00 0. -1.
         23    2    1    2    0    0 -0.51049073153E+03  0.21146510993E+03  0.63961501760E+03  0.84712158958E+03  0.56474216260E+02 0.  0.
        254    2    1    2    0    0  0.51049073153E+03 -0.21146510993E+03 -0.19450814504E+04  0.22128941465E+04  0.89902189928E+03 0.  0.
        -24    2    4    4    0    0 -0.26614958525E+02 -0.27834063417E+03 -0.13283801142E+03  0.31961559112E+03  0.79538193097E+02 0.  0.
         24    2    4    4    0    0  0.53710569005E+03  0.66875524238E+02 -0.18122434390E+04  0.18932785554E+04  0.85571889435E+02 0.  0.
         11    1    3    3    0    0 -0.38912640050E+03  0.16417336964E+03  0.45073845069E+03  0.61768713909E+03  0.00000000000E+00 0.  1.
        -11    1    3    3    0    0 -0.12136433103E+03  0.47291740288E+02  0.18887656691E+03  0.22943445050E+03  0.00000000000E+00 0. -1.
          4    1    6    6  502    0  0.16753864388E+03 -0.15305232657E+02 -0.50251863289E+03  0.52993247093E+03  0.00000000000E+00 0. -1.
          1    1    5    5  503    0 -0.26121695194E+02 -0.27837879353E+02 -0.53829291829E+01  0.38552125924E+02  0.00000000000E+00 0. -1.
         -2    1    5    5    0  503 -0.49326333083E+00 -0.25050275481E+03 -0.12745508224E+03  0.28106346519E+03  0.00000000000E+00 0.  1.
         -3    1    6    6    0  502  0.36956704617E+03  0.82180756895E+02 -0.13097248061E+04  0.13633460845E+04  0.00000000000E+00 0.  1.
<mgrwt>
<rscale>  0 0.27675718E+04</rscale>
<asrwt>0</asrwt>
<pdfrwt beam="1">  1        1 0.33580632E+00 0.27675718E+04</pdfrwt>
<pdfrwt beam="2">  1       -1 0.13496533E+00 0.27675718E+04</pdfrwt>
<totfact> 0.89551250E-01</totfact>
</mgrwt>
</event>
<event>
12    1  0.2588309E-007  0.1628775E+04  0.7818608E-02  0.8803063E-01
         -2   -1    0    0    0  501 -0.00000000000E+00  0.00000000000E+00  0.43597321437E+03  0.43597321437E+03  0.00000000000E+00 0.  1.
          2   -1    0    0  501    0  0.00000000000E+00 -0.00000000000E+00 -0.15212557378E+04  0.15212557378E+04  0.00000000000E+00 0. -1.
         23    2    1    2    0    0 -0.46292428929E+03  0.89439485544E+02 -0.74232119726E+03  0.88410960744E+03  0.91163144316E+02 0.  0.
        254    2    1    2    0    0  0.46292428929E+03 -0.89439485544E+02 -0.34296132615E+03  0.10731193447E+04  0.90092415748E+03 0.  0.
        -24    2    4    4    0    0 -0.14447031959E+03 -0.44908853163E+02  0.19327344007E+03  0.25767894845E+03  0.78455971742E+02 0.  0.
         24    2    4    4    0    0  0.60739460888E+03 -0.44530632381E+02 -0.53623476622E+03  0.81544039625E+03  0.80524078527E+02 0.  0.
         11    1    3    3    0    0 -0.39650690786E+03  0.10598524131E+03 -0.65793231406E+03  0.77545182264E+03  0.00000000000E+00 0. -1.
        -11    1    3    3    0    0 -0.66417381430E+02 -0.16545755763E+02 -0.84388883196E+02  0.10865778480E+03  0.00000000000E+00 0.  1.
          4    1    6    6  502    0  0.60795167565E+03 -0.44335376141E+02 -0.52585271899E+03  0.80504158127E+03  0.00000000000E+00 0. -1.
          3    1    5    5  503    0 -0.14742677688E+03 -0.25543947097E+02  0.17975370655E+03  0.23387719596E+03  0.00000000000E+00 0. -1.
         -4    1    5    5    0  503  0.29564572939E+01 -0.19364906067E+02  0.13519733524E+02  0.23801752483E+02  0.00000000000E+00 0.  1.
         -3    1    6    6    0  502 -0.55706677327E+00 -0.19525624026E+00 -0.10382047224E+02  0.10398814978E+02  0.00000000000E+00 0.  1.
<mgrwt>
<rscale>  0 0.16287747E+04</rscale>
<asrwt>0</asrwt>
<pdfrwt beam="1">  1        2 0.23403935E+00 0.16287747E+04</pdfrwt>
<pdfrwt beam="2">  1       -2 0.67072802E-01 0.16287747E+04</pdfrwt>
<totfact> 0.24100413E+01</totfact>
</mgrwt>
</event>
<event>
12    1  0.2588309E-007  0.2076977E+04  0.7818608E-02  0.8571453E-01
         -2   -1    0    0    0  501 -0.00000000000E+00  0.00000000000E+00  0.85868721100E+03  0.85868721100E+03  0.00000000000E+00 0.  1.
          2   -1    0    0  501    0  0.00000000000E+00 -0.00000000000E+00 -0.12559389962E+04  0.12559389962E+04  0.00000000000E+00 0. -1.
         23    2    1    2    0    0 -0.62101619677E+02 -0.42893986962E+03  0.57242926480E+03  0.72367227250E+03  0.90444855405E+02 0.  0.
        254    2    1    2    0    0  0.62101619677E+02  0.42893986962E+03 -0.96968105001E+03  0.13909539347E+04  0.89812331383E+03 0.  0.
        -24    2    4    4    0    0  0.21676191674E+03 -0.13776181936E+03 -0.17767699692E+02  0.26947242847E+03  0.79596803535E+02 0.  0.
         24    2    4    4    0    0 -0.15466029706E+03  0.56670168898E+03 -0.95191335032E+03  0.11214815062E+04  0.80691576786E+02 0.  0.
         11    1    3    3    0    0 -0.25147185711E+02 -0.35014932490E+03  0.49717332203E+03  0.60861994940E+03  0.00000000000E+00 0.  1.
        -11    1    3    3    0    0 -0.36954433966E+02 -0.78790544723E+02  0.75255942773E+02  0.11505232310E+03  0.00000000000E+00 0. -1.
          4    1    6    6  502    0 -0.91466057478E+01  0.13940415709E+02 -0.58798441481E+02  0.61116710542E+02  0.00000000000E+00 0. -1.
          3    1    5    5  503    0  0.11030260625E+03 -0.43411022670E+02 -0.40810378285E+02  0.12536613901E+03  0.00000000000E+00 0. -1.
         -4    1    5    5    0  503  0.10645931049E+03 -0.94350796687E+02  0.23042678593E+02  0.14410628946E+03  0.00000000000E+00 0.  1.
         -3    1    6    6    0  502 -0.14551369131E+03  0.55276127327E+03 -0.89311490884E+03  0.10603647957E+04  0.00000000000E+00 0.  1.
<mgrwt>
<rscale>  0 0.20769774E+04</rscale>
<asrwt>0</asrwt>
<pdfrwt beam="1">  1        2 0.19322138E+00 0.20769774E+04</pdfrwt>
<pdfrwt beam="2">  1       -2 0.13210573E+00 0.20769774E+04</pdfrwt>
<totfact> 0.67551793E+00</totfact>
</mgrwt>
</event>
<event>
12    1  0.2588309E-007  0.2377391E+04  0.7818608E-02  0.8448017E-01
         -2   -1    0    0    0  501 -0.00000000000E+00  0.00000000000E+00  0.63327898620E+03  0.63327898620E+03  0.00000000000E+00 0. -1.
          2   -1    0    0  501    0  0.00000000000E+00 -0.00000000000E+00 -0.22312399913E+04  0.22312399913E+04  0.00000000000E+00 0.  1.
         23    2    1    2    0    0  0.45287163767E+03 -0.70252065541E+03 -0.13814692048E+04  0.16172182866E+04  0.91158276008E+02 0.  0.
        254    2    1    2    0    0 -0.45287163767E+03  0.70252065541E+03 -0.21649180036E+03  0.12473006909E+04  0.90014572293E+03 0.  0.
        -24    2    4    4    0    0 -0.38681836051E+03  0.91187412233E+03 -0.19824866457E+03  0.10132438440E+04  0.78852365034E+02 0.  0.
         24    2    4    4    0    0 -0.66053277153E+02 -0.20935346692E+03 -0.18243135788E+02  0.23405684690E+03  0.79106801502E+02 0.  0.
         13    1    3    3    0    0  0.20533005207E+03 -0.38755666279E+03 -0.67194896259E+03  0.80241884667E+03  0.00000000000E+00 0.  1.
        -13    1    3    3    0    0  0.24754158559E+03 -0.31496399262E+03 -0.70952024218E+03  0.81479943993E+03  0.00000000000E+00 0. -1.
          2    1    6    6  502    0 -0.51871182915E+02 -0.18065563616E+03  0.14186416103E+02  0.18848960951E+03  0.00000000000E+00 0. -1.
          1    1    5    5  503    0 -0.23563432586E+03  0.52601887771E+03 -0.15312617304E+03  0.59637825254E+03  0.00000000000E+00 0. -1.
         -2    1    5    5    0  503 -0.15118403465E+03  0.38585524462E+03 -0.45122491536E+02  0.41686559150E+03  0.00000000000E+00 0.  1.
         -3    1    6    6    0  502 -0.14182094238E+02 -0.28697830764E+02 -0.32429551890E+02  0.45567237389E+02  0.00000000000E+00 0.  1.
<mgrwt>
<rscale>  0 0.23773913E+04</rscale>
<asrwt>0</asrwt>
<pdfrwt beam="1">  1        2 0.34326769E+00 0.23773913E+04</pdfrwt>
<pdfrwt beam="2">  1       -2 0.97427538E-01 0.23773913E+04</pdfrwt>
<totfact> 0.39236376E+00</totfact>
</mgrwt>
</event>
<event>
12    1  0.2588309E-007  0.2733058E+04  0.7818608E-02  0.8324358E-01
         -2   -1    0    0    0  501 -0.00000000000E+00  0.00000000000E+00  0.20074197668E+04  0.20074197668E+04  0.00000000000E+00 0.  1.
          2   -1    0    0  501    0  0.00000000000E+00 -0.00000000000E+00 -0.93024952731E+03  0.93024952731E+03  0.00000000000E+00 0. -1.
         23    2    1    2    0    0  0.53314012616E+03 -0.90863596230E+03  0.11347857419E+04  0.15512117345E+04  0.93066961219E+02 0.  0.
        254    2    1    2    0    0 -0.53314012616E+03  0.90863596230E+03 -0.57615502350E+02  0.13864575596E+04  0.89949280843E+03 0.  0.
        -24    2    4    4    0    0 -0.46183364385E+03  0.66872200902E+03 -0.43616579424E+03  0.92567743879E+03  0.78477262235E+02 0.  0.
         24    2    4    4    0    0 -0.71306482314E+02  0.23991395329E+03  0.37855029189E+03  0.46078012083E+03  0.79841573509E+02 0.  0.
         13    1    3    3    0    0  0.37924695624E+03 -0.71809043122E+03  0.89328031418E+03  0.12072414178E+04  0.00000000000E+00 0. -1.
        -13    1    3    3    0    0  0.15389316992E+03 -0.19054553108E+03  0.24150542770E+03  0.34397031670E+03  0.00000000000E+00 0.  1.
          2    1    6    6  502    0 -0.46333475026E+02  0.19625533452E+03  0.24049592252E+03  0.31384906561E+03  0.00000000000E+00 0. -1.
          1    1    5    5  503    0 -0.26296758443E+03  0.32625019603E+03 -0.25148924594E+03  0.48871052955E+03  0.00000000000E+00 0. -1.
         -2    1    5    5    0  503 -0.19886605941E+03  0.34247181298E+03 -0.18467654830E+03  0.43696690924E+03  0.00000000000E+00 0.  1.
         -1    1    6    6    0  502 -0.24973007288E+02  0.43658618766E+02  0.13805436937E+03  0.14693105522E+03  0.00000000000E+00 0.  1.
<mgrwt>
<rscale>  0 0.27330578E+04</rscale>
<asrwt>0</asrwt>
<pdfrwt beam="1">  1        2 0.14311531E+00 0.27330578E+04</pdfrwt>
<pdfrwt beam="2">  1       -2 0.30883381E+00 0.27330578E+04</pdfrwt>
<totfact> 0.68683295E-01</totfact>
</mgrwt>
</event>
<event>
12    1  0.2588309E-007  0.1234100E+04  0.7818608E-02  0.9083522E-01
          1   -1    0    0  501    0  0.00000000000E+00  0.00000000000E+00  0.43618150426E+03  0.43618150426E+03  0.00000000000E+00 0. -1.
         -1   -1    0    0    0  501 -0.00000000000E+00 -0.00000000000E+00 -0.87291767624E+03  0.87291767624E+03  0.00000000000E+00 0.  1.
         23    2    1    2    0    0 -0.18002221222E+03 -0.20035748210E+03 -0.14881641653E+03  0.32128800471E+03  0.92350087256E+02 0.  0.
        254    2    1    2    0    0  0.18002221222E+03  0.20035748210E+03 -0.28791975545E+03  0.98781117579E+03  0.90571629990E+03 0.  0.
        -24    2    4    4    0    0 -0.25286555495E+03  0.31992656284E+03  0.50629932370E+02  0.41962531391E+03  0.85017760115E+02 0.  0.
         24    2    4    4    0    0  0.43288776716E+03 -0.11956908073E+03 -0.33854968782E+03  0.56818586188E+03  0.80812737126E+02 0.  0.
         13    1    3    3    0    0 -0.14182902556E+03 -0.16753393724E+03 -0.15752612698E+03  0.27018063087E+03  0.00000000000E+00 0.  1.
        -13    1    3    3    0    0 -0.38193186657E+02 -0.32823544863E+02  0.87097104500E+01  0.51107373837E+02  0.00000000000E+00 0. -1.
          4    1    6    6  502    0  0.28278222488E+03 -0.11102986795E+03 -0.25195459542E+03  0.39468283018E+03  0.00000000000E+00 0. -1.
          3    1    5    5  503    0 -0.11506852560E+03  0.18997055036E+03 -0.51801822112E+01  0.22216302544E+03  0.00000000000E+00 0. -1.
         -4    1    5    5    0  503 -0.13779702935E+03  0.12995601248E+03  0.55810114581E+02  0.19746228847E+03  0.00000000000E+00 0.  1.
         -3    1    6    6    0  502  0.15010554228E+03 -0.85392127827E+01 -0.86595092406E+02  0.17350303170E+03  0.00000000000E+00 0.  1.
<mgrwt>
<rscale>  0 0.12340997E+04</rscale>
<asrwt>0</asrwt>
<pdfrwt beam="1">  1        1 0.67104847E-01 0.12340997E+04</pdfrwt>
<pdfrwt beam="2">  1       -1 0.13429503E+00 0.12340997E+04</pdfrwt>
<totfact> 0.24625545E+01</totfact>
</mgrwt>
</event>
<event>
12    1  0.2588309E-007  0.4641010E+04  0.7818608E-02  0.7886405E-01
          1   -1    0    0  501    0  0.00000000000E+00  0.00000000000E+00  0.37193226672E+04  0.37193226672E+04  0.00000000000E+00 0. -1.
         -1   -1    0    0    0  501 -0.00000000000E+00 -0.00000000000E+00 -0.14477751353E+04  0.14477751353E+04  0.00000000000E+00 0.  1.
         23    2    1    2    0    0  0.18766384964E+04 -0.11352962107E+04  0.15475233956E+04  0.26854780406E+04  0.79335454629E+02 0.  0.
        254    2    1    2    0    0 -0.18766384964E+04  0.11352962107E+04  0.72402413633E+03  0.24816197619E+04  0.90749995053E+03 0.  0.
        -24    2    4    4    0    0 -0.15125621341E+04  0.44453524483E+03  0.59045349826E+03  0.16854317430E+04  0.81172861061E+02 0.  0.
         24    2    4    4    0    0 -0.36407636237E+03  0.69076096585E+03  0.13357063807E+03  0.79618801887E+03  0.79824410226E+02 0.  0.
         11    1    3    3    0    0  0.70470293908E+03 -0.46593212616E+03  0.57320667078E+03  0.10209137407E+04  0.00000000000E+00 0.  1.
        -11    1    3    3    0    0  0.11719355574E+04 -0.66936408452E+03  0.97431672477E+03  0.16645642999E+04  0.00000000000E+00 0. -1.
          2    1    6    6  502    0 -0.12790832199E+03  0.18592512409E+03  0.63616584661E+02  0.23446910339E+03  0.00000000000E+00 0. -1.
          1    1    5    5  503    0 -0.71351044843E+02  0.50154200461E+01  0.19452571359E+02  0.74125087325E+02  0.00000000000E+00 0. -1.
         -2    1    5    5    0  503 -0.14412110892E+04  0.43951982478E+03  0.57100092690E+03  0.16113066557E+04  0.00000000000E+00 0.  1.
         -1    1    6    6    0  502 -0.23616804038E+03  0.50483584176E+03  0.69954053404E+02  0.56171891548E+03  0.00000000000E+00 0.  1.
<mgrwt>
<rscale>  0 0.46410098E+04</rscale>
<asrwt>0</asrwt>
<pdfrwt beam="1">  1        1 0.57220348E+00 0.46410098E+04</pdfrwt>
<pdfrwt beam="2">  1       -1 0.22273464E+00 0.46410098E+04</pdfrwt>
<totfact> 0.13009871E-02</totfact>
</mgrwt>
</event>
<event>
12    1  0.2588309E-007  0.1441646E+04  0.7818608E-02  0.8924212E-01
         -2   -1    0    0    0  501 -0.00000000000E+00  0.00000000000E+00  0.23040170285E+03  0.23040170285E+03  0.00000000000E+00 0.  1.
          2   -1    0    0  501    0  0.00000000000E+00 -0.00000000000E+00 -0.22551315323E+04  0.22551315323E+04  0.00000000000E+00 0. -1.
         23    2    1    2    0    0  0.35540042033E+03  0.13194778428E+03 -0.99825269201E+03  0.10717607843E+04  0.91886153238E+02 0.  0.
        254    2    1    2    0    0 -0.35540042033E+03 -0.13194778428E+03 -0.10264771374E+04  0.14137724508E+04  0.89519693502E+03 0.  0.
        -24    2    4    4    0    0  0.39098298437E+01 -0.43946728207E+03 -0.71058349354E+03  0.83945911945E+03  0.81338386725E+02 0.  0.
         24    2    4    4    0    0 -0.35931025017E+03  0.30751949779E+03 -0.31589364388E+03  0.57431333136E+03  0.79843039349E+02 0.  0.
         11    1    3    3    0    0  0.18156533012E+02  0.18386987107E+02 -0.14488256395E+03  0.14716894483E+03  0.00000000000E+00 0. -1.
        -11    1    3    3    0    0  0.33724388732E+03  0.11356079717E+03 -0.85337012806E+03  0.92459183949E+03  0.00000000000E+00 0.  1.
          2    1    6    6  502    0 -0.25945270386E+03  0.23541435723E+03 -0.27209246306E+03  0.44358757150E+03  0.00000000000E+00 0. -1.
          1    1    5    5  503    0  0.21845512545E+02 -0.41589460789E+02 -0.54550669849E+02  0.71990869199E+02  0.00000000000E+00 0. -1.
         -2    1    5    5    0  503 -0.17935682702E+02 -0.39787782128E+03 -0.65603282369E+03  0.76746825025E+03  0.00000000000E+00 0.  1.
         -1    1    6    6    0  502 -0.99857546313E+02  0.72105140559E+02 -0.43801180818E+02  0.13072575986E+03  0.00000000000E+00 0.  1.
<mgrwt>
<rscale>  0 0.14416465E+04</rscale>
<asrwt>0</asrwt>
<pdfrwt beam="1">  1        2 0.34694330E+00 0.14416465E+04</pdfrwt>
<pdfrwt beam="2">  1       -2 0.35446417E-01 0.14416465E+04</pdfrwt>
<totfact> 0.34932859E+01</totfact>
</mgrwt>
</event>
<event>
12    1  0.2588309E-007  0.2289873E+04  0.7818608E-02  0.8481925E-01
          1   -1    0    0  501    0  0.00000000000E+00  0.00000000000E+00  0.27545075251E+04  0.27545075251E+04  0.00000000000E+00 0. -1.
         -1   -1    0    0    0  501 -0.00000000000E+00 -0.00000000000E+00 -0.47590329261E+03  0.47590329261E+03  0.00000000000E+00 0.  1.
         23    2    1    2    0    0 -0.25745086201E+03  0.18893704624E+03 -0.32094117017E+03  0.46104332912E+03  0.87060684734E+02 0.  0.
        254    2    1    2    0    0  0.25745086201E+03 -0.18893704624E+03  0.25995454026E+04  0.27693674886E+04  0.89987878771E+03 0.  0.
        -24    2    4    4    0    0  0.52501549659E+03 -0.21361365303E+03  0.22472187630E+04  0.23189979489E+04  0.80543487893E+02 0.  0.
         24    2    4    4    0    0 -0.26756463458E+03  0.24676606785E+02  0.35232663959E+03  0.45036953970E+03  0.80615710155E+02 0.  0.
         11    1    3    3    0    0 -0.25107141799E+03  0.19307790177E+03 -0.32377157109E+03  0.45292820991E+03  0.00000000000E+00 0.  1.
        -11    1    3    3    0    0 -0.63794440194E+01 -0.41408555260E+01  0.28304009228E+01  0.81151192146E+01  0.00000000000E+00 0. -1.
          2    1    6    6  502    0 -0.10063971207E+03 -0.26052409454E+02  0.10552331689E+03  0.14812916691E+03  0.00000000000E+00 0. -1.
          1    1    5    5  503    0  0.40606196414E+03 -0.14655223157E+03  0.15777429985E+04  0.16357374009E+04  0.00000000000E+00 0. -1.
         -2    1    5    5    0  503  0.11895353246E+03 -0.67061421460E+02  0.66947576455E+03  0.68326054800E+03  0.00000000000E+00 0.  1.
         -1    1    6    6    0  502 -0.16692492251E+03  0.50729016239E+02  0.24680332271E+03  0.30224037279E+03  0.00000000000E+00 0.  1.
<mgrwt>
<rscale>  0 0.22898727E+04</rscale>
<asrwt>0</asrwt>
<pdfrwt beam="1">  1        1 0.42377038E+00 0.22898727E+04</pdfrwt>
<pdfrwt beam="2">  1       -1 0.73215893E-01 0.22898727E+04</pdfrwt>
<totfact> 0.15274794E+00</totfact>
</mgrwt>
</event>
<event>
12    1  0.2588309E-007  0.1816882E+04  0.7818608E-02  0.8697373E-01
          2   -1    0    0  501    0  0.00000000000E+00  0.00000000000E+00  0.28023843889E+04  0.28023843889E+04  0.00000000000E+00 0. -1.
         -2   -1    0    0    0  501 -0.00000000000E+00 -0.00000000000E+00 -0.29448663348E+03  0.29448663348E+03  0.00000000000E+00 0.  1.
         23    2    1    2    0    0 -0.47883950556E+03 -0.41893171999E+03  0.53211521497E+03  0.83469755449E+03  0.93714179185E+02 0.  0.
        254    2    1    2    0    0  0.47883950556E+03  0.41893171999E+03  0.19757825404E+04  0.22621734679E+04  0.89940040781E+03 0.  0.
        -24    2    4    4    0    0  0.52165345559E+03  0.65094187029E+03  0.13564148777E+04  0.15944216559E+04  0.80445324106E+02 0.  0.
         24    2    4    4    0    0 -0.42813950028E+02 -0.23201015030E+03  0.61936766272E+03  0.66775181195E+03  0.81329186536E+02 0.  0.
         11    1    3    3    0    0 -0.24960334007E+03 -0.27239514908E+03  0.27747726626E+03  0.46205473476E+03  0.00000000000E+00 0.  1.
        -11    1    3    3    0    0 -0.22923616549E+03 -0.14653657091E+03  0.25463794871E+03  0.37264281974E+03  0.00000000000E+00 0. -1.
          2    1    6    6  502    0 -0.98184875717E+01 -0.77728642241E+02  0.11397471065E+03  0.13830538381E+03  0.00000000000E+00 0. -1.
          1    1    5    5  503    0  0.13687208765E+03  0.13925484348E+03  0.37205485201E+03  0.42017935779E+03  0.00000000000E+00 0. -1.
         -2    1    5    5    0  503  0.38478136794E+03  0.51168702681E+03  0.98436002571E+03  0.11742422981E+04  0.00000000000E+00 0.  1.
         -1    1    6    6    0  502 -0.32995462457E+02 -0.15428150806E+03  0.50539295206E+03  0.52944642814E+03  0.00000000000E+00 0.  1.
<mgrwt>
<rscale>  0 0.18168817E+04</rscale>
<asrwt>0</asrwt>
<pdfrwt beam="1">  1        2 0.43113604E+00 0.18168817E+04</pdfrwt>
<pdfrwt beam="2">  1       -2 0.45305638E-01 0.18168817E+04</pdfrwt>
<totfact> 0.10064046E+01</totfact>
</mgrwt>
</event>
<event>
12    1  0.2588309E-007  0.3773740E+04  0.7818608E-02  0.8051814E-01
          1   -1    0    0  501    0  0.00000000000E+00  0.00000000000E+00  0.39416986608E+04  0.39416986608E+04  0.00000000000E+00 0. -1.
         -1   -1    0    0    0  501 -0.00000000000E+00 -0.00000000000E+00 -0.90323461831E+03  0.90323461831E+03  0.00000000000E+00 0.  1.
         23    2    1    2    0    0 -0.16317053112E+04  0.16773115453E+03  0.54968108359E+03  0.17315153659E+04  0.73486093978E+02 0.  0.
        254    2    1    2    0    0  0.16317053112E+04 -0.16773115453E+03  0.24887829589E+04  0.31134179132E+04  0.89929668252E+03 0.  0.
        -24    2    4    4    0    0  0.47561394331E+03  0.34548304198E+03  0.94823525484E+03  0.11185113358E+04  0.79689110450E+02 0.  0.
         24    2    4    4    0    0  0.11560913678E+04 -0.51321419651E+03  0.15405477041E+04  0.19949065775E+04  0.80180808346E+02 0.  0.
         11    1    3    3    0    0 -0.11009160787E+04  0.14759848176E+03  0.36878582911E+03  0.11703864797E+04  0.00000000000E+00 0. -1.
        -11    1    3    3    0    0 -0.53078923244E+03  0.20132672775E+02  0.18089525448E+03  0.56112888615E+03  0.00000000000E+00 0.  1.
          2    1    6    6  502    0  0.25619191614E+03 -0.13657911141E+03  0.31269015095E+03  0.42668874144E+03  0.00000000000E+00 0. -1.
          3    1    5    5  503    0  0.10703143543E+03  0.66007996304E+02  0.26633634270E+03  0.29452984770E+03  0.00000000000E+00 0. -1.
         -4    1    5    5    0  503  0.36858250789E+03  0.27947504567E+03  0.68189891214E+03  0.82398148805E+03  0.00000000000E+00 0.  1.
         -1    1    6    6    0  502  0.89989945171E+03 -0.37663508510E+03  0.12278575531E+04  0.15682178360E+04  0.00000000000E+00 0.  1.
<mgrwt>
<rscale>  0 0.37737402E+04</rscale>
<asrwt>0</asrwt>
<pdfrwt beam="1">  1        1 0.60641517E+00 0.37737402E+04</pdfrwt>
<pdfrwt beam="2">  1       -1 0.13895917E+00 0.37737402E+04</pdfrwt>
<totfact> 0.36671188E-02</totfact>
</mgrwt>
</event>
<event>
12    1  0.2588309E-007  0.3380433E+04  0.7818608E-02  0.8142725E-01
          2   -1    0    0  501    0  0.00000000000E+00  0.00000000000E+00  0.22196896928E+04  0.22196896928E+04  0.00000000000E+00 0. -1.
         -2   -1    0    0    0  501 -0.00000000000E+00 -0.00000000000E+00 -0.12870412015E+04  0.12870412015E+04  0.00000000000E+00 0.  1.
         23    2    1    2    0    0  0.14272715914E+03  0.14896770868E+04 -0.56183689102E+02  0.15003259115E+04  0.91172194702E+02 0.  0.
        254    2    1    2    0    0 -0.14272715914E+03 -0.14896770868E+04  0.98883218044E+03  0.20064049827E+04  0.89909010048E+03 0.  0.
        -24    2    4    4    0    0 -0.16104652261E+03 -0.13262403475E+04  0.11484372041E+04  0.17637623205E+04  0.84261911334E+02 0.  0.
         24    2    4    4    0    0  0.18319363474E+02 -0.16343673926E+03 -0.15960502364E+03  0.24264266221E+03  0.79715313044E+02 0.  0.
         13    1    3    3    0    0  0.75789332847E+02  0.65178791806E+03  0.18634225157E+02  0.65644401699E+03  0.00000000000E+00 0. -1.
        -13    1    3    3    0    0  0.66937826293E+02  0.83788916871E+03 -0.74817914259E+02  0.84388189454E+03  0.00000000000E+00 0.  1.
          2    1    6    6  502    0 -0.29103219392E+02 -0.93413479662E+02 -0.93058454872E+02  0.13502944710E+03  0.00000000000E+00 0. -1.
          3    1    5    5  503    0  0.89768384465E+00 -0.18254071051E+03  0.18059199976E+03  0.25677886830E+03  0.00000000000E+00 0. -1.
         -4    1    5    5    0  503 -0.16194420646E+03 -0.11436996370E+04  0.96784520433E+03  0.15069834522E+04  0.00000000000E+00 0.  1.
         -1    1    6    6    0  502  0.47422582866E+02 -0.70023259596E+02 -0.66546568770E+02  0.10761321510E+03  0.00000000000E+00 0.  1.
<mgrwt>
<rscale>  0 0.33804332E+04</rscale>
<asrwt>0</asrwt>
<pdfrwt beam="1">  1        2 0.34149072E+00 0.33804332E+04</pdfrwt>
<pdfrwt beam="2">  1       -2 0.19800634E+00 0.33804332E+04</pdfrwt>
<totfact> 0.57255763E-01</totfact>
</mgrwt>
</event>
<event>
12    1  0.2588309E-007  0.3852194E+04  0.7818608E-02  0.8035046E-01
          1   -1    0    0  501    0  0.00000000000E+00  0.00000000000E+00  0.18694389849E+04  0.18694389849E+04  0.00000000000E+00 0. -1.
         -1   -1    0    0    0  501 -0.00000000000E+00 -0.00000000000E+00 -0.19844717418E+04  0.19844717418E+04  0.00000000000E+00 0.  1.
         23    2    1    2    0    0 -0.17501785084E+04  0.33513534179E+03 -0.42631047198E+03  0.18345732226E+04  0.92074871811E+02 0.  0.
        254    2    1    2    0    0  0.17501785084E+04 -0.33513534179E+03  0.31127771507E+03  0.20193375040E+04  0.89743502847E+03 0.  0.
        -24    2    4    4    0    0  0.40409403502E+03  0.70789447950E+02  0.43792471757E+03  0.60550827451E+03  0.80988129724E+02 0.  0.
         24    2    4    4    0    0  0.13460844734E+04 -0.40592478974E+03 -0.12664700250E+03  0.14138292295E+04  0.78455607428E+02 0.  0.
         13    1    3    3    0    0 -0.12906056039E+04  0.27543478686E+03 -0.28524881937E+03  0.13501459312E+04  0.00000000000E+00 0. -1.
        -13    1    3    3    0    0 -0.45957290454E+03  0.59700554923E+02 -0.14106165261E+03  0.48442729143E+03  0.00000000000E+00 0.  1.
          2    1    6    6  502    0  0.59209835469E+03 -0.21334359510E+03 -0.36251310783E+02  0.63040471820E+03  0.00000000000E+00 0. -1.
          3    1    5    5  503    0  0.29831804277E+03  0.84479574773E+02  0.30302170495E+03  0.43353501228E+03  0.00000000000E+00 0. -1.
         -4    1    5    5    0  503  0.10577599225E+03 -0.13690126823E+02  0.13490301262E+03  0.17197326223E+03  0.00000000000E+00 0.  1.
         -1    1    6    6    0  502  0.75398611873E+03 -0.19258119464E+03 -0.90395691717E+02  0.78342451126E+03  0.00000000000E+00 0.  1.
<mgrwt>
<rscale>  0 0.38521936E+04</rscale>
<asrwt>0</asrwt>
<pdfrwt beam="1">  1        1 0.28760600E+00 0.38521936E+04</pdfrwt>
<pdfrwt beam="2">  1       -1 0.30530335E+00 0.38521936E+04</pdfrwt>
<totfact> 0.88321258E-02</totfact>
</mgrwt>
</event>
<event>
12    1  0.2588309E-007  0.1797716E+04  0.7818608E-02  0.8707515E-01
         -1   -1    0    0    0  501 -0.00000000000E+00  0.00000000000E+00  0.33677606411E+03  0.33677606411E+03  0.00000000000E+00 0.  1.
          1   -1    0    0  501    0  0.00000000000E+00 -0.00000000000E+00 -0.23990585980E+04  0.23990585980E+04  0.00000000000E+00 0. -1.
         23    2    1    2    0    0 -0.52575450524E+03  0.37927084276E+03 -0.51586991562E+03  0.83340316103E+03  0.90415081906E+02 0.  0.
        254    2    1    2    0    0  0.52575450524E+03 -0.37927084276E+03 -0.15464126183E+04  0.19024315011E+04  0.89865981240E+03 0.  0.
        -24    2    4    4    0    0  0.30378029436E+03 -0.63684996417E+03 -0.12790411740E+04  0.14629030192E+04  0.79237457904E+02 0.  0.
         24    2    4    4    0    0  0.22197421088E+03  0.25757912141E+03 -0.26737144430E+03  0.43952848189E+03  0.77963087988E+02 0.  0.
         11    1    3    3    0    0 -0.32821587598E+03  0.25560202361E+03 -0.27769622101E+03  0.50017321687E+03  0.00000000000E+00 0.  1.
        -11    1    3    3    0    0 -0.19753862926E+03  0.12366881915E+03 -0.23817369461E+03  0.33322994416E+03  0.00000000000E+00 0. -1.
          2    1    6    6  502    0  0.15141852738E+02  0.99418071012E+01 -0.42634614084E+02  0.46323056364E+02  0.00000000000E+00 0. -1.
          1    1    5    5  503    0  0.20305516259E+03 -0.47990338676E+03 -0.88636122988E+03  0.10281901038E+04  0.00000000000E+00 0. -1.
         -2    1    5    5    0  503  0.10072513177E+03 -0.15694657741E+03 -0.39267994413E+03  0.43471291544E+03  0.00000000000E+00 0.  1.
         -1    1    6    6    0  502  0.20683235814E+03  0.24763731431E+03 -0.22473683021E+03  0.39320542553E+03  0.00000000000E+00 0.  1.
<mgrwt>
<rscale>  0 0.17977158E+04</rscale>
<asrwt>0</asrwt>
<pdfrwt beam="1">  1        1 0.36908594E+00 0.17977158E+04</pdfrwt>
<pdfrwt beam="2">  1       -1 0.51811702E-01 0.17977158E+04</pdfrwt>
<totfact> 0.56352484E+00</totfact>
</mgrwt>
</event>
<event>
12    1  0.2588309E-007  0.2285381E+04  0.7818608E-02  0.8483708E-01
          2   -1    0    0  501    0  0.00000000000E+00  0.00000000000E+00  0.17691848553E+04  0.17691848553E+04  0.00000000000E+00 0. -1.
         -2   -1    0    0    0  501 -0.00000000000E+00 -0.00000000000E+00 -0.73804706024E+03  0.73804706024E+03  0.00000000000E+00 0.  1.
         23    2    1    2    0    0 -0.81162566738E+03 -0.49039952517E+03  0.24960765281E+03  0.98427455609E+03  0.85232054815E+02 0.  0.
        254    2    1    2    0    0  0.81162566738E+03  0.49039952517E+03  0.78153014223E+03  0.15229573594E+04  0.89965651069E+03 0.  0.
        -24    2    4    4    0    0  0.26242768838E+03 -0.25699892453E+03  0.23545520367E+03  0.44368219132E+03  0.80610142792E+02 0.  0.
         24    2    4    4    0    0  0.54919797900E+03  0.74739844970E+03  0.54607493856E+03  0.10792751681E+04  0.80088621189E+02 0.  0.
         13    1    3    3    0    0 -0.17874887615E+03 -0.78570237551E+02  0.27293163474E+02  0.19715313776E+03  0.00000000000E+00 0.  1.
        -13    1    3    3    0    0 -0.63287679123E+03 -0.41182928762E+03  0.22231448934E+03  0.78712141833E+03  0.00000000000E+00 0. -1.
          2    1    6    6  502    0  0.48021767995E+03  0.64597119419E+03  0.44126281828E+03  0.91793282905E+03  0.00000000000E+00 0. -1.
          1    1    5    5  503    0  0.91315339074E+02 -0.12795737466E+03  0.13401898905E+03  0.20657364378E+03  0.00000000000E+00 0. -1.
         -2    1    5    5    0  503  0.17111234931E+03 -0.12904154987E+03  0.10143621462E+03  0.23710854754E+03  0.00000000000E+00 0.  1.
         -1    1    6    6    0  502  0.68980299049E+02  0.10142725551E+03  0.10481212028E+03  0.16134233907E+03  0.00000000000E+00 0.  1.
<mgrwt>
<rscale>  0 0.22853811E+04</rscale>
<asrwt>0</asrwt>
<pdfrwt beam="1">  1        2 0.27218228E+00 0.22853811E+04</pdfrwt>
<pdfrwt beam="2">  1       -2 0.11354570E+00 0.22853811E+04</pdfrwt>
<totfact> 0.49558407E+00</totfact>
</mgrwt>
</event>
<event>
12    1  0.2588309E-007  0.1590923E+04  0.7818608E-02  0.8826144E-01
          2   -1    0    0  501    0  0.00000000000E+00  0.00000000000E+00  0.25375036129E+04  0.25375036129E+04  0.00000000000E+00 0. -1.
         -2   -1    0    0    0  501 -0.00000000000E+00 -0.00000000000E+00 -0.24936274414E+03  0.24936274414E+03  0.00000000000E+00 0.  1.
         23    2    1    2    0    0 -0.24762128917E+03 -0.36916341596E+03  0.12738355514E+04  0.13523016433E+04  0.92004303794E+02 0.  0.
        254    2    1    2    0    0  0.24762128917E+03  0.36916341596E+03  0.10143053174E+04  0.14345647138E+04  0.91190060345E+03 0.  0.
        -24    2    4    4    0    0  0.51252716312E+03  0.45323479065E+03  0.52450093097E+03  0.86593123875E+03  0.81423677533E+02 0.  0.
         24    2    4    4    0    0 -0.26490587395E+03 -0.84071374694E+02  0.48980438643E+03  0.56863347502E+03  0.78692908554E+02 0.  0.
         13    1    3    3    0    0 -0.13581122956E+03 -0.20431831749E+03  0.83662522903E+03  0.87185574425E+03  0.00000000000E+00 0. -1.
        -13    1    3    3    0    0 -0.11181005961E+03 -0.16484509847E+03  0.43721032235E+03  0.48044589902E+03  0.00000000000E+00 0.  1.
          2    1    6    6  502    0 -0.10911871867E+03 -0.69945957358E+02  0.26180753836E+03  0.29213441916E+03  0.00000000000E+00 0. -1.
          1    1    5    5  503    0  0.45341092542E+03  0.39473488086E+03  0.42485387838E+03  0.73613715531E+03  0.00000000000E+00 0. -1.
         -2    1    5    5    0  503  0.59116237703E+02  0.58499909791E+02  0.99647052594E+02  0.12979408344E+03  0.00000000000E+00 0.  1.
         -1    1    6    6    0  502 -0.15578715528E+03 -0.14125417336E+02  0.22799684806E+03  0.27649905586E+03  0.00000000000E+00 0.  1.
<mgrwt>
<rscale>  0 0.15909228E+04</rscale>
<asrwt>0</asrwt>
<pdfrwt beam="1">  1        2 0.39038515E+00 0.15909228E+04</pdfrwt>
<pdfrwt beam="2">  1       -2 0.38363501E-01 0.15909228E+04</pdfrwt>
<totfact> 0.20435678E+01</totfact>
</mgrwt>
</event>
<event>
12    1  0.2588309E-007  0.3183139E+04  0.7818608E-02  0.8193284E-01
          2   -1    0    0  501    0  0.00000000000E+00  0.00000000000E+00  0.24628315057E+04  0.24628315057E+04  0.00000000000E+00 0. -1.
         -2   -1    0    0    0  501 -0.00000000000E+00 -0.00000000000E+00 -0.10285292606E+04  0.10285292606E+04  0.00000000000E+00 0.  1.
         23    2    1    2    0    0 -0.72755784335E+02  0.70572087594E+03  0.20642422662E+04  0.21845389172E+04  0.88197438249E+02 0.  0.
        254    2    1    2    0    0  0.72755784335E+02 -0.70572087594E+03 -0.62994002115E+03  0.13068218491E+04  0.89867878363E+03 0.  0.
        -24    2    4    4    0    0 -0.74758245604E+02 -0.64233396298E+03 -0.81875786452E+03  0.10464930394E+04  0.81249772690E+02 0.  0.
         24    2    4    4    0    0  0.14751402994E+03 -0.63386912967E+02  0.18881784337E+03  0.26032880968E+03  0.79628018979E+02 0.  0.
         13    1    3    3    0    0 -0.90193550558E+02  0.47121651025E+03  0.13850436012E+04  0.14657849956E+04  0.00000000000E+00 0. -1.
        -13    1    3    3    0    0  0.17437766223E+02  0.23450436569E+03  0.67919866497E+03  0.71875392153E+03  0.00000000000E+00 0.  1.
          4    1    6    6  502    0  0.58455800704E+02 -0.32303669638E+02  0.25035973273E+02  0.71326065823E+02  0.00000000000E+00 0. -1.
          1    1    5    5  503    0  0.17744249648E+02 -0.10189860831E+03 -0.13345999696E+03  0.16884832116E+03  0.00000000000E+00 0. -1.
         -2    1    5    5    0  503 -0.92502495253E+02 -0.54043535467E+03 -0.68529786756E+03  0.87764471826E+03  0.00000000000E+00 0.  1.
         -3    1    6    6    0  502  0.89058229235E+02 -0.31083243330E+02  0.16378187010E+03  0.18900274385E+03  0.00000000000E+00 0.  1.
<mgrwt>
<rscale>  0 0.31831395E+04</rscale>
<asrwt>0</asrwt>
<pdfrwt beam="1">  1        2 0.37889715E+00 0.31831395E+04</pdfrwt>
<pdfrwt beam="2">  1       -2 0.15823527E+00 0.31831395E+04</pdfrwt>
<totfact> 0.80061791E-01</totfact>
</mgrwt>
</event>
<event>
12    1  0.2588309E-007  0.2260546E+04  0.7818608E-02  0.8493642E-01
         -2   -1    0    0    0  501 -0.00000000000E+00  0.00000000000E+00  0.52243434261E+03  0.52243434261E+03  0.00000000000E+00 0.  1.
          2   -1    0    0  501    0  0.00000000000E+00 -0.00000000000E+00 -0.24453167273E+04  0.24453167273E+04  0.00000000000E+00 0. -1.
         23    2    1    2    0    0 -0.50740372441E+03 -0.14629137385E+03  0.22426041582E+03  0.58223601349E+03  0.99228703976E+02 0.  0.
        254    2    1    2    0    0  0.50740372441E+03  0.14629137385E+03 -0.21471428005E+04  0.23855150564E+04  0.89532126807E+03 0.  0.
        -24    2    4    4    0    0  0.38384862778E+03 -0.33530848990E+03 -0.85330492552E+03  0.99732721555E+03  0.82223637147E+02 0.  0.
         24    2    4    4    0    0  0.12355509663E+03  0.48159986375E+03 -0.12938378749E+04  0.13881878408E+04  0.76450926452E+02 0.  0.
         11    1    3    3    0    0 -0.22272797929E+03 -0.16586560025E+02  0.74827520548E+02  0.23554622596E+03  0.00000000000E+00 0.  1.
        -11    1    3    3    0    0 -0.28467574512E+03 -0.12970481382E+03  0.14943289527E+03  0.34668978753E+03  0.00000000000E+00 0. -1.
          2    1    6    6  502    0  0.47885691052E+01  0.16189941661E+03 -0.42261277572E+03  0.45258801320E+03  0.00000000000E+00 0. -1.
          3    1    5    5  503    0  0.82826504030E+02 -0.62996155773E+02 -0.11727763124E+03  0.15678899260E+03  0.00000000000E+00 0. -1.
         -4    1    5    5    0  503  0.30102212375E+03 -0.27231233413E+03 -0.73602729429E+03  0.84053822295E+03  0.00000000000E+00 0.  1.
         -1    1    6    6    0  502  0.11876652752E+03  0.31970044714E+03 -0.87122509922E+03  0.93559982763E+03  0.00000000000E+00 0.  1.
<mgrwt>
<rscale>  0 0.22605463E+04</rscale>
<asrwt>0</asrwt>
<pdfrwt beam="1">  1        2 0.37620258E+00 0.22605463E+04</pdfrwt>
<pdfrwt beam="2">  1       -2 0.80374514E-01 0.22605463E+04</pdfrwt>
<totfact> 0.46577392E+00</totfact>
</mgrwt>
</event>
<event>
12    1  0.2588309E-007  0.1577559E+04  0.7818608E-02  0.8834454E-01
          2   -1    0    0  501    0  0.00000000000E+00  0.00000000000E+00  0.15997875747E+04  0.15997875747E+04  0.00000000000E+00 0. -1.
         -2   -1    0    0    0  501 -0.00000000000E+00 -0.00000000000E+00 -0.38890980885E+03  0.38890980885E+03  0.00000000000E+00 0.  1.
         23    2    1    2    0    0 -0.51736996015E+03  0.89837514993E+02  0.36517445941E+03  0.64621439495E+03  0.92185702085E+02 0.  0.
        254    2    1    2    0    0  0.51736996015E+03 -0.89837514993E+02  0.84570330647E+03  0.13424829886E+04  0.90072417389E+03 0.  0.
        -24    2    4    4    0    0 -0.70159321658E+02  0.27585924978E+03  0.45938515534E+03  0.54584891169E+03  0.76783183988E+02 0.  0.
         24    2    4    4    0    0  0.58752928181E+03 -0.36569676477E+03  0.38631815114E+03  0.79663407695E+03  0.80370130708E+02 0.  0.
         11    1    3    3    0    0 -0.76672497430E+02 -0.12385047370E+02  0.79654114344E+02  0.11125124355E+03  0.00000000000E+00 0. -1.
        -11    1    3    3    0    0 -0.44069746272E+03  0.10222256236E+03  0.28552034507E+03  0.53496315140E+03  0.00000000000E+00 0.  1.
          2    1    6    6  502    0  0.21418269708E+03 -0.13430698363E+03  0.18608028491E+03  0.31390837200E+03  0.00000000000E+00 0. -1.
          3    1    5    5  503    0 -0.33282131520E+02  0.16065258692E+03  0.19316738602E+03  0.25343755244E+03  0.00000000000E+00 0. -1.
         -4    1    5    5    0  503 -0.36877190138E+02  0.11520666285E+03  0.26621776931E+03  0.29241135925E+03  0.00000000000E+00 0.  1.
         -1    1    6    6    0  502  0.37334658473E+03 -0.23138978114E+03  0.20023786623E+03  0.48272570494E+03  0.00000000000E+00 0.  1.
<mgrwt>
<rscale>  0 0.15775590E+04</rscale>
<asrwt>0</asrwt>
<pdfrwt beam="1">  1        2 0.24612116E+00 0.15775590E+04</pdfrwt>
<pdfrwt beam="2">  1       -2 0.59832279E-01 0.15775590E+04</pdfrwt>
<totfact> 0.27912756E+01</totfact>
</mgrwt>
</event>
<event>
12    1  0.2588309E-007  0.1224778E+04  0.7818608E-02  0.9091441E-01
          2   -1    0    0  501    0  0.00000000000E+00  0.00000000000E+00  0.20308647195E+04  0.20308647195E+04  0.00000000000E+00 0. -1.
         -2   -1    0    0    0  501 -0.00000000000E+00 -0.00000000000E+00 -0.18466031688E+03  0.18466031688E+03  0.00000000000E+00 0.  1.
         23    2    1    2    0    0 -0.24221092944E+03  0.60200274594E+02  0.62304096160E+03  0.67713953523E+03  0.89708990261E+02 0.  0.
        254    2    1    2    0    0  0.24221092944E+03 -0.60200274594E+02  0.12231634410E+04  0.15383855011E+04  0.89900552795E+03 0.  0.
        -24    2    4    4    0    0  0.57801957216E+03 -0.15285264837E+02  0.71596193418E+03  0.92332638150E+03  0.74765302484E+02 0.  0.
         24    2    4    4    0    0 -0.33580864272E+03 -0.44915009758E+02  0.50720150683E+03  0.61505911964E+03  0.79117314719E+02 0.  0.
         13    1    3    3    0    0 -0.14174986117E+03  0.60974402114E+02  0.28017106531E+03  0.31985422725E+03  0.00000000000E+00 0.  1.
        -13    1    3    3    0    0 -0.10046106827E+03 -0.77412751982E+00  0.34286989630E+03  0.35728530798E+03  0.00000000000E+00 0. -1.
          4    1    6    6  502    0 -0.14656451629E+03  0.18239661362E+01  0.16082231078E+03  0.21759664504E+03  0.00000000000E+00 0. -1.
          1    1    5    5  503    0  0.55636043966E+02 -0.17478418006E+02  0.49221108172E+02  0.76312397249E+02  0.00000000000E+00 0. -1.
         -2    1    5    5    0  503  0.52238352820E+03  0.21931531690E+01  0.66674082601E+03  0.84701398425E+03  0.00000000000E+00 0.  1.
         -3    1    6    6    0  502 -0.18924412644E+03 -0.46738975894E+02  0.34637919605E+03  0.39746247460E+03  0.00000000000E+00 0.  1.
<mgrwt>
<rscale>  0 0.12247777E+04</rscale>
<asrwt>0</asrwt>
<pdfrwt beam="1">  1        2 0.31244071E+00 0.12247777E+04</pdfrwt>
<pdfrwt beam="2">  1       -2 0.28409281E-01 0.12247777E+04</pdfrwt>
<totfact> 0.71897181E+01</totfact>
</mgrwt>
</event>
<event>
12    1  0.2588309E-007  0.2601111E+04  0.7818608E-02  0.8367824E-01
          1   -1    0    0  501    0  0.00000000000E+00  0.00000000000E+00  0.11658230202E+04  0.11658230202E+04  0.00000000000E+00 0. -1.
         -1   -1    0    0    0  501 -0.00000000000E+00 -0.00000000000E+00 -0.14508590951E+04  0.14508590951E+04  0.00000000000E+00 0.  1.
         23    2    1    2    0    0  0.19962929980E+03  0.92757514436E+03 -0.77201606898E+03  0.12265410623E+04  0.90258854871E+02 0.  0.
        254    2    1    2    0    0 -0.19962929980E+03 -0.92757514436E+03  0.48697999405E+03  0.13901410530E+04  0.89168106793E+03 0.  0.
        -24    2    4    4    0    0 -0.24065753973E+03 -0.19336505177E+03  0.56262289957E+03  0.64665303825E+03  0.79432550477E+02 0.  0.
         24    2    4    4    0    0  0.41028239935E+02 -0.73421009259E+03 -0.75642905519E+02  0.74348801477E+03  0.79402785950E+02 0.  0.
         11    1    3    3    0    0  0.46378225100E+02  0.28718521898E+03 -0.28766249990E+03  0.40911612485E+03  0.00000000000E+00 0.  1.
        -11    1    3    3    0    0  0.15325107470E+03  0.64038992538E+03 -0.48435356908E+03  0.81742493741E+03  0.00000000000E+00 0. -1.
          2    1    6    6  502    0  0.62761935759E+02 -0.42805792498E+03 -0.49390737506E+02  0.43544470679E+03  0.00000000000E+00 0. -1.
          1    1    5    5  503    0 -0.23394580134E+03 -0.15904961630E+03  0.48408425092E+03  0.56068260219E+03  0.00000000000E+00 0. -1.
         -2    1    5    5    0  503 -0.67117383933E+01 -0.34315435472E+02  0.78538648655E+02  0.85970436061E+02  0.00000000000E+00 0.  1.
         -1    1    6    6    0  502 -0.21733695824E+02 -0.30615216761E+03 -0.26252168013E+02  0.30804330798E+03  0.00000000000E+00 0.  1.
<mgrwt>
<rscale>  0 0.26011112E+04</rscale>
<asrwt>0</asrwt>
<pdfrwt beam="1">  1        1 0.17935739E+00 0.26011112E+04</pdfrwt>
<pdfrwt beam="2">  1       -1 0.22320909E+00 0.26011112E+04</pdfrwt>
<totfact> 0.10443983E+00</totfact>
</mgrwt>
</event>
<event>
12    1  0.2588309E-007  0.1406940E+04  0.7818608E-02  0.8948810E-01
          1   -1    0    0  501    0  0.00000000000E+00  0.00000000000E+00  0.12293236915E+04  0.12293236915E+04  0.00000000000E+00 0. -1.
         -1   -1    0    0    0  501 -0.00000000000E+00 -0.00000000000E+00 -0.40255468940E+03  0.40255468940E+03  0.00000000000E+00 0.  1.
         23    2    1    2    0    0 -0.36393726776E+03 -0.13922658948E+03  0.39999502025E+03  0.56542658351E+03  0.88751490324E+02 0.  0.
        254    2    1    2    0    0  0.36393726776E+03  0.13922658948E+03  0.42677398189E+03  0.10664517974E+04  0.89629739849E+03 0.  0.
        -24    2    4    4    0    0  0.59937433060E+03  0.26745621148E+03  0.42661001692E+03  0.78663707122E+03  0.77584547725E+02 0.  0.
         24    2    4    4    0    0 -0.23543706284E+03 -0.12822962200E+03  0.16396497677E+00  0.27981472621E+03  0.80142420748E+02 0.  0.
         13    1    3    3    0    0 -0.16907834292E+03 -0.37468567791E+02  0.12610757312E+03  0.21423001567E+03  0.00000000000E+00 0. -1.
        -13    1    3    3    0    0 -0.19485892484E+03 -0.10175802169E+03  0.27388744713E+03  0.35119656784E+03  0.00000000000E+00 0.  1.
          4    1    6    6  502    0 -0.12322512853E+03 -0.21899906223E+02 -0.30468454398E+01  0.12519313664E+03  0.00000000000E+00 0. -1.
          1    1    5    5  503    0  0.53468410697E+03  0.21416885655E+03  0.35663205120E+03  0.67745244358E+03  0.00000000000E+00 0. -1.
         -2    1    5    5    0  503  0.64690223626E+02  0.53287354924E+02  0.69977965715E+02  0.10918462764E+03  0.00000000000E+00 0.  1.
         -3    1    6    6    0  502 -0.11221193431E+03 -0.10632971578E+03  0.32108104165E+01  0.15462158957E+03  0.00000000000E+00 0.  1.
<mgrwt>
<rscale>  0 0.14069400E+04</rscale>
<asrwt>0</asrwt>
<pdfrwt beam="1">  1        1 0.18912672E+00 0.14069400E+04</pdfrwt>
<pdfrwt beam="2">  1       -1 0.61931492E-01 0.14069400E+04</pdfrwt>
<totfact> 0.26213611E+01</totfact>
</mgrwt>
</event>
<event>
12    1  0.2588309E-007  0.1249257E+04  0.7818608E-02  0.9070802E-01
         -2   -1    0    0    0  501 -0.00000000000E+00  0.00000000000E+00  0.22074098502E+03  0.22074098502E+03  0.00000000000E+00 0.  1.
          2   -1    0    0  501    0  0.00000000000E+00 -0.00000000000E+00 -0.17675040145E+04  0.17675040145E+04  0.00000000000E+00 0. -1.
         23    2    1    2    0    0  0.10742729261E+03  0.17585563743E+03 -0.69779210958E+03  0.73323190807E+03  0.90826066743E+02 0.  0.
        254    2    1    2    0    0 -0.10742729261E+03 -0.17585563743E+03 -0.84897091990E+03  0.12550130914E+04  0.90102186902E+03 0.  0.
        -24    2    4    4    0    0 -0.48582601850E+03 -0.17588256912E+03 -0.59588281202E+03  0.79277607351E+03  0.80349105204E+02 0.  0.
         24    2    4    4    0    0  0.37839872589E+03  0.26931688666E-01 -0.25308810788E+03  0.46223701793E+03  0.80149073066E+02 0.  0.
         13    1    3    3    0    0 -0.10410329940E+02  0.10087628020E+01 -0.12836005806E+02  0.16557645271E+02  0.00000000000E+00 0.  1.
        -13    1    3    3    0    0  0.11783762255E+03  0.17484687463E+03 -0.68495610377E+03  0.71667426279E+03  0.00000000000E+00 0. -1.
          2    1    6    6  502    0  0.36339091009E+03 -0.16365556677E+02 -0.23103135617E+03  0.43092490357E+03  0.00000000000E+00 0. -1.
          1    1    5    5  503    0 -0.27187173982E+03 -0.13387767353E+03 -0.31371604005E+03  0.43618256289E+03  0.00000000000E+00 0. -1.
         -2    1    5    5    0  503 -0.21395427868E+03 -0.42004895592E+02 -0.28216677196E+03  0.35659351063E+03  0.00000000000E+00 0.  1.
         -1    1    6    6    0  502  0.15007815805E+02  0.16392488366E+02 -0.22056751707E+02  0.31312114363E+02  0.00000000000E+00 0.  1.
<mgrwt>
<rscale>  0 0.12492567E+04</rscale>
<asrwt>0</asrwt>
<pdfrwt beam="1">  1        2 0.27192370E+00 0.12492567E+04</pdfrwt>
<pdfrwt beam="2">  1       -2 0.33960151E-01 0.12492567E+04</pdfrwt>
<totfact> 0.71797471E+01</totfact>
</mgrwt>
</event>
<event>
12    1  0.2588309E-007  0.3192649E+04  0.7818608E-02  0.8190761E-01
         -2   -1    0    0    0  501 -0.00000000000E+00  0.00000000000E+00  0.77861098191E+03  0.77861098191E+03  0.00000000000E+00 0.  1.
          2   -1    0    0  501    0  0.00000000000E+00 -0.00000000000E+00 -0.32728172864E+04  0.32728172864E+04  0.00000000000E+00 0. -1.
         23    2    1    2    0    0 -0.14483486686E+04  0.99714799563E+02 -0.88443165225E+03  0.17024545359E+04  0.92060807141E+02 0.  0.
        254    2    1    2    0    0  0.14483486686E+04 -0.99714799563E+02 -0.16097746522E+04  0.23489737324E+04  0.90479072589E+03 0.  0.
        -24    2    4    4    0    0  0.44656983930E+03 -0.38162128056E+03 -0.93146826392E+03  0.11042489656E+04  0.81689828904E+02 0.  0.
         24    2    4    4    0    0  0.10017788293E+04  0.28190648100E+03 -0.67830638831E+03  0.12447247669E+04  0.78791509458E+02 0.  0.
         13    1    3    3    0    0 -0.73219312911E+03  0.58933315276E+02 -0.39450898326E+03  0.83379688884E+03  0.00000000000E+00 0. -1.
        -13    1    3    3    0    0 -0.71615553947E+03  0.40781484287E+02 -0.48992266899E+03  0.86865764704E+03  0.00000000000E+00 0.  1.
          2    1    6    6  502    0  0.32231533108E+03  0.12830534775E+03 -0.21580229214E+03  0.40855851993E+03  0.00000000000E+00 0. -1.
          1    1    5    5  503    0  0.13185932309E+02 -0.33056668152E+02 -0.75453651594E+02  0.83425809310E+02  0.00000000000E+00 0. -1.
         -2    1    5    5    0  503  0.43338390699E+03 -0.34856461241E+03 -0.85601461232E+03  0.10208231563E+04  0.00000000000E+00 0.  1.
         -1    1    6    6    0  502  0.67946349820E+03  0.15360113325E+03 -0.46250409617E+03  0.83616624692E+03  0.00000000000E+00 0.  1.
<mgrwt>
<rscale>  0 0.31926487E+04</rscale>
<asrwt>0</asrwt>
<pdfrwt beam="1">  1        2 0.50351035E+00 0.31926487E+04</pdfrwt>
<pdfrwt beam="2">  1       -2 0.11978631E+00 0.31926487E+04</pdfrwt>
<totfact> 0.52132732E-01</totfact>
</mgrwt>
</event>
<event>
12    1  0.2588309E-007  0.1967388E+04  0.7818608E-02  0.8622022E-01
          1   -1    0    0  501    0  0.00000000000E+00  0.00000000000E+00  0.70609844479E+03  0.70609844479E+03  0.00000000000E+00 0. -1.
         -1   -1    0    0    0  501 -0.00000000000E+00 -0.00000000000E+00 -0.13704229897E+04  0.13704229897E+04  0.00000000000E+00 0.  1.
         23    2    1    2    0    0 -0.57343290161E+03 -0.36697199520E+03  0.12695618920E+03  0.69826191967E+03  0.89208164321E+02 0.  0.
        254    2    1    2    0    0  0.57343290161E+03  0.36697199520E+03 -0.79128073408E+03  0.13782595148E+04  0.89998908440E+03 0.  0.
        -24    2    4    4    0    0  0.34444612884E+03 -0.10790864318E+02 -0.85463485622E+03  0.92486364797E+03  0.78819105833E+02 0.  0.
         24    2    4    4    0    0  0.22898677276E+03  0.37776285952E+03  0.63354122142E+02  0.45339586681E+03  0.80089619240E+02 0.  0.
         11    1    3    3    0    0 -0.12713581800E+03 -0.83411431685E+02 -0.89365170518E+01  0.15231823427E+03  0.00000000000E+00 0.  1.
        -11    1    3    3    0    0 -0.44629708361E+03 -0.28356056352E+03  0.13589270626E+03  0.54594368540E+03  0.00000000000E+00 0. -1.
          2    1    6    6  502    0  0.13008777703E+03  0.17319124833E+03 -0.31883895426E+01  0.21662918561E+03  0.00000000000E+00 0. -1.
          1    1    5    5  503    0  0.71013810773E+02 -0.38704762737E+01 -0.27322280762E+03  0.28232719406E+03  0.00000000000E+00 0. -1.
         -2    1    5    5    0  503  0.27343231807E+03 -0.69203880442E+01 -0.58141204860E+03  0.64253645390E+03  0.00000000000E+00 0.  1.
         -1    1    6    6    0  502  0.98898995731E+02  0.20457161119E+03  0.66542511684E+02  0.23676668119E+03  0.00000000000E+00 0.  1.
<mgrwt>
<rscale>  0 0.19673877E+04</rscale>
<asrwt>0</asrwt>
<pdfrwt beam="1">  1        1 0.10863053E+00 0.19673877E+04</pdfrwt>
<pdfrwt beam="2">  1       -1 0.21083430E+00 0.19673877E+04</pdfrwt>
<totfact> 0.31731920E+00</totfact>
</mgrwt>
</event>
<event>
12    1  0.2588309E-007  0.1482018E+04  0.7818608E-02  0.8896500E-01
          2   -1    0    0  501    0  0.00000000000E+00  0.00000000000E+00  0.20397803612E+04  0.20397803612E+04  0.00000000000E+00 0. -1.
         -2   -1    0    0    0  501 -0.00000000000E+00 -0.00000000000E+00 -0.26919282883E+03  0.26919282883E+03  0.00000000000E+00 0.  1.
         23    2    1    2    0    0  0.28555959354E+03  0.35427916042E+03  0.61829247078E+03  0.77279117266E+03  0.88671371588E+02 0.  0.
        254    2    1    2    0    0 -0.28555959354E+03 -0.35427916042E+03  0.11522950615E+04  0.15361820173E+04  0.90830241469E+03 0.  0.
        -24    2    4    4    0    0 -0.26501477601E+03  0.10561459777E+03  0.43608821351E+01  0.29681125609E+03  0.81796269373E+02 0.  0.
         24    2    4    4    0    0 -0.20544817533E+02 -0.45989375819E+03  0.11479341794E+04  0.12393707612E+04  0.79766190964E+02 0.  0.
         13    1    3    3    0    0 -0.80493787128E+00 -0.44848164450E+01  0.59707154355E+01  0.75107220914E+01  0.00000000000E+00 0. -1.
        -13    1    3    3    0    0  0.28636453141E+03  0.35876397687E+03  0.61232175535E+03  0.76528045057E+03  0.00000000000E+00 0.  1.
          2    1    6    6  502    0  0.21368722898E+02 -0.27700240427E+03  0.63171650566E+03  0.69011064172E+03  0.00000000000E+00 0. -1.
          1    1    5    5  503    0 -0.10233273876E+03  0.53440450877E+02  0.40206685621E+02  0.12224748987E+03  0.00000000000E+00 0. -1.
         -2    1    5    5    0  503 -0.16268203725E+03  0.52174146890E+02 -0.35845803486E+02  0.17456376622E+03  0.00000000000E+00 0.  1.
         -1    1    6    6    0  502 -0.41913540431E+02 -0.18289135392E+03  0.51621767374E+03  0.54926011952E+03  0.00000000000E+00 0.  1.
<mgrwt>
<rscale>  0 0.14820179E+04</rscale>
<asrwt>0</asrwt>
<pdfrwt beam="1">  1        2 0.31381235E+00 0.14820179E+04</pdfrwt>
<pdfrwt beam="2">  1       -2 0.41414283E-01 0.14820179E+04</pdfrwt>
<totfact> 0.33946820E+01</totfact>
</mgrwt>
</event>
<event>
12    1  0.2588309E-007  0.2780214E+04  0.7818608E-02  0.8309437E-01
         -1   -1    0    0    0  501 -0.00000000000E+00  0.00000000000E+00  0.73858705934E+03  0.73858705934E+03  0.00000000000E+00 0. -1.
          1   -1    0    0  501    0  0.00000000000E+00 -0.00000000000E+00 -0.26163442453E+04  0.26163442453E+04  0.00000000000E+00 0.  1.
         23    2    1    2    0    0  0.10155314905E+04 -0.56070200753E+03 -0.31996534136E+03  0.12075471662E+04  0.10050566860E+03 0.  0.
        254    2    1    2    0    0 -0.10155314905E+04  0.56070200753E+03 -0.15577918446E+04  0.21473841385E+04  0.91588878018E+03 0.  0.
        -24    2    4    4    0    0  0.93735675784E+02  0.22438413726E+03 -0.81386165976E+02  0.26879813294E+03  0.80586042779E+02 0.  0.
         24    2    4    4    0    0 -0.11092671663E+04  0.33631787027E+03 -0.14764056786E+04  0.18785860055E+04  0.75685509191E+02 0.  0.
         13    1    3    3    0    0  0.42326303375E+03 -0.24174481625E+03 -0.18555180412E+03  0.52155692301E+03  0.00000000000E+00 0.  1.
        -13    1    3    3    0    0  0.59226845673E+03 -0.31895719129E+03 -0.13441353723E+03  0.68599024315E+03  0.00000000000E+00 0. -1.
          2    1    6    6  502    0 -0.44776449123E+03  0.97126569726E+02 -0.58053299767E+03  0.73955741598E+03  0.00000000000E+00 0. -1.
          3    1    5    5  503    0  0.22205165217E+02  0.15466249611E+03 -0.47210913454E+02  0.16322508206E+03  0.00000000000E+00 0. -1.
         -4    1    5    5    0  503  0.71530510567E+02  0.69721641154E+02 -0.34175252522E+02  0.10557305088E+03  0.00000000000E+00 0.  1.
         -1    1    6    6    0  502 -0.66150267504E+03  0.23919130055E+03 -0.89587268097E+03  0.11390285896E+04  0.00000000000E+00 0.  1.
<mgrwt>
<rscale>  0 0.27802144E+04</rscale>
<asrwt>0</asrwt>
<pdfrwt beam="1">  1        1 0.40251450E+00 0.27802144E+04</pdfrwt>
<pdfrwt beam="2">  1       -1 0.11362878E+00 0.27802144E+04</pdfrwt>
<totfact> 0.68812809E-01</totfact>
</mgrwt>
</event>
<event>
12    1  0.2588309E-007  0.1795045E+04  0.7818608E-02  0.8708939E-01
         -2   -1    0    0    0  501 -0.00000000000E+00  0.00000000000E+00  0.42149887535E+03  0.42149887535E+03  0.00000000000E+00 0.  1.
          2   -1    0    0  501    0  0.00000000000E+00 -0.00000000000E+00 -0.19111486725E+04  0.19111486725E+04  0.00000000000E+00 0. -1.
         23    2    1    2    0    0 -0.30301977346E+03 -0.47526927447E+03 -0.10445626026E+03  0.58632934558E+03  0.12316300098E+03 0.  0.
        254    2    1    2    0    0  0.30301977346E+03  0.47526927447E+03 -0.13851935369E+04  0.17463182023E+04  0.90175621019E+03 0.  0.
        -24    2    4    4    0    0  0.54469087334E+03  0.31524187044E+02 -0.69214957139E+03  0.88494347026E+03  0.79824773758E+02 0.  0.
         24    2    4    4    0    0 -0.24167109988E+03  0.44374508742E+03 -0.69304396554E+03  0.86137473206E+03  0.79635844457E+02 0.  0.
         13    1    3    3    0    0 -0.22718971529E+02 -0.87516780726E+02 -0.53765001955E+02  0.10519512351E+03  0.00000000000E+00 0. -1.
        -13    1    3    3    0    0 -0.28030080193E+03 -0.38775249374E+03 -0.50691258309E+02  0.48113422206E+03  0.00000000000E+00 0.  1.
          4    1    6    6  502    0 -0.73266048107E+01  0.19960928594E+02 -0.85932974135E+01  0.22933873829E+02  0.00000000000E+00 0. -1.
          3    1    5    5  503    0  0.35119174758E+03  0.51697684086E+02 -0.48140540549E+03  0.59812996793E+03  0.00000000000E+00 0. -1.
         -4    1    5    5    0  503  0.19349912576E+03 -0.20173497042E+02 -0.21074416591E+03  0.28681350232E+03  0.00000000000E+00 0.  1.
         -3    1    6    6    0  502 -0.23434449507E+03  0.42378415883E+03 -0.68445066813E+03  0.83844085823E+03  0.00000000000E+00 0.  1.
<mgrwt>
<rscale>  0 0.17950454E+04</rscale>
<asrwt>0</asrwt>
<pdfrwt beam="1">  1        2 0.29402287E+00 0.17950454E+04</pdfrwt>
<pdfrwt beam="2">  1       -2 0.64845981E-01 0.17950454E+04</pdfrwt>
<totfact> 0.15512957E+01</totfact>
</mgrwt>
</event>
<event>
12    1  0.2588309E-007  0.2384435E+04  0.7818608E-02  0.8445354E-01
          2   -1    0    0  501    0  0.00000000000E+00  0.00000000000E+00  0.18276327934E+04  0.18276327934E+04  0.00000000000E+00 0. -1.
         -2   -1    0    0    0  501 -0.00000000000E+00 -0.00000000000E+00 -0.77771775184E+03  0.77771775184E+03  0.00000000000E+00 0.  1.
         23    2    1    2    0    0 -0.46477126071E+03 -0.59122958343E+03  0.12055310192E+04  0.14238148640E+04  0.91536787630E+02 0.  0.
        254    2    1    2    0    0  0.46477126071E+03  0.59122958343E+03 -0.15561597770E+03  0.11815356812E+04  0.89791173753E+03 0.  0.
        -24    2    4    4    0    0 -0.19907329363E+03 -0.72653314089E+02  0.16018843618E+01  0.22625582348E+03  0.79249298679E+02 0.  0.
         24    2    4    4    0    0  0.66384455434E+03  0.66388289752E+03 -0.15721786206E+03  0.95527985774E+03  0.80075317762E+02 0.  0.
         11    1    3    3    0    0 -0.33108970526E+03 -0.34994816953E+03  0.76686553308E+03  0.90563064221E+03  0.00000000000E+00 0.  1.
        -11    1    3    3    0    0 -0.13368155545E+03 -0.24128141390E+03  0.43866548613E+03  0.51818422176E+03  0.00000000000E+00 0. -1.
          4    1    6    6  502    0  0.55710789726E+03  0.58823386208E+03 -0.11816920972E+03  0.81875041851E+03  0.00000000000E+00 0. -1.
          3    1    5    5  503    0 -0.17694943087E+03 -0.77448927337E+02 -0.20965507628E+02  0.19429099295E+03  0.00000000000E+00 0. -1.
         -4    1    5    5    0  503 -0.22123862761E+02  0.47956132474E+01  0.22567391989E+02  0.31964830534E+02  0.00000000000E+00 0.  1.
         -3    1    6    6    0  502  0.10673665708E+03  0.75649035435E+02 -0.39048652337E+02  0.13652943923E+03  0.00000000000E+00 0.  1.
<mgrwt>
<rscale>  0 0.23844349E+04</rscale>
<asrwt>0</asrwt>
<pdfrwt beam="1">  1        2 0.28117427E+00 0.23844349E+04</pdfrwt>
<pdfrwt beam="2">  1       -2 0.11964889E+00 0.23844349E+04</pdfrwt>
<totfact> 0.40116831E+00</totfact>
</mgrwt>
</event>
<event>
12    1  0.2588309E-007  0.4877510E+04  0.7818608E-02  0.7847685E-01
          2   -1    0    0  501    0  0.00000000000E+00  0.00000000000E+00  0.16082712681E+04  0.16082712681E+04  0.00000000000E+00 0. -1.
         -2   -1    0    0    0  501 -0.00000000000E+00 -0.00000000000E+00 -0.36980856302E+04  0.36980856302E+04  0.00000000000E+00 0.  1.
         23    2    1    2    0    0  0.65282985147E+03  0.22133043167E+04 -0.49873380441E+03  0.23626105376E+04  0.91051255639E+02 0.  0.
        254    2    1    2    0    0 -0.65282985147E+03 -0.22133043167E+04 -0.15910805577E+04  0.29437463608E+04  0.89955682554E+03 0.  0.
        -24    2    4    4    0    0 -0.16817486408E+02 -0.19248447138E+03 -0.53611448113E+03  0.57568797021E+03  0.81638242199E+02 0.  0.
         24    2    4    4    0    0 -0.63601236506E+03 -0.20208198453E+04 -0.10549660765E+04  0.23680583906E+04  0.80762261105E+02 0.  0.
         13    1    3    3    0    0  0.25553919822E+03  0.96696874082E+03 -0.18031344362E+03  0.10162882295E+04  0.00000000000E+00 0. -1.
        -13    1    3    3    0    0  0.39729065325E+03  0.12463355759E+04 -0.31842036079E+03  0.13463223080E+04  0.00000000000E+00 0.  1.
          2    1    6    6  502    0 -0.38984759253E+03 -0.12088925036E+04 -0.67540924112E+03  0.14386034456E+04  0.00000000000E+00 0. -1.
          1    1    5    5  503    0  0.26082375785E+01 -0.18349290977E+03 -0.50945236369E+03  0.54149622502E+03  0.00000000000E+00 0. -1.
         -2    1    5    5    0  503 -0.19425723987E+02 -0.89915616140E+01 -0.26662117444E+02  0.34191745192E+02  0.00000000000E+00 0.  1.
         -1    1    6    6    0  502 -0.24616477253E+03 -0.81192734174E+03 -0.37955683542E+03  0.92945494501E+03  0.00000000000E+00 0.  1.
<mgrwt>
<rscale>  0 0.48775096E+04</rscale>
<asrwt>0</asrwt>
<pdfrwt beam="1">  1        2 0.24742635E+00 0.48775096E+04</pdfrwt>
<pdfrwt beam="2">  1       -2 0.56893624E+00 0.48775096E+04</pdfrwt>
<totfact> 0.56443313E-03</totfact>
</mgrwt>
</event>
<event>
12    1  0.2588309E-007  0.1660810E+04  0.7818608E-02  0.8784037E-01
          2   -1    0    0  501    0  0.00000000000E+00  0.00000000000E+00  0.21858812221E+04  0.21858812221E+04  0.00000000000E+00 0. -1.
         -2   -1    0    0    0  501 -0.00000000000E+00 -0.00000000000E+00 -0.31546660922E+03  0.31546660922E+03  0.00000000000E+00 0.  1.
         23    2    1    2    0    0  0.44325398900E+03 -0.33777502164E+03  0.91478222116E+03  0.10752505814E+04  0.93654880133E+02 0.  0.
        254    2    1    2    0    0 -0.44325398900E+03  0.33777502164E+03  0.95563239170E+03  0.14260972499E+04  0.89997446306E+03 0.  0.
        -24    2    4    4    0    0  0.17765861258E+03  0.23121148751E+03  0.65875000468E+03  0.72510415566E+03  0.82481108771E+02 0.  0.
         24    2    4    4    0    0 -0.62091260159E+03  0.10656353413E+03  0.29688238702E+03  0.70099309426E+03  0.79774186742E+02 0.  0.
         13    1    3    3    0    0  0.28496612092E+03 -0.15912800299E+03  0.52285387808E+03  0.61636319588E+03  0.00000000000E+00 0. -1.
        -13    1    3    3    0    0  0.15828786808E+03 -0.17864701865E+03  0.39192834308E+03  0.45888738549E+03  0.00000000000E+00 0.  1.
          4    1    6    6  502    0 -0.41273547999E+03  0.33416191727E+02  0.20357216268E+03  0.46142046306E+03  0.00000000000E+00 0. -1.
          3    1    5    5  503    0  0.75323282327E+02  0.12026692497E+03  0.22673409635E+03  0.26748099100E+03  0.00000000000E+00 0. -1.
         -2    1    5    5    0  503  0.10233533026E+03  0.11094456255E+03  0.43201590833E+03  0.45762316466E+03  0.00000000000E+00 0.  1.
         -3    1    6    6    0  502 -0.20817712160E+03  0.73147342399E+02  0.93310224338E+02  0.23957263121E+03  0.00000000000E+00 0.  1.
<mgrwt>
<rscale>  0 0.16608101E+04</rscale>
<asrwt>0</asrwt>
<pdfrwt beam="1">  1        2 0.33628941E+00 0.16608101E+04</pdfrwt>
<pdfrwt beam="2">  1       -2 0.48533326E-01 0.16608101E+04</pdfrwt>
<totfact> 0.20194930E+01</totfact>
</mgrwt>
</event>
<event>
12    1  0.2588309E-007  0.2331326E+04  0.7818608E-02  0.8465671E-01
          2   -1    0    0  501    0  0.00000000000E+00  0.00000000000E+00  0.76656262994E+03  0.76656262994E+03  0.00000000000E+00 0. -1.
         -2   -1    0    0    0  501 -0.00000000000E+00 -0.00000000000E+00 -0.17725487951E+04  0.17725487951E+04  0.00000000000E+00 0.  1.
         23    2    1    2    0    0 -0.97272043922E+03 -0.18212449010E+03 -0.38921931189E+03  0.10673736554E+04  0.91872002019E+02 0.  0.
        254    2    1    2    0    0  0.97272043922E+03  0.18212449010E+03 -0.61676685324E+03  0.14717377696E+04  0.89791777375E+03 0.  0.
        -24    2    4    4    0    0  0.66870854223E+03  0.40507557050E+03 -0.72733774017E+03  0.10707088437E+04  0.78357561761E+02 0.  0.
         24    2    4    4    0    0  0.30401189700E+03 -0.22295108041E+03  0.11057088693E+03  0.40102892587E+03  0.80423010266E+02 0.  0.
         13    1    3    3    0    0 -0.46808117275E+03 -0.10047677746E+03 -0.14087135895E+03  0.49903938408E+03  0.00000000000E+00 0. -1.
        -13    1    3    3    0    0 -0.50463926647E+03 -0.81647712639E+02 -0.24834795294E+03  0.56833427133E+03  0.00000000000E+00 0.  1.
          2    1    6    6  502    0  0.14077770854E+03 -0.11900217441E+03  0.14318182555E+02  0.18489156576E+03  0.00000000000E+00 0. -1.
          3    1    5    5  503    0  0.13201815156E+02 -0.84367180522E+00 -0.22372572333E+02  0.25990992639E+02  0.00000000000E+00 0. -1.
         -4    1    5    5    0  503  0.65550672707E+03  0.40591924231E+03 -0.70496516784E+03  0.10447178511E+04  0.00000000000E+00 0.  1.
         -3    1    6    6    0  502  0.16323418846E+03 -0.10394890600E+03  0.96252704373E+02  0.21613736012E+03  0.00000000000E+00 0.  1.
<mgrwt>
<rscale>  0 0.23313255E+04</rscale>
<asrwt>0</asrwt>
<pdfrwt beam="1">  1        2 0.11793271E+00 0.23313255E+04</pdfrwt>
<pdfrwt beam="2">  1       -2 0.27269981E+00 0.23313255E+04</pdfrwt>
<totfact> 0.15379094E+00</totfact>
</mgrwt>
</event>
<event>
12    1  0.2588309E-007  0.1270824E+04  0.7818608E-02  0.9053027E-01
          2   -1    0    0  501    0  0.00000000000E+00  0.00000000000E+00  0.35222699557E+03  0.35222699557E+03  0.00000000000E+00 0. -1.
         -2   -1    0    0    0  501 -0.00000000000E+00 -0.00000000000E+00 -0.11462735500E+04  0.11462735500E+04  0.00000000000E+00 0.  1.
         23    2    1    2    0    0 -0.27102538323E+03  0.15215711539E+03 -0.27374332497E+03  0.42405427270E+03  0.90994901553E+02 0.  0.
        254    2    1    2    0    0  0.27102538323E+03 -0.15215711539E+03 -0.52030322947E+03  0.10744462729E+04  0.88719377623E+03 0.  0.
        -24    2    4    4    0    0 -0.24835989192E+03 -0.20560596968E+03 -0.42194515832E+03  0.53726894011E+03  0.81631775024E+02 0.  0.
         24    2    4    4    0    0  0.51938527515E+03  0.53448854289E+02 -0.98358071152E+02  0.53717733277E+03  0.79166486689E+02 0.  0.
         13    1    3    3    0    0 -0.93178867290E+02  0.21443896868E+02 -0.12716334453E+03  0.15909952299E+03  0.00000000000E+00 0.  1.
        -13    1    3    3    0    0 -0.17784651594E+03  0.13071321852E+03 -0.14657998044E+03  0.26495474971E+03  0.00000000000E+00 0. -1.
          4    1    6    6  502    0  0.23021313231E+03  0.63031161707E+02 -0.49085407787E+02  0.24368092024E+03  0.00000000000E+00 0. -1.
          1    1    5    5  503    0 -0.13486511690E+03 -0.15001635619E+03 -0.21526331051E+03  0.29501152474E+03  0.00000000000E+00 0. -1.
         -4    1    5    5    0  503 -0.11349477501E+03 -0.55589613494E+02 -0.20668184781E+03  0.24225741536E+03  0.00000000000E+00 0.  1.
         -3    1    6    6    0  502  0.28917214284E+03 -0.95823074183E+01 -0.49272663365E+02  0.29349641252E+03  0.00000000000E+00 0.  1.
<mgrwt>
<rscale>  0 0.12708241E+04</rscale>
<asrwt>0</asrwt>
<pdfrwt beam="1">  1        2 0.54188768E-01 0.12708241E+04</pdfrwt>
<pdfrwt beam="2">  1       -2 0.17634978E+00 0.12708241E+04</pdfrwt>
<totfact> 0.17303229E+01</totfact>
</mgrwt>
</event>
<event>
12    1  0.2588309E-007  0.1574437E+04  0.7818608E-02  0.8836408E-01
         -2   -1    0    0    0  501 -0.00000000000E+00  0.00000000000E+00  0.38868855882E+03  0.38868855882E+03  0.00000000000E+00 0.  1.
          2   -1    0    0  501    0  0.00000000000E+00 -0.00000000000E+00 -0.15943699068E+04  0.15943699068E+04  0.00000000000E+00 0. -1.
         23    2    1    2    0    0 -0.94293466583E+02  0.51409950080E+03 -0.46156479987E+03  0.70316408358E+03  0.90598617016E+02 0.  0.
        254    2    1    2    0    0  0.94293466583E+02 -0.51409950080E+03 -0.74411654812E+03  0.12798943820E+04  0.90068342797E+03 0.  0.
        -24    2    4    4    0    0 -0.18904873348E+03 -0.11033509747E+03 -0.74460386435E+03  0.78006785465E+03  0.78470922517E+02 0.  0.
         24    2    4    4    0    0  0.28334220006E+03 -0.40376440332E+03  0.48731622796E+00  0.49982652739E+03  0.80733043323E+02 0.  0.
         13    1    3    3    0    0 -0.54729499467E+02  0.40335987741E+03 -0.39884964703E+03  0.56989082266E+03  0.00000000000E+00 0. -1.
        -13    1    3    3    0    0 -0.39563967116E+02  0.11073962338E+03 -0.62715152836E+02  0.13327326092E+03  0.00000000000E+00 0.  1.
          2    1    6    6  502    0  0.24180708768E+03 -0.32401796793E+03 -0.28636682691E+02  0.40531268274E+03  0.00000000000E+00 0. -1.
          1    1    5    5  503    0 -0.18456824177E+03 -0.11634079762E+03 -0.65986053551E+03  0.69499391608E+03  0.00000000000E+00 0. -1.
         -2    1    5    5    0  503 -0.44804917008E+01  0.60057001470E+01 -0.84743328839E+02  0.85073938564E+02  0.00000000000E+00 0.  1.
         -1    1    6    6    0  502  0.41535112378E+02 -0.79746435398E+02  0.29123998919E+02  0.94513844658E+02  0.00000000000E+00 0.  1.
<mgrwt>
<rscale>  0 0.15744375E+04</rscale>
<asrwt>0</asrwt>
<pdfrwt beam="1">  1        2 0.24528768E+00 0.15744375E+04</pdfrwt>
<pdfrwt beam="2">  1       -2 0.59798239E-01 0.15744375E+04</pdfrwt>
<totfact> 0.28148977E+01</totfact>
</mgrwt>
</event>
<event>
12    1  0.2588309E-007  0.3762053E+04  0.7818608E-02  0.8054348E-01
         -1   -1    0    0    0  501 -0.00000000000E+00  0.00000000000E+00  0.13954937960E+04  0.13954937960E+04  0.00000000000E+00 0.  1.
          1   -1    0    0  501    0  0.00000000000E+00 -0.00000000000E+00 -0.25354902014E+04  0.25354902014E+04  0.00000000000E+00 0. -1.
         23    2    1    2    0    0 -0.44476720685E+03 -0.16797746174E+04 -0.90202566657E+03  0.19599795427E+04  0.91699898376E+02 0.  0.
        254    2    1    2    0    0  0.44476720685E+03  0.16797746174E+04 -0.23797073890E+03  0.19710044547E+04  0.89931521415E+03 0.  0.
        -24    2    4    4    0    0 -0.14027164596E+03  0.88839825469E+03 -0.36828662066E+03  0.97514731457E+03  0.79684732272E+02 0.  0.
         24    2    4    4    0    0  0.58503885282E+03  0.79137636268E+03  0.13031588177E+03  0.99585714012E+03  0.78754096866E+02 0.  0.
         11    1    3    3    0    0 -0.30179766454E+03 -0.12536677774E+04 -0.63749855323E+03  0.14384606813E+04  0.00000000000E+00 0.  1.
        -11    1    3    3    0    0 -0.14296954231E+03 -0.42610683998E+03 -0.26452711334E+03  0.52151886141E+03  0.00000000000E+00 0. -1.
          2    1    6    6  502    0  0.11205892060E+03  0.18732538901E+03  0.39138144154E+01  0.21831930972E+03  0.00000000000E+00 0. -1.
          3    1    5    5  503    0 -0.29452926817E+02  0.19009103437E+03 -0.11493633720E+03  0.22408131974E+03  0.00000000000E+00 0. -1.
         -4    1    5    5    0  503 -0.11081871915E+03  0.69830722032E+03 -0.25335028346E+03  0.75106599483E+03  0.00000000000E+00 0.  1.
         -3    1    6    6    0  502  0.47297993221E+03  0.60405097367E+03  0.12640206735E+03  0.77753783040E+03  0.00000000000E+00 0.  1.
<mgrwt>
<rscale>  0 0.37620531E+04</rscale>
<asrwt>0</asrwt>
<pdfrwt beam="1">  1        1 0.39007541E+00 0.37620531E+04</pdfrwt>
<pdfrwt beam="2">  1       -1 0.21469136E+00 0.37620531E+04</pdfrwt>
<totfact> 0.12205843E-01</totfact>
</mgrwt>
</event>
<event>
12    1  0.2588309E-007  0.2859504E+04  0.7818608E-02  0.8285029E-01
         -2   -1    0    0    0  501 -0.00000000000E+00  0.00000000000E+00  0.79933797261E+03  0.79933797261E+03  0.00000000000E+00 0.  1.
          2   -1    0    0  501    0  0.00000000000E+00 -0.00000000000E+00 -0.25573542857E+04  0.25573542857E+04  0.00000000000E+00 0. -1.
         23    2    1    2    0    0  0.51364380836E+03  0.11402093546E+04 -0.11437557135E+04  0.16971001546E+04  0.89802384774E+02 0.  0.
        254    2    1    2    0    0 -0.51364380836E+03 -0.11402093546E+04 -0.61426059956E+03  0.16595921037E+04  0.90167762100E+03 0.  0.
        -24    2    4    4    0    0 -0.51665178677E+03 -0.12771874728E+04 -0.52137639326E+03  0.14753135842E+04  0.81116697571E+02 0.  0.
         24    2    4    4    0    0  0.30079784153E+01  0.13697811821E+03 -0.92884206300E+02  0.18427851952E+03  0.80987926107E+02 0.  0.
         13    1    3    3    0    0  0.45931497420E+03  0.10572025352E+04 -0.10262828037E+04  0.15433417765E+04  0.00000000000E+00 0.  1.
        -13    1    3    3    0    0  0.54328834156E+02  0.83006819413E+02 -0.11747290980E+03  0.15375837807E+03  0.00000000000E+00 0. -1.
          4    1    6    6  502    0 -0.70535353126E+01  0.10671762280E+03 -0.10527099184E+03  0.15006793495E+03  0.00000000000E+00 0. -1.
          3    1    5    5  503    0 -0.47167651238E+03 -0.12122594419E+04 -0.49905501046E+03  0.13932363727E+04  0.00000000000E+00 0. -1.
         -4    1    5    5    0  503 -0.44975274394E+02 -0.64928030925E+02 -0.22321382796E+02  0.82077211433E+02  0.00000000000E+00 0.  1.
         -3    1    6    6    0  502  0.10061513728E+02  0.30260495410E+02  0.12386785540E+02  0.34210584575E+02  0.00000000000E+00 0.  1.
<mgrwt>
<rscale>  0 0.28595037E+04</rscale>
<asrwt>0</asrwt>
<pdfrwt beam="1">  1        2 0.39343912E+00 0.28595037E+04</pdfrwt>
<pdfrwt beam="2">  1       -2 0.12297507E+00 0.28595037E+04</pdfrwt>
<totfact> 0.13939627E+00</totfact>
</mgrwt>
</event>
<event>
12    1  0.2588309E-007  0.2621487E+04  0.7818608E-02  0.8360939E-01
         -1   -1    0    0    0  501 -0.00000000000E+00  0.00000000000E+00  0.97877190305E+03  0.97877190305E+03  0.00000000000E+00 0.  1.
          1   -1    0    0  501    0  0.00000000000E+00 -0.00000000000E+00 -0.17553098591E+04  0.17553098591E+04  0.00000000000E+00 0. -1.
         23    2    1    2    0    0 -0.33699573327E+03 -0.10667266830E+04 -0.64502745162E+03  0.12931717683E+04  0.68999047871E+02 0.  0.
        254    2    1    2    0    0  0.33699573327E+03  0.10667266830E+04 -0.13151050447E+03  0.14409099939E+04  0.89858480798E+03 0.  0.
        -24    2    4    4    0    0 -0.26461048515E+02  0.10260834531E+04 -0.22761921375E+03  0.10545753855E+04  0.82287893149E+02 0.  0.
         24    2    4    4    0    0  0.36345678178E+03  0.40643229869E+02  0.96108709285E+02  0.38633460835E+03  0.79150750139E+02 0.  0.
         11    1    3    3    0    0 -0.20058597452E+03 -0.57418620816E+03 -0.31685943882E+03  0.68580204052E+03  0.00000000000E+00 0.  1.
        -11    1    3    3    0    0 -0.13640975875E+03 -0.49254047485E+03 -0.32816801280E+03  0.60736972782E+03  0.00000000000E+00 0. -1.
          4    1    6    6  502    0  0.19466511186E+03  0.53353126882E+02  0.27581717817E+02  0.20371993786E+03  0.00000000000E+00 0. -1.
          1    1    5    5  503    0 -0.94733718525E+01  0.93336906394E+03 -0.18713440744E+03  0.95199098774E+03  0.00000000000E+00 0. -1.
         -2    1    5    5    0  503 -0.16987676663E+02  0.92714389195E+02 -0.40484806315E+02  0.10258439776E+03  0.00000000000E+00 0.  1.
         -3    1    6    6    0  502  0.16879166992E+03 -0.12709897014E+02  0.68526991468E+02  0.18261467049E+03  0.00000000000E+00 0.  1.
<mgrwt>
<rscale>  0 0.26214866E+04</rscale>
<asrwt>0</asrwt>
<pdfrwt beam="1">  1        1 0.27004767E+00 0.26214866E+04</pdfrwt>
<pdfrwt beam="2">  1       -1 0.15058029E+00 0.26214866E+04</pdfrwt>
<totfact> 0.13262890E+00</totfact>
</mgrwt>
</event>
<event>
12    1  0.2588309E-007  0.1996049E+04  0.7818608E-02  0.8608470E-01
         -2   -1    0    0    0  501 -0.00000000000E+00  0.00000000000E+00  0.45216782958E+03  0.45216782958E+03  0.00000000000E+00 0.  1.
          2   -1    0    0  501    0  0.00000000000E+00 -0.00000000000E+00 -0.22028400124E+04  0.22028400124E+04  0.00000000000E+00 0. -1.
         23    2    1    2    0    0 -0.27789075517E+03 -0.73367877649E+03 -0.85415845235E+03  0.11636372448E+04  0.94642257467E+02 0.  0.
        254    2    1    2    0    0  0.27789075517E+03  0.73367877649E+03 -0.89651373043E+03  0.14913705971E+04  0.89718536004E+03 0.  0.
        -24    2    4    4    0    0 -0.10078558513E+02  0.67021146007E+03 -0.96519059459E+03  0.11778134054E+04  0.79790698785E+02 0.  0.
         24    2    4    4    0    0  0.28796931369E+03  0.63467316425E+02  0.68676864164E+02  0.31355719169E+03  0.81530208580E+02 0.  0.
         13    1    3    3    0    0 -0.91450721827E+02 -0.21180730645E+03 -0.19178195691E+03  0.30000981415E+03  0.00000000000E+00 0.  1.
        -13    1    3    3    0    0 -0.18644003335E+03 -0.52187147004E+03 -0.66237649544E+03  0.86362743066E+03  0.00000000000E+00 0. -1.
          4    1    6    6  502    0  0.11224465954E+03  0.65721354555E+02  0.33817064002E+02  0.13439402464E+03  0.00000000000E+00 0. -1.
          3    1    5    5  503    0  0.10383038386E+02  0.15723685645E+03 -0.28453987085E+03  0.32526016451E+03  0.00000000000E+00 0. -1.
         -2    1    5    5    0  503 -0.20461596899E+02  0.51297460361E+03 -0.68065072374E+03  0.85255324094E+03  0.00000000000E+00 0.  1.
         -3    1    6    6    0  502  0.17572465414E+03 -0.22540381309E+01  0.34859800162E+02  0.17916316705E+03  0.00000000000E+00 0.  1.
<mgrwt>
<rscale>  0 0.19960495E+04</rscale>
<asrwt>0</asrwt>
<pdfrwt beam="1">  1        2 0.33889846E+00 0.19960495E+04</pdfrwt>
<pdfrwt beam="2">  1       -2 0.69564281E-01 0.19960495E+04</pdfrwt>
<totfact> 0.90106341E+00</totfact>
</mgrwt>
</event>
<event>
12    1  0.2588309E-007  0.1871064E+04  0.7818608E-02  0.8669395E-01
          1   -1    0    0  501    0  0.00000000000E+00  0.00000000000E+00  0.15570364412E+04  0.15570364412E+04  0.00000000000E+00 0. -1.
         -1   -1    0    0    0  501 -0.00000000000E+00 -0.00000000000E+00 -0.56210634950E+03  0.56210634950E+03  0.00000000000E+00 0.  1.
         23    2    1    2    0    0  0.64705705720E+03 -0.19481733896E+03  0.12425942013E+03  0.69528394494E+03  0.10650225245E+03 0.  0.
        254    2    1    2    0    0 -0.64705705720E+03  0.19481733896E+03  0.87067067160E+03  0.14238588458E+04  0.90148209274E+03 0.  0.
        -24    2    4    4    0    0  0.16983315831E+03 -0.74105914707E+02  0.38112527610E+03  0.43106230383E+03  0.78887549353E+02 0.  0.
         24    2    4    4    0    0 -0.81689021551E+03  0.26892325366E+03  0.48954539550E+03  0.99279654196E+03  0.79755494664E+02 0.  0.
         11    1    3    3    0    0  0.18880680655E+03 -0.32135792894E+02 -0.68646191392E+01  0.19164509485E+03  0.00000000000E+00 0.  1.
        -11    1    3    3    0    0  0.45825025065E+03 -0.16268154606E+03  0.13112403927E+03  0.50363885009E+03  0.00000000000E+00 0. -1.
          4    1    6    6  502    0 -0.67150079700E+03  0.20018865725E+03  0.42492004274E+03  0.81947901839E+03  0.00000000000E+00 0. -1.
          3    1    5    5  503    0  0.15820217967E+03 -0.88641081811E+02  0.35856217252E+03  0.40181090404E+03  0.00000000000E+00 0. -1.
         -2    1    5    5    0  503  0.11630978633E+02  0.14535167103E+02  0.22563103580E+02  0.29251399793E+02  0.00000000000E+00 0.  1.
         -3    1    6    6    0  502 -0.14538941850E+03  0.68734596413E+02  0.64625352763E+02  0.17331752357E+03  0.00000000000E+00 0.  1.
<mgrwt>
<rscale>  0 0.18710639E+04</rscale>
<asrwt>0</asrwt>
<pdfrwt beam="1">  1        1 0.23954407E+00 0.18710639E+04</pdfrwt>
<pdfrwt beam="2">  1       -1 0.86477900E-01 0.18710639E+04</pdfrwt>
<totfact> 0.73874692E+00</totfact>
</mgrwt>
</event>
<event>
12    1  0.2588309E-007  0.2164112E+04  0.7818608E-02  0.8533516E-01
          2   -1    0    0  501    0  0.00000000000E+00  0.00000000000E+00  0.86483923358E+03  0.86483923358E+03  0.00000000000E+00 0. -1.
         -2   -1    0    0    0  501 -0.00000000000E+00 -0.00000000000E+00 -0.13538302639E+04  0.13538302639E+04  0.00000000000E+00 0.  1.
         23    2    1    2    0    0  0.15133788596E+03 -0.80134347200E+03 -0.57290567461E+03  0.10007184922E+04  0.90344190907E+02 0.  0.
        254    2    1    2    0    0 -0.15133788596E+03  0.80134347200E+03  0.83914644291E+02  0.12179510053E+04  0.90072663325E+03 0.  0.
        -24    2    4    4    0    0 -0.23850716877E+03  0.97026564112E+03  0.11408410577E+03  0.10089801490E+04  0.82004109089E+02 0.  0.
         24    2    4    4    0    0  0.87169282803E+02 -0.16892216912E+03 -0.30169461475E+02  0.20897085630E+03  0.81396801486E+02 0.  0.
         13    1    3    3    0    0  0.61347603737E+02 -0.30662956890E+03 -0.27391288956E+03  0.41570842195E+03  0.00000000000E+00 0.  1.
        -13    1    3    3    0    0  0.89990282227E+02 -0.49471390310E+03 -0.29899278505E+03  0.58501007028E+03  0.00000000000E+00 0. -1.
          2    1    6    6  502    0  0.62978705100E+02 -0.41757696540E+02 -0.24365656146E+02  0.79395892311E+02  0.00000000000E+00 0. -1.
          1    1    5    5  503    0 -0.11773625321E+02  0.12355526527E+03  0.34565457877E+02  0.12883824241E+03  0.00000000000E+00 0. -1.
         -2    1    5    5    0  503 -0.22673354345E+03  0.84671037585E+03  0.79518647888E+02  0.88014190655E+03  0.00000000000E+00 0.  1.
         -1    1    6    6    0  502  0.24190577703E+02 -0.12716447258E+03 -0.58038053283E+01  0.12957496399E+03  0.00000000000E+00 0.  1.
<mgrwt>
<rscale>  0 0.21641123E+04</rscale>
<asrwt>0</asrwt>
<pdfrwt beam="1">  1        2 0.13305219E+00 0.21641123E+04</pdfrwt>
<pdfrwt beam="2">  1       -2 0.20828158E+00 0.21641123E+04</pdfrwt>
<totfact> 0.33362692E+00</totfact>
</mgrwt>
</event>
<event>
12    1  0.2588309E-007  0.1840495E+04  0.7818608E-02  0.8685056E-01
          2   -1    0    0  501    0  0.00000000000E+00  0.00000000000E+00  0.79178646346E+03  0.79178646346E+03  0.00000000000E+00 0. -1.
         -2   -1    0    0    0  501 -0.00000000000E+00 -0.00000000000E+00 -0.10695506119E+04  0.10695506119E+04  0.00000000000E+00 0.  1.
         23    2    1    2    0    0 -0.58718006766E+03  0.15650036560E+03  0.23716419679E+03  0.65890440553E+03  0.92926654351E+02 0.  0.
        254    2    1    2    0    0  0.58718006766E+03 -0.15650036560E+03 -0.51492834526E+03  0.12024326699E+04  0.90078872579E+03 0.  0.
        -24    2    4    4    0    0  0.10600160405E+03 -0.45530442126E+03 -0.39680959379E+03  0.61834350093E+03  0.79701790066E+02 0.  0.
         24    2    4    4    0    0  0.48117846361E+03  0.29880405566E+03 -0.11811875147E+03  0.58408916893E+03  0.79947109361E+02 0.  0.
         13    1    3    3    0    0 -0.41980524327E+03  0.15016317042E+03  0.19192571573E+03  0.48540797314E+03  0.00000000000E+00 0. -1.
        -13    1    3    3    0    0 -0.16737482439E+03  0.63371951844E+01  0.45238481063E+02  0.17349643239E+03  0.00000000000E+00 0.  1.
          2    1    6    6  502    0  0.10547996376E+03  0.10310170167E+03 -0.16190889807E+02  0.14838506850E+03  0.00000000000E+00 0. -1.
          1    1    5    5  503    0  0.82136095539E+02 -0.27324111939E+03 -0.19551405772E+03  0.34587973963E+03  0.00000000000E+00 0. -1.
         -4    1    5    5    0  503  0.23865508513E+02 -0.18206330187E+03 -0.20129553607E+03  0.27246376130E+03  0.00000000000E+00 0.  1.
         -1    1    6    6    0  502  0.37569849985E+03  0.19570235398E+03 -0.10192786167E+03  0.43570410043E+03  0.00000000000E+00 0.  1.
<mgrwt>
<rscale>  0 0.18404953E+04</rscale>
<asrwt>0</asrwt>
<pdfrwt beam="1">  1        2 0.12181330E+00 0.18404953E+04</pdfrwt>
<pdfrwt beam="2">  1       -2 0.16454625E+00 0.18404953E+04</pdfrwt>
<totfact> 0.76624565E+00</totfact>
</mgrwt>
</event>
<event>
12    1  0.2588309E-007  0.1424520E+04  0.7818608E-02  0.8936258E-01
          1   -1    0    0  501    0  0.00000000000E+00  0.00000000000E+00  0.18106116610E+04  0.18106116610E+04  0.00000000000E+00 0.  1.
         -1   -1    0    0    0  501 -0.00000000000E+00 -0.00000000000E+00 -0.28018963946E+03  0.28018963946E+03  0.00000000000E+00 0. -1.
         23    2    1    2    0    0 -0.42915194195E+03  0.54800476758E+01  0.54609601122E+03  0.70075315022E+03  0.92912345134E+02 0.  0.
        254    2    1    2    0    0  0.42915194195E+03 -0.54800476758E+01  0.98432601029E+03  0.13900481502E+04  0.88268609660E+03 0.  0.
        -24    2    4    4    0    0  0.20922572543E+03  0.57410606881E+02 -0.11963647988E+03  0.25987185027E+03  0.78416256498E+02 0.  0.
         24    2    4    4    0    0  0.21992621652E+03 -0.62890654557E+02  0.11039624902E+04  0.11301762999E+04  0.79009582071E+02 0.  0.
         13    1    3    3    0    0 -0.23146240208E+03 -0.38141054985E+02  0.32706973052E+03  0.40249744381E+03  0.00000000000E+00 0.  1.
        -13    1    3    3    0    0 -0.19768953987E+03  0.43621102660E+02  0.21902628070E+03  0.29825570641E+03  0.00000000000E+00 0. -1.
          4    1    6    6  502    0  0.83821388418E+02 -0.57114023495E+02  0.36854083571E+03  0.38224388081E+03  0.00000000000E+00 0. -1.
          1    1    5    5  503    0  0.54243339119E+02  0.52524379723E+02 -0.35103193632E+02  0.83266947268E+02  0.00000000000E+00 0. -1.
         -2    1    5    5    0  503  0.15498238631E+03  0.48862271579E+01 -0.84533286250E+02  0.17660490301E+03  0.00000000000E+00 0.  1.
         -3    1    6    6    0  502  0.13610482810E+03 -0.57766310614E+01  0.73542165447E+03  0.74793241911E+03  0.00000000000E+00 0.  1.
<mgrwt>
<rscale>  0 0.14245205E+04</rscale>
<asrwt>0</asrwt>
<pdfrwt beam="1">  1        1 0.27855563E+00 0.14245205E+04</pdfrwt>
<pdfrwt beam="2">  1       -1 0.43106100E-01 0.14245205E+04</pdfrwt>
<totfact> 0.20697150E+01</totfact>
</mgrwt>
</event>
<event>
12    1  0.2588309E-007  0.1193186E+04  0.7818608E-02  0.9118841E-01
          1   -1    0    0  501    0  0.00000000000E+00  0.00000000000E+00  0.88343198655E+03  0.88343198655E+03  0.00000000000E+00 0. -1.
         -1   -1    0    0    0  501 -0.00000000000E+00 -0.00000000000E+00 -0.40288720618E+03  0.40288720618E+03  0.00000000000E+00 0.  1.
         23    2    1    2    0    0 -0.12026184945E+03  0.20749627110E+03  0.14905007525E+03  0.29692096358E+03  0.91806964479E+02 0.  0.
        254    2    1    2    0    0  0.12026184945E+03 -0.20749627110E+03  0.33149470512E+03  0.98939822915E+03  0.90083433625E+03 0.  0.
        -24    2    4    4    0    0 -0.14117959383E+02  0.19654630484E+02 -0.29381917722E+03  0.30573812149E+03  0.80996720659E+02 0.  0.
         24    2    4    4    0    0  0.13437980883E+03 -0.22715090159E+03  0.62531388233E+03  0.68366010766E+03  0.81964786648E+02 0.  0.
         13    1    3    3    0    0 -0.13029925512E+03  0.16937872884E+03  0.10597340007E+03  0.23853178235E+03  0.00000000000E+00 0. -1.
        -13    1    3    3    0    0  0.10037405664E+02  0.38117542265E+02  0.43076675182E+02  0.58389181237E+02  0.00000000000E+00 0.  1.
          2    1    6    6  502    0  0.40964901855E+02 -0.10523619806E+03  0.17887012412E+03  0.21153558062E+03  0.00000000000E+00 0. -1.
          3    1    5    5  503    0  0.26565143282E+00  0.33042055385E+02 -0.43390579525E+02  0.54539805521E+02  0.00000000000E+00 0. -1.
         -4    1    5    5    0  503 -0.14383610816E+02 -0.13387424902E+02 -0.25042859769E+03  0.25119831597E+03  0.00000000000E+00 0.  1.
         -1    1    6    6    0  502  0.93414906979E+02 -0.12191470353E+03  0.44644375821E+03  0.47212452704E+03  0.00000000000E+00 0.  1.
<mgrwt>
<rscale>  0 0.11931864E+04</rscale>
<asrwt>0</asrwt>
<pdfrwt beam="1">  1        1 0.13591261E+00 0.11931864E+04</pdfrwt>
<pdfrwt beam="2">  1       -1 0.61982647E-01 0.11931864E+04</pdfrwt>
<totfact> 0.49095583E+01</totfact>
</mgrwt>
</event>
<event>
12    1  0.2588309E-007  0.1906739E+04  0.7818608E-02  0.8651509E-01
          2   -1    0    0  501    0  0.00000000000E+00  0.00000000000E+00  0.12069514365E+04  0.12069514365E+04  0.00000000000E+00 0. -1.
         -2   -1    0    0    0  501 -0.00000000000E+00 -0.00000000000E+00 -0.75306559751E+03  0.75306559751E+03  0.00000000000E+00 0.  1.
         23    2    1    2    0    0 -0.51700988285E+03 -0.17891233609E+03 -0.32636437071E+03  0.64337432709E+03  0.90044318647E+02 0.  0.
        254    2    1    2    0    0  0.51700988285E+03  0.17891233609E+03  0.78025020967E+03  0.13166427069E+04  0.90854212062E+03 0.  0.
        -24    2    4    4    0    0  0.26038899657E+03  0.45873674854E+03  0.76124446031E+03  0.92954172060E+03  0.79453432912E+02 0.  0.
         24    2    4    4    0    0  0.25662088628E+03 -0.27982441244E+03  0.19005749367E+02  0.38710098628E+03  0.73006670932E+02 0.  0.
         11    1    3    3    0    0 -0.34786972332E+03 -0.75616898039E+02 -0.21924144822E+03  0.41808859383E+03  0.00000000000E+00 0. -1.
        -11    1    3    3    0    0 -0.16914015952E+03 -0.10329543806E+03 -0.10712292249E+03  0.22528573326E+03  0.00000000000E+00 0.  1.
          2    1    6    6  502    0  0.83762340380E+02 -0.92607352642E+02 -0.28044155756E+02  0.12797939718E+03  0.00000000000E+00 0. -1.
          3    1    5    5  503    0  0.23335344659E+03  0.34870991609E+03  0.58165072117E+03  0.71719592724E+03  0.00000000000E+00 0. -1.
         -4    1    5    5    0  503  0.27035549978E+02  0.11002683245E+03  0.17959373913E+03  0.21234579336E+03  0.00000000000E+00 0.  1.
         -1    1    6    6    0  502  0.17285854590E+03 -0.18721705980E+03  0.47049905124E+02  0.25912158911E+03  0.00000000000E+00 0.  1.
<mgrwt>
<rscale>  0 0.19067392E+04</rscale>
<asrwt>0</asrwt>
<pdfrwt beam="1">  1        2 0.18568484E+00 0.19067392E+04</pdfrwt>
<pdfrwt beam="2">  1       -2 0.11585625E+00 0.19067392E+04</pdfrwt>
<totfact> 0.10170289E+01</totfact>
</mgrwt>
</event>
<event>
12    1  0.2588309E-007  0.2140679E+04  0.7818608E-02  0.8543533E-01
          2   -1    0    0  501    0  0.00000000000E+00  0.00000000000E+00  0.87838706494E+03  0.87838706494E+03  0.00000000000E+00 0. -1.
         -2   -1    0    0    0  501 -0.00000000000E+00 -0.00000000000E+00 -0.13042385694E+04  0.13042385694E+04  0.00000000000E+00 0.  1.
         23    2    1    2    0    0  0.51896562234E+03 -0.36330625024E+03  0.44635051971E+03  0.78041637849E+03  0.92218158446E+02 0.  0.
        254    2    1    2    0    0 -0.51896562234E+03  0.36330625024E+03 -0.87220202418E+03  0.14022092559E+04  0.89673724000E+03 0.  0.
        -24    2    4    4    0    0 -0.82929272387E+02 -0.10681872160E+02  0.17235660662E+03  0.20740259953E+03  0.79483783473E+02 0.  0.
         24    2    4    4    0    0 -0.43603634995E+03  0.37398812240E+03 -0.10445586308E+04  0.11948066563E+04  0.80407702629E+02 0.  0.
         13    1    3    3    0    0  0.35946843721E+03 -0.20339785433E+03  0.26456818426E+03  0.49049420855E+03  0.00000000000E+00 0. -1.
        -13    1    3    3    0    0  0.15949718513E+03 -0.15990839591E+03  0.18178233544E+03  0.28992216995E+03  0.00000000000E+00 0.  1.
          4    1    6    6  502    0 -0.55341249205E+02  0.37214555397E+02 -0.17933942669E+03  0.19133793916E+03  0.00000000000E+00 0. -1.
          1    1    5    5  503    0 -0.20619437167E+02  0.26534807300E+02  0.21222403124E+02  0.39744780561E+02  0.00000000000E+00 0. -1.
         -2    1    5    5    0  503 -0.62309835221E+02 -0.37216679460E+02  0.15113420350E+03  0.16765781897E+03  0.00000000000E+00 0.  1.
         -3    1    6    6    0  502 -0.38069510074E+03  0.33677356700E+03 -0.86521920412E+03  0.10034687172E+04  0.00000000000E+00 0.  1.
<mgrwt>
<rscale>  0 0.21406787E+04</rscale>
<asrwt>0</asrwt>
<pdfrwt beam="1">  1        2 0.13513647E+00 0.21406787E+04</pdfrwt>
<pdfrwt beam="2">  1       -2 0.20065209E+00 0.21406787E+04</pdfrwt>
<totfact> 0.36678041E+00</totfact>
</mgrwt>
</event>
<event>
12    1  0.2588309E-007  0.3246616E+04  0.7818608E-02  0.8176613E-01
         -2   -1    0    0    0  501 -0.00000000000E+00  0.00000000000E+00  0.90659745779E+03  0.90659745779E+03  0.00000000000E+00 0.  1.
          2   -1    0    0  501    0  0.00000000000E+00 -0.00000000000E+00 -0.29066146411E+04  0.29066146411E+04  0.00000000000E+00 0. -1.
         23    2    1    2    0    0  0.11034311117E+04  0.97133006598E+03 -0.12568839948E+04  0.19362489180E+04  0.90885537460E+02 0.  0.
        254    2    1    2    0    0 -0.11034311117E+04 -0.97133006598E+03 -0.74313318849E+03  0.18769631808E+04  0.89983416866E+03 0.  0.
        -24    2    4    4    0    0 -0.71148074493E+03 -0.94396711717E+02 -0.51161161955E+03  0.88509911999E+03  0.80860456112E+02 0.  0.
         24    2    4    4    0    0 -0.39195036674E+03 -0.87693335426E+03 -0.23152156894E+03  0.99186406084E+03  0.86918815535E+02 0.  0.
         11    1    3    3    0    0  0.72023271923E+03  0.62502802543E+03 -0.87096598174E+03  0.12915018172E+04  0.00000000000E+00 0.  1.
        -11    1    3    3    0    0  0.38319839244E+03  0.34630204055E+03 -0.38591801306E+03  0.64474710086E+03  0.00000000000E+00 0. -1.
          4    1    6    6  502    0 -0.23925442216E+03 -0.44503456716E+03 -0.14503785888E+03  0.52567520866E+03  0.00000000000E+00 0. -1.
          3    1    5    5  503    0 -0.44964827845E+03 -0.28549609677E+02 -0.29007698577E+03  0.53585754842E+03  0.00000000000E+00 0. -1.
         -4    1    5    5    0  503 -0.26183246649E+03 -0.65847102040E+02 -0.22153463378E+03  0.34924157157E+03  0.00000000000E+00 0.  1.
         -3    1    6    6    0  502 -0.15269594458E+03 -0.43189878710E+03 -0.86483710067E+02  0.46618885218E+03  0.00000000000E+00 0.  1.
<mgrwt>
<rscale>  0 0.32466164E+04</rscale>
<asrwt>0</asrwt>
<pdfrwt beam="1">  1        2 0.44717149E+00 0.32466164E+04</pdfrwt>
<pdfrwt beam="2">  1       -2 0.13947653E+00 0.32466164E+04</pdfrwt>
<totfact> 0.60513223E-01</totfact>
</mgrwt>
</event>
<event>
12    1  0.2588309E-007  0.4616637E+04  0.7818608E-02  0.7890529E-01
         -2   -1    0    0    0  501 -0.00000000000E+00  0.00000000000E+00  0.27853612499E+04  0.27853612499E+04  0.00000000000E+00 0.  1.
          2   -1    0    0  501    0  0.00000000000E+00 -0.00000000000E+00 -0.19129781669E+04  0.19129781669E+04  0.00000000000E+00 0. -1.
         23    2    1    2    0    0 -0.21595317850E+04  0.36067995903E+03  0.47120806918E+02  0.21916512817E+04  0.86298359820E+02 0.  0.
        254    2    1    2    0    0  0.21595317850E+04 -0.36067995903E+03  0.82526227602E+03  0.25066881351E+04  0.89931085781E+03 0.  0.
        -24    2    4    4    0    0  0.86531619767E+03 -0.20523968387E+03 -0.11153116381E+03  0.89944931684E+03  0.75328767918E+02 0.  0.
         24    2    4    4    0    0  0.12942155873E+04 -0.15544027516E+03  0.93679343984E+03  0.16072388182E+04  0.80492262143E+02 0.  0.
         13    1    3    3    0    0 -0.12525763995E+04  0.22822984360E+03 -0.10830057979E+02  0.12732453763E+04  0.00000000000E+00 0. -1.
        -13    1    3    3    0    0 -0.90695538553E+03  0.13245011544E+03  0.57950864897E+02  0.91840590545E+03  0.00000000000E+00 0.  1.
          4    1    6    6  502    0  0.57643395477E+02  0.24354133998E+01  0.25607143677E+02  0.63122247170E+02  0.00000000000E+00 0. -1.
          3    1    5    5  503    0  0.58492963196E+02 -0.34103380631E+02 -0.66667104823E+01  0.68036110578E+02  0.00000000000E+00 0. -1.
         -4    1    5    5    0  503  0.80682323447E+03 -0.17113630324E+03 -0.10486445333E+03  0.83141320626E+03  0.00000000000E+00 0.  1.
         -3    1    6    6    0  502  0.12365721919E+04 -0.15787568856E+03  0.91118629616E+03  0.15441165711E+04  0.00000000000E+00 0.  1.
<mgrwt>
<rscale>  0 0.46166374E+04</rscale>
<asrwt>0</asrwt>
<pdfrwt beam="1">  1        2 0.29430433E+00 0.46166374E+04</pdfrwt>
<pdfrwt beam="2">  1       -2 0.42851712E+00 0.46166374E+04</pdfrwt>
<totfact> 0.27022115E-02</totfact>
</mgrwt>
</event>
<event>
12    1  0.2588309E-007  0.2163652E+04  0.7818608E-02  0.8533711E-01
         -2   -1    0    0    0  501 -0.00000000000E+00  0.00000000000E+00  0.18747709277E+04  0.18747709277E+04  0.00000000000E+00 0.  1.
          2   -1    0    0  501    0  0.00000000000E+00 -0.00000000000E+00 -0.62426181369E+03  0.62426181369E+03  0.00000000000E+00 0. -1.
         23    2    1    2    0    0 -0.56777608538E+02 -0.11361841505E+02  0.15472949866E+04  0.15511079386E+04  0.91985180935E+02 0.  0.
        254    2    1    2    0    0  0.56777608538E+02  0.11361841505E+02 -0.29678587253E+03  0.94792480279E+03  0.89840235382E+03 0.  0.
        -24    2    4    4    0    0 -0.16778779019E+03 -0.19945321494E+03  0.21360722310E+03  0.34651400815E+03  0.80681996738E+02 0.  0.
         24    2    4    4    0    0  0.22456539873E+03  0.21081505644E+03 -0.51039309563E+03  0.60141079465E+03  0.79506135134E+02 0.  0.
         13    1    3    3    0    0 -0.26062312980E+02 -0.21600453248E+02  0.13949449891E+04  0.13953556344E+04  0.00000000000E+00 0.  1.
        -13    1    3    3    0    0 -0.30715295559E+02  0.10238611743E+02  0.15234999746E+03  0.15575230425E+03  0.00000000000E+00 0. -1.
          4    1    6    6  502    0  0.21629073754E+03  0.21178323523E+03 -0.46221948275E+03  0.55252210101E+03  0.00000000000E+00 0. -1.
          3    1    5    5  503    0 -0.78761998316E+02 -0.14263671564E+03  0.98952272574E+02  0.19063115505E+03  0.00000000000E+00 0. -1.
         -4    1    5    5    0  503 -0.89025791873E+02 -0.56816499298E+02  0.11465495052E+03  0.15588285310E+03  0.00000000000E+00 0.  1.
         -3    1    6    6    0  502  0.82746611900E+01 -0.96817878811E+00 -0.48173612872E+02  0.48888693633E+02  0.00000000000E+00 0.  1.
<mgrwt>
<rscale>  0 0.21636524E+04</rscale>
<asrwt>0</asrwt>
<pdfrwt beam="1">  1        2 0.96040280E-01 0.21636524E+04</pdfrwt>
<pdfrwt beam="2">  1       -2 0.28842629E+00 0.21636524E+04</pdfrwt>
<totfact> 0.16213607E+00</totfact>
</mgrwt>
</event>
<event>
12    1  0.2588309E-007  0.1831409E+04  0.7818608E-02  0.8689773E-01
         -1   -1    0    0    0  501 -0.00000000000E+00  0.00000000000E+00  0.90159613837E+03  0.90159613837E+03  0.00000000000E+00 0.  1.
          1   -1    0    0  501    0  0.00000000000E+00 -0.00000000000E+00 -0.93003343529E+03  0.93003343529E+03  0.00000000000E+00 0. -1.
         23    2    1    2    0    0  0.56293160021E+03  0.25327339359E+02 -0.41007694817E+03  0.70421789642E+03  0.10112507889E+03 0.  0.
        254    2    1    2    0    0 -0.56293160021E+03 -0.25327339359E+02  0.38163965125E+03  0.11274116772E+04  0.89881856119E+03 0.  0.
        -24    2    4    4    0    0 -0.80161953944E+03 -0.49446792094E+02  0.30849197322E+03  0.86411536381E+03  0.80555528495E+02 0.  0.
         24    2    4    4    0    0  0.23868793922E+03  0.24119452735E+02  0.73147678026E+02  0.26329631344E+03  0.80129180321E+02 0.  0.
         11    1    3    3    0    0  0.37517311750E+03  0.42961891119E+02 -0.32114258049E+03  0.49571478613E+03  0.00000000000E+00 0. -1.
        -11    1    3    3    0    0  0.18775848271E+03 -0.17634551760E+02 -0.88934367681E+02  0.20850311029E+03  0.00000000000E+00 0.  1.
          4    1    6    6  502    0  0.16825184796E+03  0.52887552606E+02  0.43614656527E+02  0.18168108274E+03  0.00000000000E+00 0. -1.
          3    1    5    5  503    0 -0.36933175415E+03 -0.45738190399E+02  0.17810620187E+03  0.41257695746E+03  0.00000000000E+00 0. -1.
         -4    1    5    5    0  503 -0.43228778528E+03 -0.37086016947E+01  0.13038577136E+03  0.45153840634E+03  0.00000000000E+00 0.  1.
         -3    1    6    6    0  502  0.70436091261E+02 -0.28768099871E+02  0.29533021500E+02  0.81615230694E+02  0.00000000000E+00 0.  1.
<mgrwt>
<rscale>  0 0.18314088E+04</rscale>
<asrwt>0</asrwt>
<pdfrwt beam="1">  1        1 0.14308207E+00 0.18314088E+04</pdfrwt>
<pdfrwt beam="2">  1       -1 0.13870710E+00 0.18314088E+04</pdfrwt>
<totfact> 0.69520160E+00</totfact>
</mgrwt>
</event>
<event>
12    1  0.2588309E-007  0.1319911E+04  0.7818608E-02  0.9013923E-01
         -1   -1    0    0    0  501 -0.00000000000E+00  0.00000000000E+00  0.80497271713E+03  0.80497271713E+03  0.00000000000E+00 0.  1.
          1   -1    0    0  501    0  0.00000000000E+00 -0.00000000000E+00 -0.54106313488E+03  0.54106313488E+03  0.00000000000E+00 0. -1.
         23    2    1    2    0    0 -0.19085028627E+02  0.18251405744E+03  0.36918451016E+03  0.42177455759E+03  0.88999749487E+02 0.  0.
        254    2    1    2    0    0  0.19085028627E+02 -0.18251405744E+03 -0.10527492791E+03  0.92426129441E+03  0.89972246300E+03 0.  0.
        -24    2    4    4    0    0 -0.39504906183E+03  0.92887858609E+02 -0.63831611115E+02  0.41868312082E+03  0.80803252119E+02 0.  0.
         24    2    4    4    0    0  0.41413409045E+03 -0.27540191605E+03 -0.41443316798E+02  0.50557817360E+03  0.80860873526E+02 0.  0.
         11    1    3    3    0    0  0.22456696034E+02  0.14060631382E+03  0.28948473510E+03  0.32260788977E+03  0.00000000000E+00 0.  1.
        -11    1    3    3    0    0 -0.41541724661E+02  0.41907743621E+02  0.79699775056E+02  0.99166667824E+02  0.00000000000E+00 0. -1.
          2    1    6    6  502    0  0.17332879733E+03 -0.15612913895E+03  0.24491770259E+01  0.23329204547E+03  0.00000000000E+00 0. -1.
          3    1    5    5  503    0 -0.34781671391E+02  0.11864678295E+02 -0.30787374779E+02  0.47941607206E+02  0.00000000000E+00 0. -1.
         -4    1    5    5    0  503 -0.36026739044E+03  0.81023180315E+02 -0.33044236336E+02  0.37074151361E+03  0.00000000000E+00 0.  1.
         -3    1    6    6    0  502  0.24080529312E+03 -0.11927277711E+03 -0.43892493824E+02  0.27228612812E+03  0.00000000000E+00 0.  1.
<mgrwt>
<rscale>  0 0.13199107E+04</rscale>
<asrwt>0</asrwt>
<pdfrwt beam="1">  1        1 0.83240482E-01 0.13199107E+04</pdfrwt>
<pdfrwt beam="2">  1       -1 0.12384196E+00 0.13199107E+04</pdfrwt>
<totfact> 0.22314275E+01</totfact>
</mgrwt>
</event>
<event>
12    1  0.2588309E-007  0.3552900E+04  0.7818608E-02  0.8101367E-01
         -1   -1    0    0    0  501 -0.00000000000E+00  0.00000000000E+00  0.13498746635E+04  0.13498746635E+04  0.00000000000E+00 0.  1.
          1   -1    0    0  501    0  0.00000000000E+00 -0.00000000000E+00 -0.23378273664E+04  0.23378273664E+04  0.00000000000E+00 0. -1.
         23    2    1    2    0    0 -0.62843105746E+03  0.12374804365E+04  0.48275694082E+03  0.14722678153E+04  0.90745972106E+02 0.  0.
        254    2    1    2    0    0  0.62843105746E+03 -0.12374804365E+04 -0.14707096438E+04  0.22154342145E+04  0.90491904495E+03 0.  0.
        -24    2    4    4    0    0  0.13151341768E+02 -0.35263678430E+02 -0.60047645212E+03  0.60690474931E+03  0.79655008525E+02 0.  0.
         24    2    4    4    0    0  0.61527971569E+03 -0.12022167581E+04 -0.87023319169E+03  0.16085294652E+04  0.78530062324E+02 0.  0.
         11    1    3    3    0    0 -0.79992144164E+02  0.14301256122E+03  0.88026350487E+02  0.18601068296E+03  0.00000000000E+00 0.  1.
        -11    1    3    3    0    0 -0.54843891329E+03  0.10944678753E+04  0.39473059033E+03  0.12862571324E+04  0.00000000000E+00 0. -1.
          2    1    6    6  502    0  0.29545618832E+03 -0.63324294345E+03 -0.48540339693E+03  0.85082750449E+03  0.00000000000E+00 0. -1.
          3    1    5    5  503    0  0.36500580341E+02 -0.33395195423E+00 -0.42084864312E+03  0.42242867364E+03  0.00000000000E+00 0. -1.
         -4    1    5    5    0  503 -0.23349238573E+02 -0.34929726476E+02 -0.17962780899E+03  0.18447607568E+03  0.00000000000E+00 0.  1.
         -1    1    6    6    0  502  0.31982352737E+03 -0.56897381463E+03 -0.38482979476E+03  0.75770196075E+03  0.00000000000E+00 0.  1.
<mgrwt>
<rscale>  0 0.35528996E+04</rscale>
<asrwt>0</asrwt>
<pdfrwt beam="1">  1        1 0.35966575E+00 0.35528996E+04</pdfrwt>
<pdfrwt beam="2">  1       -1 0.20767303E+00 0.35528996E+04</pdfrwt>
<totfact> 0.18986062E-01</totfact>
</mgrwt>
</event>
<event>
12    1  0.2588309E-007  0.2855647E+04  0.7818608E-02  0.8286197E-01
          2   -1    0    0  501    0  0.00000000000E+00  0.00000000000E+00  0.24164323643E+04  0.24164323643E+04  0.00000000000E+00 0.  1.
         -2   -1    0    0    0  501 -0.00000000000E+00 -0.00000000000E+00 -0.84367368557E+03  0.84367368557E+03  0.00000000000E+00 0. -1.
         23    2    1    2    0    0  0.12176269692E+04 -0.48645629933E+02  0.11736951009E+04  0.16949922083E+04  0.10225733648E+03 0.  0.
        254    2    1    2    0    0 -0.12176269692E+04  0.48645629933E+02  0.39906357781E+03  0.15651138415E+04  0.89741170281E+03 0.  0.
        -24    2    4    4    0    0 -0.71890895877E+03  0.45330066464E+03  0.12655090867E+03  0.86276596898E+03  0.77707150176E+02 0.  0.
         24    2    4    4    0    0 -0.49871801047E+03 -0.40465503471E+03  0.27251266914E+03  0.70234787256E+03  0.81018690264E+02 0.  0.
         13    1    3    3    0    0  0.67534751308E+03  0.18999748928E+02  0.67895288432E+03  0.95782684918E+03  0.00000000000E+00 0. -1.
        -13    1    3    3    0    0  0.54227945615E+03 -0.67645378861E+02  0.49474221662E+03  0.73716535917E+03  0.00000000000E+00 0.  1.
          4    1    6    6  502    0 -0.19576630313E+03 -0.11589050964E+03  0.11738617474E+03  0.25599720641E+03  0.00000000000E+00 0. -1.
          1    1    5    5  503    0 -0.69894002571E+03  0.44876500279E+03  0.11311328377E+03  0.83827310719E+03  0.00000000000E+00 0. -1.
         -2    1    5    5    0  503 -0.19968933055E+02  0.45356618553E+01  0.13437624907E+02  0.24492861796E+02  0.00000000000E+00 0.  1.
         -3    1    6    6    0  502 -0.30295170733E+03 -0.28876452507E+03  0.15512649440E+03  0.44635066615E+03  0.00000000000E+00 0.  1.
<mgrwt>
<rscale>  0 0.28556473E+04</rscale>
<asrwt>0</asrwt>
<pdfrwt beam="1">  1        2 0.37175882E+00 0.28556473E+04</pdfrwt>
<pdfrwt beam="2">  1       -2 0.12979595E+00 0.28556473E+04</pdfrwt>
<totfact> 0.14690042E+00</totfact>
</mgrwt>
</event>
<event>
12    1  0.2588309E-007  0.1933297E+04  0.7818608E-02  0.8638458E-01
          1   -1    0    0  501    0  0.00000000000E+00  0.00000000000E+00  0.21872535943E+04  0.21872535943E+04  0.00000000000E+00 0. -1.
         -1   -1    0    0    0  501 -0.00000000000E+00 -0.00000000000E+00 -0.42720664692E+03  0.42720664692E+03  0.00000000000E+00 0.  1.
         23    2    1    2    0    0  0.32600684533E+03  0.46391312007E+01 -0.22795556209E+03  0.40779497188E+03  0.89615936404E+02 0.  0.
        254    2    1    2    0    0 -0.32600684533E+03 -0.46391312007E+01  0.19880025095E+04  0.22066652694E+04  0.90050854994E+03 0.  0.
        -24    2    4    4    0    0  0.14605222690E+03  0.31997432378E+03  0.98206234562E+03  0.10461687171E+04  0.79421112520E+02 0.  0.
         24    2    4    4    0    0 -0.47205907223E+03 -0.32461345498E+03  0.10059401639E+04  0.11604965523E+04  0.81381642047E+02 0.  0.
         13    1    3    3    0    0  0.25549182873E+03 -0.49963542855E+01 -0.12997982089E+03  0.28669808500E+03  0.00000000000E+00 0. -1.
        -13    1    3    3    0    0  0.70515016602E+02  0.96354854862E+01 -0.97975741206E+02  0.12109688688E+03  0.00000000000E+00 0.  1.
          4    1    6    6  502    0 -0.21549727555E+03 -0.17376642221E+03  0.55477133517E+03  0.62000409643E+03  0.00000000000E+00 0. -1.
          1    1    5    5  503    0  0.13813927235E+03  0.22077530911E+03  0.68186130882E+03  0.72990344577E+03  0.00000000000E+00 0. -1.
         -2    1    5    5    0  503  0.79129545488E+01  0.99199014678E+02  0.30020103680E+03  0.31626527134E+03  0.00000000000E+00 0.  1.
         -3    1    6    6    0  502 -0.25656179668E+03 -0.15084703277E+03  0.45116882870E+03  0.54049245582E+03  0.00000000000E+00 0.  1.
<mgrwt>
<rscale>  0 0.19332969E+04</rscale>
<asrwt>0</asrwt>
<pdfrwt beam="1">  1        1 0.33650055E+00 0.19332969E+04</pdfrwt>
<pdfrwt beam="2">  1       -1 0.65724101E-01 0.19332969E+04</pdfrwt>
<totfact> 0.48664253E+00</totfact>
</mgrwt>
</event>
<event>
12    1  0.2588309E-007  0.3096987E+04  0.7818608E-02  0.8216565E-01
         -2   -1    0    0    0  501 -0.00000000000E+00  0.00000000000E+00  0.30059577443E+04  0.30059577443E+04  0.00000000000E+00 0.  1.
          2   -1    0    0  501    0  0.00000000000E+00 -0.00000000000E+00 -0.79769342769E+03  0.79769342769E+03  0.00000000000E+00 0. -1.
         23    2    1    2    0    0  0.10855379140E+04 -0.83019170417E+03  0.55581902734E+03  0.14781474009E+04  0.91510213165E+02 0.  0.
        254    2    1    2    0    0 -0.10855379140E+04  0.83019170417E+03  0.16524452893E+04  0.23255037711E+04  0.89987861791E+03 0.  0.
        -24    2    4    4    0    0 -0.40535936445E+03  0.80432903011E+03  0.65935610293E+03  0.11189214353E+04  0.77287158762E+02 0.  0.
         24    2    4    4    0    0 -0.68017854959E+03  0.25862674052E+02  0.99308918638E+03  0.12065823358E+04  0.79391837089E+02 0.  0.
         11    1    3    3    0    0  0.55036518082E+03 -0.45258561064E+03  0.24838629833E+03  0.75460673229E+03  0.00000000000E+00 0.  1.
        -11    1    3    3    0    0  0.53517273322E+03 -0.37760609352E+03  0.30743272901E+03  0.72354066860E+03  0.00000000000E+00 0. -1.
          4    1    6    6  502    0 -0.43150186710E+03 -0.21271414014E+02  0.63852276213E+03  0.77094594630E+03  0.00000000000E+00 0. -1.
          3    1    5    5  503    0 -0.30189924005E+03  0.52478725562E+03  0.42407150732E+03  0.73917620235E+03  0.00000000000E+00 0. -1.
         -4    1    5    5    0  503 -0.10346012440E+03  0.27954177449E+03  0.23528459561E+03  0.37974523296E+03  0.00000000000E+00 0.  1.
         -3    1    6    6    0  502 -0.24867668249E+03  0.47134088066E+02  0.35456642425E+03  0.43563638952E+03  0.00000000000E+00 0.  1.
<mgrwt>
<rscale>  0 0.30969874E+04</rscale>
<asrwt>0</asrwt>
<pdfrwt beam="1">  1        2 0.12272207E+00 0.30969874E+04</pdfrwt>
<pdfrwt beam="2">  1       -2 0.46245503E+00 0.30969874E+04</pdfrwt>
<totfact> 0.84216965E-02</totfact>
</mgrwt>
</event>
<event>
12    1  0.2588309E-007  0.2912153E+04  0.7818608E-02  0.8269271E-01
         -1   -1    0    0    0  501 -0.00000000000E+00  0.00000000000E+00  0.72730119709E+03  0.72730119709E+03  0.00000000000E+00 0.  1.
          1   -1    0    0  501    0  0.00000000000E+00 -0.00000000000E+00 -0.29151043990E+04  0.29151043990E+04  0.00000000000E+00 0. -1.
         23    2    1    2    0    0  0.92405306178E+03  0.92650650512E+03 -0.11539937742E+04  0.17471031711E+04  0.91539578149E+02 0.  0.
        254    2    1    2    0    0 -0.92405306178E+03 -0.92650650512E+03 -0.10338094277E+04  0.18953024251E+04  0.90062255392E+03 0.  0.
        -24    2    4    4    0    0  0.68029562627E+02 -0.18852762896E+03 -0.50397409161E+03  0.54827159625E+03  0.80256899820E+02 0.  0.
         24    2    4    4    0    0 -0.99208262441E+03 -0.73797887616E+03 -0.52983533611E+03  0.13470308288E+04  0.70184151411E+02 0.  0.
         11    1    3    3    0    0  0.21136615802E+03  0.25023327935E+03 -0.25069304899E+03  0.41247951666E+03  0.00000000000E+00 0.  1.
        -11    1    3    3    0    0  0.71268690376E+03  0.67627322577E+03 -0.90330072524E+03  0.13346236544E+04  0.00000000000E+00 0. -1.
          4    1    6    6  502    0 -0.58279391666E+03 -0.39863926123E+03 -0.32459431185E+03  0.77712513611E+03  0.00000000000E+00 0. -1.
          1    1    5    5  503    0  0.20678540610E+02 -0.30698546544E+02 -0.34043601892E+02  0.50288861903E+02  0.00000000000E+00 0. -1.
         -2    1    5    5    0  503  0.47351022017E+02 -0.15782908242E+03 -0.46993048971E+03  0.49798273434E+03  0.00000000000E+00 0.  1.
         -3    1    6    6    0  502 -0.40928870775E+03 -0.33933961493E+03 -0.20524102426E+03  0.56990569272E+03  0.00000000000E+00 0.  1.
<mgrwt>
<rscale>  0 0.29121531E+04</rscale>
<asrwt>0</asrwt>
<pdfrwt beam="1">  1        1 0.44847760E+00 0.29121531E+04</pdfrwt>
<pdfrwt beam="2">  1       -1 0.11189249E+00 0.29121531E+04</pdfrwt>
<totfact> 0.43267095E-01</totfact>
</mgrwt>
</event>
<event>
12    1  0.2588309E-007  0.1633137E+04  0.7818608E-02  0.8800445E-01
          2   -1    0    0  501    0  0.00000000000E+00  0.00000000000E+00  0.97206071137E+03  0.97206071137E+03  0.00000000000E+00 0. -1.
         -2   -1    0    0    0  501 -0.00000000000E+00 -0.00000000000E+00 -0.68594916512E+03  0.68594916512E+03  0.00000000000E+00 0.  1.
         23    2    1    2    0    0 -0.61498717047E+01  0.93145139357E+02  0.66684203186E+03  0.67842258472E+03  0.82855718559E+02 0.  0.
        254    2    1    2    0    0  0.61498717047E+01 -0.93145139357E+02 -0.38073048561E+03  0.97958729176E+03  0.89773143066E+03 0.  0.
        -24    2    4    4    0    0 -0.19615714927E+03 -0.44262389931E+03 -0.20094157930E+03  0.53019129899E+03  0.79572305397E+02 0.  0.
         24    2    4    4    0    0  0.20230702097E+03  0.34947875995E+03 -0.17978890632E+03  0.44939599277E+03  0.81050435473E+02 0.  0.
         11    1    3    3    0    0  0.11938045511E+02  0.97489203446E+02  0.44047336092E+03  0.45129086341E+03  0.00000000000E+00 0. -1.
        -11    1    3    3    0    0 -0.18087917216E+02 -0.43440640890E+01  0.22636867094E+03  0.22713172131E+03  0.00000000000E+00 0.  1.
          4    1    6    6  502    0  0.20179554246E+03  0.32506294132E+03 -0.15020352670E+03  0.41103340035E+03  0.00000000000E+00 0. -1.
          1    1    5    5  503    0 -0.16081977685E+03 -0.28529430379E+03 -0.11251873372E+03  0.34628933833E+03  0.00000000000E+00 0. -1.
         -2    1    5    5    0  503 -0.35337372415E+02 -0.15732959551E+03 -0.88422845577E+02  0.18390196066E+03  0.00000000000E+00 0.  1.
         -3    1    6    6    0  502  0.51147851608E+00  0.24415818636E+02 -0.29585379615E+02  0.38362592416E+02  0.00000000000E+00 0.  1.
<mgrwt>
<rscale>  0 0.16331371E+04</rscale>
<asrwt>0</asrwt>
<pdfrwt beam="1">  1        2 0.14954780E+00 0.16331371E+04</pdfrwt>
<pdfrwt beam="2">  1       -2 0.10553064E+00 0.16331371E+04</pdfrwt>
<totfact> 0.18244399E+01</totfact>
</mgrwt>
</event>
<event>
12    1  0.2588309E-007  0.1660194E+04  0.7818608E-02  0.8784399E-01
          2   -1    0    0  501    0  0.00000000000E+00  0.00000000000E+00  0.18654162866E+04  0.18654162866E+04  0.00000000000E+00 0.  1.
         -2   -1    0    0    0  501 -0.00000000000E+00 -0.00000000000E+00 -0.36938708597E+03  0.36938708597E+03  0.00000000000E+00 0. -1.
         23    2    1    2    0    0  0.39531502309E+03  0.42666726945E+03  0.55481421691E+03  0.80891592801E+03  0.90593802240E+02 0.  0.
        254    2    1    2    0    0 -0.39531502309E+03 -0.42666726945E+03  0.94121498368E+03  0.14258874445E+04  0.89941671799E+03 0.  0.
        -24    2    4    4    0    0 -0.49282408475E+03 -0.47549084766E+03  0.26910568419E+03  0.74044231821E+03  0.82884453463E+02 0.  0.
         24    2    4    4    0    0  0.97509061654E+02  0.48823578207E+02  0.67210929949E+03  0.68544512630E+03  0.78818473787E+02 0.  0.
         13    1    3    3    0    0  0.27709727047E+03  0.25541712999E+03  0.31296123811E+03  0.48986278094E+03  0.00000000000E+00 0. -1.
        -13    1    3    3    0    0  0.11821775262E+03  0.17125013946E+03  0.24185297880E+03  0.31905314707E+03  0.00000000000E+00 0.  1.
          4    1    6    6  502    0  0.65530393057E+02  0.31352744723E+02  0.60260289123E+03  0.60696579107E+03  0.00000000000E+00 0. -1.
          3    1    5    5  503    0 -0.44977144751E+03 -0.39848971625E+03  0.24548024903E+03  0.64911398199E+03  0.00000000000E+00 0. -1.
         -4    1    5    5    0  503 -0.43052637237E+02 -0.77001131403E+02  0.23625435166E+02  0.91328336223E+02  0.00000000000E+00 0.  1.
         -3    1    6    6    0  502  0.31978668596E+02  0.17470833484E+02  0.69506408262E+02  0.78479335225E+02  0.00000000000E+00 0.  1.
<mgrwt>
<rscale>  0 0.16601936E+04</rscale>
<asrwt>0</asrwt>
<pdfrwt beam="1">  1        2 0.28698711E+00 0.16601936E+04</pdfrwt>
<pdfrwt beam="2">  1       -2 0.56828784E-01 0.16601936E+04</pdfrwt>
<totfact> 0.21996489E+01</totfact>
</mgrwt>
</event>
<event>
12    1  0.2588309E-007  0.2778146E+04  0.7818608E-02  0.8310085E-01
         -1   -1    0    0    0  501 -0.00000000000E+00  0.00000000000E+00  0.15344727537E+04  0.15344727537E+04  0.00000000000E+00 0.  1.
          1   -1    0    0  501    0  0.00000000000E+00 -0.00000000000E+00 -0.12574507515E+04  0.12574507515E+04  0.00000000000E+00 0. -1.
         23    2    1    2    0    0 -0.45688408925E+03  0.11221974436E+04  0.39751978748E+03  0.12784219541E+04  0.90942496447E+02 0.  0.
        254    2    1    2    0    0  0.45688408925E+03 -0.11221974436E+04 -0.12049778524E+03  0.15135015512E+04  0.89894218702E+03 0.  0.
        -24    2    4    4    0    0  0.48983676528E+03 -0.67072815555E+03  0.30388048991E+03  0.88802467069E+03  0.80175734046E+02 0.  0.
         24    2    4    4    0    0 -0.32952676033E+02 -0.45146928808E+03 -0.42437827515E+03  0.62547688047E+03  0.78828996219E+02 0.  0.
         11    1    3    3    0    0 -0.22895222677E+03  0.44846477300E+03  0.17820824519E+03  0.53413289865E+03  0.00000000000E+00 0. -1.
        -11    1    3    3    0    0 -0.22793186247E+03  0.67373267064E+03  0.21931154229E+03  0.74428905541E+03  0.00000000000E+00 0.  1.
          4    1    6    6  502    0 -0.53831942495E+02 -0.20270264846E+03 -0.20065534251E+03  0.29025645247E+03  0.00000000000E+00 0. -1.
          3    1    5    5  503    0  0.36797036054E+03 -0.45727622602E+03  0.18825670626E+03  0.61639623666E+03  0.00000000000E+00 0. -1.
         -4    1    5    5    0  503  0.12186640475E+03 -0.21345192953E+03  0.11562378366E+03  0.27162843403E+03  0.00000000000E+00 0.  1.
         -3    1    6    6    0  502  0.20879266461E+02 -0.24876663962E+03 -0.22372293264E+03  0.33522042800E+03  0.00000000000E+00 0.  1.
<mgrwt>
<rscale>  0 0.27781461E+04</rscale>
<asrwt>0</asrwt>
<pdfrwt beam="1">  1        1 0.19345396E+00 0.27781461E+04</pdfrwt>
<pdfrwt beam="2">  1       -1 0.23607273E+00 0.27781461E+04</pdfrwt>
<totfact> 0.72437418E-01</totfact>
</mgrwt>
</event>
<event>
12    1  0.2588309E-007  0.1468389E+04  0.7818608E-02  0.8905750E-01
         -1   -1    0    0    0  501 -0.00000000000E+00  0.00000000000E+00  0.85236826129E+03  0.85236826129E+03  0.00000000000E+00 0.  1.
          1   -1    0    0  501    0  0.00000000000E+00 -0.00000000000E+00 -0.63240479379E+03  0.63240479379E+03  0.00000000000E+00 0. -1.
         23    2    1    2    0    0 -0.20219347089E+03 -0.19365586461E+03 -0.28997007432E+03  0.41300066309E+03  0.90011722265E+02 0.  0.
        254    2    1    2    0    0  0.20219347089E+03  0.19365586461E+03  0.50993354181E+03  0.10717723920E+04  0.90015501421E+03 0.  0.
        -24    2    4    4    0    0 -0.22977131214E+03  0.12253742370E+03 -0.12230200314E+03  0.29862264166E+03  0.80046399373E+02 0.  0.
         24    2    4    4    0    0  0.43196478303E+03  0.71118440914E+02  0.63223554495E+03  0.77314975033E+03  0.79920871632E+02 0.  0.
         13    1    3    3    0    0 -0.11715060393E+03 -0.50923767745E+02 -0.11851657647E+03  0.17425175185E+03  0.00000000000E+00 0.  1.
        -13    1    3    3    0    0 -0.85042866953E+02 -0.14273209687E+03 -0.17145349785E+03  0.23874891124E+03  0.00000000000E+00 0. -1.
          2    1    6    6  502    0  0.12564730643E+03  0.15455065316E+02  0.12446128498E+03  0.17752947957E+03  0.00000000000E+00 0. -1.
          3    1    5    5  503    0 -0.76695667535E+02  0.71173062060E+01 -0.13538098562E+02  0.78205892226E+02  0.00000000000E+00 0. -1.
         -4    1    5    5    0  503 -0.15307564460E+03  0.11542011749E+03 -0.10876390458E+03  0.22041674944E+03  0.00000000000E+00 0.  1.
         -1    1    6    6    0  502  0.30631747659E+03  0.55663375598E+02  0.50777425997E+03  0.59562027076E+03  0.00000000000E+00 0.  1.
<mgrwt>
<rscale>  0 0.14683893E+04</rscale>
<asrwt>0</asrwt>
<pdfrwt beam="1">  1        1 0.97293045E-01 0.14683893E+04</pdfrwt>
<pdfrwt beam="2">  1       -1 0.13113358E+00 0.14683893E+04</pdfrwt>
<totfact> 0.15263936E+01</totfact>
</mgrwt>
</event>
<event>
12    1  0.2588309E-007  0.1930110E+04  0.7818608E-02  0.8640012E-01
         -1   -1    0    0    0  501 -0.00000000000E+00  0.00000000000E+00  0.35244763388E+03  0.35244763388E+03  0.00000000000E+00 0.  1.
          1   -1    0    0  501    0  0.00000000000E+00 -0.00000000000E+00 -0.26424664486E+04  0.26424664486E+04  0.00000000000E+00 0. -1.
         23    2    1    2    0    0 -0.53020915197E+03  0.75991363012E+02 -0.17205415410E+04  0.18043140996E+04  0.91595542965E+02 0.  0.
        254    2    1    2    0    0  0.53020915197E+03 -0.75991363012E+02 -0.56947727368E+03  0.11905999829E+04  0.89795741653E+03 0.  0.
        -24    2    4    4    0    0  0.12578142512E+02 -0.16571639491E+02 -0.65146673940E+03  0.65695540709E+03  0.82150261443E+02 0.  0.
         24    2    4    4    0    0  0.51763100945E+03 -0.59419723521E+02  0.81989465721E+02  0.53364457579E+03  0.81127648089E+02 0.  0.
         11    1    3    3    0    0 -0.33444361059E+03  0.91607863714E+02 -0.10718212579E+04  0.11265191246E+04  0.00000000000E+00 0.  1.
        -11    1    3    3    0    0 -0.19576554137E+03 -0.15616500703E+02 -0.64872028317E+03  0.67779497496E+03  0.00000000000E+00 0. -1.
          2    1    6    6  502    0  0.13917891569E+03 -0.11736147607E+02  0.58649692218E+02  0.15148694376E+03  0.00000000000E+00 0. -1.
          1    1    5    5  503    0  0.44197359999E+02 -0.77134179194E+01 -0.23835791308E+03  0.24254360057E+03  0.00000000000E+00 0. -1.
         -2    1    5    5    0  503 -0.31619217487E+02 -0.88582215716E+01 -0.41310882632E+03  0.41441180652E+03  0.00000000000E+00 0.  1.
         -1    1    6    6    0  502  0.37845209376E+03 -0.47683575913E+02  0.23339773503E+02  0.38215763202E+03  0.00000000000E+00 0.  1.
<mgrwt>
<rscale>  0 0.19301099E+04</rscale>
<asrwt>0</asrwt>
<pdfrwt beam="1">  1        1 0.40653331E+00 0.19301099E+04</pdfrwt>
<pdfrwt beam="2">  1       -1 0.54222712E-01 0.19301099E+04</pdfrwt>
<totfact> 0.34568509E+00</totfact>
</mgrwt>
</event>
<event>
12    1  0.2588309E-007  0.2030281E+04  0.7818608E-02  0.8592593E-01
         -2   -1    0    0    0  501 -0.00000000000E+00  0.00000000000E+00  0.53573923931E+03  0.53573923931E+03  0.00000000000E+00 0. -1.
          2   -1    0    0  501    0  0.00000000000E+00 -0.00000000000E+00 -0.19235293372E+04  0.19235293372E+04  0.00000000000E+00 0.  1.
         23    2    1    2    0    0  0.20986208770E+03 -0.51482307924E+03 -0.12770692452E+04  0.13956427368E+04  0.88475381144E+02 0.  0.
        254    2    1    2    0    0 -0.20986208770E+03  0.51482307924E+03 -0.11072085265E+03  0.10636258396E+04  0.89997551121E+03 0.  0.
        -24    2    4    4    0    0  0.23984039431E+03  0.28201238997E+03  0.23521559646E+03  0.44513827751E+03  0.75942783995E+02 0.  0.
         24    2    4    4    0    0 -0.44970248201E+03  0.23281068926E+03 -0.34593644912E+03  0.61848756214E+03  0.80135499801E+02 0.  0.
         13    1    3    3    0    0  0.17005732839E+03 -0.46890133087E+03 -0.11804121841E+04  0.12814682506E+04  0.00000000000E+00 0.  1.
        -13    1    3    3    0    0  0.39804759311E+02 -0.45921748368E+02 -0.96657061127E+02  0.11417448622E+03  0.00000000000E+00 0. -1.
          4    1    6    6  502    0 -0.28827696888E+02  0.17115373893E+02 -0.51316655553E+02  0.61297400177E+02  0.00000000000E+00 0. -1.
          1    1    5    5  503    0  0.59693325548E+01  0.24945588094E+02  0.28976673983E+00  0.25651496277E+02  0.00000000000E+00 0. -1.
         -2    1    5    5    0  503  0.23387106176E+03  0.25706680188E+03  0.23492582972E+03  0.41948678123E+03  0.00000000000E+00 0.  1.
         -3    1    6    6    0  502 -0.42087478512E+03  0.21569531537E+03 -0.29461979356E+03  0.55719016196E+03  0.00000000000E+00 0.  1.
<mgrwt>
<rscale>  0 0.20302809E+04</rscale>
<asrwt>0</asrwt>
<pdfrwt beam="1">  1        2 0.29592759E+00 0.20302809E+04</pdfrwt>
<pdfrwt beam="2">  1       -2 0.82421421E-01 0.20302809E+04</pdfrwt>
<totfact> 0.88240727E+00</totfact>
</mgrwt>
</event>
<event>
12    1  0.2588309E-007  0.2063326E+04  0.7818608E-02  0.8577573E-01
          1   -1    0    0  501    0  0.00000000000E+00  0.00000000000E+00  0.93239718986E+03  0.93239718986E+03  0.00000000000E+00 0. -1.
         -1   -1    0    0    0  501 -0.00000000000E+00 -0.00000000000E+00 -0.11414970936E+04  0.11414970936E+04  0.00000000000E+00 0.  1.
         23    2    1    2    0    0  0.98960145497E+02  0.81291226153E+03 -0.23699884580E+03  0.85730364336E+03  0.90452355763E+02 0.  0.
        254    2    1    2    0    0 -0.98960145497E+02 -0.81291226153E+03  0.27898942097E+02  0.12165906401E+04  0.89927469620E+03 0.  0.
        -24    2    4    4    0    0  0.37398879127E+03 -0.34251841530E+03 -0.12080130453E+03  0.52843028793E+03  0.86366273567E+02 0.  0.
         24    2    4    4    0    0 -0.47294893677E+03 -0.47039384623E+03  0.14870024663E+03  0.68816035215E+03  0.80633985180E+02 0.  0.
         11    1    3    3    0    0  0.26421118035E+02  0.38831572690E+03 -0.15432923084E+03  0.41869402996E+03  0.00000000000E+00 0.  1.
        -11    1    3    3    0    0  0.72539027462E+02  0.42459653463E+03 -0.82669614966E+02  0.43860961340E+03  0.00000000000E+00 0. -1.
          4    1    6    6  502    0 -0.42974150670E+03 -0.42043162044E+03  0.15759172026E+03  0.62151078860E+03  0.00000000000E+00 0. -1.
          1    1    5    5  503    0  0.30661684692E+03 -0.28777840417E+03 -0.13237462081E+03  0.44085523810E+03  0.00000000000E+00 0. -1.
         -2    1    5    5    0  503  0.67371944352E+02 -0.54740011127E+02  0.11573316275E+02  0.87575049835E+02  0.00000000000E+00 0.  1.
         -3    1    6    6    0  502 -0.43207430067E+02 -0.49962225789E+02 -0.88914736306E+01  0.66649563555E+02  0.00000000000E+00 0.  1.
<mgrwt>
<rscale>  0 0.20633261E+04</rscale>
<asrwt>0</asrwt>
<pdfrwt beam="1">  1        1 0.14344572E+00 0.20633261E+04</pdfrwt>
<pdfrwt beam="2">  1       -1 0.17561494E+00 0.20633261E+04</pdfrwt>
<totfact> 0.35368154E+00</totfact>
</mgrwt>
</event>
<event>
12    1  0.2588309E-007  0.2414317E+04  0.7818608E-02  0.8434163E-01
         -1   -1    0    0    0  501 -0.00000000000E+00  0.00000000000E+00  0.67535462474E+03  0.67535462474E+03  0.00000000000E+00 0.  1.
          1   -1    0    0  501    0  0.00000000000E+00 -0.00000000000E+00 -0.21577275262E+04  0.21577275262E+04  0.00000000000E+00 0. -1.
         23    2    1    2    0    0 -0.15779391472E+03 -0.82082308890E+03 -0.13598129302E+04  0.15989000443E+04  0.93491623428E+02 0.  0.
        254    2    1    2    0    0  0.15779391472E+03  0.82082308890E+03 -0.12255997125E+03  0.12341821067E+04  0.89974166463E+03 0.  0.
        -24    2    4    4    0    0  0.88016492851E+02  0.97381017785E+03 -0.24650746280E+03  0.10115888227E+04  0.80578232751E+02 0.  0.
         24    2    4    4    0    0  0.69777421867E+02 -0.15298708895E+03  0.12394749155E+03  0.22259328392E+03  0.76882061606E+02 0.  0.
         13    1    3    3    0    0 -0.29519936978E+02 -0.14673937388E+03 -0.31728447890E+03  0.35081805980E+03  0.00000000000E+00 0. -1.
        -13    1    3    3    0    0 -0.12827397774E+03 -0.67408371501E+03 -0.10425284513E+04  0.12480819845E+04  0.00000000000E+00 0.  1.
          4    1    6    6  502    0  0.38619991871E+02 -0.67751271534E+02  0.10345613875E+03  0.12955659463E+03  0.00000000000E+00 0. -1.
          1    1    5    5  503    0  0.26172142505E+02  0.72890213827E+02 -0.29215304317E+02  0.82773777981E+02  0.00000000000E+00 0. -1.
         -2    1    5    5    0  503  0.61844350346E+02  0.90091996402E+03 -0.21729215848E+03  0.92881504476E+03  0.00000000000E+00 0.  1.
         -3    1    6    6    0  502  0.31157429996E+02 -0.85235817415E+02  0.20491352797E+02  0.93036689289E+02  0.00000000000E+00 0.  1.
<mgrwt>
<rscale>  0 0.24143167E+04</rscale>
<asrwt>0</asrwt>
<pdfrwt beam="1">  1        1 0.33195807E+00 0.24143167E+04</pdfrwt>
<pdfrwt beam="2">  1       -1 0.10390071E+00 0.24143167E+04</pdfrwt>
<totfact> 0.18174710E+00</totfact>
</mgrwt>
</event>
<event>
12    1  0.2588309E-007  0.1772669E+04  0.7818608E-02  0.8720970E-01
         -1   -1    0    0    0  501 -0.00000000000E+00  0.00000000000E+00  0.61129327309E+03  0.61129327309E+03  0.00000000000E+00 0.  1.
          1   -1    0    0  501    0  0.00000000000E+00 -0.00000000000E+00 -0.12851264392E+04  0.12851264392E+04  0.00000000000E+00 0. -1.
         23    2    1    2    0    0 -0.76998466431E+02  0.64586825120E+03 -0.33588668833E+03  0.73635519082E+03  0.79526963346E+02 0.  0.
        254    2    1    2    0    0  0.76998466431E+02 -0.64586825120E+03 -0.33794647774E+03  0.11600645214E+04  0.89914810254E+03 0.  0.
        -24    2    4    4    0    0  0.16551863662E+03 -0.55093135516E+03 -0.61366740729E+03  0.84522484293E+03  0.83039575820E+02 0.  0.
         24    2    4    4    0    0 -0.88520170194E+02 -0.94936896042E+02  0.27572092955E+03  0.31483967850E+03  0.79076908150E+02 0.  0.
         13    1    3    3    0    0 -0.21334502884E+02  0.24481495989E+03 -0.16989205560E+03  0.29875213164E+03  0.00000000000E+00 0. -1.
        -13    1    3    3    0    0 -0.55663963547E+02  0.40105329131E+03 -0.16599463273E+03  0.43760305918E+03  0.00000000000E+00 0.  1.
          2    1    6    6  502    0 -0.90374751112E+02 -0.59930011554E+02  0.24614823081E+03  0.26897612061E+03  0.00000000000E+00 0. -1.
          1    1    5    5  503    0  0.65259348189E+02 -0.34800916997E+03 -0.39588498767E+03  0.53112530383E+03  0.00000000000E+00 0. -1.
         -2    1    5    5    0  503  0.10025928844E+03 -0.20292218519E+03 -0.21778241963E+03  0.31409953909E+03  0.00000000000E+00 0.  1.
         -1    1    6    6    0  502  0.18545809182E+01 -0.35006884488E+02  0.29572698741E+02  0.45863557895E+02  0.00000000000E+00 0.  1.
<mgrwt>
<rscale>  0 0.17726693E+04</rscale>
<asrwt>0</asrwt>
<pdfrwt beam="1">  1        1 0.19771176E+00 0.17726693E+04</pdfrwt>
<pdfrwt beam="2">  1       -1 0.94045119E-01 0.17726693E+04</pdfrwt>
<totfact> 0.96044133E+00</totfact>
</mgrwt>
</event>
<event>
12    1  0.2588309E-007  0.2195313E+04  0.7818608E-02  0.8520382E-01
         -1   -1    0    0    0  501 -0.00000000000E+00  0.00000000000E+00  0.19119400976E+04  0.19119400976E+04  0.00000000000E+00 0.  1.
          1   -1    0    0  501    0  0.00000000000E+00 -0.00000000000E+00 -0.63017103685E+03  0.63017103685E+03  0.00000000000E+00 0. -1.
         23    2    1    2    0    0  0.56925309130E+03 -0.12732771252E+03 -0.27507525214E+03  0.65153736879E+03  0.92591145657E+02 0.  0.
        254    2    1    2    0    0 -0.56925309130E+03  0.12732771252E+03  0.15568443128E+04  0.18905737656E+04  0.90013527897E+03 0.  0.
        -24    2    4    4    0    0  0.21270880029E+03 -0.83758841870E+02  0.23139933402E+03  0.33501749966E+03  0.80190373344E+02 0.  0.
         24    2    4    4    0    0 -0.78196189160E+03  0.21108655439E+03  0.13254449788E+04  0.15555562660E+04  0.83240442769E+02 0.  0.
         13    1    3    3    0    0  0.28640791029E+03 -0.20997066066E+02 -0.11267344364E+03  0.30848933979E+03  0.00000000000E+00 0.  1.
        -13    1    3    3    0    0  0.28284518101E+03 -0.10633064646E+03 -0.16240180850E+03  0.34304802900E+03  0.00000000000E+00 0. -1.
          2    1    6    6  502    0 -0.76841703334E+02 -0.32400592647E+01  0.13873846579E+03  0.15863009565E+03  0.00000000000E+00 0. -1.
          3    1    5    5  503    0  0.55397998267E+02 -0.47668439937E+01  0.10329209054E+03  0.11730693493E+03  0.00000000000E+00 0. -1.
         -4    1    5    5    0  503  0.15731080203E+03 -0.78991997876E+02  0.12810724348E+03  0.21771056473E+03  0.00000000000E+00 0.  1.
         -1    1    6    6    0  502 -0.70512018826E+03  0.21432661366E+03  0.11867065130E+04  0.13969261703E+04  0.00000000000E+00 0.  1.
<mgrwt>
<rscale>  0 0.21953125E+04</rscale>
<asrwt>0</asrwt>
<pdfrwt beam="1">  1        1 0.96949391E-01 0.21953125E+04</pdfrwt>
<pdfrwt beam="2">  1       -1 0.29414463E+00 0.21953125E+04</pdfrwt>
<totfact> 0.10484014E+00</totfact>
</mgrwt>
</event>
<event>
12    1  0.2588309E-007  0.4322768E+04  0.7818608E-02  0.7942421E-01
         -2   -1    0    0    0  501 -0.00000000000E+00  0.00000000000E+00  0.19602436579E+04  0.19602436579E+04  0.00000000000E+00 0.  1.
          2   -1    0    0  501    0  0.00000000000E+00 -0.00000000000E+00 -0.23831633912E+04  0.23831633912E+04  0.00000000000E+00 0. -1.
         23    2    1    2    0    0 -0.12548041215E+03  0.15157555456E+04 -0.16085956590E+04  0.22156298148E+04  0.90417222183E+02 0.  0.
        254    2    1    2    0    0  0.12548041215E+03 -0.15157555456E+04  0.11856759258E+04  0.21277772343E+04  0.89908194848E+03 0.  0.
        -24    2    4    4    0    0 -0.15642143678E+02 -0.12736561686E+03  0.58841399017E+03  0.60763652457E+03  0.80774037568E+02 0.  0.
         24    2    4    4    0    0  0.14112255583E+03 -0.13883899287E+04  0.59726193564E+03  0.15201407098E+04  0.81017206576E+02 0.  0.
         11    1    3    3    0    0  0.42048171706E+01  0.24748525662E+03 -0.29515406159E+03  0.38520455969E+03  0.00000000000E+00 0. -1.
        -11    1    3    3    0    0 -0.12968522932E+03  0.12682702890E+04 -0.13134415974E+04  0.18304252551E+04  0.00000000000E+00 0.  1.
          2    1    6    6  502    0  0.11261601664E+03 -0.12136299316E+04  0.49390427821E+03  0.13151127002E+04  0.00000000000E+00 0. -1.
          1    1    5    5  503    0  0.17866338695E+02 -0.10588869818E+03  0.48685150159E+03  0.49855391590E+03  0.00000000000E+00 0. -1.
         -2    1    5    5    0  503 -0.33508482374E+02 -0.21476918676E+02  0.10156248858E+03  0.10908260867E+03  0.00000000000E+00 0.  1.
         -1    1    6    6    0  502  0.28506539187E+02 -0.17475999709E+03  0.10335765744E+03  0.20502800957E+03  0.00000000000E+00 0.  1.
<mgrwt>
<rscale>  0 0.43227681E+04</rscale>
<asrwt>0</asrwt>
<pdfrwt beam="1">  1        2 0.36664052E+00 0.43227681E+04</pdfrwt>
<pdfrwt beam="2">  1       -2 0.30157595E+00 0.43227681E+04</pdfrwt>
<totfact> 0.97121441E-02</totfact>
</mgrwt>
</event>
<event>
12    1  0.2588309E-007  0.2582266E+04  0.7818608E-02  0.8374250E-01
         -2   -1    0    0    0  501 -0.00000000000E+00  0.00000000000E+00  0.78116716732E+03  0.78116716732E+03  0.00000000000E+00 0.  1.
          2   -1    0    0  501    0  0.00000000000E+00 -0.00000000000E+00 -0.21340167213E+04  0.21340167213E+04  0.00000000000E+00 0. -1.
         23    2    1    2    0    0 -0.68981022384E+03 -0.67489736380E+03  0.72604588003E+02  0.97325520317E+03  0.10310027985E+03 0.  0.
        254    2    1    2    0    0  0.68981022384E+03  0.67489736380E+03 -0.14254541420E+04  0.19419286854E+04  0.89880081880E+03 0.  0.
        -24    2    4    4    0    0  0.35930551774E+03 -0.44255612484E+02 -0.81640076898E+02  0.38031772497E+03  0.83171241759E+02 0.  0.
         24    2    4    4    0    0  0.33050470610E+03  0.71915297629E+03 -0.13438140651E+04  0.15616109605E+04  0.79863548027E+02 0.  0.
         11    1    3    3    0    0 -0.31724755823E+03 -0.37315562407E+03  0.62142135597E+02  0.49371325483E+03  0.00000000000E+00 0.  1.
        -11    1    3    3    0    0 -0.37256266561E+03 -0.30174173974E+03  0.10462452406E+02  0.47954194834E+03  0.00000000000E+00 0. -1.
          2    1    6    6  502    0  0.10388666774E+03  0.15854378967E+03 -0.28443549347E+03  0.34180714288E+03  0.00000000000E+00 0. -1.
          1    1    5    5  503    0  0.62986805680E+02 -0.53247641640E+01  0.17239354412E+02  0.65520120144E+02  0.00000000000E+00 0. -1.
         -2    1    5    5    0  503  0.29631871206E+03 -0.38930848320E+02 -0.98879431310E+02  0.31479760483E+03  0.00000000000E+00 0.  1.
         -1    1    6    6    0  502  0.22661803836E+03  0.56060918661E+03 -0.10593785716E+04  0.12198038176E+04  0.00000000000E+00 0.  1.
<mgrwt>
<rscale>  0 0.25822655E+04</rscale>
<asrwt>0</asrwt>
<pdfrwt beam="1">  1        2 0.32831026E+00 0.25822655E+04</pdfrwt>
<pdfrwt beam="2">  1       -2 0.12017956E+00 0.25822655E+04</pdfrwt>
<totfact> 0.26354099E+00</totfact>
</mgrwt>
</event>
<event>
12    1  0.2588309E-007  0.3877650E+04  0.7818608E-02  0.8029694E-01
         -2   -1    0    0    0  501 -0.00000000000E+00  0.00000000000E+00  0.76500566445E+03  0.76500566445E+03  0.00000000000E+00 0. -1.
          2   -1    0    0  501    0  0.00000000000E+00 -0.00000000000E+00 -0.49137447299E+04  0.49137447299E+04  0.00000000000E+00 0.  1.
         23    2    1    2    0    0 -0.11030498548E+04 -0.13443840189E+04 -0.28118615232E+04  0.33074131965E+04  0.91265844302E+02 0.  0.
        254    2    1    2    0    0  0.11030498548E+04  0.13443840189E+04 -0.13368775422E+04  0.23713371978E+04  0.90106113561E+03 0.  0.
        -24    2    4    4    0    0  0.83554662909E+03  0.14311181010E+04 -0.12082176984E+04  0.20524614888E+04  0.81061507393E+02 0.  0.
         24    2    4    4    0    0  0.26750322574E+03 -0.86734082019E+02 -0.12865984385E+03  0.31887570901E+03  0.77766224114E+02 0.  0.
         11    1    3    3    0    0 -0.16408413385E+03 -0.17626626871E+03 -0.33876315897E+03  0.41563671438E+03  0.00000000000E+00 0. -1.
        -11    1    3    3    0    0 -0.93896572098E+03 -0.11681177502E+04 -0.24730983642E+04  0.28917764822E+04  0.00000000000E+00 0.  1.
          2    1    6    6  502    0  0.22877400206E+03 -0.75145174131E+02 -0.76040650001E+02  0.25252033912E+03  0.00000000000E+00 0. -1.
          3    1    5    5  503    0  0.35154368170E+03  0.67981008480E+03 -0.56964681274E+03  0.95405566022E+03  0.00000000000E+00 0. -1.
         -4    1    5    5    0  503  0.48400294738E+03  0.75130801616E+03 -0.63857088564E+03  0.10984058286E+04  0.00000000000E+00 0.  1.
         -1    1    6    6    0  502  0.38729223679E+02 -0.11588907888E+02 -0.52619193848E+02  0.66355369895E+02  0.00000000000E+00 0.  1.
<mgrwt>
<rscale>  0 0.38776501E+04</rscale>
<asrwt>0</asrwt>
<pdfrwt beam="1">  1        2 0.75596072E+00 0.38776501E+04</pdfrwt>
<pdfrwt beam="2">  1       -2 0.11769318E+00 0.38776501E+04</pdfrwt>
<totfact> 0.19272194E-02</totfact>
</mgrwt>
</event>
<event>
12    1  0.2588309E-007  0.1564253E+04  0.7818608E-02  0.8842815E-01
          1   -1    0    0  501    0  0.00000000000E+00  0.00000000000E+00  0.15965312685E+04  0.15965312685E+04  0.00000000000E+00 0. -1.
         -1   -1    0    0    0  501 -0.00000000000E+00 -0.00000000000E+00 -0.38315700417E+03  0.38315700417E+03  0.00000000000E+00 0.  1.
         23    2    1    2    0    0 -0.10891036206E+02  0.46016256669E+03  0.11005130361E+03  0.48540506777E+03  0.10788228744E+03 0.  0.
        254    2    1    2    0    0  0.10891036206E+02 -0.46016256669E+03  0.11033229607E+04  0.14942832049E+04  0.89648900627E+03 0.  0.
        -24    2    4    4    0    0 -0.56862643246E+01 -0.70738664704E+03  0.96608093651E+03  0.12000830672E+04  0.80366599452E+02 0.  0.
         24    2    4    4    0    0  0.16577300531E+02  0.24722408036E+03  0.13724202422E+03  0.29420013770E+03  0.79522292529E+02 0.  0.
         11    1    3    3    0    0  0.36785884153E+02  0.27687257543E+03  0.34202525526E+02  0.28139196337E+03  0.00000000000E+00 0.  1.
        -11    1    3    3    0    0 -0.47676920360E+02  0.18328999126E+03  0.75848778084E+02  0.20401310440E+03  0.00000000000E+00 0. -1.
          2    1    6    6  502    0 -0.19580504328E+02  0.10008172696E+03  0.88521481046E+02  0.13503999714E+03  0.00000000000E+00 0. -1.
          3    1    5    5  503    0  0.32907150910E+02 -0.28509348229E+03  0.36023227317E+03  0.46057406012E+03  0.00000000000E+00 0. -1.
         -4    1    5    5    0  503 -0.38593415235E+02 -0.42229316475E+03  0.60584866334E+03  0.73950900709E+03  0.00000000000E+00 0.  1.
         -1    1    6    6    0  502  0.36157804859E+02  0.14714235340E+03  0.48720543170E+02  0.15916014056E+03  0.00000000000E+00 0.  1.
<mgrwt>
<rscale>  0 0.15642534E+04</rscale>
<asrwt>0</asrwt>
<pdfrwt beam="1">  1        1 0.24562019E+00 0.15642534E+04</pdfrwt>
<pdfrwt beam="2">  1       -1 0.58947232E-01 0.15642534E+04</pdfrwt>
<totfact> 0.15749462E+01</totfact>
</mgrwt>
</event>
<event>
12    1  0.2588309E-007  0.1323565E+04  0.7818608E-02  0.9011084E-01
         -2   -1    0    0    0  501 -0.00000000000E+00  0.00000000000E+00  0.26746776478E+03  0.26746776478E+03  0.00000000000E+00 0.  1.
          2   -1    0    0  501    0  0.00000000000E+00 -0.00000000000E+00 -0.16374155806E+04  0.16374155806E+04  0.00000000000E+00 0. -1.
         23    2    1    2    0    0  0.32053426403E+03  0.11640737072E+03 -0.44550773136E+03  0.56809067097E+03  0.89201913506E+02 0.  0.
        254    2    1    2    0    0 -0.32053426403E+03 -0.11640737072E+03 -0.92444008441E+03  0.13367926744E+04  0.90340040634E+03 0.  0.
        -24    2    4    4    0    0 -0.57776706405E+03 -0.76349558662E+02 -0.31000744008E+03  0.66470714724E+03  0.78018864896E+02 0.  0.
         24    2    4    4    0    0  0.25723280002E+03 -0.40057812056E+02 -0.61443264433E+03  0.67208552712E+03  0.79988371796E+02 0.  0.
         13    1    3    3    0    0  0.76099307882E+02  0.15710136793E+02 -0.50123045055E+02  0.92467468353E+02  0.00000000000E+00 0.  1.
        -13    1    3    3    0    0  0.24443495614E+03  0.10069723392E+03 -0.39538468631E+03  0.47562320262E+03  0.00000000000E+00 0. -1.
          4    1    6    6  502    0  0.12454546245E+03 -0.57216069583E+02 -0.34601749395E+03  0.37217382626E+03  0.00000000000E+00 0. -1.
          3    1    5    5  503    0 -0.38272665069E+03 -0.21630497529E+02 -0.17590595707E+03  0.42177064064E+03  0.00000000000E+00 0. -1.
         -4    1    5    5    0  503 -0.19504041336E+03 -0.54719061132E+02 -0.13410148301E+03  0.24293650660E+03  0.00000000000E+00 0.  1.
         -3    1    6    6    0  502  0.13268733758E+03  0.17158257527E+02 -0.26841515038E+03  0.29991170086E+03  0.00000000000E+00 0.  1.
<mgrwt>
<rscale>  0 0.13235647E+04</rscale>
<asrwt>0</asrwt>
<pdfrwt beam="1">  1        2 0.25191009E+00 0.13235647E+04</pdfrwt>
<pdfrwt beam="2">  1       -2 0.41148886E-01 0.13235647E+04</pdfrwt>
<totfact> 0.58162975E+01</totfact>
</mgrwt>
</event>
<event>
12    1  0.2588309E-007  0.3080787E+04  0.7818608E-02  0.8221030E-01
          2   -1    0    0  501    0  0.00000000000E+00  0.00000000000E+00  0.27444726468E+04  0.27444726468E+04  0.00000000000E+00 0. -1.
         -2   -1    0    0    0  501 -0.00000000000E+00 -0.00000000000E+00 -0.86457881184E+03  0.86457881184E+03  0.00000000000E+00 0.  1.
         23    2    1    2    0    0 -0.77947918856E+03  0.11668774942E+04  0.98737130134E+03  0.17183172193E+04  0.92309737115E+02 0.  0.
        254    2    1    2    0    0  0.77947918856E+03 -0.11668774942E+04  0.89252253365E+03  0.18907342394E+04  0.89949352355E+03 0.  0.
        -24    2    4    4    0    0  0.49230519002E+03 -0.53749181278E+02  0.38114793034E+03  0.63003499060E+03  0.80105992094E+02 0.  0.
         24    2    4    4    0    0  0.28717399854E+03 -0.11131283129E+04  0.51137460331E+03  0.12606992488E+04  0.79593117798E+02 0.  0.
         13    1    3    3    0    0 -0.73735654858E+03  0.11065187851E+04  0.90839580138E+03  0.16103606532E+04  0.00000000000E+00 0.  1.
        -13    1    3    3    0    0 -0.42122639977E+02  0.60358709099E+02  0.78975499965E+02  0.10795656607E+03  0.00000000000E+00 0. -1.
          2    1    6    6  502    0  0.14462796820E+03 -0.44697915626E+03  0.23827763802E+03  0.52676735671E+03  0.00000000000E+00 0. -1.
          1    1    5    5  503    0  0.20412326763E+03  0.10681422158E+02  0.18359737651E+03  0.27475152016E+03  0.00000000000E+00 0. -1.
         -2    1    5    5    0  503  0.28818192239E+03 -0.64430603436E+02  0.19755055383E+03  0.35528347044E+03  0.00000000000E+00 0.  1.
         -1    1    6    6    0  502  0.14254603034E+03 -0.66614915669E+03  0.27309696529E+03  0.73393189205E+03  0.00000000000E+00 0.  1.
<mgrwt>
<rscale>  0 0.30807875E+04</rscale>
<asrwt>0</asrwt>
<pdfrwt beam="1">  1        2 0.42222656E+00 0.30807875E+04</pdfrwt>
<pdfrwt beam="2">  1       -2 0.13301213E+00 0.30807875E+04</pdfrwt>
<totfact> 0.86991181E-01</totfact>
</mgrwt>
</event>
<event>
12    1  0.2588309E-007  0.2487580E+04  0.7818608E-02  0.8407424E-01
          1   -1    0    0  501    0  0.00000000000E+00  0.00000000000E+00  0.34470016950E+04  0.34470016950E+04  0.00000000000E+00 0. -1.
         -1   -1    0    0    0  501 -0.00000000000E+00 -0.00000000000E+00 -0.44879981799E+03  0.44879981799E+03  0.00000000000E+00 0.  1.
         23    2    1    2    0    0 -0.14887793585E+03  0.56067520063E+03 -0.11930679613E+03  0.59939595400E+03  0.92304266923E+02 0.  0.
        254    2    1    2    0    0  0.14887793585E+03 -0.56067520063E+03  0.31175086731E+04  0.32964055590E+04  0.90050428199E+03 0.  0.
        -24    2    4    4    0    0  0.41879870337E+02 -0.63748655902E+03  0.11118976914E+04  0.12848577602E+04  0.79999695279E+02 0.  0.
         24    2    4    4    0    0  0.10699806551E+03  0.76811358398E+02  0.20056109817E+04  0.20115477988E+04  0.80626088163E+02 0.  0.
         13    1    3    3    0    0 -0.46637559125E+02  0.31037289184E+03 -0.95038093587E+02  0.32793083591E+03  0.00000000000E+00 0.  1.
        -13    1    3    3    0    0 -0.10224037672E+03  0.25030230879E+03 -0.24268702545E+02  0.27146511809E+03  0.00000000000E+00 0. -1.
          2    1    6    6  502    0  0.46809239183E+02  0.18415354066E+02  0.32728298674E+03  0.33112593307E+03  0.00000000000E+00 0. -1.
          1    1    5    5  503    0  0.34597172773E+02 -0.97556710450E+02  0.16345855472E+03  0.19347603270E+03  0.00000000000E+00 0. -1.
         -2    1    5    5    0  503  0.72826975635E+01 -0.53992984857E+03  0.94843913669E+03  0.10913817275E+04  0.00000000000E+00 0.  1.
         -1    1    6    6    0  502  0.60188826326E+02  0.58396004332E+02  0.16783279950E+04  0.16804218657E+04  0.00000000000E+00 0.  1.
<mgrwt>
<rscale>  0 0.24875801E+04</rscale>
<asrwt>0</asrwt>
<pdfrwt beam="1">  1        1 0.53030794E+00 0.24875801E+04</pdfrwt>
<pdfrwt beam="2">  1       -1 0.69046128E-01 0.24875801E+04</pdfrwt>
<totfact> 0.51952543E-01</totfact>
</mgrwt>
</event>
<event>
12    1  0.2588309E-007  0.1910502E+04  0.7818608E-02  0.8649647E-01
          2   -1    0    0  501    0  0.00000000000E+00  0.00000000000E+00  0.11824599127E+04  0.11824599127E+04  0.00000000000E+00 0. -1.
         -2   -1    0    0    0  501 -0.00000000000E+00 -0.00000000000E+00 -0.77169999071E+03  0.77169999071E+03  0.00000000000E+00 0.  1.
         23    2    1    2    0    0 -0.42572342952E+03  0.30488640463E+03 -0.37418517619E+03  0.65009269008E+03  0.91704969601E+02 0.  0.
        254    2    1    2    0    0  0.42572342952E+03 -0.30488640463E+03  0.78494509816E+03  0.13040672133E+04  0.90014239513E+03 0.  0.
        -24    2    4    4    0    0  0.68705135832E+03 -0.29630459618E+03  0.47088480779E+03  0.88789875098E+03  0.82436078806E+02 0.  0.
         24    2    4    4    0    0 -0.26132792881E+03 -0.85818084426E+01  0.31406029037E+03  0.41616846232E+03  0.78717147004E+02 0.  0.
         13    1    3    3    0    0 -0.14812665914E+03  0.57920807159E+02 -0.13076019398E+03  0.20589938169E+03  0.00000000000E+00 0. -1.
        -13    1    3    3    0    0 -0.27759677037E+03  0.24696559747E+03 -0.24342498221E+03  0.44419330839E+03  0.00000000000E+00 0.  1.
          2    1    6    6  502    0 -0.18136862544E+03 -0.31434376581E+02  0.17409009120E+03  0.25335756981E+03  0.00000000000E+00 0. -1.
          3    1    5    5  503    0  0.57448868729E+03 -0.23396056311E+03  0.35482485793E+03  0.71461561466E+03  0.00000000000E+00 0. -1.
         -4    1    5    5    0  503  0.11256267104E+03 -0.62344033073E+02  0.11605994986E+03  0.17328313632E+03  0.00000000000E+00 0.  1.
         -1    1    6    6    0  502 -0.79959303370E+02  0.22852568138E+02  0.13997019917E+03  0.16281089251E+03  0.00000000000E+00 0.  1.
<mgrwt>
<rscale>  0 0.19105018E+04</rscale>
<asrwt>0</asrwt>
<pdfrwt beam="1">  1        2 0.18191691E+00 0.19105018E+04</pdfrwt>
<pdfrwt beam="2">  1       -2 0.11872307E+00 0.19105018E+04</pdfrwt>
<totfact> 0.99038663E+00</totfact>
</mgrwt>
</event>
<event>
12    1  0.2588309E-007  0.2228823E+04  0.7818608E-02  0.8506526E-01
          2   -1    0    0  501    0  0.00000000000E+00  0.00000000000E+00  0.24857910161E+04  0.24857910161E+04  0.00000000000E+00 0.  1.
         -2   -1    0    0    0  501 -0.00000000000E+00 -0.00000000000E+00 -0.49960479894E+03  0.49960479894E+03  0.00000000000E+00 0. -1.
         23    2    1    2    0    0  0.91771565044E+03 -0.13763921613E+03  0.77199771368E+03  0.12102258067E+04  0.86714844883E+02 0.  0.
        254    2    1    2    0    0 -0.91771565044E+03  0.13763921613E+03  0.12141885034E+04  0.17751700083E+04  0.90323212285E+03 0.  0.
        -24    2    4    4    0    0 -0.10535793757E+04 -0.39084052143E+02  0.96738388479E+03  0.14331881953E+04  0.81484714492E+02 0.  0.
         24    2    4    4    0    0  0.13586372522E+03  0.17672326827E+03  0.24680461864E+03  0.34198181302E+03  0.79680457275E+02 0.  0.
         11    1    3    3    0    0  0.51537444957E+03 -0.11950742860E+03  0.42515018146E+03  0.67870871922E+03  0.00000000000E+00 0.  1.
        -11    1    3    3    0    0  0.40234120087E+03 -0.18131787534E+02  0.34684753222E+03  0.53151708744E+03  0.00000000000E+00 0. -1.
          4    1    6    6  502    0  0.13131688882E+03  0.18521708395E+03  0.23537616090E+03  0.32703429575E+03  0.00000000000E+00 0. -1.
          3    1    5    5  503    0 -0.76411134496E+03 -0.14757426004E+02  0.65404171998E+03  0.10059097875E+04  0.00000000000E+00 0. -1.
         -4    1    5    5    0  503 -0.28946803070E+03 -0.24326626139E+02  0.31334216481E+03  0.42727840781E+03  0.00000000000E+00 0.  1.
         -3    1    6    6    0  502  0.45468363972E+01 -0.84938156797E+01  0.11428457742E+02  0.14947517265E+02  0.00000000000E+00 0.  1.
<mgrwt>
<rscale>  0 0.22288231E+04</rscale>
<asrwt>0</asrwt>
<pdfrwt beam="1">  1        2 0.38242938E+00 0.22288231E+04</pdfrwt>
<pdfrwt beam="2">  1       -2 0.76862278E-01 0.22288231E+04</pdfrwt>
<totfact> 0.48916720E+00</totfact>
</mgrwt>
</event>
<event>
12    1  0.2588309E-007  0.4494320E+04  0.7818608E-02  0.7911632E-01
          1   -1    0    0  501    0  0.00000000000E+00  0.00000000000E+00  0.17944544135E+04  0.17944544135E+04  0.00000000000E+00 0.  1.
         -1   -1    0    0    0  501 -0.00000000000E+00 -0.00000000000E+00 -0.28140743321E+04  0.28140743321E+04  0.00000000000E+00 0. -1.
         23    2    1    2    0    0  0.13980595529E+04  0.40226541580E+03  0.11420235871E+04  0.18515980716E+04  0.88371753421E+02 0.  0.
        254    2    1    2    0    0 -0.13980595529E+04 -0.40226541580E+03 -0.21616435057E+04  0.27569306740E+04  0.90087519514E+03 0.  0.
        -24    2    4    4    0    0 -0.13944283393E+04 -0.31865227564E+03 -0.14593304236E+04  0.20450336729E+04  0.80918303704E+02 0.  0.
         24    2    4    4    0    0 -0.36312136481E+01 -0.83613140162E+02 -0.70231308215E+03  0.71189700114E+03  0.80927942941E+02 0.  0.
         13    1    3    3    0    0  0.53282816145E+03  0.16035697808E+03  0.38338535903E+03  0.67572519826E+03  0.00000000000E+00 0. -1.
        -13    1    3    3    0    0  0.86523139149E+03  0.24190843772E+03  0.75863822812E+03  0.11758728733E+04  0.00000000000E+00 0.  1.
          4    1    6    6  502    0 -0.40779729212E+02 -0.30794262882E+02 -0.27083443797E+03  0.27561307250E+03  0.00000000000E+00 0. -1.
          1    1    5    5  503    0 -0.25952358487E+03 -0.60785642047E+02 -0.22842371707E+03  0.35103387287E+03  0.00000000000E+00 0. -1.
         -2    1    5    5    0  503 -0.11349047544E+04 -0.25786663359E+03 -0.12309067065E+04  0.16939998000E+04  0.00000000000E+00 0.  1.
         -3    1    6    6    0  502  0.37148515564E+02 -0.52818877280E+02 -0.43147864418E+03  0.43628392864E+03  0.00000000000E+00 0.  1.
<mgrwt>
<rscale>  0 0.44943200E+04</rscale>
<asrwt>0</asrwt>
<pdfrwt beam="1">  1        1 0.27606991E+00 0.44943200E+04</pdfrwt>
<pdfrwt beam="2">  1       -1 0.43293451E+00 0.44943200E+04</pdfrwt>
<totfact> 0.13119231E-02</totfact>
</mgrwt>
</event>
<event>
12    1  0.2588309E-007  0.3167596E+04  0.7818608E-02  0.8197428E-01
         -2   -1    0    0    0  501 -0.00000000000E+00  0.00000000000E+00  0.12145290834E+04  0.12145290834E+04  0.00000000000E+00 0.  1.
          2   -1    0    0  501    0  0.00000000000E+00 -0.00000000000E+00 -0.20653408167E+04  0.20653408167E+04  0.00000000000E+00 0. -1.
         23    2    1    2    0    0  0.11069012309E+04 -0.65757167239E+03  0.31226560557E+03  0.13276805235E+04  0.87148865520E+02 0.  0.
        254    2    1    2    0    0 -0.11069012309E+04  0.65757167239E+03 -0.11630773389E+04  0.19521893766E+04  0.89479809258E+03 0.  0.
        -24    2    4    4    0    0 -0.96550818851E+03  0.10816592768E+03 -0.87700572467E+03  0.13112316512E+04  0.79268354751E+02 0.  0.
         24    2    4    4    0    0 -0.14139304242E+03  0.54940574470E+03 -0.28607161423E+03  0.64095772538E+03  0.84564605472E+02 0.  0.
         11    1    3    3    0    0  0.21998486732E+03 -0.14853087864E+03  0.32006613500E+02  0.26735591833E+03  0.00000000000E+00 0. -1.
        -11    1    3    3    0    0  0.88691636362E+03 -0.50904079374E+03  0.28025899207E+03  0.10603246052E+04  0.00000000000E+00 0.  1.
          4    1    6    6  502    0 -0.14793300237E+03  0.45981681636E+03 -0.22926822347E+03  0.53467709516E+03  0.00000000000E+00 0. -1.
          3    1    5    5  503    0 -0.62940478738E+03  0.67912945387E+02 -0.62127360314E+03  0.88698559429E+03  0.00000000000E+00 0. -1.
         -4    1    5    5    0  503 -0.33610340113E+03  0.40252982296E+02 -0.25573212154E+03  0.42424605693E+03  0.00000000000E+00 0.  1.
         -3    1    6    6    0  502  0.65399599479E+01  0.89588928340E+02 -0.56803390761E+02  0.10628063022E+03  0.00000000000E+00 0.  1.
<mgrwt>
<rscale>  0 0.31675962E+04</rscale>
<asrwt>0</asrwt>
<pdfrwt beam="1">  1        2 0.31774474E+00 0.31675962E+04</pdfrwt>
<pdfrwt beam="2">  1       -2 0.18685063E+00 0.31675962E+04</pdfrwt>
<totfact> 0.84438749E-01</totfact>
</mgrwt>
</event>
<event>
12    1  0.2588309E-007  0.1461531E+04  0.7818608E-02  0.8910445E-01
          2   -1    0    0  501    0  0.00000000000E+00  0.00000000000E+00  0.28232276438E+04  0.28232276438E+04  0.00000000000E+00 0. -1.
         -2   -1    0    0    0  501 -0.00000000000E+00 -0.00000000000E+00 -0.18915171413E+03  0.18915171413E+03  0.00000000000E+00 0.  1.
         23    2    1    2    0    0 -0.28869175523E+03  0.33571211441E+03  0.69890687400E+03  0.83232536692E+03  0.90824801633E+02 0.  0.
        254    2    1    2    0    0  0.28869175523E+03 -0.33571211441E+03  0.19351690557E+04  0.21800539911E+04  0.90094981905E+03 0.  0.
        -24    2    4    4    0    0 -0.29915767070E+03 -0.28428174247E+02  0.40814214275E+03  0.51322236672E+03  0.80707595526E+02 0.  0.
         24    2    4    4    0    0  0.58784942593E+03 -0.30728394017E+03  0.15270269130E+04  0.16668316244E+04  0.80784302740E+02 0.  0.
         11    1    3    3    0    0 -0.38495017009E+02  0.10364070795E+03  0.16120246828E+03  0.19547250051E+03  0.00000000000E+00 0.  1.
        -11    1    3    3    0    0 -0.25019673822E+03  0.23207140646E+03  0.53770440572E+03  0.63685286640E+03  0.00000000000E+00 0. -1.
          2    1    6    6  502    0  0.73476177149E+02 -0.49231847846E+02  0.14598279963E+03  0.17068538672E+03  0.00000000000E+00 0. -1.
          1    1    5    5  503    0 -0.44232346565E+02 -0.26121097777E+02  0.38512112893E+02  0.64202765293E+02  0.00000000000E+00 0. -1.
         -2    1    5    5    0  503 -0.25492532414E+03 -0.23070764698E+01  0.36963002986E+03  0.44901960142E+03  0.00000000000E+00 0.  1.
         -1    1    6    6    0  502  0.51437324878E+03 -0.25805209232E+03  0.13810441133E+04  0.14961462376E+04  0.00000000000E+00 0.  1.
<mgrwt>
<rscale>  0 0.14615312E+04</rscale>
<asrwt>0</asrwt>
<pdfrwt beam="1">  1        2 0.43434268E+00 0.14615312E+04</pdfrwt>
<pdfrwt beam="2">  1       -2 0.29100266E-01 0.14615312E+04</pdfrwt>
<totfact> 0.23683480E+01</totfact>
</mgrwt>
</event>
<event>
12    1  0.2588309E-007  0.1997331E+04  0.7818608E-02  0.8607870E-01
          1   -1    0    0  501    0  0.00000000000E+00  0.00000000000E+00  0.15261008373E+04  0.15261008373E+04  0.00000000000E+00 0. -1.
         -1   -1    0    0    0  501 -0.00000000000E+00 -0.00000000000E+00 -0.65351681478E+03  0.65351681478E+03  0.00000000000E+00 0.  1.
         23    2    1    2    0    0  0.13882332938E+02 -0.26780272113E+03 -0.46551794467E+03  0.54497464306E+03  0.91538997991E+02 0.  0.
        254    2    1    2    0    0 -0.13882332938E+02  0.26780272113E+03  0.13381019672E+04  0.16346430090E+04  0.89979435191E+03 0.  0.
        -24    2    4    4    0    0  0.60201284942E+02  0.52395395516E+03  0.43124597910E+03  0.68605694673E+03  0.80926496432E+02 0.  0.
         24    2    4    4    0    0 -0.74083617880E+02 -0.25615123404E+03  0.90685598811E+03  0.94858606231E+03  0.79535509682E+02 0.  0.
         13    1    3    3    0    0  0.16243203974E+02 -0.16124631739E+03 -0.19098709571E+03  0.25048011353E+03  0.00000000000E+00 0. -1.
        -13    1    3    3    0    0 -0.23608710363E+01 -0.10655640374E+03 -0.27453084896E+03  0.29449452952E+03  0.00000000000E+00 0.  1.
          4    1    6    6  502    0 -0.49611482513E+02 -0.12121749498E+03  0.31687979523E+03  0.34288159022E+03  0.00000000000E+00 0. -1.
          3    1    5    5  503    0  0.37986128895E+02  0.11895237866E+03  0.13419448046E+03  0.18330513622E+03  0.00000000000E+00 0. -1.
         -4    1    5    5    0  503  0.22215156047E+02  0.40500157651E+03  0.29705149864E+03  0.50275181051E+03  0.00000000000E+00 0.  1.
         -3    1    6    6    0  502 -0.24472135367E+02 -0.13493373906E+03  0.58997619288E+03  0.60570447209E+03  0.00000000000E+00 0.  1.
<mgrwt>
<rscale>  0 0.19973308E+04</rscale>
<asrwt>0</asrwt>
<pdfrwt beam="1">  1        1 0.23478474E+00 0.19973308E+04</pdfrwt>
<pdfrwt beam="2">  1       -1 0.10054105E+00 0.19973308E+04</pdfrwt>
<totfact> 0.54806662E+00</totfact>
</mgrwt>
</event>
<event>
12    1  0.2588309E-007  0.3359900E+04  0.7818608E-02  0.8147819E-01
         -2   -1    0    0    0  501 -0.00000000000E+00  0.00000000000E+00  0.19188298586E+04  0.19188298586E+04  0.00000000000E+00 0.  1.
          2   -1    0    0  501    0  0.00000000000E+00 -0.00000000000E+00 -0.14708084527E+04  0.14708084527E+04  0.00000000000E+00 0. -1.
         23    2    1    2    0    0  0.13319336631E+04 -0.64029918752E+03 -0.28884370088E+03  0.15086073190E+04  0.91842403234E+02 0.  0.
        254    2    1    2    0    0 -0.13319336631E+04  0.64029918752E+03  0.73686510674E+03  0.18810309923E+04  0.90070920730E+03 0.  0.
        -24    2    4    4    0    0 -0.26901198733E+03  0.59988232365E+03  0.32327169939E+03  0.73699505353E+03  0.80192678816E+02 0.  0.
         24    2    4    4    0    0 -0.10629216757E+04  0.40416863865E+02  0.41359340735E+03  0.11440359388E+04  0.79515476241E+02 0.  0.
         11    1    3    3    0    0  0.11761046848E+04 -0.53835797279E+03 -0.23374764739E+03  0.13144160297E+04  0.00000000000E+00 0.  1.
        -11    1    3    3    0    0  0.15582897831E+03 -0.10194121473E+03 -0.55096053484E+02  0.19419128932E+03  0.00000000000E+00 0. -1.
          4    1    6    6  502    0 -0.61569964153E+03  0.44412632157E+02  0.27527390226E+03  0.67589514848E+03  0.00000000000E+00 0. -1.
          3    1    5    5  503    0 -0.99799548371E+02  0.19266816633E+03  0.67612217078E+02  0.22727160859E+03  0.00000000000E+00 0. -1.
         -4    1    5    5    0  503 -0.16921243896E+03  0.40721415733E+03  0.25565948231E+03  0.50972344494E+03  0.00000000000E+00 0.  1.
         -3    1    6    6    0  502 -0.44722203422E+03 -0.39957682919E+01  0.13831950509E+03  0.46814079030E+03  0.00000000000E+00 0.  1.
<mgrwt>
<rscale>  0 0.33598995E+04</rscale>
<asrwt>0</asrwt>
<pdfrwt beam="1">  1        2 0.22627822E+00 0.33598995E+04</pdfrwt>
<pdfrwt beam="2">  1       -2 0.29520459E+00 0.33598995E+04</pdfrwt>
<totfact> 0.37265453E-01</totfact>
</mgrwt>
</event>
<event>
12    1  0.2588309E-007  0.4683775E+04  0.7818608E-02  0.7879230E-01
          2   -1    0    0  501    0  0.00000000000E+00  0.00000000000E+00  0.23093839331E+04  0.23093839331E+04  0.00000000000E+00 0. -1.
         -2   -1    0    0    0  501 -0.00000000000E+00 -0.00000000000E+00 -0.23748486530E+04  0.23748486530E+04  0.00000000000E+00 0.  1.
         23    2    1    2    0    0 -0.14657458866E+04 -0.12743053715E+04 -0.11773021468E+04  0.22729914165E+04  0.90467952366E+02 0.  0.
        254    2    1    2    0    0  0.14657458866E+04  0.12743053715E+04  0.11118374270E+04  0.24112411697E+04  0.89757246510E+03 0.  0.
        -24    2    4    4    0    0  0.10431539776E+01 -0.29092281255E+02 -0.78283773021E+02  0.11621932449E+03  0.80815427164E+02 0.  0.
         24    2    4    4    0    0  0.14647027327E+04  0.13033976528E+04  0.11901212000E+04  0.22950218452E+04  0.80853341053E+02 0.  0.
         11    1    3    3    0    0 -0.71818274714E+03 -0.64879058125E+03 -0.53826799101E+03  0.11074511758E+04  0.00000000000E+00 0.  1.
        -11    1    3    3    0    0 -0.74756313950E+03 -0.62551479028E+03 -0.63903415580E+03  0.11655402407E+04  0.00000000000E+00 0. -1.
          2    1    6    6  502    0  0.47692427046E+03  0.38905034264E+03  0.34246138232E+03  0.70434134284E+03  0.00000000000E+00 0. -1.
          1    1    5    5  503    0  0.15258378592E+02 -0.53781029600E+02 -0.41147070197E+02  0.69413965798E+02  0.00000000000E+00 0. -1.
         -4    1    5    5    0  503 -0.14215224614E+02  0.24688748345E+02 -0.37136702824E+02  0.46805358692E+02  0.00000000000E+00 0.  1.
         -1    1    6    6    0  502  0.98777846220E+03  0.91434731015E+03  0.84765981767E+03  0.15906805023E+04  0.00000000000E+00 0.  1.
<mgrwt>
<rscale>  0 0.46837751E+04</rscale>
<asrwt>0</asrwt>
<pdfrwt beam="1">  1        2 0.35528983E+00 0.46837751E+04</pdfrwt>
<pdfrwt beam="2">  1       -2 0.36536133E+00 0.46837751E+04</pdfrwt>
<totfact> 0.41562179E-02</totfact>
</mgrwt>
</event>
<event>
12    1  0.3446171E-007  0.3539718E+04  0.7818608E-02  0.8104441E-01
         -1   -1    0    0    0  501 -0.00000000000E+00  0.00000000000E+00  0.15462811245E+04  0.15462811245E+04  0.00000000000E+00 0.  1.
          1   -1    0    0  501    0  0.00000000000E+00 -0.00000000000E+00 -0.20257642229E+04  0.20257642229E+04  0.00000000000E+00 0. -1.
         23    2    1    2    0    0  0.22258737570E+03 -0.16267068125E+04 -0.19705934679E+02  0.16444053911E+04  0.89222041882E+02 0.  0.
        254    2    1    2    0    0 -0.22258737570E+03  0.16267068125E+04 -0.45977716377E+03  0.19276399563E+04  0.89926668288E+03 0.  0.
        -24    2    4    4    0    0  0.29340985743E+02 -0.37070486894E+02  0.11487640209E+03  0.14768905326E+03  0.79877119697E+02 0.  0.
         24    2    4    4    0    0 -0.25192836144E+03  0.16637772994E+04 -0.57465356586E+03  0.17799509030E+04  0.79847949249E+02 0.  0.
         11    1    3    3    0    0  0.12915615441E+03 -0.10068763827E+04  0.30326586096E+02  0.10155791767E+04  0.00000000000E+00 0.  1.
        -11    1    3    3    0    0  0.93431221290E+02 -0.61983042982E+03 -0.50032520775E+02  0.62882621445E+03  0.00000000000E+00 0. -1.
          2    1    6    6  502    0 -0.14239646622E+03  0.11414865155E+04 -0.36946754769E+03  0.12082112760E+04  0.00000000000E+00 0. -1.
          3    1    5    5  503    0  0.41028567134E+02 -0.54944013944E+02  0.10149136057E+03  0.12248544509E+03  0.00000000000E+00 0. -1.
         -4    1    5    5    0  503 -0.11687581391E+02  0.17873527049E+02  0.13385041526E+02  0.25203608167E+02  0.00000000000E+00 0.  1.
         -3    1    6    6    0  502 -0.10953189523E+03  0.52229078398E+03 -0.20518601818E+03  0.57173962706E+03  0.00000000000E+00 0.  1.
<mgrwt>
<rscale>  0 0.35397181E+04</rscale>
<asrwt>0</asrwt>
<pdfrwt beam="1">  1        1 0.31165603E+00 0.35397181E+04</pdfrwt>
<pdfrwt beam="2">  1       -1 0.23788941E+00 0.35397181E+04</pdfrwt>
<totfact> 0.19484634E-01</totfact>
</mgrwt>
</event>
<event>
12    1  0.2588309E-007  0.3406758E+04  0.7818608E-02  0.8136250E-01
         -2   -1    0    0    0  501 -0.00000000000E+00  0.00000000000E+00  0.88890826570E+03  0.88890826570E+03  0.00000000000E+00 0.  1.
          2   -1    0    0  501    0  0.00000000000E+00 -0.00000000000E+00 -0.32641164357E+04  0.32641164357E+04  0.00000000000E+00 0. -1.
         23    2    1    2    0    0  0.85904039576E+03  0.85531407126E+03  0.13545777648E+03  0.12235540934E+04  0.96037744062E+02 0.  0.
        254    2    1    2    0    0 -0.85904039576E+03 -0.85531407126E+03 -0.25106659465E+04  0.29294706080E+04  0.89935642887E+03 0.  0.
        -24    2    4    4    0    0 -0.21594004318E+03  0.20783116962E+02 -0.12138738138E+04  0.12356536233E+04  0.79298176144E+02 0.  0.
         24    2    4    4    0    0 -0.64310035258E+03 -0.87609718822E+03 -0.12967921327E+04  0.16938169847E+04  0.78878359098E+02 0.  0.
         11    1    3    3    0    0  0.51673821523E+03  0.45559066807E+03  0.99766411873E+02  0.69608517931E+03  0.00000000000E+00 0. -1.
        -11    1    3    3    0    0  0.34230218052E+03  0.39972340319E+03  0.35691364609E+02  0.52746891412E+03  0.00000000000E+00 0.  1.
          2    1    6    6  502    0 -0.64517472358E+03 -0.86954081909E+03 -0.12876586464E+04  0.16823841564E+04  0.00000000000E+00 0. -1.
          3    1    5    5  503    0 -0.16967317502E+03  0.90200804178E+01 -0.10849655978E+04  0.10981897361E+04  0.00000000000E+00 0. -1.
         -4    1    5    5    0  503 -0.46266868162E+02  0.11763036545E+02 -0.12890821602E+03  0.13746388717E+03  0.00000000000E+00 0.  1.
         -1    1    6    6    0  502  0.20743710025E+01 -0.65563691358E+01 -0.91334863473E+01  0.11432828353E+02  0.00000000000E+00 0.  1.
<mgrwt>
<rscale>  0 0.34067580E+04</rscale>
<asrwt>0</asrwt>
<pdfrwt beam="1">  1        2 0.50217176E+00 0.34067580E+04</pdfrwt>
<pdfrwt beam="2">  1       -2 0.13675512E+00 0.34067580E+04</pdfrwt>
<totfact> 0.37145908E-01</totfact>
</mgrwt>
</event>
<event>
12    1  0.2588309E-007  0.1373776E+04  0.7818608E-02  0.8973022E-01
          2   -1    0    0  501    0  0.00000000000E+00  0.00000000000E+00  0.77774963105E+03  0.77774963105E+03  0.00000000000E+00 0. -1.
         -2   -1    0    0    0  501 -0.00000000000E+00 -0.00000000000E+00 -0.60664156229E+03  0.60664156229E+03  0.00000000000E+00 0.  1.
         23    2    1    2    0    0  0.58260911883E+02  0.86079577237E+02  0.42122012432E+03  0.44533894397E+03  0.10048061708E+03 0.  0.
        254    2    1    2    0    0 -0.58260911883E+02 -0.86079577237E+02 -0.25011205556E+03  0.93905224937E+03  0.89914351426E+03 0.  0.
        -24    2    4    4    0    0 -0.23724827089E+03  0.12965692821E+03  0.23928226436E+03  0.36969245476E+03  0.79491181883E+02 0.  0.
         24    2    4    4    0    0  0.17898735900E+03 -0.21573650545E+03 -0.48939431992E+03  0.56935979461E+03  0.78006800216E+02 0.  0.
         11    1    3    3    0    0  0.67383816668E+02  0.75085380366E+02  0.20335422969E+03  0.22700514493E+03  0.00000000000E+00 0.  1.
        -11    1    3    3    0    0 -0.91229047845E+01  0.10994196872E+02  0.21786589463E+03  0.21833379903E+03  0.00000000000E+00 0. -1.
          4    1    6    6  502    0  0.15203508720E+03 -0.13719008132E+03 -0.38389050190E+03  0.43509505123E+03  0.00000000000E+00 0. -1.
          1    1    5    5  503    0 -0.11340963634E+03  0.17612252549E+02  0.10042140196E+03  0.15250047550E+03  0.00000000000E+00 0. -1.
         -2    1    5    5    0  503 -0.12383863455E+03  0.11204467566E+03  0.13886086240E+03  0.21719197926E+03  0.00000000000E+00 0.  1.
         -3    1    6    6    0  502  0.26952271805E+02 -0.78546424127E+02 -0.10550381802E+03  0.13426474338E+03  0.00000000000E+00 0.  1.
<mgrwt>
<rscale>  0 0.13737762E+04</rscale>
<asrwt>0</asrwt>
<pdfrwt beam="1">  1        2 0.11965379E+00 0.13737762E+04</pdfrwt>
<pdfrwt beam="2">  1       -2 0.93329471E-01 0.13737762E+04</pdfrwt>
<totfact> 0.33883246E+01</totfact>
</mgrwt>
</event>
<event>
12    1  0.2588309E-007  0.2091419E+04  0.7818608E-02  0.8565033E-01
         -2   -1    0    0    0  501 -0.00000000000E+00  0.00000000000E+00  0.19241569800E+04  0.19241569800E+04  0.00000000000E+00 0.  1.
          2   -1    0    0  501    0  0.00000000000E+00 -0.00000000000E+00 -0.56830509901E+03  0.56830509901E+03  0.00000000000E+00 0. -1.
         23    2    1    2    0    0 -0.49041160904E+03 -0.67633836025E+03  0.73448098288E+03  0.11167344119E+04  0.98469836310E+02 0.  0.
        254    2    1    2    0    0  0.49041160904E+03  0.67633836025E+03  0.62137089813E+03  0.13757276671E+04  0.89921504505E+03 0.  0.
        -24    2    4    4    0    0  0.39313132438E+03  0.34121143353E+03 -0.13106538206E+03  0.54253713443E+03  0.78682445750E+02 0.  0.
         24    2    4    4    0    0  0.97280284661E+02  0.33512692671E+03  0.75243628020E+03  0.83319053271E+03  0.79199730113E+02 0.  0.
         11    1    3    3    0    0 -0.17282646156E+03 -0.30424102273E+03  0.26762951638E+03  0.44051917526E+03  0.00000000000E+00 0. -1.
        -11    1    3    3    0    0 -0.31758514748E+03 -0.37209733751E+03  0.46685146649E+03  0.67621523663E+03  0.00000000000E+00 0.  1.
          2    1    6    6  502    0  0.52031017497E+01 -0.11578531272E+01  0.19658921470E+01  0.56813399490E+01  0.00000000000E+00 0. -1.
          3    1    5    5  503    0  0.38282361506E+03  0.34293189759E+03 -0.12096712209E+03  0.52800497276E+03  0.00000000000E+00 0. -1.
         -4    1    5    5    0  503  0.10307709321E+02 -0.17204640602E+01 -0.10098259975E+02  0.14532161662E+02  0.00000000000E+00 0.  1.
         -3    1    6    6    0  502  0.92077182911E+02  0.33628477984E+03  0.75047038805E+03  0.82750919276E+03  0.00000000000E+00 0.  1.
<mgrwt>
<rscale>  0 0.20914189E+04</rscale>
<asrwt>0</asrwt>
<pdfrwt beam="1">  1        2 0.87431555E-01 0.20914189E+04</pdfrwt>
<pdfrwt beam="2">  1       -2 0.29602415E+00 0.20914189E+04</pdfrwt>
<totfact> 0.16424367E+00</totfact>
</mgrwt>
</event>
<event>
12    1  0.2588309E-007  0.1655897E+04  0.7818608E-02  0.8786925E-01
         -1   -1    0    0    0  501 -0.00000000000E+00  0.00000000000E+00  0.41480610372E+03  0.41480610372E+03  0.00000000000E+00 0. -1.
          1   -1    0    0  501    0  0.00000000000E+00 -0.00000000000E+00 -0.16525768848E+04  0.16525768848E+04  0.00000000000E+00 0.  1.
         23    2    1    2    0    0  0.40918811461E+02  0.34790016471E+03 -0.10116196656E+04  0.10744410639E+04  0.91325671437E+02 0.  0.
        254    2    1    2    0    0 -0.40918811461E+02 -0.34790016471E+03 -0.22615111542E+03  0.99294192455E+03  0.90115507256E+03 0.  0.
        -24    2    4    4    0    0  0.16576848159E+03  0.15707434716E+03 -0.35207818899E+03  0.42726356425E+03  0.80271801736E+02 0.  0.
         24    2    4    4    0    0 -0.20668729305E+03 -0.50497451186E+03  0.12592707356E+03  0.56567836030E+03  0.80096721050E+02 0.  0.
         11    1    3    3    0    0  0.84051506711E+01  0.31103045653E+03 -0.90608409968E+03  0.95801826034E+03  0.00000000000E+00 0.  1.
        -11    1    3    3    0    0  0.32513660789E+02  0.36869708179E+02 -0.10553556594E+03  0.11642280360E+03  0.00000000000E+00 0. -1.
          2    1    6    6  502    0 -0.12482723667E+03 -0.20744759309E+03  0.40334142873E+02  0.24544487360E+03  0.00000000000E+00 0. -1.
          1    1    5    5  503    0  0.31172412698E+02  0.97563341769E+01 -0.15911421921E+02  0.36332887547E+02  0.00000000000E+00 0. -1.
         -2    1    5    5    0  503  0.13459606889E+03  0.14731801298E+03 -0.33616676706E+03  0.39093067670E+03  0.00000000000E+00 0.  1.
         -1    1    6    6    0  502 -0.81860056374E+02 -0.29752691878E+03  0.85592930691E+02  0.32023348671E+03  0.00000000000E+00 0.  1.
<mgrwt>
<rscale>  0 0.16558973E+04</rscale>
<asrwt>0</asrwt>
<pdfrwt beam="1">  1        1 0.25424260E+00 0.16558973E+04</pdfrwt>
<pdfrwt beam="2">  1       -1 0.63816324E-01 0.16558973E+04</pdfrwt>
<totfact> 0.12214191E+01</totfact>
</mgrwt>
</event>
<event>
12    1  0.2588309E-007  0.2356609E+04  0.7818608E-02  0.8455929E-01
         -1   -1    0    0    0  501 -0.00000000000E+00  0.00000000000E+00  0.10097299494E+04  0.10097299494E+04  0.00000000000E+00 0.  1.
          1   -1    0    0  501    0  0.00000000000E+00 -0.00000000000E+00 -0.13750230003E+04  0.13750230003E+04  0.00000000000E+00 0. -1.
         23    2    1    2    0    0 -0.14851781997E+03  0.97315198530E+03 -0.36008663298E+03  0.10521361407E+04  0.90806090144E+02 0.  0.
        254    2    1    2    0    0  0.14851781997E+03 -0.97315198530E+03 -0.52064178850E+01  0.13326168090E+04  0.89819715173E+03 0.  0.
        -24    2    4    4    0    0  0.14007555280E+03 -0.10008454972E+04 -0.27427838341E+03  0.10502901687E+04  0.81042809331E+02 0.  0.
         24    2    4    4    0    0  0.84422671764E+01  0.27693511926E+02  0.26907196553E+03  0.28232664030E+03  0.80438838348E+02 0.  0.
         11    1    3    3    0    0 -0.21759852804E+02  0.34971695237E+03 -0.95963264431E+02  0.36329655392E+03  0.00000000000E+00 0. -1.
        -11    1    3    3    0    0 -0.12675796717E+03  0.62343503293E+03 -0.26412336855E+03  0.68883958680E+03  0.00000000000E+00 0.  1.
          4    1    6    6  502    0  0.31932541371E+02 -0.14910454483E+02  0.87003097183E+02  0.93869844842E+02  0.00000000000E+00 0. -1.
          1    1    5    5  503    0  0.34117202466E+02 -0.18742949384E+03 -0.20324685482E+02  0.19159042645E+03  0.00000000000E+00 0. -1.
         -2    1    5    5    0  503  0.10595835033E+03 -0.81341600339E+03 -0.25395369793E+03  0.85869974221E+03  0.00000000000E+00 0.  1.
         -3    1    6    6    0  502 -0.23490274194E+02  0.42603966409E+02  0.18206886834E+03  0.18845679546E+03  0.00000000000E+00 0.  1.
<mgrwt>
<rscale>  0 0.23566093E+04</rscale>
<asrwt>0</asrwt>
<pdfrwt beam="1">  1        1 0.21154200E+00 0.23566093E+04</pdfrwt>
<pdfrwt beam="2">  1       -1 0.15534307E+00 0.23566093E+04</pdfrwt>
<totfact> 0.22827881E+00</totfact>
</mgrwt>
</event>
<event>
12    1  0.2588309E-007  0.2145634E+04  0.7818608E-02  0.8541403E-01
          2   -1    0    0  501    0  0.00000000000E+00  0.00000000000E+00  0.30621949013E+04  0.30621949013E+04  0.00000000000E+00 0.  1.
         -2   -1    0    0    0  501 -0.00000000000E+00 -0.00000000000E+00 -0.37585334792E+03  0.37585334792E+03  0.00000000000E+00 0. -1.
         23    2    1    2    0    0 -0.16001941554E+03  0.61814638153E+03  0.13321983681E+03  0.65884759468E+03  0.92851848395E+02 0.  0.
        254    2    1    2    0    0  0.16001941554E+03 -0.61814638153E+03  0.25531217166E+04  0.27792006546E+04  0.89320468888E+03 0.  0.
        -24    2    4    4    0    0 -0.11677675094E+03 -0.25850018327E+03  0.14700800985E+03  0.32935802655E+03  0.80038742978E+02 0.  0.
         24    2    4    4    0    0  0.27679616648E+03 -0.35964619826E+03  0.24061137068E+04  0.24498426280E+04  0.79901355187E+02 0.  0.
         11    1    3    3    0    0 -0.58257463175E+02  0.94573267488E+02  0.10739335460E+02  0.11159466056E+03  0.00000000000E+00 0. -1.
        -11    1    3    3    0    0 -0.10176195237E+03  0.52357311404E+03  0.12248050135E+03  0.54725293412E+03  0.00000000000E+00 0.  1.
          4    1    6    6  502    0  0.97393460295E+02 -0.72790845034E+02  0.70520829861E+03  0.71561353932E+03  0.00000000000E+00 0. -1.
          3    1    5    5  503    0 -0.57534762254E+01 -0.82902531221E+00  0.20999065452E+02  0.21788770537E+02  0.00000000000E+00 0. -1.
         -4    1    5    5    0  503 -0.11102327472E+03 -0.25767115796E+03  0.12600894440E+03  0.30756925601E+03  0.00000000000E+00 0.  1.
         -3    1    6    6    0  502  0.17940270619E+03 -0.28685535322E+03  0.17009054081E+04  0.17342290887E+04  0.00000000000E+00 0.  1.
<mgrwt>
<rscale>  0 0.21456339E+04</rscale>
<asrwt>0</asrwt>
<pdfrwt beam="1">  1        2 0.47110689E+00 0.21456339E+04</pdfrwt>
<pdfrwt beam="2">  1       -2 0.57823594E-01 0.21456339E+04</pdfrwt>
<totfact> 0.40963058E+00</totfact>
</mgrwt>
</event>
<event>
12    1  0.2588309E-007  0.1893184E+04  0.7818608E-02  0.8658257E-01
          1   -1    0    0  501    0  0.00000000000E+00  0.00000000000E+00  0.17987376252E+04  0.17987376252E+04  0.00000000000E+00 0. -1.
         -1   -1    0    0    0  501 -0.00000000000E+00 -0.00000000000E+00 -0.49814718788E+03  0.49814718788E+03  0.00000000000E+00 0.  1.
         23    2    1    2    0    0  0.65782621962E+03 -0.26473428497E+03  0.30089565663E+03  0.77562788538E+03  0.90779092050E+02 0.  0.
        254    2    1    2    0    0 -0.65782621962E+03  0.26473428497E+03  0.99969478064E+03  0.15212569277E+04  0.90111786611E+03 0.  0.
        -24    2    4    4    0    0 -0.23371322195E+03  0.50375729047E+03  0.22888799556E+03  0.60598087151E+03  0.80186185283E+02 0.  0.
         24    2    4    4    0    0 -0.42411299767E+03 -0.23902300550E+03  0.77080678508E+03  0.91527605614E+03  0.81137704323E+02 0.  0.
         11    1    3    3    0    0  0.15190094327E+03 -0.42359245617E+02  0.10426712633E+03  0.18904982383E+03  0.00000000000E+00 0. -1.
        -11    1    3    3    0    0  0.50592527635E+03 -0.22237503935E+03  0.19662853030E+03  0.58657806156E+03  0.00000000000E+00 0.  1.
          2    1    6    6  502    0 -0.24821310440E+03 -0.11625998789E+03  0.49565467284E+03  0.56639181199E+03  0.00000000000E+00 0. -1.
          3    1    5    5  503    0 -0.63147331478E+02  0.13917262342E+03  0.10279138132E+03  0.18418108659E+03  0.00000000000E+00 0. -1.
         -4    1    5    5    0  503 -0.17056589047E+03  0.36458466705E+03  0.12609661424E+03  0.42179978492E+03  0.00000000000E+00 0.  1.
         -1    1    6    6    0  502 -0.17589989326E+03 -0.12276301761E+03  0.27515211224E+03  0.34888424414E+03  0.00000000000E+00 0.  1.
<mgrwt>
<rscale>  0 0.18931837E+04</rscale>
<asrwt>0</asrwt>
<pdfrwt beam="1">  1        1 0.27672886E+00 0.18931837E+04</pdfrwt>
<pdfrwt beam="2">  1       -1 0.76638030E-01 0.18931837E+04</pdfrwt>
<totfact> 0.65286555E+00</totfact>
</mgrwt>
</event>
<event>
12    1  0.2588309E-007  0.2653690E+04  0.7818608E-02  0.8350189E-01
         -2   -1    0    0    0  501 -0.00000000000E+00  0.00000000000E+00  0.12008129849E+04  0.12008129849E+04  0.00000000000E+00 0.  1.
          2   -1    0    0  501    0  0.00000000000E+00 -0.00000000000E+00 -0.14661049358E+04  0.14661049358E+04  0.00000000000E+00 0. -1.
         23    2    1    2    0    0  0.31836802287E+03 -0.96338173857E+03 -0.70784881723E+03  0.12404002503E+04  0.89890270085E+02 0.  0.
        254    2    1    2    0    0 -0.31836802287E+03  0.96338173857E+03  0.44255686636E+03  0.14265176705E+04  0.89979637251E+03 0.  0.
        -24    2    4    4    0    0  0.30728488988E+03  0.30241528557E+03  0.19672475534E+03  0.48044361301E+03  0.79034343345E+02 0.  0.
         24    2    4    4    0    0 -0.62565291274E+03  0.66096645300E+03  0.24583211103E+03  0.94607405745E+03  0.79400731434E+02 0.  0.
         13    1    3    3    0    0  0.25809174454E+03 -0.83949292895E+03 -0.64071064233E+03  0.10871383783E+04  0.00000000000E+00 0. -1.
        -13    1    3    3    0    0  0.60276278328E+02 -0.12388880962E+03 -0.67138174899E+02  0.15326187199E+03  0.00000000000E+00 0.  1.
          4    1    6    6  502    0 -0.60618480029E+03  0.64587148737E+03  0.22525168461E+03  0.91397391195E+03  0.00000000000E+00 0. -1.
          1    1    5    5  503    0  0.13854854143E+03  0.18981160196E+03  0.94540069346E+02  0.25330212649E+03  0.00000000000E+00 0. -1.
         -2    1    5    5    0  503  0.16873634844E+03  0.11260368361E+03  0.10218468599E+03  0.22714148653E+03  0.00000000000E+00 0.  1.
         -3    1    6    6    0  502 -0.19468112452E+02  0.15094965629E+02  0.20580426413E+02  0.32100145500E+02  0.00000000000E+00 0.  1.
<mgrwt>
<rscale>  0 0.26536901E+04</rscale>
<asrwt>0</asrwt>
<pdfrwt beam="1">  1        2 0.22555461E+00 0.26536901E+04</pdfrwt>
<pdfrwt beam="2">  1       -2 0.18474046E+00 0.26536901E+04</pdfrwt>
<totfact> 0.19659248E+00</totfact>
</mgrwt>
</event>
<event>
12    1  0.2588309E-007  0.3253394E+04  0.7818608E-02  0.8174857E-01
          2   -1    0    0  501    0  0.00000000000E+00  0.00000000000E+00  0.29271037541E+04  0.29271037541E+04  0.00000000000E+00 0. -1.
         -2   -1    0    0    0  501 -0.00000000000E+00 -0.00000000000E+00 -0.90401390139E+03  0.90401390139E+03  0.00000000000E+00 0.  1.
         23    2    1    2    0    0 -0.91437109963E+03  0.11145167617E+04  0.14264500320E+04  0.20300520402E+04  0.90163585310E+02 0.  0.
        254    2    1    2    0    0  0.91437109963E+03 -0.11145167617E+04  0.59663982066E+03  0.18010656153E+04  0.89979784110E+03 0.  0.
        -24    2    4    4    0    0  0.13954214580E+03 -0.86146274353E+03  0.37147120712E+03  0.95168428216E+03  0.78243506031E+02 0.  0.
         24    2    4    4    0    0  0.77482895383E+03 -0.25305401819E+03  0.22516861355E+03  0.84938133310E+03  0.79696302801E+02 0.  0.
         13    1    3    3    0    0 -0.32350248419E+03  0.40460907302E+03  0.57344658692E+03  0.77278932918E+03  0.00000000000E+00 0. -1.
        -13    1    3    3    0    0 -0.59086861545E+03  0.70990768870E+03  0.85300344510E+03  0.12572627110E+04  0.00000000000E+00 0.  1.
          4    1    6    6  502    0  0.13980358001E+03 -0.14250019347E+02  0.36336385464E+02  0.14514970528E+03  0.00000000000E+00 0. -1.
          3    1    5    5  503    0  0.62929789879E+02 -0.20145154170E+03  0.10594214025E+03  0.23614956953E+03  0.00000000000E+00 0. -1.
         -4    1    5    5    0  503  0.76612355925E+02 -0.66001120184E+03  0.26552906687E+03  0.71553471263E+03  0.00000000000E+00 0.  1.
         -3    1    6    6    0  502  0.63502537382E+03 -0.23880399884E+03  0.18883222808E+03  0.70423162782E+03  0.00000000000E+00 0.  1.
<mgrwt>
<rscale>  0 0.32533936E+04</rscale>
<asrwt>0</asrwt>
<pdfrwt beam="1">  1        2 0.45032365E+00 0.32533936E+04</pdfrwt>
<pdfrwt beam="2">  1       -2 0.13907906E+00 0.32533936E+04</pdfrwt>
<totfact> 0.59178041E-01</totfact>
</mgrwt>
</event>
<event>
12    1  0.2588309E-007  0.1373834E+04  0.7818608E-02  0.8972979E-01
          2   -1    0    0  501    0  0.00000000000E+00  0.00000000000E+00  0.15748649046E+04  0.15748649046E+04  0.00000000000E+00 0.  1.
         -2   -1    0    0    0  501 -0.00000000000E+00 -0.00000000000E+00 -0.29961628813E+03  0.29961628813E+03  0.00000000000E+00 0. -1.
         23    2    1    2    0    0  0.23157088031E+03 -0.29297684473E+03  0.49066452002E+03  0.62291760217E+03  0.88397758643E+02 0.  0.
        254    2    1    2    0    0 -0.23157088031E+03  0.29297684473E+03  0.78458409646E+03  0.12515635906E+04  0.90076562583E+03 0.  0.
        -24    2    4    4    0    0 -0.19829300901E+03  0.57558232367E+03  0.72394749934E+03  0.94933142773E+03  0.80715854337E+02 0.  0.
         24    2    4    4    0    0 -0.33277871294E+02 -0.28260547894E+03  0.60636597126E+02  0.30223216284E+03  0.81818151409E+02 0.  0.
         13    1    3    3    0    0  0.21249354172E+03 -0.23631338590E+03  0.36643003044E+03  0.48504483178E+03  0.00000000000E+00 0. -1.
        -13    1    3    3    0    0  0.19077338589E+02 -0.56663458827E+02  0.12423448958E+03  0.13787277039E+03  0.00000000000E+00 0.  1.
          4    1    6    6  502    0 -0.48593552562E+01 -0.19710299075E+02 -0.17178575327E+02  0.26593470503E+02  0.00000000000E+00 0. -1.
          3    1    5    5  503    0 -0.92598430347E+02  0.22670706653E+03  0.34939436609E+03  0.42666964548E+03  0.00000000000E+00 0. -1.
         -4    1    5    5    0  503 -0.10569457867E+03  0.34887525714E+03  0.37455313324E+03  0.52266178225E+03  0.00000000000E+00 0.  1.
         -3    1    6    6    0  502 -0.28418516038E+02 -0.26289517987E+03  0.77815172453E+02  0.27563869234E+03  0.00000000000E+00 0.  1.
<mgrwt>
<rscale>  0 0.13738343E+04</rscale>
<asrwt>0</asrwt>
<pdfrwt beam="1">  1        2 0.24228690E+00 0.13738343E+04</pdfrwt>
<pdfrwt beam="2">  1       -2 0.46094814E-01 0.13738343E+04</pdfrwt>
<totfact> 0.50116300E+01</totfact>
</mgrwt>
</event>
<event>
12    1  0.2588309E-007  0.1595231E+04  0.7818608E-02  0.8823483E-01
          1   -1    0    0  501    0  0.00000000000E+00  0.00000000000E+00  0.91171331311E+03  0.91171331311E+03  0.00000000000E+00 0. -1.
         -1   -1    0    0    0  501 -0.00000000000E+00 -0.00000000000E+00 -0.69779632726E+03  0.69779632726E+03  0.00000000000E+00 0.  1.
         23    2    1    2    0    0 -0.28030572343E+03 -0.45860569764E+03  0.49695149664E+02  0.54813602922E+03  0.95357297208E+02 0.  0.
        254    2    1    2    0    0  0.28030572343E+03  0.45860569764E+03  0.16422183618E+03  0.10613736112E+04  0.90036361904E+03 0.  0.
        -24    2    4    4    0    0 -0.26376580021E+03 -0.32766162472E+02  0.16876474327E+03  0.32399902051E+03  0.76470961551E+02 0.  0.
         24    2    4    4    0    0  0.54407152363E+03  0.49137186011E+03 -0.45429070833E+01  0.73737459065E+03  0.78996969513E+02 0.  0.
         11    1    3    3    0    0 -0.70055148479E+02 -0.20139431700E+03  0.30155574888E+02  0.21535262582E+03  0.00000000000E+00 0.  1.
        -11    1    3    3    0    0 -0.21025057495E+03 -0.25721138064E+03  0.19539574775E+02  0.33278340340E+03  0.00000000000E+00 0. -1.
          2    1    6    6  502    0  0.34403988165E+03  0.26923819564E+03  0.20918716945E+02  0.43736739576E+03  0.00000000000E+00 0. -1.
          1    1    5    5  503    0 -0.59940791915E+02 -0.61890598963E+00  0.42416489528E+01  0.60093869620E+02  0.00000000000E+00 0. -1.
         -2    1    5    5    0  503 -0.20382500829E+03 -0.32147256482E+02  0.16452309431E+03  0.26390515089E+03  0.00000000000E+00 0.  1.
         -1    1    6    6    0  502  0.20003164198E+03  0.22213366447E+03 -0.25461624028E+02  0.30000719489E+03  0.00000000000E+00 0.  1.
<mgrwt>
<rscale>  0 0.15952306E+04</rscale>
<asrwt>0</asrwt>
<pdfrwt beam="1">  1        1 0.14026359E+00 0.15952306E+04</pdfrwt>
<pdfrwt beam="2">  1       -1 0.10735328E+00 0.15952306E+04</pdfrwt>
<totfact> 0.13814147E+01</totfact>
</mgrwt>
</event>
<event>
12    1  0.2588309E-007  0.1529819E+04  0.7818608E-02  0.8864862E-01
         -1   -1    0    0    0  501 -0.00000000000E+00  0.00000000000E+00  0.83085551632E+03  0.83085551632E+03  0.00000000000E+00 0.  1.
          1   -1    0    0  501    0  0.00000000000E+00 -0.00000000000E+00 -0.70419767142E+03  0.70419767142E+03  0.00000000000E+00 0. -1.
         23    2    1    2    0    0  0.49089167094E+03 -0.50706738994E+02 -0.14199202938E+02  0.49908050079E+03  0.73033710909E+02 0.  0.
        254    2    1    2    0    0 -0.49089167094E+03  0.50706738994E+02  0.14085704784E+03  0.10359726869E+04  0.89991827084E+03 0.  0.
        -24    2    4    4    0    0 -0.17511296347E+03  0.94027083414E+02 -0.37071735835E+03  0.42811689229E+03  0.79668508788E+02 0.  0.
         24    2    4    4    0    0 -0.31577870747E+03 -0.43320344420E+02  0.51157440619E+03  0.60785579465E+03  0.78660343798E+02 0.  0.
         13    1    3    3    0    0  0.16641960331E+03 -0.14583040192E+02 -0.39373774758E+02  0.17163462228E+03  0.00000000000E+00 0. -1.
        -13    1    3    3    0    0  0.32447206763E+03 -0.36123698802E+02  0.25174571819E+02  0.32744587851E+03  0.00000000000E+00 0.  1.
          4    1    6    6  502    0 -0.29387982418E+03 -0.17567869867E+02  0.46310124237E+03  0.54875927490E+03  0.00000000000E+00 0. -1.
          1    1    5    5  503    0 -0.16096352370E+03  0.51976017884E+02 -0.30626151840E+03  0.34986694621E+03  0.00000000000E+00 0. -1.
         -2    1    5    5    0  503 -0.14149439764E+02  0.42051065530E+02 -0.64455839954E+02  0.78249946083E+02  0.00000000000E+00 0.  1.
         -3    1    6    6    0  502 -0.21898883297E+02 -0.25752474552E+02  0.48473163824E+02  0.59096519748E+02  0.00000000000E+00 0.  1.
<mgrwt>
<rscale>  0 0.15298190E+04</rscale>
<asrwt>0</asrwt>
<pdfrwt beam="1">  1        1 0.10833810E+00 0.15298190E+04</pdfrwt>
<pdfrwt beam="2">  1       -1 0.12782393E+00 0.15298190E+04</pdfrwt>
<totfact> 0.13790391E+01</totfact>
</mgrwt>
</event>
<event>
12    1  0.3951792E-007  0.3675874E+04  0.7818608E-02  0.8073330E-01
         -2   -1    0    0    0  501 -0.00000000000E+00  0.00000000000E+00  0.12882104262E+04  0.12882104262E+04  0.00000000000E+00 0.  1.
          2   -1    0    0  501    0  0.00000000000E+00 -0.00000000000E+00 -0.26222517438E+04  0.26222517438E+04  0.00000000000E+00 0. -1.
         23    2    1    2    0    0  0.78303728756E+03 -0.15084854724E+04 -0.30550732703E+03  0.17293838081E+04  0.93583197481E+02 0.  0.
        254    2    1    2    0    0 -0.78303728756E+03  0.15084854724E+04 -0.10285339905E+04  0.21810783619E+04  0.90030263639E+03 0.  0.
        -24    2    4    4    0    0 -0.93866902712E+03  0.95628561050E+03 -0.67377979584E+03  0.15017526881E+04  0.75499745139E+02 0.  0.
         24    2    4    4    0    0  0.15563173956E+03  0.55219986186E+03 -0.35475419471E+03  0.67932567385E+03  0.80541335310E+02 0.  0.
         11    1    3    3    0    0  0.46189191499E+03 -0.96928634789E+03 -0.21961260708E+03  0.10959424540E+04  0.00000000000E+00 0. -1.
        -11    1    3    3    0    0  0.32114537258E+03 -0.53919912448E+03 -0.85894719952E+02  0.63344135410E+03  0.00000000000E+00 0.  1.
          4    1    6    6  502    0  0.18693555944E+02  0.15941519173E+03 -0.69293918588E+02  0.17482648410E+03  0.00000000000E+00 0. -1.
          1    1    5    5  503    0 -0.37869393003E+02  0.26383980077E+02 -0.35921107345E+02  0.58485308275E+02  0.00000000000E+00 0. -1.
         -2    1    5    5    0  503 -0.90079963412E+03  0.92990163043E+03 -0.63785868850E+03  0.14432673798E+04  0.00000000000E+00 0.  1.
         -3    1    6    6    0  502  0.13693818361E+03  0.39278467014E+03 -0.28546027612E+03  0.50449918976E+03  0.00000000000E+00 0.  1.
<mgrwt>
<rscale>  0 0.36758738E+04</rscale>
<asrwt>0</asrwt>
<pdfrwt beam="1">  1        2 0.40342334E+00 0.36758738E+04</pdfrwt>
<pdfrwt beam="2">  1       -2 0.19818622E+00 0.36758738E+04</pdfrwt>
<totfact> 0.32692189E-01</totfact>
</mgrwt>
</event>
<event>
12    1  0.2588309E-007  0.1942364E+04  0.7818608E-02  0.8634052E-01
          1   -1    0    0  501    0  0.00000000000E+00  0.00000000000E+00  0.54088626271E+03  0.54088626271E+03  0.00000000000E+00 0. -1.
         -1   -1    0    0    0  501 -0.00000000000E+00 -0.00000000000E+00 -0.17437940687E+04  0.17437940687E+04  0.00000000000E+00 0.  1.
         23    2    1    2    0    0  0.45098023697E+03  0.39734104217E+03 -0.10201096571E+04  0.11872825185E+04  0.88051055112E+02 0.  0.
        254    2    1    2    0    0 -0.45098023697E+03 -0.39734104217E+03 -0.18279814882E+03  0.10973978128E+04  0.89977981667E+03 0.  0.
        -24    2    4    4    0    0 -0.62965197925E+03 -0.43948470859E+03 -0.33886955929E+03  0.84306321123E+03  0.79464305522E+02 0.  0.
         24    2    4    4    0    0  0.17867174228E+03  0.42143666415E+02  0.15607141047E+03  0.25433460162E+03  0.81413293191E+02 0.  0.
         11    1    3    3    0    0  0.13201052364E+03  0.15982079065E+03 -0.40178870425E+03  0.45211019270E+03  0.00000000000E+00 0.  1.
        -11    1    3    3    0    0  0.31896971333E+03  0.23752025152E+03 -0.61832095289E+03  0.73517232585E+03  0.00000000000E+00 0. -1.
          4    1    6    6  502    0  0.10213907680E+03  0.49065423480E+02  0.51252864122E+02  0.12436503878E+03  0.00000000000E+00 0. -1.
          3    1    5    5  503    0 -0.33892112755E+03 -0.26511072378E+03 -0.15472016135E+03  0.45726311342E+03  0.00000000000E+00 0. -1.
         -2    1    5    5    0  503 -0.29073085170E+03 -0.17437398481E+03 -0.18414939794E+03  0.38580009781E+03  0.00000000000E+00 0.  1.
         -3    1    6    6    0  502  0.76532665480E+02 -0.69217570656E+01  0.10481854634E+03  0.12996956284E+03  0.00000000000E+00 0.  1.
<mgrwt>
<rscale>  0 0.19423638E+04</rscale>
<asrwt>0</asrwt>
<pdfrwt beam="1">  1        1 0.83213270E-01 0.19423638E+04</pdfrwt>
<pdfrwt beam="2">  1       -1 0.26827601E+00 0.19423638E+04</pdfrwt>
<totfact> 0.19634942E+00</totfact>
</mgrwt>
</event>
<event>
12    1  0.2588309E-007  0.1299292E+04  0.7818608E-02  0.9030127E-01
         -1   -1    0    0    0  501 -0.00000000000E+00  0.00000000000E+00  0.88500368266E+03  0.88500368266E+03  0.00000000000E+00 0.  1.
          1   -1    0    0  501    0  0.00000000000E+00 -0.00000000000E+00 -0.47687907628E+03  0.47687907628E+03  0.00000000000E+00 0. -1.
         23    2    1    2    0    0 -0.21629953850E+03 -0.19522858973E+02  0.36645965313E+03  0.43617462652E+03  0.93749640363E+02 0.  0.
        254    2    1    2    0    0  0.21629953850E+03  0.19522858973E+02  0.41664953246E+02  0.92570813242E+03  0.89890652780E+03 0.  0.
        -24    2    4    4    0    0  0.27148973982E+03 -0.67409888554E+02  0.42762986018E+03  0.51794353387E+03  0.84542504439E+02 0.  0.
         24    2    4    4    0    0 -0.55190201316E+02  0.86932747527E+02 -0.38596490694E+03  0.40776459855E+03  0.81852290932E+02 0.  0.
         11    1    3    3    0    0 -0.14246862661E+03  0.12085576290E+02  0.29846243801E+03  0.33094289179E+03  0.00000000000E+00 0.  1.
        -11    1    3    3    0    0 -0.73830911887E+02 -0.31608435263E+02  0.67997215121E+02  0.10523173473E+03  0.00000000000E+00 0. -1.
          4    1    6    6  502    0 -0.61396132150E+02  0.29530272894E+02 -0.26662669251E+03  0.27519323251E+03  0.00000000000E+00 0. -1.
          1    1    5    5  503    0  0.27311711322E+03 -0.63905527276E+02  0.43000979267E+03  0.51340558601E+03  0.00000000000E+00 0. -1.
         -2    1    5    5    0  503 -0.16273734066E+01 -0.35043612773E+01 -0.23799324861E+01  0.45379478627E+01  0.00000000000E+00 0.  1.
         -1    1    6    6    0  502  0.62059308347E+01  0.57402474633E+02 -0.11933821443E+03  0.13257136604E+03  0.00000000000E+00 0.  1.
<mgrwt>
<rscale>  0 0.12992917E+04</rscale>
<asrwt>0</asrwt>
<pdfrwt beam="1">  1        1 0.73366012E-01 0.12992917E+04</pdfrwt>
<pdfrwt beam="2">  1       -1 0.13615441E+00 0.12992917E+04</pdfrwt>
<totfact> 0.20953206E+01</totfact>
</mgrwt>
</event>
<event>
12    1  0.2588309E-007  0.1298665E+04  0.7818608E-02  0.9030625E-01
         -1   -1    0    0    0  501 -0.00000000000E+00  0.00000000000E+00  0.17987993495E+04  0.17987993495E+04  0.00000000000E+00 0.  1.
          1   -1    0    0  501    0  0.00000000000E+00 -0.00000000000E+00 -0.23439658546E+03  0.23439658546E+03  0.00000000000E+00 0. -1.
         23    2    1    2    0    0  0.10748201597E+03  0.18367601519E+03  0.27606293617E+02  0.23323467644E+03  0.91362161379E+02 0.  0.
        254    2    1    2    0    0 -0.10748201597E+03 -0.18367601519E+03  0.15367964704E+04  0.17999612585E+04  0.91259403810E+03 0.  0.
        -24    2    4    4    0    0  0.19279473038E+01 -0.43044722708E+01 -0.11061910405E+03  0.13729738341E+03  0.81189530402E+02 0.  0.
         24    2    4    4    0    0 -0.10940996328E+03 -0.17937154292E+03  0.16474155745E+04  0.16626638751E+04  0.79551217021E+02 0.  0.
         11    1    3    3    0    0 -0.15064612657E+02  0.14684553450E+02 -0.58187598071E+01  0.21827428392E+02  0.00000000000E+00 0. -1.
        -11    1    3    3    0    0  0.12254662863E+03  0.16899146174E+03  0.33425053424E+02  0.21140724805E+03  0.00000000000E+00 0.  1.
          4    1    6    6  502    0 -0.66701243282E+02 -0.14471088568E+03  0.96816938643E+03  0.98119430141E+03  0.00000000000E+00 0. -1.
          3    1    5    5  503    0  0.33980259121E+02  0.16085986330E+02 -0.29723101458E+02  0.47925773092E+02  0.00000000000E+00 0. -1.
         -4    1    5    5    0  503 -0.32052311817E+02 -0.20390458601E+02 -0.80896002592E+02  0.89371610314E+02  0.00000000000E+00 0.  1.
         -3    1    6    6    0  502 -0.42708719994E+02 -0.34660657239E+02  0.67924618805E+03  0.68146957372E+03  0.00000000000E+00 0.  1.
<mgrwt>
<rscale>  0 0.12986646E+04</rscale>
<asrwt>0</asrwt>
<pdfrwt beam="1">  1        1 0.36061014E-01 0.12986646E+04</pdfrwt>
<pdfrwt beam="2">  1       -1 0.27673835E+00 0.12986646E+04</pdfrwt>
<totfact> 0.55706674E+00</totfact>
</mgrwt>
</event>
<event>
12    1  0.2588309E-007  0.1741963E+04  0.7818608E-02  0.8737787E-01
          1   -1    0    0  501    0  0.00000000000E+00  0.00000000000E+00  0.32717622649E+04  0.32717622649E+04  0.00000000000E+00 0. -1.
         -1   -1    0    0    0  501 -0.00000000000E+00 -0.00000000000E+00 -0.23186545424E+03  0.23186545424E+03  0.00000000000E+00 0.  1.
         23    2    1    2    0    0 -0.50585255089E+03 -0.14562304193E+03  0.41253012779E+03  0.67485658946E+03  0.90318527531E+02 0.  0.
        254    2    1    2    0    0  0.50585255089E+03  0.14562304193E+03  0.26273666829E+04  0.28287711297E+04  0.90653049829E+03 0.  0.
        -24    2    4    4    0    0  0.75885883672E+03  0.16037539280E+03  0.20571491341E+04  0.21999829454E+04  0.80469864564E+02 0.  0.
         24    2    4    4    0    0 -0.25300628583E+03 -0.14752350866E+02  0.57021754877E+03  0.62878818436E+03  0.77438461648E+02 0.  0.
         13    1    3    3    0    0 -0.27548992647E+03 -0.39573923200E+02  0.24612386136E+03  0.37153431889E+03  0.00000000000E+00 0.  1.
        -13    1    3    3    0    0 -0.23036262442E+03 -0.10604911873E+03  0.16640626643E+03  0.30332227057E+03  0.00000000000E+00 0. -1.
          4    1    6    6  502    0 -0.18612920637E+03  0.17790368374E+02  0.35750754260E+03  0.40345039557E+03  0.00000000000E+00 0. -1.
          3    1    5    5  503    0  0.33896191024E+03  0.34344753422E+02  0.94548106615E+03  0.10049921319E+04  0.00000000000E+00 0. -1.
         -4    1    5    5    0  503  0.41989692648E+03  0.12603063937E+03  0.11116680680E+04  0.11949908135E+04  0.00000000000E+00 0.  1.
         -3    1    6    6    0  502 -0.66877079469E+02 -0.32542719240E+02  0.21271000617E+03  0.22533778880E+03  0.00000000000E+00 0.  1.
<mgrwt>
<rscale>  0 0.17419629E+04</rscale>
<asrwt>0</asrwt>
<pdfrwt beam="1">  1        1 0.50334801E+00 0.17419629E+04</pdfrwt>
<pdfrwt beam="2">  1       -1 0.35671611E-01 0.17419629E+04</pdfrwt>
<totfact> 0.26829839E+00</totfact>
</mgrwt>
</event>
<event>
12    1  0.2588309E-007  0.2188754E+04  0.7818608E-02  0.8523124E-01
          2   -1    0    0  501    0  0.00000000000E+00  0.00000000000E+00  0.16063562929E+04  0.16063562929E+04  0.00000000000E+00 0. -1.
         -2   -1    0    0    0  501 -0.00000000000E+00 -0.00000000000E+00 -0.74557628187E+03  0.74557628187E+03  0.00000000000E+00 0.  1.
         23    2    1    2    0    0  0.48360539370E+03 -0.53427042919E+03  0.95052860145E+03  0.11962546026E+04  0.90561491136E+02 0.  0.
        254    2    1    2    0    0 -0.48360539370E+03  0.53427042919E+03 -0.89748590462E+02  0.11556779722E+04  0.89900928667E+03 0.  0.
        -24    2    4    4    0    0  0.11240518357E+03  0.52815863200E+03 -0.94895214370E+02  0.55407914610E+03  0.80075792725E+02 0.  0.
         24    2    4    4    0    0 -0.59601057727E+03  0.61117971895E+01  0.51466239082E+01  0.60159882606E+03  0.81416813358E+02 0.  0.
         13    1    3    3    0    0  0.48201554878E+03 -0.51060280878E+03  0.91182406104E+03  0.11508593901E+04  0.00000000000E+00 0. -1.
        -13    1    3    3    0    0  0.15898449209E+01 -0.23667620406E+02  0.38704540407E+02  0.45395212420E+02  0.00000000000E+00 0.  1.
          4    1    6    6  502    0 -0.38245412172E+03 -0.58340502577E+01  0.41127194645E+02  0.38470331101E+03  0.00000000000E+00 0. -1.
          1    1    5    5  503    0  0.46230059241E+02  0.19812530202E+03 -0.75201482041E+02  0.21690116777E+03  0.00000000000E+00 0. -1.
         -4    1    5    5    0  503  0.66175124327E+02  0.33003332998E+03 -0.19693732330E+02  0.33717797833E+03  0.00000000000E+00 0.  1.
         -3    1    6    6    0  502 -0.21355645554E+03  0.11945847447E+02 -0.35980570737E+02  0.21689551504E+03  0.00000000000E+00 0.  1.
<mgrwt>
<rscale>  0 0.21887541E+04</rscale>
<asrwt>0</asrwt>
<pdfrwt beam="1">  1        2 0.24713174E+00 0.21887541E+04</pdfrwt>
<pdfrwt beam="2">  1       -2 0.11470404E+00 0.21887541E+04</pdfrwt>
<totfact> 0.60053766E+00</totfact>
</mgrwt>
</event>
<event>
12    1  0.2588309E-007  0.1823837E+04  0.7818608E-02  0.8693725E-01
          2   -1    0    0  501    0  0.00000000000E+00  0.00000000000E+00  0.48275723669E+03  0.48275723669E+03  0.00000000000E+00 0. -1.
         -2   -1    0    0    0  501 -0.00000000000E+00 -0.00000000000E+00 -0.17225944636E+04  0.17225944636E+04  0.00000000000E+00 0.  1.
         23    2    1    2    0    0 -0.31296768961E+03 -0.44666597016E+03  0.32655543306E+02  0.55388693818E+03  0.90912552190E+02 0.  0.
        254    2    1    2    0    0  0.31296768961E+03  0.44666597016E+03 -0.12724927702E+04  0.16514647621E+04  0.90035478929E+03 0.  0.
        -24    2    4    4    0    0 -0.13537973074E+03 -0.14952353991E+03 -0.58504065592E+02  0.22439380958E+03  0.79024651899E+02 0.  0.
         24    2    4    4    0    0  0.44834742035E+03  0.59618951006E+03 -0.12139887046E+04  0.14270709525E+04  0.79407728457E+02 0.  0.
         11    1    3    3    0    0 -0.16676891585E+03 -0.29782888813E+03 -0.75176856374E+01  0.34142412553E+03  0.00000000000E+00 0. -1.
        -11    1    3    3    0    0 -0.14619877376E+03 -0.14883708202E+03  0.40173228943E+02  0.21246281265E+03  0.00000000000E+00 0.  1.
          2    1    6    6  502    0  0.31520977686E+03  0.36510025711E+03 -0.74366225616E+03  0.88639097040E+03  0.00000000000E+00 0. -1.
          3    1    5    5  503    0 -0.10833608417E+03 -0.91121972576E+02 -0.71717041784E+02  0.15869232843E+03  0.00000000000E+00 0. -1.
         -4    1    5    5    0  503 -0.27043646570E+02 -0.58401567330E+02  0.13212976192E+02  0.65701481157E+02  0.00000000000E+00 0.  1.
         -1    1    6    6    0  502  0.13313764349E+03  0.23108925296E+03 -0.47032644846E+03  0.54067998212E+03  0.00000000000E+00 0.  1.
<mgrwt>
<rscale>  0 0.18238366E+04</rscale>
<asrwt>0</asrwt>
<pdfrwt beam="1">  1        2 0.74270345E-01 0.18238366E+04</pdfrwt>
<pdfrwt beam="2">  1       -2 0.26501453E+00 0.18238366E+04</pdfrwt>
<totfact> 0.31432568E+00</totfact>
</mgrwt>
</event>
<event>
12    1  0.2588309E-007  0.2045582E+04  0.7818608E-02  0.8585601E-01
         -1   -1    0    0    0  501 -0.00000000000E+00  0.00000000000E+00  0.32344235488E+03  0.32344235488E+03  0.00000000000E+00 0.  1.
          1   -1    0    0  501    0  0.00000000000E+00 -0.00000000000E+00 -0.32342761375E+04  0.32342761375E+04  0.00000000000E+00 0. -1.
         23    2    1    2    0    0  0.55830177624E+03 -0.19998827025E+03 -0.19005703610E+03  0.62955953107E+03  0.92343622347E+02 0.  0.
        254    2    1    2    0    0 -0.55830177624E+03  0.19998827025E+03 -0.27207767465E+04  0.29281589613E+04  0.90542399834E+03 0.  0.
        -24    2    4    4    0    0  0.18739447967E+03 -0.87265507796E+02 -0.10657556959E+04  0.10886156494E+04  0.80727125680E+02 0.  0.
         24    2    4    4    0    0 -0.74569625592E+03  0.28725377805E+03 -0.16550210505E+04  0.18395433119E+04  0.79039733554E+02 0.  0.
         13    1    3    3    0    0  0.46807769550E+03 -0.15613616016E+03 -0.19134837534E+03  0.52923475914E+03  0.00000000000E+00 0. -1.
        -13    1    3    3    0    0  0.90224080747E+02 -0.43852110089E+02  0.12913392363E+01  0.10032477193E+03  0.00000000000E+00 0.  1.
          4    1    6    6  502    0 -0.46176596913E+03  0.14057937808E+03 -0.10341425080E+04  0.11412454156E+04  0.00000000000E+00 0. -1.
          1    1    5    5  503    0  0.10800582258E+03 -0.71225764906E+01 -0.47372695747E+03  0.48593540624E+03  0.00000000000E+00 0. -1.
         -2    1    5    5    0  503  0.79388657093E+02 -0.80142931305E+02 -0.59202873847E+03  0.60268024315E+03  0.00000000000E+00 0.  1.
         -3    1    6    6    0  502 -0.28393028679E+03  0.14667439997E+03 -0.62087854250E+03  0.69829789625E+03  0.00000000000E+00 0.  1.
<mgrwt>
<rscale>  0 0.20455825E+04</rscale>
<asrwt>0</asrwt>
<pdfrwt beam="1">  1        1 0.49758092E+00 0.20455825E+04</pdfrwt>
<pdfrwt beam="2">  1       -1 0.49760365E-01 0.20455825E+04</pdfrwt>
<totfact> 0.15032299E+00</totfact>
</mgrwt>
</event>
<event>
12    1  0.2588309E-007  0.1168979E+04  0.7818608E-02  0.9140451E-01
          2   -1    0    0  501    0  0.00000000000E+00  0.00000000000E+00  0.42614998391E+03  0.42614998391E+03  0.00000000000E+00 0. -1.
         -2   -1    0    0    0  501 -0.00000000000E+00 -0.00000000000E+00 -0.80166071937E+03  0.80166071937E+03  0.00000000000E+00 0.  1.
         23    2    1    2    0    0 -0.17416082504E+03  0.46342271040E+02  0.63656797148E+02  0.21107857419E+03  0.89567726317E+02 0.  0.
        254    2    1    2    0    0  0.17416082504E+03 -0.46342271040E+02 -0.43916753261E+03  0.10167321291E+04  0.89910872622E+03 0.  0.
        -24    2    4    4    0    0  0.51751558466E+03 -0.10424331108E+02 -0.40200426804E+03  0.66035322864E+03  0.80795470241E+02 0.  0.
         24    2    4    4    0    0 -0.34335475962E+03 -0.35917939933E+02 -0.37163264572E+02  0.35637890044E+03  0.80263460445E+02 0.  0.
         13    1    3    3    0    0 -0.17218320215E+03  0.46403410040E+02  0.34225884031E+02  0.18158122894E+03  0.00000000000E+00 0.  1.
        -13    1    3    3    0    0 -0.19776228910E+01 -0.61138999748E-01  0.29430913117E+02  0.29497345256E+02  0.00000000000E+00 0. -1.
          4    1    6    6  502    0 -0.30578331617E+03 -0.29608991563E+02 -0.58469974316E+02  0.31272810351E+03  0.00000000000E+00 0. -1.
          1    1    5    5  503    0  0.43057394184E+03 -0.31278507604E+02 -0.35731782919E+03  0.56040012089E+03  0.00000000000E+00 0. -1.
         -2    1    5    5    0  503  0.86941642817E+02  0.20854176496E+02 -0.44686438848E+02  0.99953107755E+02  0.00000000000E+00 0.  1.
         -3    1    6    6    0  502 -0.37571443453E+02 -0.63089483693E+01  0.21306709744E+02  0.43650796932E+02  0.00000000000E+00 0.  1.
<mgrwt>
<rscale>  0 0.11689785E+04</rscale>
<asrwt>0</asrwt>
<pdfrwt beam="1">  1        2 0.65561535E-01 0.11689785E+04</pdfrwt>
<pdfrwt beam="2">  1       -2 0.12333242E+00 0.11689785E+04</pdfrwt>
<totfact> 0.36270412E+01</totfact>
</mgrwt>
</event>
<event>
12    1  0.2588309E-007  0.2323502E+04  0.7818608E-02  0.8468712E-01
          2   -1    0    0  501    0  0.00000000000E+00  0.00000000000E+00  0.34336575348E+04  0.34336575348E+04  0.00000000000E+00 0. -1.
         -2   -1    0    0    0  501 -0.00000000000E+00 -0.00000000000E+00 -0.39306913848E+03  0.39306913848E+03  0.00000000000E+00 0.  1.
         23    2    1    2    0    0 -0.96042157703E+03  0.30225912748E+02  0.94199945215E+03  0.13500508371E+04  0.10932101111E+03 0.  0.
        254    2    1    2    0    0  0.96042157703E+03 -0.30225912748E+02  0.20985889442E+04  0.24766758362E+04  0.89806705178E+03 0.  0.
        -24    2    4    4    0    0  0.14965635240E+03 -0.36010990835E+03  0.95238184358E+03  0.10323157127E+04  0.81045572418E+02 0.  0.
         24    2    4    4    0    0  0.81076522464E+03  0.32988399560E+03  0.11462071006E+04  0.14443601235E+04  0.78878062998E+02 0.  0.
         13    1    3    3    0    0 -0.29366475710E+03  0.28122286136E+02  0.22562545854E+03  0.37139830382E+03  0.00000000000E+00 0.  1.
        -13    1    3    3    0    0 -0.66675681994E+03  0.21036266120E+01  0.71637399361E+03  0.97865253328E+03  0.00000000000E+00 0. -1.
          4    1    6    6  502    0  0.59656212219E+03  0.27292739430E+03  0.82349031943E+03  0.10528589812E+04  0.00000000000E+00 0. -1.
          1    1    5    5  503    0  0.12503070477E+03 -0.27135033289E+03  0.63388854167E+03  0.70076983636E+03  0.00000000000E+00 0. -1.
         -2    1    5    5    0  503  0.24625647634E+02 -0.88759575454E+02  0.31849330192E+03  0.33154587635E+03  0.00000000000E+00 0.  1.
         -3    1    6    6    0  502  0.21420310244E+03  0.56956601303E+02  0.32271678117E+03  0.39150114225E+03  0.00000000000E+00 0.  1.
<mgrwt>
<rscale>  0 0.23235015E+04</rscale>
<asrwt>0</asrwt>
<pdfrwt beam="1">  1        2 0.52825499E+00 0.23235015E+04</pdfrwt>
<pdfrwt beam="2">  1       -2 0.60472177E-01 0.23235015E+04</pdfrwt>
<totfact> 0.20883436E+00</totfact>
</mgrwt>
</event>
<event>
12    1  0.4593794E-007  0.3076933E+04  0.7818608E-02  0.8222097E-01
          1   -1    0    0  501    0  0.00000000000E+00  0.00000000000E+00  0.14654164597E+04  0.14654164597E+04  0.00000000000E+00 0. -1.
         -1   -1    0    0    0  501 -0.00000000000E+00 -0.00000000000E+00 -0.16151584697E+04  0.16151584697E+04  0.00000000000E+00 0.  1.
         23    2    1    2    0    0 -0.88160648728E+03 -0.92179590929E+03  0.51852393401E+03  0.13801786457E+04  0.95332718607E+02 0.  0.
        254    2    1    2    0    0  0.88160648728E+03  0.92179590929E+03 -0.66826594406E+03  0.17003962837E+04  0.90433978830E+03 0.  0.
        -24    2    4    4    0    0 -0.97306106564E+02  0.38652293531E+03 -0.18978157809E+02  0.40705794040E+03  0.80421007675E+02 0.  0.
         24    2    4    4    0    0  0.97891259385E+03  0.53527297398E+03 -0.64928778625E+03  0.12933383433E+04  0.79764764836E+02 0.  0.
         11    1    3    3    0    0 -0.34467158378E+03 -0.41849392400E+03  0.24658758046E+03  0.59560146065E+03  0.00000000000E+00 0. -1.
        -11    1    3    3    0    0 -0.53693490350E+03 -0.50330198528E+03  0.27193635355E+03  0.78457718509E+03  0.00000000000E+00 0.  1.
          4    1    6    6  502    0  0.41077121463E+03  0.19386921765E+03 -0.29703920022E+03  0.54272511531E+03  0.00000000000E+00 0. -1.
          1    1    5    5  503    0 -0.13831351900E+02  0.21292293284E+03  0.12211317653E+01  0.21337519253E+03  0.00000000000E+00 0. -1.
         -2    1    5    5    0  503 -0.83474754665E+02  0.17360000247E+03 -0.20199289575E+02  0.19368274787E+03  0.00000000000E+00 0.  1.
         -3    1    6    6    0  502  0.56814137921E+03  0.34140375633E+03 -0.35224858603E+03  0.75061322795E+03  0.00000000000E+00 0.  1.
<mgrwt>
<rscale>  0 0.30769334E+04</rscale>
<asrwt>0</asrwt>
<pdfrwt beam="1">  1        1 0.22544869E+00 0.30769334E+04</pdfrwt>
<pdfrwt beam="2">  1       -1 0.24848592E+00 0.30769334E+04</pdfrwt>
<totfact> 0.41696134E-01</totfact>
</mgrwt>
</event>
<event>
12    1  0.2588309E-007  0.1809128E+04  0.7818608E-02  0.8701460E-01
         -1   -1    0    0    0  501 -0.00000000000E+00  0.00000000000E+00  0.14494913887E+04  0.14494913887E+04  0.00000000000E+00 0.  1.
          1   -1    0    0  501    0  0.00000000000E+00 -0.00000000000E+00 -0.56449859676E+03  0.56449859676E+03  0.00000000000E+00 0. -1.
         23    2    1    2    0    0  0.74630641202E+01  0.64635142259E+03  0.55993285785E+03  0.85936416873E+03  0.84593796410E+02 0.  0.
        254    2    1    2    0    0 -0.74630641202E+01 -0.64635142259E+03  0.32505993407E+03  0.11546258167E+04  0.89981717980E+03 0.  0.
        -24    2    4    4    0    0 -0.13604002650E+03 -0.83886695415E+03  0.31518249947E+03  0.90987985379E+03  0.79603296282E+02 0.  0.
         24    2    4    4    0    0  0.12857696238E+03  0.19251553156E+03  0.98774346001E+01  0.24474596292E+03  0.78795669308E+02 0.  0.
         11    1    3    3    0    0 -0.28475868166E+02  0.38280367190E+03  0.29687421714E+03  0.48526675869E+03  0.00000000000E+00 0. -1.
        -11    1    3    3    0    0  0.35938932286E+02  0.26354775069E+03  0.26305864071E+03  0.37409741004E+03  0.00000000000E+00 0.  1.
          4    1    6    6  502    0  0.12880366172E+03  0.14669788527E+03  0.24265389733E+02  0.19672178820E+03  0.00000000000E+00 0. -1.
          3    1    5    5  503    0 -0.12608205241E+03 -0.73782179834E+03  0.24973042971E+03  0.78907729505E+03  0.00000000000E+00 0. -1.
         -4    1    5    5    0  503 -0.99579740975E+01 -0.10104515581E+03  0.65452069762E+02  0.12080255874E+03  0.00000000000E+00 0.  1.
         -3    1    6    6    0  502 -0.22669933058E+00  0.45817646295E+02 -0.14387955133E+02  0.48024174719E+02  0.00000000000E+00 0.  1.
<mgrwt>
<rscale>  0 0.18091278E+04</rscale>
<asrwt>0</asrwt>
<pdfrwt beam="1">  1        1 0.86845939E-01 0.18091278E+04</pdfrwt>
<pdfrwt beam="2">  1       -1 0.22299867E+00 0.18091278E+04</pdfrwt>
<totfact> 0.37034231E+00</totfact>
</mgrwt>
</event>
<event>
12    1  0.2588309E-007  0.3642775E+04  0.7818608E-02  0.8080763E-01
         -3   -1    0    0    0  501 -0.00000000000E+00  0.00000000000E+00  0.13216063187E+04  0.13216063187E+04  0.00000000000E+00 0.  1.
          3   -1    0    0  501    0  0.00000000000E+00 -0.00000000000E+00 -0.25101675724E+04  0.25101675724E+04  0.00000000000E+00 0. -1.
         23    2    1    2    0    0 -0.89411477793E+03 -0.12986295433E+04 -0.12514000572E+04  0.20150775293E+04  0.93034504038E+02 0.  0.
        254    2    1    2    0    0  0.89411477793E+03  0.12986295433E+04  0.62838803496E+02  0.18166963619E+04  0.90030940748E+03 0.  0.
        -24    2    4    4    0    0  0.25444208750E+03  0.95538864748E+03  0.32027000704E+03  0.10424557099E+04  0.81441918430E+02 0.  0.
         24    2    4    4    0    0  0.63967269043E+03  0.34324089580E+03 -0.25743120354E+03  0.77424065196E+03  0.78627597933E+02 0.  0.
         13    1    3    3    0    0 -0.24273718079E+03 -0.38748854373E+03 -0.41105173394E+03  0.61484326331E+03  0.00000000000E+00 0. -1.
        -13    1    3    3    0    0 -0.65137759715E+03 -0.91114099954E+03 -0.84034832328E+03  0.14002342660E+04  0.00000000000E+00 0.  1.
          2    1    6    6  502    0  0.26048483773E+03  0.18256948367E+03 -0.12268296389E+03  0.34093265711E+03  0.00000000000E+00 0. -1.
          3    1    5    5  503    0  0.17638044489E+03  0.63750240983E+03  0.25362083964E+03  0.70840871972E+03  0.00000000000E+00 0. -1.
         -4    1    5    5    0  503  0.78061642604E+02  0.31788623765E+03  0.66649167396E+02  0.33404699018E+03  0.00000000000E+00 0.  1.
         -1    1    6    6    0  502  0.37918785270E+03  0.16067141213E+03 -0.13474823965E+03  0.43330799485E+03  0.00000000000E+00 0.  1.
<mgrwt>
<rscale>  0 0.36427755E+04</rscale>
<asrwt>0</asrwt>
<pdfrwt beam="1">  1        3 0.38617963E+00 0.36427755E+04</pdfrwt>
<pdfrwt beam="2">  1       -3 0.20332405E+00 0.36427755E+04</pdfrwt>
<totfact> 0.38567755E-03</totfact>
</mgrwt>
</event>
<event>
12    1  0.2588309E-007  0.4910531E+04  0.7818608E-02  0.7842459E-01
          2   -1    0    0  501    0  0.00000000000E+00  0.00000000000E+00  0.25556327628E+04  0.25556327628E+04  0.00000000000E+00 0. -1.
         -2   -1    0    0    0  501 -0.00000000000E+00 -0.00000000000E+00 -0.23588402389E+04  0.23588402389E+04  0.00000000000E+00 0.  1.
         23    2    1    2    0    0 -0.19478390555E+04  0.68320204058E+03 -0.10738595063E+04  0.23281139732E+04  0.78092373044E+02 0.  0.
        254    2    1    2    0    0  0.19478390555E+04 -0.68320204058E+03  0.12706520301E+04  0.25863590285E+04  0.90213880781E+03 0.  0.
        -24    2    4    4    0    0  0.34125610418E+01  0.67664260814E+02 -0.46780164605E+02  0.11928326639E+03  0.86313475636E+02 0.  0.
         24    2    4    4    0    0  0.19444264944E+04 -0.75086630139E+03  0.13174321947E+04  0.24670757622E+04  0.78997681159E+02 0.  0.
         13    1    3    3    0    0 -0.64809774127E+03  0.19825041557E+03 -0.32513429599E+03  0.75169556334E+03  0.00000000000E+00 0. -1.
        -13    1    3    3    0    0 -0.12997413142E+04  0.48495162501E+03 -0.74872521028E+03  0.15764184099E+04  0.00000000000E+00 0.  1.
          4    1    6    6  502    0  0.10682557721E+04 -0.45340686769E+03  0.74393373691E+03  0.13784721932E+04  0.00000000000E+00 0. -1.
          3    1    5    5  503    0  0.48885182135E+01 -0.18667211149E+02  0.31346960664E+01  0.19549647102E+02  0.00000000000E+00 0. -1.
         -4    1    5    5    0  503 -0.14759571717E+01  0.86331471963E+02 -0.49914860671E+02  0.99733619290E+02  0.00000000000E+00 0.  1.
         -3    1    6    6    0  502  0.87617072229E+03 -0.29745943370E+03  0.57349845782E+03  0.10886035690E+04  0.00000000000E+00 0.  1.
<mgrwt>
<rscale>  0 0.49105313E+04</rscale>
<asrwt>0</asrwt>
<pdfrwt beam="1">  1        2 0.39317427E+00 0.49105313E+04</pdfrwt>
<pdfrwt beam="2">  1       -2 0.36289850E+00 0.49105313E+04</pdfrwt>
<totfact> 0.30535913E-02</totfact>
</mgrwt>
</event>
<event>
12    1  0.2588309E-007  0.1663879E+04  0.7818608E-02  0.8782238E-01
          2   -1    0    0  501    0  0.00000000000E+00  0.00000000000E+00  0.10548413293E+04  0.10548413293E+04  0.00000000000E+00 0. -1.
         -2   -1    0    0    0  501 -0.00000000000E+00 -0.00000000000E+00 -0.65613969284E+03  0.65613969284E+03  0.00000000000E+00 0.  1.
         23    2    1    2    0    0  0.25974725118E+03 -0.46927907939E+03 -0.93289366227E+02  0.55217151000E+03  0.92189922211E+02 0.  0.
        254    2    1    2    0    0 -0.25974725118E+03  0.46927907939E+03  0.49199100270E+03  0.11588095122E+04  0.90171661285E+03 0.  0.
        -24    2    4    4    0    0 -0.58015280106E+03  0.22173522144E+03  0.22083188327E+03  0.66398604160E+03  0.79793243905E+02 0.  0.
         24    2    4    4    0    0  0.32040554988E+03  0.24754385794E+03  0.27115911943E+03  0.49482347056E+03  0.85937890156E+02 0.  0.
         11    1    3    3    0    0  0.12987232542E+03 -0.15875944287E+03 -0.96008118425E+01  0.20533766629E+03  0.00000000000E+00 0. -1.
        -11    1    3    3    0    0  0.12987492575E+03 -0.31051963652E+03 -0.83688554384E+02  0.34683384370E+03  0.00000000000E+00 0.  1.
          4    1    6    6  502    0  0.46646759594E+02  0.77010217897E+01  0.50588097325E+02  0.69241472458E+02  0.00000000000E+00 0. -1.
          1    1    5    5  503    0 -0.57037186885E+02  0.29603865548E+02  0.49002752592E+02  0.80813979637E+02  0.00000000000E+00 0. -1.
         -2    1    5    5    0  503 -0.52311561417E+03  0.19213135590E+03  0.17182913068E+03  0.58317206197E+03  0.00000000000E+00 0.  1.
         -3    1    6    6    0  502  0.27375879029E+03  0.23984283615E+03  0.22057102210E+03  0.42558199810E+03  0.00000000000E+00 0.  1.
<mgrwt>
<rscale>  0 0.16638789E+04</rscale>
<asrwt>0</asrwt>
<pdfrwt beam="1">  1        2 0.16228328E+00 0.16638789E+04</pdfrwt>
<pdfrwt beam="2">  1       -2 0.10094457E+00 0.16638789E+04</pdfrwt>
<totfact> 0.17919588E+01</totfact>
</mgrwt>
</event>
<event>
12    1  0.2588309E-007  0.1376987E+04  0.7818608E-02  0.8970647E-01
          2   -1    0    0  501    0  0.00000000000E+00  0.00000000000E+00  0.34701726173E+03  0.34701726173E+03  0.00000000000E+00 0. -1.
         -2   -1    0    0    0  501 -0.00000000000E+00 -0.00000000000E+00 -0.13659943214E+04  0.13659943214E+04  0.00000000000E+00 0.  1.
         23    2    1    2    0    0 -0.11096954439E+03  0.34593236678E+03 -0.44643688100E+03  0.58542815018E+03  0.10694292000E+03 0.  0.
        254    2    1    2    0    0  0.11096954439E+03 -0.34593236678E+03 -0.57254017867E+03  0.11275834330E+04  0.90092102868E+03 0.  0.
        -24    2    4    4    0    0 -0.91903175357E+02 -0.61364190547E+03 -0.36758493108E+03  0.72589274942E+03  0.82456172110E+02 0.  0.
         24    2    4    4    0    0  0.20287271975E+03  0.26770953869E+03 -0.20495524759E+03  0.40169068354E+03  0.80765179379E+02 0.  0.
         11    1    3    3    0    0 -0.81239439750E+02  0.96385004693E+02 -0.12642187794E+03  0.17852844849E+03  0.00000000000E+00 0.  1.
        -11    1    3    3    0    0 -0.29730104639E+02  0.24954736208E+03 -0.32001500306E+03  0.40689970168E+03  0.00000000000E+00 0. -1.
          4    1    6    6  502    0  0.95877465930E+02  0.18692237341E+03 -0.14206421864E+03  0.25360343920E+03  0.00000000000E+00 0. -1.
          3    1    5    5  503    0 -0.24631601590E+02 -0.40172087273E+03 -0.25740331862E+03  0.47774767798E+03  0.00000000000E+00 0. -1.
         -4    1    5    5    0  503 -0.67271573767E+02 -0.21192103274E+03 -0.11018161246E+03  0.24814507144E+03  0.00000000000E+00 0.  1.
         -3    1    6    6    0  502  0.10699525382E+03  0.80787165287E+02 -0.62891028947E+02  0.14808724434E+03  0.00000000000E+00 0.  1.
<mgrwt>
<rscale>  0 0.13769874E+04</rscale>
<asrwt>0</asrwt>
<pdfrwt beam="1">  1        2 0.53387270E-01 0.13769874E+04</pdfrwt>
<pdfrwt beam="2">  1       -2 0.21015298E+00 0.13769874E+04</pdfrwt>
<totfact> 0.10385083E+01</totfact>
</mgrwt>
</event>
<event>
12    1  0.2588309E-007  0.1959300E+04  0.7818608E-02  0.8625889E-01
          1   -1    0    0  501    0  0.00000000000E+00  0.00000000000E+00  0.17939803571E+04  0.17939803571E+04  0.00000000000E+00 0. -1.
         -1   -1    0    0    0  501 -0.00000000000E+00 -0.00000000000E+00 -0.53496362158E+03  0.53496362158E+03  0.00000000000E+00 0.  1.
         23    2    1    2    0    0  0.54442593560E+03 -0.43011128368E+03  0.89353736045E+03  0.11350937479E+04  0.92916555282E+02 0.  0.
        254    2    1    2    0    0 -0.54442593560E+03  0.43011128368E+03  0.36547937510E+03  0.11938502308E+04  0.90017103060E+03 0.  0.
        -24    2    4    4    0    0 -0.51753571352E+03  0.53454622621E+03 -0.57281436749E+02  0.75043320052E+03  0.79283937442E+02 0.  0.
         24    2    4    4    0    0 -0.26890222082E+02 -0.10443494252E+03  0.42276081185E+03  0.44341703031E+03  0.79134173820E+02 0.  0.
         11    1    3    3    0    0  0.24840158363E+03 -0.14050453483E+03  0.34344343677E+03  0.44654032888E+03  0.00000000000E+00 0. -1.
        -11    1    3    3    0    0  0.29602435197E+03 -0.28960674885E+03  0.55009392368E+03  0.68855341900E+03  0.00000000000E+00 0.  1.
          4    1    6    6  502    0 -0.64318069505E+01 -0.10766272309E+03  0.39016319460E+03  0.40479618144E+03  0.00000000000E+00 0. -1.
          3    1    5    5  503    0 -0.47462153880E+03  0.50397101475E+03 -0.34826990515E+02  0.69315604886E+03  0.00000000000E+00 0. -1.
         -4    1    5    5    0  503 -0.42914174719E+02  0.30575211456E+02 -0.22454446234E+02  0.57277151667E+02  0.00000000000E+00 0.  1.
         -3    1    6    6    0  502 -0.20458415132E+02  0.32277805699E+01  0.32597617250E+02  0.38620848871E+02  0.00000000000E+00 0.  1.
<mgrwt>
<rscale>  0 0.19593001E+04</rscale>
<asrwt>0</asrwt>
<pdfrwt beam="1">  1        1 0.27599698E+00 0.19593001E+04</pdfrwt>
<pdfrwt beam="2">  1       -1 0.82302096E-01 0.19593001E+04</pdfrwt>
<totfact> 0.56192830E+00</totfact>
</mgrwt>
</event>
<event>
12    1  0.2588309E-007  0.1752471E+04  0.7818608E-02  0.8731991E-01
          1   -1    0    0  501    0  0.00000000000E+00  0.00000000000E+00  0.50288140918E+03  0.50288140918E+03  0.00000000000E+00 0. -1.
         -1   -1    0    0    0  501 -0.00000000000E+00 -0.00000000000E+00 -0.15267791239E+04  0.15267791239E+04  0.00000000000E+00 0.  1.
         23    2    1    2    0    0  0.53602769860E+03  0.31276363682E+03 -0.21680745123E+03  0.66368484143E+03  0.91243145743E+02 0.  0.
        254    2    1    2    0    0 -0.53602769860E+03 -0.31276363682E+03 -0.80709026345E+03  0.13659756916E+04  0.91068551682E+03 0.  0.
        -24    2    4    4    0    0 -0.42570723618E+03  0.24305505012E+03 -0.21154126572E+03  0.53987328626E+03  0.80069031427E+02 0.  0.
         24    2    4    4    0    0 -0.11032046242E+03 -0.55581868694E+03 -0.59554899773E+03  0.82610240536E+03  0.81618369645E+02 0.  0.
         11    1    3    3    0    0  0.49455184752E+03  0.28289168852E+03 -0.17048819064E+03  0.59470619676E+03  0.00000000000E+00 0. -1.
        -11    1    3    3    0    0  0.41475851083E+02  0.29871948294E+02 -0.46319260589E+02  0.68978644663E+02  0.00000000000E+00 0.  1.
          4    1    6    6  502    0 -0.30878410833E+02 -0.32338704504E+03 -0.37315476224E+03  0.49474956668E+03  0.00000000000E+00 0. -1.
          3    1    5    5  503    0 -0.23359554938E+03  0.12574987401E+03 -0.71451062075E+02  0.27474563832E+03  0.00000000000E+00 0. -1.
         -4    1    5    5    0  503 -0.19211168680E+03  0.11730517611E+03 -0.14009020365E+03  0.26512764795E+03  0.00000000000E+00 0.  1.
         -3    1    6    6    0  502 -0.79442051591E+02 -0.23243164190E+03 -0.22239423549E+03  0.33135283867E+03  0.00000000000E+00 0.  1.
<mgrwt>
<rscale>  0 0.17524712E+04</rscale>
<asrwt>0</asrwt>
<pdfrwt beam="1">  1        1 0.77366372E-01 0.17524712E+04</pdfrwt>
<pdfrwt beam="2">  1       -1 0.23488909E+00 0.17524712E+04</pdfrwt>
<totfact> 0.36497416E+00</totfact>
</mgrwt>
</event>
<event>
12    1  0.2588309E-007  0.1716824E+04  0.7818608E-02  0.8751827E-01
          1   -1    0    0  501    0  0.00000000000E+00  0.00000000000E+00  0.79784936314E+03  0.79784936314E+03  0.00000000000E+00 0. -1.
         -1   -1    0    0    0  501 -0.00000000000E+00 -0.00000000000E+00 -0.92357142530E+03  0.92357142530E+03  0.00000000000E+00 0.  1.
         23    2    1    2    0    0  0.50274452701E+03 -0.97744496029E+02 -0.39384449344E+03  0.65343450984E+03  0.97760563089E+02 0.  0.
        254    2    1    2    0    0 -0.50274452701E+03  0.97744496029E+02  0.26812243128E+03  0.10679862786E+04  0.89799722002E+03 0.  0.
        -24    2    4    4    0    0 -0.31577847340E+03 -0.29604997466E+03 -0.14369480309E+03  0.46312649720E+03  0.80475612530E+02 0.  0.
         24    2    4    4    0    0 -0.18696605361E+03  0.39379447068E+03  0.41181723437E+03  0.60485978140E+03  0.78940042339E+02 0.  0.
         11    1    3    3    0    0  0.20025519794E+03 -0.80417085080E+02 -0.19641779857E+03  0.29180302169E+03  0.00000000000E+00 0.  1.
        -11    1    3    3    0    0  0.30248932908E+03 -0.17327410949E+02 -0.19742669487E+03  0.36163148815E+03  0.00000000000E+00 0. -1.
          2    1    6    6  502    0 -0.29751546618E+02  0.14613256111E+03  0.15302873731E+03  0.21367656490E+03  0.00000000000E+00 0. -1.
          1    1    5    5  503    0 -0.22778200994E+03 -0.19278383685E+03 -0.62095807304E+02  0.30480508705E+03  0.00000000000E+00 0. -1.
         -2    1    5    5    0  503 -0.87996463461E+02 -0.10326613780E+03 -0.81598995788E+02  0.15832141015E+03  0.00000000000E+00 0.  1.
         -1    1    6    6    0  502 -0.15721450699E+03  0.24766190957E+03  0.25878849705E+03  0.39118321650E+03  0.00000000000E+00 0.  1.
<mgrwt>
<rscale>  0 0.17168237E+04</rscale>
<asrwt>0</asrwt>
<pdfrwt beam="1">  1        1 0.12274606E+00 0.17168237E+04</pdfrwt>
<pdfrwt beam="2">  1       -1 0.14208791E+00 0.17168237E+04</pdfrwt>
<totfact> 0.85083738E+00</totfact>
</mgrwt>
</event>
<event>
12    1  0.4753947E-007  0.2967722E+04  0.7818608E-02  0.8253009E-01
          2   -1    0    0  501    0  0.00000000000E+00  0.00000000000E+00  0.21369382208E+04  0.21369382208E+04  0.00000000000E+00 0. -1.
         -2   -1    0    0    0  501 -0.00000000000E+00 -0.00000000000E+00 -0.10303727836E+04  0.10303727836E+04  0.00000000000E+00 0.  1.
         23    2    1    2    0    0 -0.90247116000E+03  0.97300816932E+03  0.74131385368E+03  0.15230500491E+04  0.94531106709E+02 0.  0.
        254    2    1    2    0    0  0.90247116000E+03 -0.97300816932E+03  0.36525158355E+03  0.16442609553E+04  0.89943664458E+03 0.  0.
        -24    2    4    4    0    0  0.50205032546E+03 -0.58873752424E+03 -0.24475621972E+03  0.81570258621E+03  0.82454231656E+02 0.  0.
         24    2    4    4    0    0  0.40042083454E+03 -0.38427064508E+03  0.61000780327E+03  0.82855836908E+03  0.79991734052E+02 0.  0.
         13    1    3    3    0    0 -0.40779404435E+03  0.40548290922E+03  0.36777555973E+03  0.68262085714E+03  0.00000000000E+00 0.  1.
        -13    1    3    3    0    0 -0.49467711565E+03  0.56752526010E+03  0.37353829395E+03  0.84042919193E+03  0.00000000000E+00 0. -1.
          4    1    6    6  502    0  0.54011515991E+02 -0.77607440404E+02  0.14096641545E+03  0.16974006289E+03  0.00000000000E+00 0. -1.
          3    1    5    5  503    0  0.15350710328E+03 -0.15817980886E+03 -0.34069817837E+02  0.22303819219E+03  0.00000000000E+00 0. -1.
         -4    1    5    5    0  503  0.34854322218E+03 -0.43055771538E+03 -0.21068640189E+03  0.59266439402E+03  0.00000000000E+00 0.  1.
         -3    1    6    6    0  502  0.34640931855E+03 -0.30666320468E+03  0.46904138783E+03  0.65881830620E+03  0.00000000000E+00 0.  1.
<mgrwt>
<rscale>  0 0.29677217E+04</rscale>
<asrwt>0</asrwt>
<pdfrwt beam="1">  1        2 0.32875973E+00 0.29677217E+04</pdfrwt>
<pdfrwt beam="2">  1       -2 0.15851889E+00 0.29677217E+04</pdfrwt>
<totfact> 0.12423293E+00</totfact>
</mgrwt>
</event>
<event>
12    1  0.2588309E-007  0.2379866E+04  0.7818608E-02  0.8447080E-01
          2   -1    0    0  501    0  0.00000000000E+00  0.00000000000E+00  0.18523376560E+04  0.18523376560E+04  0.00000000000E+00 0. -1.
         -2   -1    0    0    0  501 -0.00000000000E+00 -0.00000000000E+00 -0.76440707155E+03  0.76440707155E+03  0.00000000000E+00 0.  1.
         23    2    1    2    0    0  0.69140101908E+03 -0.71777383362E+03  0.69403037035E+03  0.12178918429E+04  0.91365971243E+02 0.  0.
        254    2    1    2    0    0 -0.69140101908E+03  0.71777383362E+03  0.39390021414E+03  0.13988528846E+04  0.89910920847E+03 0.  0.
        -24    2    4    4    0    0 -0.67912657670E+03  0.68184648263E+02  0.19192854995E+03  0.71371123525E+03  0.81762495070E+02 0.  0.
         24    2    4    4    0    0 -0.12274442381E+02  0.64958918536E+03  0.20197166419E+03  0.68514164940E+03  0.80683052296E+02 0.  0.
         13    1    3    3    0    0  0.29787175291E+03 -0.25312129093E+03  0.29793075372E+03  0.49148825329E+03  0.00000000000E+00 0. -1.
        -13    1    3    3    0    0  0.39352926617E+03 -0.46465254269E+03  0.39609961662E+03  0.72640358965E+03  0.00000000000E+00 0.  1.
          4    1    6    6  502    0 -0.37998940368E+02  0.49604738226E+03  0.13373553005E+03  0.51516222388E+03  0.00000000000E+00 0. -1.
          1    1    5    5  503    0 -0.64024726994E+03  0.47917184398E+02  0.16753095805E+03  0.66353541362E+03  0.00000000000E+00 0. -1.
         -2    1    5    5    0  503 -0.38879306759E+02  0.20267463865E+02  0.24397591899E+02  0.50175821628E+02  0.00000000000E+00 0.  1.
         -3    1    6    6    0  502  0.25724497987E+02  0.15354180310E+03  0.68236134138E+02  0.16997942551E+03  0.00000000000E+00 0.  1.
<mgrwt>
<rscale>  0 0.23798655E+04</rscale>
<asrwt>0</asrwt>
<pdfrwt beam="1">  1        2 0.28497502E+00 0.23798655E+04</pdfrwt>
<pdfrwt beam="2">  1       -2 0.11760109E+00 0.23798655E+04</pdfrwt>
<totfact> 0.40579825E+00</totfact>
</mgrwt>
</event>
<event>
12    1  0.2588309E-007  0.1241183E+04  0.7818608E-02  0.9077554E-01
          1   -1    0    0  501    0  0.00000000000E+00  0.00000000000E+00  0.11985096917E+04  0.11985096917E+04  0.00000000000E+00 0. -1.
         -1   -1    0    0    0  501 -0.00000000000E+00 -0.00000000000E+00 -0.32134369695E+03  0.32134369695E+03  0.00000000000E+00 0.  1.
         23    2    1    2    0    0 -0.13097367925E+03 -0.25056542274E+03  0.18806085221E+03  0.35158084345E+03  0.91132154697E+02 0.  0.
        254    2    1    2    0    0  0.13097367925E+03  0.25056542274E+03  0.68910514249E+03  0.11682725452E+04  0.90003205867E+03 0.  0.
        -24    2    4    4    0    0 -0.11950207540E+03  0.42161313446E+03  0.41931556116E+02  0.44899227891E+03  0.88303057405E+02 0.  0.
         24    2    4    4    0    0  0.25047575466E+03 -0.17104771172E+03  0.64717358638E+03  0.71928026625E+03  0.80839514842E+02 0.  0.
         11    1    3    3    0    0 -0.34218045721E+02 -0.12181970635E+03  0.39714827838E+02  0.13262044736E+03  0.00000000000E+00 0.  1.
        -11    1    3    3    0    0 -0.96755633533E+02 -0.12874571638E+03  0.14834602438E+03  0.21896039609E+03  0.00000000000E+00 0. -1.
          4    1    6    6  502    0  0.27093185644E+02 -0.22203640011E+02  0.29484252486E+02  0.45786062101E+02  0.00000000000E+00 0. -1.
          3    1    5    5  503    0 -0.75732877444E+02  0.21575360382E+03  0.63813059908E+02  0.23739669943E+03  0.00000000000E+00 0. -1.
         -4    1    5    5    0  503 -0.43769197960E+02  0.20585953064E+03 -0.21881503793E+02  0.21159557948E+03  0.00000000000E+00 0.  1.
         -3    1    6    6    0  502  0.22338256901E+03 -0.14884407171E+03  0.61768933389E+03  0.67349420415E+03  0.00000000000E+00 0.  1.
<mgrwt>
<rscale>  0 0.12411826E+04</rscale>
<asrwt>0</asrwt>
<pdfrwt beam="1">  1        1 0.18438610E+00 0.12411826E+04</pdfrwt>
<pdfrwt beam="2">  1       -1 0.49437492E-01 0.12411826E+04</pdfrwt>
<totfact> 0.43343539E+01</totfact>
</mgrwt>
</event>
<event>
12    1  0.2588309E-007  0.1051171E+04  0.7818608E-02  0.9254136E-01
         -1   -1    0    0    0  501 -0.00000000000E+00  0.00000000000E+00  0.53714326369E+03  0.53714326369E+03  0.00000000000E+00 0.  1.
          1   -1    0    0  501    0  0.00000000000E+00 -0.00000000000E+00 -0.51427633454E+03  0.51427633454E+03  0.00000000000E+00 0. -1.
         23    2    1    2    0    0  0.26670245095E+02  0.78876589115E+02  0.65213332730E+02  0.14680600549E+03  0.10181554988E+03 0.  0.
        254    2    1    2    0    0 -0.26670245095E+02 -0.78876589115E+02 -0.42346403583E+02  0.90461359275E+03  0.89977759252E+03 0.  0.
        -24    2    4    4    0    0  0.29682418813E+03 -0.35145599201E+03 -0.74979532685E+02  0.47299057565E+03  0.80450241440E+02 0.  0.
         24    2    4    4    0    0 -0.32349443323E+03  0.27257940290E+03  0.32633129102E+02  0.43162301710E+03  0.79280064087E+02 0.  0.
         11    1    3    3    0    0 -0.25794840895E+02  0.12074352775E+02  0.54101627375E+02  0.61140411319E+02  0.00000000000E+00 0.  1.
        -11    1    3    3    0    0  0.52465085990E+02  0.66802236340E+02  0.11111705356E+02  0.85665594166E+02  0.00000000000E+00 0. -1.
          4    1    6    6  502    0 -0.15523705044E+02  0.11032516287E+02 -0.15720029687E+02  0.24694557442E+02  0.00000000000E+00 0. -1.
          3    1    5    5  503    0  0.11686631475E+03 -0.82902519580E+02 -0.13463204188E+02  0.14391602114E+03  0.00000000000E+00 0. -1.
         -4    1    5    5    0  503  0.17995787339E+03 -0.26855347243E+03 -0.61516328498E+02  0.32907455450E+03  0.00000000000E+00 0.  1.
         -3    1    6    6    0  502 -0.30797072818E+03  0.26154688661E+03  0.48353158789E+02  0.40692845966E+03  0.00000000000E+00 0.  1.
<mgrwt>
<rscale>  0 0.10511709E+04</rscale>
<asrwt>0</asrwt>
<pdfrwt beam="1">  1        1 0.79119436E-01 0.10511709E+04</pdfrwt>
<pdfrwt beam="2">  1       -1 0.82637425E-01 0.10511709E+04</pdfrwt>
<totfact> 0.62034343E+01</totfact>
</mgrwt>
</event>
<event>
12    1  0.2588309E-007  0.1757988E+04  0.7818608E-02  0.8728966E-01
         -1   -1    0    0    0  501 -0.00000000000E+00  0.00000000000E+00  0.33342996780E+03  0.33342996780E+03  0.00000000000E+00 0.  1.
          1   -1    0    0  501    0  0.00000000000E+00 -0.00000000000E+00 -0.23172192014E+04  0.23172192014E+04  0.00000000000E+00 0. -1.
         23    2    1    2    0    0 -0.38859225674E+03  0.51346418291E+03 -0.72698731802E+03  0.97521950627E+03  0.88843208600E+02 0.  0.
        254    2    1    2    0    0  0.38859225674E+03 -0.51346418291E+03 -0.12568019156E+04  0.16754296630E+04  0.90158975777E+03 0.  0.
        -24    2    4    4    0    0 -0.20848768761E+03 -0.11832666097E+03 -0.75731365946E+03  0.79871168629E+03  0.83355050338E+02 0.  0.
         24    2    4    4    0    0  0.59707994434E+03 -0.39513752193E+03 -0.49948825615E+03  0.87671797667E+03  0.80670759384E+02 0.  0.
         11    1    3    3    0    0 -0.27366647981E+03  0.38783236205E+03 -0.47851667351E+03  0.67400704006E+03  0.00000000000E+00 0.  1.
        -11    1    3    3    0    0 -0.11492577693E+03  0.12563182086E+03 -0.24847064451E+03  0.30121246621E+03  0.00000000000E+00 0. -1.
          2    1    6    6  502    0  0.10625518478E+03 -0.35480368851E+02 -0.76651522447E+02  0.13573679221E+03  0.00000000000E+00 0. -1.
          3    1    5    5  503    0 -0.12278115647E+02  0.48309102893E+01 -0.10710727227E+02  0.16994396012E+02  0.00000000000E+00 0. -1.
         -4    1    5    5    0  503 -0.19620957196E+03 -0.12315757126E+03 -0.74660293224E+03  0.78171729027E+03  0.00000000000E+00 0.  1.
         -1    1    6    6    0  502  0.49082475957E+03 -0.35965715308E+03 -0.42283673370E+03  0.74098118447E+03  0.00000000000E+00 0.  1.
<mgrwt>
<rscale>  0 0.17579879E+04</rscale>
<asrwt>0</asrwt>
<pdfrwt beam="1">  1        1 0.35649525E+00 0.17579879E+04</pdfrwt>
<pdfrwt beam="2">  1       -1 0.51296919E-01 0.17579879E+04</pdfrwt>
<totfact> 0.65606777E+00</totfact>
</mgrwt>
</event>
<event>
12    1  0.2588309E-007  0.3124733E+04  0.7818608E-02  0.8208983E-01
          2   -1    0    0  501    0  0.00000000000E+00  0.00000000000E+00  0.17132672023E+04  0.17132672023E+04  0.00000000000E+00 0. -1.
         -2   -1    0    0    0  501 -0.00000000000E+00 -0.00000000000E+00 -0.14247571763E+04  0.14247571763E+04  0.00000000000E+00 0.  1.
         23    2    1    2    0    0 -0.11377787329E+04 -0.83698785457E+03  0.36736370833E+03  0.14623841009E+04  0.92314953171E+02 0.  0.
        254    2    1    2    0    0  0.11377787329E+04  0.83698785457E+03 -0.78853682361E+02  0.16756402777E+04  0.89803303013E+03 0.  0.
        -24    2    4    4    0    0  0.10448734908E+03 -0.14199822153E+03 -0.15630409965E+03  0.24790421420E+03  0.77100109065E+02 0.  0.
         24    2    4    4    0    0  0.10332913838E+04  0.97898607610E+03  0.77450417288E+02  0.14277360635E+04  0.79541679166E+02 0.  0.
         11    1    3    3    0    0 -0.93485825823E+03 -0.65204334356E+03  0.31912676214E+03  0.11836225645E+04  0.00000000000E+00 0. -1.
        -11    1    3    3    0    0 -0.20292047469E+03 -0.18494451101E+03  0.48236946186E+02  0.27876153640E+03  0.00000000000E+00 0.  1.
          4    1    6    6  502    0  0.28256252565E+03  0.29170845453E+03 -0.93316154303E+01  0.40622959320E+03  0.00000000000E+00 0. -1.
          3    1    5    5  503    0  0.75621242318E+02 -0.66541869790E+02 -0.44884348072E+02  0.11027691248E+03  0.00000000000E+00 0. -1.
         -2    1    5    5    0  503  0.28866106758E+02 -0.75456351736E+02 -0.11141975158E+03  0.13762730172E+03  0.00000000000E+00 0.  1.
         -3    1    6    6    0  502  0.75072885819E+03  0.68727762156E+03  0.86782032718E+02  0.10215064703E+04  0.00000000000E+00 0.  1.
<mgrwt>
<rscale>  0 0.31247334E+04</rscale>
<asrwt>0</asrwt>
<pdfrwt beam="1">  1        2 0.26357957E+00 0.31247334E+04</pdfrwt>
<pdfrwt beam="2">  1       -2 0.21919341E+00 0.31247334E+04</pdfrwt>
<totfact> 0.81704787E-01</totfact>
</mgrwt>
</event>
<event>
12    1  0.2588309E-007  0.2921210E+04  0.7818608E-02  0.8266595E-01
         -1   -1    0    0    0  501 -0.00000000000E+00  0.00000000000E+00  0.79745829249E+03  0.79745829249E+03  0.00000000000E+00 0.  1.
          1   -1    0    0  501    0  0.00000000000E+00 -0.00000000000E+00 -0.26752082098E+04  0.26752082098E+04  0.00000000000E+00 0. -1.
         23    2    1    2    0    0 -0.10298835242E+04 -0.77659799486E+03 -0.11868050506E+04  0.17551812102E+04  0.91598763270E+02 0.  0.
        254    2    1    2    0    0  0.10298835242E+04  0.77659799486E+03 -0.69094486670E+03  0.17174852921E+04  0.89921432419E+03 0.  0.
        -24    2    4    4    0    0  0.15109678825E+03  0.35340218749E+03 -0.62295429900E+03  0.73632454430E+03  0.79865075964E+02 0.  0.
         24    2    4    4    0    0  0.87878673593E+03  0.42319580737E+03 -0.67990567708E+02  0.98116074782E+03  0.81810006404E+02 0.  0.
         11    1    3    3    0    0 -0.80858036986E+03 -0.59412671086E+03 -0.97039235741E+03  0.13958689374E+04  0.00000000000E+00 0.  1.
        -11    1    3    3    0    0 -0.22130315432E+03 -0.18247128401E+03 -0.21641269324E+03  0.35931227281E+03  0.00000000000E+00 0. -1.
          4    1    6    6  502    0  0.35909771850E+03  0.14192982629E+03  0.18026792780E+01  0.38613274488E+03  0.00000000000E+00 0. -1.
          1    1    5    5  503    0  0.69700969522E+02  0.19226503732E+03 -0.25855584051E+03  0.32965920644E+03  0.00000000000E+00 0. -1.
         -2    1    5    5    0  503  0.81395818726E+02  0.16113715017E+03 -0.36439845848E+03  0.40666533786E+03  0.00000000000E+00 0.  1.
         -3    1    6    6    0  502  0.51968901743E+03  0.28126598108E+03 -0.69793246986E+02  0.59502800294E+03  0.00000000000E+00 0.  1.
<mgrwt>
<rscale>  0 0.29212100E+04</rscale>
<asrwt>0</asrwt>
<pdfrwt beam="1">  1        1 0.41157049E+00 0.29212100E+04</pdfrwt>
<pdfrwt beam="2">  1       -1 0.12268589E+00 0.29212100E+04</pdfrwt>
<totfact> 0.51290171E-01</totfact>
</mgrwt>
</event>
<event>
12    1  0.3394098E-007  0.3330598E+04  0.7818608E-02  0.8155153E-01
          2   -1    0    0  501    0  0.00000000000E+00  0.00000000000E+00  0.27850780804E+04  0.27850780804E+04  0.00000000000E+00 0. -1.
         -2   -1    0    0    0  501 -0.00000000000E+00 -0.00000000000E+00 -0.99574256306E+03  0.99574256306E+03  0.00000000000E+00 0.  1.
         23    2    1    2    0    0  0.12839626295E+04  0.84828645085E+03  0.68582404767E+03  0.16872283963E+04  0.90747452902E+02 0.  0.
        254    2    1    2    0    0 -0.12839626295E+04 -0.84828645085E+03  0.11035114696E+04  0.20935922471E+04  0.89288352932E+03 0.  0.
        -24    2    4    4    0    0 -0.13728343913E+04 -0.63307782881E+03  0.10490885440E+04  0.18418995043E+04  0.80902456451E+02 0.  0.
         24    2    4    4    0    0  0.88871761802E+02 -0.21520862204E+03  0.54422925644E+02  0.25169274284E+03  0.78577610766E+02 0.  0.
         11    1    3    3    0    0  0.95122771141E+03  0.58650210026E+03  0.47495517367E+03  0.12142492699E+04  0.00000000000E+00 0. -1.
        -11    1    3    3    0    0  0.33273491811E+03  0.26178435059E+03  0.21086887400E+03  0.47297912636E+03  0.00000000000E+00 0.  1.
          2    1    6    6  502    0  0.49023742570E+02 -0.11152288549E+03 -0.11764929599E+02  0.12238911263E+03  0.00000000000E+00 0. -1.
          1    1    5    5  503    0 -0.63158874157E+03 -0.30828811242E+03  0.53304312699E+03  0.88208892634E+03  0.00000000000E+00 0. -1.
         -2    1    5    5    0  503 -0.74124564975E+03 -0.32478971639E+03  0.51604541700E+03  0.95981057796E+03  0.00000000000E+00 0.  1.
         -1    1    6    6    0  502  0.39848019232E+02 -0.10368573655E+03  0.66187855243E+02  0.12930363020E+03  0.00000000000E+00 0.  1.
<mgrwt>
<rscale>  0 0.33305980E+04</rscale>
<asrwt>0</asrwt>
<pdfrwt beam="1">  1        2 0.42847355E+00 0.33305980E+04</pdfrwt>
<pdfrwt beam="2">  1       -2 0.15319116E+00 0.33305980E+04</pdfrwt>
<totfact> 0.55697445E-01</totfact>
</mgrwt>
</event>
<event>
12    1  0.2588309E-007  0.1132092E+04  0.7818608E-02  0.9174465E-01
          1   -1    0    0  501    0  0.00000000000E+00  0.00000000000E+00  0.24359852410E+04  0.24359852410E+04  0.00000000000E+00 0. -1.
         -1   -1    0    0    0  501 -0.00000000000E+00 -0.00000000000E+00 -0.13153118760E+03  0.13153118760E+03  0.00000000000E+00 0.  1.
         23    2    1    2    0    0 -0.10801420840E+03 -0.35108341227E+02  0.83224715133E+02  0.16868527859E+03  0.92890823899E+02 0.  0.
        254    2    1    2    0    0  0.10801420840E+03  0.35108341227E+02  0.22212293383E+04  0.23988311500E+04  0.89868317453E+03 0.  0.
        -24    2    4    4    0    0  0.99199774898E+02  0.18763768187E+03  0.22146593589E+04  0.22262146460E+04  0.79164883972E+02 0.  0.
         24    2    4    4    0    0  0.88144335010E+01 -0.15252934065E+03  0.65699793328E+01  0.17261650402E+03  0.80064966352E+02 0.  0.
         13    1    3    3    0    0 -0.79088635197E+02 -0.10534556166E+02  0.99371312353E+02  0.12743879633E+03  0.00000000000E+00 0. -1.
        -13    1    3    3    0    0 -0.28925573201E+02 -0.24573785061E+02 -0.16146597220E+02  0.41246482263E+02  0.00000000000E+00 0.  1.
          2    1    6    6  502    0  0.23115123688E+02 -0.11032020426E+03  0.37022004564E+02  0.11864015017E+03  0.00000000000E+00 0. -1.
          1    1    5    5  503    0  0.64540298559E+00  0.45444163206E+02  0.74937338729E+03  0.75075033273E+03  0.00000000000E+00 0. -1.
         -2    1    5    5    0  503  0.98554371912E+02  0.14219351867E+03  0.14652859716E+04  0.14754643132E+04  0.00000000000E+00 0.  1.
         -1    1    6    6    0  502 -0.14300690187E+02 -0.42209136384E+02 -0.30452025231E+02  0.53976353848E+02  0.00000000000E+00 0.  1.
<mgrwt>
<rscale>  0 0.11320919E+04</rscale>
<asrwt>0</asrwt>
<pdfrwt beam="1">  1        1 0.37476693E+00 0.11320919E+04</pdfrwt>
<pdfrwt beam="2">  1       -1 0.20235569E-01 0.11320919E+04</pdfrwt>
<totfact> 0.30137527E+01</totfact>
</mgrwt>
</event>
<event>
12    1  0.2588309E-007  0.1568277E+04  0.7818608E-02  0.8840277E-01
          2   -1    0    0  501    0  0.00000000000E+00  0.00000000000E+00  0.19373986337E+04  0.19373986337E+04  0.00000000000E+00 0. -1.
         -2   -1    0    0    0  501 -0.00000000000E+00 -0.00000000000E+00 -0.31737068468E+03  0.31737068468E+03  0.00000000000E+00 0.  1.
         23    2    1    2    0    0  0.43298942851E+03  0.48139123550E+02  0.96694790063E+03  0.10647616940E+04  0.94509269725E+02 0.  0.
        254    2    1    2    0    0 -0.43298942851E+03 -0.48139123550E+02  0.65308004843E+03  0.11900076244E+04  0.89431950449E+03 0.  0.
        -24    2    4    4    0    0 -0.17127368383E+03 -0.46179587302E+03  0.32061371033E+03  0.59295335808E+03  0.78806284651E+02 0.  0.
         24    2    4    4    0    0 -0.26171574469E+03  0.41365674947E+03  0.33246633811E+03  0.59705426635E+03  0.79579479694E+02 0.  0.
         11    1    3    3    0    0  0.31234792640E+03  0.41158796620E+02  0.78984474260E+03  0.85035874258E+03  0.00000000000E+00 0. -1.
        -11    1    3    3    0    0  0.12064150211E+03  0.69803269299E+01  0.17710315803E+03  0.21440295142E+03  0.00000000000E+00 0.  1.
          4    1    6    6  502    0 -0.18423146548E+03  0.31662022200E+03  0.20807282723E+03  0.42128838019E+03  0.00000000000E+00 0. -1.
          1    1    5    5  503    0 -0.11352019323E+03 -0.39032412258E+03  0.27069020124E+03  0.48837786599E+03  0.00000000000E+00 0. -1.
         -2    1    5    5    0  503 -0.57753490599E+02 -0.71471750439E+02  0.49923509089E+02  0.10457549210E+03  0.00000000000E+00 0.  1.
         -3    1    6    6    0  502 -0.77484279210E+02  0.97036527473E+02  0.12439351088E+03  0.17576588616E+03  0.00000000000E+00 0.  1.
<mgrwt>
<rscale>  0 0.15682774E+04</rscale>
<asrwt>0</asrwt>
<pdfrwt beam="1">  1        2 0.29806132E+00 0.15682774E+04</pdfrwt>
<pdfrwt beam="2">  1       -2 0.48826260E-01 0.15682774E+04</pdfrwt>
<totfact> 0.27642257E+01</totfact>
</mgrwt>
</event>
<event>
12    1  0.2588309E-007  0.2426927E+04  0.7818608E-02  0.8429491E-01
         -1   -1    0    0    0  501 -0.00000000000E+00  0.00000000000E+00  0.12213238333E+04  0.12213238333E+04  0.00000000000E+00 0.  1.
          1   -1    0    0  501    0  0.00000000000E+00 -0.00000000000E+00 -0.12056535863E+04  0.12056535863E+04  0.00000000000E+00 0. -1.
         23    2    1    2    0    0 -0.21500783351E+03 -0.10095263905E+04 -0.15461008699E+03  0.10474484804E+04  0.88725071939E+02 0.  0.
        254    2    1    2    0    0  0.21500783351E+03  0.10095263905E+04  0.17028033401E+03  0.13795289393E+04  0.89929572469E+03 0.  0.
        -24    2    4    4    0    0  0.38996854553E+03  0.12926390393E+03  0.22715457104E+03  0.47669040708E+03  0.82764253697E+02 0.  0.
         24    2    4    4    0    0 -0.17496071202E+03  0.88026248660E+03 -0.56874237035E+02  0.90283853218E+03  0.80058980038E+02 0.  0.
         13    1    3    3    0    0 -0.19226784953E+03 -0.71204874219E+03 -0.11593987589E+03  0.74660725421E+03  0.00000000000E+00 0.  1.
        -13    1    3    3    0    0 -0.22739983981E+02 -0.29747764835E+03 -0.38670211107E+02  0.30084122617E+03  0.00000000000E+00 0. -1.
          2    1    6    6  502    0 -0.68476182559E+02  0.40459457933E+03 -0.64212930821E+02  0.41534210199E+03  0.00000000000E+00 0. -1.
          3    1    5    5  503    0  0.35299171746E+03  0.12064164967E+03  0.23061086761E+03  0.43856462750E+03  0.00000000000E+00 0. -1.
         -4    1    5    5    0  503  0.36976828066E+02  0.86222542646E+01 -0.34562965679E+01  0.38125779578E+02  0.00000000000E+00 0.  1.
         -1    1    6    6    0  502 -0.10648452946E+03  0.47566790727E+03  0.73386937862E+01  0.48749643019E+03  0.00000000000E+00 0.  1.
<mgrwt>
<rscale>  0 0.24269268E+04</rscale>
<asrwt>0</asrwt>
<pdfrwt beam="1">  1        1 0.18548517E+00 0.24269268E+04</pdfrwt>
<pdfrwt beam="2">  1       -1 0.18789597E+00 0.24269268E+04</pdfrwt>
<totfact> 0.17301698E+00</totfact>
</mgrwt>
</event>
<event>
12    1  0.2588309E-007  0.3148590E+04  0.7818608E-02  0.8202528E-01
          2   -1    0    0  501    0  0.00000000000E+00  0.00000000000E+00  0.30350155273E+04  0.30350155273E+04  0.00000000000E+00 0.  1.
         -2   -1    0    0    0  501 -0.00000000000E+00 -0.00000000000E+00 -0.81660339694E+03  0.81660339694E+03  0.00000000000E+00 0. -1.
         23    2    1    2    0    0 -0.50812847329E+03  0.12900668659E+04  0.52407943578E+03  0.14850920749E+04  0.91499464819E+02 0.  0.
        254    2    1    2    0    0  0.50812847329E+03 -0.12900668659E+04  0.16943326946E+04  0.23665268494E+04  0.89845366312E+03 0.  0.
        -24    2    4    4    0    0  0.36636567435E+03 -0.10076998765E+04  0.17318635385E+04  0.20384982983E+04  0.80256761787E+02 0.  0.
         24    2    4    4    0    0  0.14176279894E+03 -0.28236698944E+03 -0.37530843852E+02  0.32802855108E+03  0.79789461663E+02 0.  0.
         13    1    3    3    0    0 -0.29302061476E+03  0.70682394382E+03  0.24263834155E+03  0.80270451165E+03  0.00000000000E+00 0.  1.
        -13    1    3    3    0    0 -0.21510785853E+03  0.58324292211E+03  0.28144109424E+03  0.68238756328E+03  0.00000000000E+00 0. -1.
          4    1    6    6  502    0  0.12670044732E+03 -0.21086008558E+03 -0.26304506829E+00  0.24599806551E+03  0.00000000000E+00 0. -1.
          1    1    5    5  503    0  0.11282363784E+03 -0.41603303480E+03  0.72427519799E+03  0.84284471982E+03  0.00000000000E+00 0. -1.
         -4    1    5    5    0  503  0.25354203651E+03 -0.59166684168E+03  0.10075883405E+04  0.11956535785E+04  0.00000000000E+00 0.  1.
         -3    1    6    6    0  502  0.15062351617E+02 -0.71506903870E+02 -0.37267798784E+02  0.82030485574E+02  0.00000000000E+00 0.  1.
<mgrwt>
<rscale>  0 0.31485895E+04</rscale>
<asrwt>0</asrwt>
<pdfrwt beam="1">  1        2 0.46692546E+00 0.31485895E+04</pdfrwt>
<pdfrwt beam="2">  1       -2 0.12563129E+00 0.31485895E+04</pdfrwt>
<totfact> 0.66211614E-01</totfact>
</mgrwt>
</event>
<event>
12    1  0.2588309E-007  0.1766653E+04  0.7818608E-02  0.8724237E-01
          1   -1    0    0  501    0  0.00000000000E+00  0.00000000000E+00  0.27194358441E+04  0.27194358441E+04  0.00000000000E+00 0. -1.
         -1   -1    0    0    0  501 -0.00000000000E+00 -0.00000000000E+00 -0.28692201265E+03  0.28692201265E+03  0.00000000000E+00 0.  1.
         23    2    1    2    0    0  0.34316038162E+03 -0.90543379996E+00  0.18428540484E+04  0.18771160144E+04  0.98456184777E+02 0.  0.
        254    2    1    2    0    0 -0.34316038162E+03  0.90543379996E+00  0.58965978301E+03  0.11292418424E+04  0.89984921599E+03 0.  0.
        -24    2    4    4    0    0 -0.60636342230E+03  0.16815122379E+03  0.33214038890E+03  0.71710792424E+03  0.89303432782E+02 0.  0.
         24    2    4    4    0    0  0.26320304068E+03 -0.16724578999E+03  0.25751939411E+03  0.41213391813E+03  0.79316664279E+02 0.  0.
         11    1    3    3    0    0  0.15075024082E+03 -0.39500568108E+01  0.10745113996E+04  0.10850419282E+04  0.00000000000E+00 0. -1.
        -11    1    3    3    0    0  0.19241014080E+03  0.30446230109E+01  0.76834264880E+03  0.79207408616E+03  0.00000000000E+00 0.  1.
          2    1    6    6  502    0  0.25089840207E+03 -0.13427814286E+03  0.21338239138E+03  0.35568619985E+03  0.00000000000E+00 0. -1.
          1    1    5    5  503    0 -0.41891395664E+03  0.80111367460E+02  0.19687275489E+03  0.46975058902E+03  0.00000000000E+00 0. -1.
         -2    1    5    5    0  503 -0.18744946566E+03  0.88039856331E+02  0.13526763400E+03  0.24735733522E+03  0.00000000000E+00 0.  1.
         -1    1    6    6    0  502  0.12304638612E+02 -0.32967647130E+02  0.44137002732E+02  0.56447718278E+02  0.00000000000E+00 0.  1.
<mgrwt>
<rscale>  0 0.17666533E+04</rscale>
<asrwt>0</asrwt>
<pdfrwt beam="1">  1        1 0.41837473E+00 0.17666533E+04</pdfrwt>
<pdfrwt beam="2">  1       -1 0.44141850E-01 0.17666533E+04</pdfrwt>
<totfact> 0.45770779E+00</totfact>
</mgrwt>
</event>
<event>
12    1  0.2588309E-007  0.1789723E+04  0.7818608E-02  0.8711784E-01
         -1   -1    0    0    0  501 -0.00000000000E+00  0.00000000000E+00  0.61823092236E+03  0.61823092236E+03  0.00000000000E+00 0.  1.
          1   -1    0    0  501    0  0.00000000000E+00 -0.00000000000E+00 -0.12952720385E+04  0.12952720385E+04  0.00000000000E+00 0. -1.
         23    2    1    2    0    0 -0.39073777002E+03 -0.43562723711E+03  0.83622341962E+02  0.59869085121E+03  0.94820591762E+02 0.  0.
        254    2    1    2    0    0  0.39073777002E+03  0.43562723711E+03 -0.76066345813E+03  0.13148121097E+04  0.89870734535E+03 0.  0.
        -24    2    4    4    0    0  0.60202030674E+03  0.31697727355E+02 -0.40058903426E+03  0.72837785323E+03  0.81421907734E+02 0.  0.
         24    2    4    4    0    0 -0.21128253672E+03  0.40392950975E+03 -0.36007442387E+03  0.58643425645E+03  0.80325508034E+02 0.  0.
         11    1    3    3    0    0 -0.10299611473E+03 -0.18204142435E+03  0.23614719729E+02  0.21048737448E+03  0.00000000000E+00 0.  1.
        -11    1    3    3    0    0 -0.28774165529E+03 -0.25358581276E+03  0.60007622233E+02  0.38820347673E+03  0.00000000000E+00 0. -1.
          2    1    6    6  502    0 -0.16178811582E+03  0.31891503651E+03 -0.32113613389E+03  0.48063563270E+03  0.00000000000E+00 0. -1.
          1    1    5    5  503    0  0.44587413091E+03  0.52659636780E+02 -0.27133516095E+03  0.52459465069E+03  0.00000000000E+00 0. -1.
         -2    1    5    5    0  503  0.15614617582E+03 -0.20961909425E+02 -0.12925387331E+03  0.20378320254E+03  0.00000000000E+00 0.  1.
         -1    1    6    6    0  502 -0.49494420897E+02  0.85014473240E+02 -0.38938289986E+02  0.10579862375E+03  0.00000000000E+00 0.  1.
<mgrwt>
<rscale>  0 0.17897231E+04</rscale>
<asrwt>0</asrwt>
<pdfrwt beam="1">  1        1 0.19927262E+00 0.17897231E+04</pdfrwt>
<pdfrwt beam="2">  1       -1 0.95112450E-01 0.17897231E+04</pdfrwt>
<totfact> 0.91950895E+00</totfact>
</mgrwt>
</event>
<event>
12    1  0.2588309E-007  0.1456829E+04  0.7818608E-02  0.8913680E-01
          1   -1    0    0  501    0  0.00000000000E+00  0.00000000000E+00  0.10250747957E+04  0.10250747957E+04  0.00000000000E+00 0. -1.
         -1   -1    0    0    0  501 -0.00000000000E+00 -0.00000000000E+00 -0.51760878978E+03  0.51760878978E+03  0.00000000000E+00 0.  1.
         23    2    1    2    0    0 -0.35020523469E+03  0.25736727091E+03  0.20020241336E+03  0.48661942445E+03  0.88520276817E+02 0.  0.
        254    2    1    2    0    0  0.35020523469E+03 -0.25736727091E+03  0.30726359257E+03  0.10560641610E+04  0.91212881677E+03 0.  0.
        -24    2    4    4    0    0  0.64043919888E+03 -0.57614920673E+02  0.22124525871E+03  0.68469507251E+03  0.79850054904E+02 0.  0.
         24    2    4    4    0    0 -0.29023396420E+03 -0.19975235023E+03  0.86018333859E+02  0.37136908853E+03  0.79869210320E+02 0.  0.
         13    1    3    3    0    0 -0.35454892117E+03  0.24650638823E+03  0.19442093271E+03  0.47357136317E+03  0.00000000000E+00 0. -1.
        -13    1    3    3    0    0  0.43436864833E+01  0.10860882678E+02  0.57814806450E+01  0.13048061283E+02  0.00000000000E+00 0.  1.
          2    1    6    6  502    0 -0.52696739316E+02 -0.65562395297E+02  0.45267010774E+02  0.95522124537E+02  0.00000000000E+00 0. -1.
          3    1    5    5  503    0  0.50942429646E+03 -0.36987096207E+02  0.14176310744E+03  0.53007352107E+03  0.00000000000E+00 0. -1.
         -4    1    5    5    0  503  0.13101490242E+03 -0.20627824466E+02  0.79482151269E+02  0.15462155144E+03  0.00000000000E+00 0.  1.
         -1    1    6    6    0  502 -0.23753722488E+03 -0.13418995493E+03  0.40751323085E+02  0.27584696399E+03  0.00000000000E+00 0.  1.
<mgrwt>
<rscale>  0 0.14568291E+04</rscale>
<asrwt>0</asrwt>
<pdfrwt beam="1">  1        1 0.15770381E+00 0.14568291E+04</pdfrwt>
<pdfrwt beam="2">  1       -1 0.79632122E-01 0.14568291E+04</pdfrwt>
<totfact> 0.22124763E+01</totfact>
</mgrwt>
</event>
<event>
12    1  0.2588309E-007  0.2464654E+04  0.7818608E-02  0.8415687E-01
         -2   -1    0    0    0  501 -0.00000000000E+00  0.00000000000E+00  0.71343457086E+03  0.71343457086E+03  0.00000000000E+00 0.  1.
          2   -1    0    0  501    0  0.00000000000E+00 -0.00000000000E+00 -0.21286179088E+04  0.21286179088E+04  0.00000000000E+00 0. -1.
         23    2    1    2    0    0  0.39527822097E+03 -0.98701730059E+03 -0.70868617822E+03  0.12803953714E+04  0.82025510445E+02 0.  0.
        254    2    1    2    0    0 -0.39527822097E+03  0.98701730059E+03 -0.70649715969E+03  0.15616571082E+04  0.89954803279E+03 0.  0.
        -24    2    4    4    0    0  0.30400633600E+02  0.60778959486E+03 -0.76684454376E+03  0.98219759921E+03  0.79556140223E+02 0.  0.
         24    2    4    4    0    0 -0.42567885457E+03  0.37922770573E+03  0.60347384072E+02  0.57945950899E+03  0.84352686807E+02 0.  0.
         13    1    3    3    0    0  0.36623647909E+03 -0.85471415319E+03 -0.59903865121E+03  0.11061251050E+04  0.00000000000E+00 0.  1.
        -13    1    3    3    0    0  0.29041741881E+02 -0.13230314740E+03 -0.10964752701E+03  0.17427026643E+03  0.00000000000E+00 0. -1.
          2    1    6    6  502    0 -0.25568597030E+02  0.38784057578E+02  0.25415334749E+02  0.52951822600E+02  0.00000000000E+00 0. -1.
          3    1    5    5  503    0  0.12321409001E+02  0.24080516875E+03 -0.36747280937E+03  0.43951702133E+03  0.00000000000E+00 0. -1.
         -4    1    5    5    0  503  0.18079224599E+02  0.36698442611E+03 -0.39937173440E+03  0.54268057788E+03  0.00000000000E+00 0.  1.
         -1    1    6    6    0  502 -0.40011025754E+03  0.34044364815E+03  0.34932049323E+02  0.52650768639E+03  0.00000000000E+00 0.  1.
<mgrwt>
<rscale>  0 0.24646538E+04</rscale>
<asrwt>0</asrwt>
<pdfrwt beam="1">  1        2 0.32747967E+00 0.24646538E+04</pdfrwt>
<pdfrwt beam="2">  1       -2 0.10975917E+00 0.24646538E+04</pdfrwt>
<totfact> 0.33455529E+00</totfact>
</mgrwt>
</event>
<event>
12    1  0.2588309E-007  0.2251604E+04  0.7818608E-02  0.8497251E-01
         -2   -1    0    0    0  501 -0.00000000000E+00  0.00000000000E+00  0.75744238053E+03  0.75744238053E+03  0.00000000000E+00 0. -1.
          2   -1    0    0  501    0  0.00000000000E+00 -0.00000000000E+00 -0.16733028427E+04  0.16733028427E+04  0.00000000000E+00 0.  1.
         23    2    1    2    0    0  0.32776247416E+03 -0.88391269889E+03 -0.40884341333E+03  0.10317024246E+04  0.92342067719E+02 0.  0.
        254    2    1    2    0    0 -0.32776247416E+03  0.88391269889E+03 -0.50701704884E+03  0.13990427987E+04  0.90084658295E+03 0.  0.
        -24    2    4    4    0    0 -0.28001214577E+03  0.22582361036E+03  0.20774291873E+03  0.42298730616E+03  0.79737294420E+02 0.  0.
         24    2    4    4    0    0 -0.47750328389E+02  0.65808908853E+03 -0.71475996757E+03  0.97605549253E+03  0.80256905907E+02 0.  0.
         11    1    3    3    0    0  0.10352389670E+03 -0.20737314352E+03 -0.13461557680E+03  0.26803389964E+03  0.00000000000E+00 0. -1.
        -11    1    3    3    0    0  0.22423857745E+03 -0.67653955537E+03 -0.27422783653E+03  0.76366852491E+03  0.00000000000E+00 0.  1.
          4    1    6    6  502    0 -0.51696903794E+02  0.63726750314E+03 -0.70764641465E+03  0.95370115266E+03  0.00000000000E+00 0. -1.
          1    1    5    5  503    0 -0.21352087761E+03  0.21119744148E+03  0.16659827491E+03  0.34343923723E+03  0.00000000000E+00 0. -1.
         -2    1    5    5    0  503 -0.66491268157E+02  0.14626168883E+02  0.41144643811E+02  0.79548068937E+02  0.00000000000E+00 0.  1.
         -3    1    6    6    0  502  0.39465754051E+01  0.20821585392E+02 -0.71135529177E+01  0.22354339864E+02  0.00000000000E+00 0.  1.
<mgrwt>
<rscale>  0 0.22516043E+04</rscale>
<asrwt>0</asrwt>
<pdfrwt beam="1">  1        2 0.25743121E+00 0.22516043E+04</pdfrwt>
<pdfrwt beam="2">  1       -2 0.11652960E+00 0.22516043E+04</pdfrwt>
<totfact> 0.52739838E+00</totfact>
</mgrwt>
</event>
<event>
12    1  0.2588309E-007  0.2178935E+04  0.7818608E-02  0.8527247E-01
          2   -1    0    0  501    0  0.00000000000E+00  0.00000000000E+00  0.28809624530E+04  0.28809624530E+04  0.00000000000E+00 0. -1.
         -2   -1    0    0    0  501 -0.00000000000E+00 -0.00000000000E+00 -0.41199407927E+03  0.41199407927E+03  0.00000000000E+00 0.  1.
         23    2    1    2    0    0 -0.57733563645E+03 -0.61985024960E+03  0.14884436324E+04  0.17151148822E+04  0.92864651456E+02 0.  0.
        254    2    1    2    0    0  0.57733563645E+03  0.61985024960E+03  0.98052474134E+03  0.15778416500E+04  0.90034700816E+03 0.  0.
        -24    2    4    4    0    0 -0.14285962490E+02  0.63344963937E+03  0.48085290335E+03  0.79932278095E+03  0.78961124316E+02 0.  0.
         24    2    4    4    0    0  0.59162159894E+03 -0.13599389769E+02  0.49967183799E+03  0.77851886906E+03  0.78858253006E+02 0.  0.
         11    1    3    3    0    0 -0.49582389697E+03 -0.54607140663E+03  0.13497002186E+04  0.15380916742E+04  0.00000000000E+00 0. -1.
        -11    1    3    3    0    0 -0.81511739483E+02 -0.73778842964E+02  0.13874341375E+03  0.17702320808E+03  0.00000000000E+00 0.  1.
          4    1    6    6  502    0  0.11718491880E+02  0.10702628122E+02  0.76298332722E+01  0.17609192385E+02  0.00000000000E+00 0. -1.
          3    1    5    5  503    0  0.40197632523E+01  0.24443085425E+02  0.28939165297E+01  0.24939881206E+02  0.00000000000E+00 0. -1.
         -4    1    5    5    0  503 -0.18305725742E+02  0.60900655394E+03  0.47795898682E+03  0.77438289975E+03  0.00000000000E+00 0.  1.
         -3    1    6    6    0  502  0.57990310706E+03 -0.24302017892E+02  0.49204200472E+03  0.76090967668E+03  0.00000000000E+00 0.  1.
<mgrwt>
<rscale>  0 0.21789350E+04</rscale>
<asrwt>0</asrwt>
<pdfrwt beam="1">  1        2 0.44322498E+00 0.21789350E+04</pdfrwt>
<pdfrwt beam="2">  1       -2 0.63383706E-01 0.21789350E+04</pdfrwt>
<totfact> 0.43590824E+00</totfact>
</mgrwt>
</event>
<event>
12    1  0.2588309E-007  0.5104373E+04  0.7818608E-02  0.7812605E-01
         -1   -1    0    0    0  501 -0.00000000000E+00  0.00000000000E+00  0.17177665575E+04  0.17177665575E+04  0.00000000000E+00 0.  1.
          1   -1    0    0  501    0  0.00000000000E+00 -0.00000000000E+00 -0.37919328276E+04  0.37919328276E+04  0.00000000000E+00 0. -1.
         23    2    1    2    0    0  0.16600218283E+04 -0.12043225787E+04  0.48505973164E+03  0.21094460517E+04  0.91729807349E+02 0.  0.
        254    2    1    2    0    0 -0.16600218283E+04  0.12043225787E+04 -0.25592260017E+04  0.34002533334E+04  0.89778597619E+03 0.  0.
        -24    2    4    4    0    0 -0.15266788944E+04  0.13046760011E+04 -0.24935871891E+04  0.32026645072E+04  0.78453565925E+02 0.  0.
         24    2    4    4    0    0 -0.13334293398E+03 -0.10035342237E+03 -0.65638812617E+02  0.19758882613E+03  0.82956272006E+02 0.  0.
         13    1    3    3    0    0  0.12771372983E+04 -0.90058415964E+03  0.33546014452E+03  0.15983319480E+04  0.00000000000E+00 0. -1.
        -13    1    3    3    0    0  0.38288453004E+03 -0.30373841905E+03  0.14959958711E+03  0.51111410372E+03  0.00000000000E+00 0.  1.
          4    1    6    6  502    0 -0.12473280665E+03 -0.48752531820E+02 -0.43845783498E+02  0.14091676673E+03  0.00000000000E+00 0. -1.
          3    1    5    5  503    0 -0.11003256248E+03  0.97380174410E+02 -0.15167548543E+03  0.21117650451E+03  0.00000000000E+00 0. -1.
         -4    1    5    5    0  503 -0.14166463319E+04  0.12072958267E+04 -0.23419117037E+04  0.29914880027E+04  0.00000000000E+00 0.  1.
         -3    1    6    6    0  502 -0.86101273217E+01 -0.51600890551E+02 -0.21793029119E+02  0.56672059397E+02  0.00000000000E+00 0.  1.
<mgrwt>
<rscale>  0 0.51043728E+04</rscale>
<asrwt>0</asrwt>
<pdfrwt beam="1">  1        1 0.58337427E+00 0.51043728E+04</pdfrwt>
<pdfrwt beam="2">  1       -1 0.26427178E+00 0.51043728E+04</pdfrwt>
<totfact> 0.58210431E-03</totfact>
</mgrwt>
</event>
<event>
12    1  0.2588309E-007  0.1989528E+04  0.7818608E-02  0.8611532E-01
          1   -1    0    0  501    0  0.00000000000E+00  0.00000000000E+00  0.23730724445E+04  0.23730724445E+04  0.00000000000E+00 0. -1.
         -1   -1    0    0    0  501 -0.00000000000E+00 -0.00000000000E+00 -0.41699333898E+03  0.41699333898E+03  0.00000000000E+00 0.  1.
         23    2    1    2    0    0 -0.76848116806E+03  0.98358724185E+02  0.58881945937E+03  0.97754125928E+03  0.92955976499E+02 0.  0.
        254    2    1    2    0    0  0.76848116806E+03 -0.98358724185E+02  0.13672596461E+04  0.18125245242E+04  0.90311043984E+03 0.  0.
        -24    2    4    4    0    0  0.57421306842E+03 -0.29533034059E+03  0.13787460467E+04  0.15245873069E+04  0.80530348465E+02 0.  0.
         24    2    4    4    0    0  0.19426809965E+03  0.19697161640E+03 -0.11486400629E+02  0.28793721725E+03  0.78980956365E+02 0.  0.
         13    1    3    3    0    0 -0.11517259687E+03  0.48138650132E+02  0.10328866111E+03  0.16202038211E+03  0.00000000000E+00 0. -1.
        -13    1    3    3    0    0 -0.65330857119E+03  0.50220074053E+02  0.48553079827E+03  0.81552087717E+03  0.00000000000E+00 0.  1.
          4    1    6    6  502    0  0.22378046309E+02  0.59089229074E+02  0.17793148677E+02  0.65642288876E+02  0.00000000000E+00 0. -1.
          3    1    5    5  503    0  0.24393395909E+03 -0.92105421653E+02  0.49416636354E+03  0.55873748751E+03  0.00000000000E+00 0. -1.
         -4    1    5    5    0  503  0.33027910933E+03 -0.20322491893E+03  0.88457968320E+03  0.96584981942E+03  0.00000000000E+00 0.  1.
         -3    1    6    6    0  502  0.17189005334E+03  0.13788238733E+03 -0.29279549305E+02  0.22229492837E+03  0.00000000000E+00 0.  1.
<mgrwt>
<rscale>  0 0.19895280E+04</rscale>
<asrwt>0</asrwt>
<pdfrwt beam="1">  1        1 0.36508806E+00 0.19895280E+04</pdfrwt>
<pdfrwt beam="2">  1       -1 0.64152823E-01 0.19895280E+04</pdfrwt>
<totfact> 0.37943574E+00</totfact>
</mgrwt>
</event>
<event>
12    1  0.2588309E-007  0.1475035E+04  0.7818608E-02  0.8901226E-01
          2   -1    0    0  501    0  0.00000000000E+00  0.00000000000E+00  0.50228844966E+03  0.50228844966E+03  0.00000000000E+00 0. -1.
         -2   -1    0    0    0  501 -0.00000000000E+00 -0.00000000000E+00 -0.10829080934E+04  0.10829080934E+04  0.00000000000E+00 0.  1.
         23    2    1    2    0    0 -0.43676429372E+03 -0.22562393188E+02 -0.44347441510E+02  0.44892116338E+03  0.91057155165E+02 0.  0.
        254    2    1    2    0    0  0.43676429372E+03  0.22562393188E+02 -0.53627220223E+03  0.11362753797E+04  0.90125565391E+03 0.  0.
        -24    2    4    4    0    0 -0.11138821906E+03 -0.28562501437E+03 -0.17331498285E+02  0.31709806489E+03  0.79131648212E+02 0.  0.
         24    2    4    4    0    0  0.54815251279E+03  0.30818740755E+03 -0.51894070394E+03  0.81917731478E+03  0.79381127401E+02 0.  0.
         13    1    3    3    0    0 -0.41747189493E+02  0.12672044617E+02  0.18497261050E+02  0.47387310661E+02  0.00000000000E+00 0. -1.
        -13    1    3    3    0    0 -0.39501710423E+03 -0.35234437805E+02 -0.62844702560E+02  0.40153385272E+03  0.00000000000E+00 0.  1.
          4    1    6    6  502    0  0.10626125326E+03  0.43581545479E+02 -0.61340042944E+02  0.13020524536E+03  0.00000000000E+00 0. -1.
          3    1    5    5  503    0 -0.10559705180E+03 -0.18392687122E+03 -0.30942568090E+02  0.21432982487E+03  0.00000000000E+00 0. -1.
         -4    1    5    5    0  503 -0.57911672612E+01 -0.10169814314E+03  0.13611069805E+02  0.10276824003E+03  0.00000000000E+00 0.  1.
         -3    1    6    6    0  502  0.44189125952E+03  0.26460586207E+03 -0.45760066100E+03  0.68897206941E+03  0.00000000000E+00 0.  1.
<mgrwt>
<rscale>  0 0.14750352E+04</rscale>
<asrwt>0</asrwt>
<pdfrwt beam="1">  1        2 0.77275147E-01 0.14750352E+04</pdfrwt>
<pdfrwt beam="2">  1       -2 0.16660124E+00 0.14750352E+04</pdfrwt>
<totfact> 0.13352004E+01</totfact>
</mgrwt>
</event>
<event>
12    1  0.2588309E-007  0.1139674E+04  0.7818608E-02  0.9167363E-01
         -2   -1    0    0    0  501 -0.00000000000E+00  0.00000000000E+00  0.31362788874E+03  0.31362788874E+03  0.00000000000E+00 0. -1.
          2   -1    0    0  501    0  0.00000000000E+00 -0.00000000000E+00 -0.10353481009E+04  0.10353481009E+04  0.00000000000E+00 0.  1.
         23    2    1    2    0    0  0.11418661372E+03 -0.15324320493E+03 -0.19606270027E+03  0.28840856589E+03  0.90646874383E+02 0.  0.
        254    2    1    2    0    0 -0.11418661372E+03  0.15324320493E+03 -0.52565751185E+03  0.10605674237E+04  0.90109121506E+03 0.  0.
        -24    2    4    4    0    0  0.13486075174E+03 -0.19620642739E+03 -0.56927907382E+03  0.62206303244E+03  0.78736064939E+02 0.  0.
         24    2    4    4    0    0 -0.24904736546E+03  0.34944963232E+03  0.43621561972E+02  0.43850439127E+03  0.79016610437E+02 0.  0.
         11    1    3    3    0    0  0.58882235113E+02 -0.97191014261E+02 -0.53623447373E+02  0.12565303408E+03  0.00000000000E+00 0. -1.
        -11    1    3    3    0    0  0.55304378602E+02 -0.56052190671E+02 -0.14243925289E+03  0.16275553181E+03  0.00000000000E+00 0.  1.
          2    1    6    6  502    0 -0.68820987620E+02  0.67571126528E+02  0.38632308597E+02  0.10389726053E+03  0.00000000000E+00 0. -1.
          3    1    5    5  503    0 -0.36741937777E+00 -0.18592669406E+02 -0.10820102534E+03  0.10978745027E+03  0.00000000000E+00 0. -1.
         -2    1    5    5    0  503  0.13522817112E+03 -0.17761375799E+03 -0.46107804849E+03  0.51227558217E+03  0.00000000000E+00 0.  1.
         -1    1    6    6    0  502 -0.18022637784E+03  0.28187850580E+03  0.49892533749E+01  0.33460713075E+03  0.00000000000E+00 0.  1.
<mgrwt>
<rscale>  0 0.11396737E+04</rscale>
<asrwt>0</asrwt>
<pdfrwt beam="1">  1        2 0.15928432E+00 0.11396737E+04</pdfrwt>
<pdfrwt beam="2">  1       -2 0.48250444E-01 0.11396737E+04</pdfrwt>
<totfact> 0.96345773E+01</totfact>
</mgrwt>
</event>
<event>
12    1  0.2588309E-007  0.1590220E+04  0.7818608E-02  0.8826579E-01
          1   -1    0    0  501    0  0.00000000000E+00  0.00000000000E+00  0.14316173108E+04  0.14316173108E+04  0.00000000000E+00 0. -1.
         -1   -1    0    0    0  501 -0.00000000000E+00 -0.00000000000E+00 -0.44159845888E+03  0.44159845888E+03  0.00000000000E+00 0.  1.
         23    2    1    2    0    0 -0.12299922020E+03 -0.35752120271E+03  0.78004574619E+03  0.87121426763E+03  0.87136188852E+02 0.  0.
        254    2    1    2    0    0  0.12299922020E+03  0.35752120271E+03  0.20997310572E+03  0.10020015020E+04  0.90386286926E+03 0.  0.
        -24    2    4    4    0    0  0.94532066023E+02 -0.26451687683E+03  0.23021199547E+03  0.37394015626E+03  0.89040372682E+02 0.  0.
         24    2    4    4    0    0  0.28467154178E+02  0.62203807955E+03 -0.20238889755E+02  0.62806134579E+03  0.79433558054E+02 0.  0.
         13    1    3    3    0    0 -0.85184305820E+02 -0.16876762051E+03  0.46568227615E+03  0.50259213883E+03  0.00000000000E+00 0. -1.
        -13    1    3    3    0    0 -0.37814914380E+02 -0.18875358221E+03  0.31436347004E+03  0.36862212880E+03  0.00000000000E+00 0.  1.
          2    1    6    6  502    0  0.38990014678E+02  0.46894045033E+03  0.14251535610E+02  0.47077433391E+03  0.00000000000E+00 0. -1.
          1    1    5    5  503    0  0.57929904148E+02 -0.85839375191E+02  0.41699993935E+02  0.11163853108E+03  0.00000000000E+00 0. -1.
         -2    1    5    5    0  503  0.36602161875E+02 -0.17867750164E+03  0.18851200154E+03  0.26230162518E+03  0.00000000000E+00 0.  1.
         -1    1    6    6    0  502 -0.10522860500E+02  0.15309762922E+03 -0.34490425365E+02  0.15728701188E+03  0.00000000000E+00 0.  1.
<mgrwt>
<rscale>  0 0.15902201E+04</rscale>
<asrwt>0</asrwt>
<pdfrwt beam="1">  1        1 0.22024882E+00 0.15902201E+04</pdfrwt>
<pdfrwt beam="2">  1       -1 0.67938225E-01 0.15902201E+04</pdfrwt>
<totfact> 0.15377735E+01</totfact>
</mgrwt>
</event>
<event>
12    1  0.2588309E-007  0.2940678E+04  0.7818608E-02  0.8260877E-01
         -2   -1    0    0    0  501 -0.00000000000E+00  0.00000000000E+00  0.64950169987E+03  0.64950169987E+03  0.00000000000E+00 0.  1.
          2   -1    0    0  501    0  0.00000000000E+00 -0.00000000000E+00 -0.33285459882E+04  0.33285459882E+04  0.00000000000E+00 0. -1.
         23    2    1    2    0    0 -0.49552064081E+03 -0.12223737016E+04 -0.97597213604E+03  0.16435054888E+04  0.94077146649E+02 0.  0.
        254    2    1    2    0    0  0.49552064081E+03  0.12223737016E+04 -0.17030721523E+04  0.23345421993E+04  0.89994130501E+03 0.  0.
        -24    2    4    4    0    0  0.16911871526E+03  0.51701808468E+03 -0.13870648578E+04  0.14924680939E+04  0.87196626425E+02 0.  0.
         24    2    4    4    0    0  0.32640192555E+03  0.70535561692E+03 -0.31600729450E+03  0.84207410544E+03  0.71856979860E+02 0.  0.
         13    1    3    3    0    0 -0.22837434616E+03 -0.67214357910E+03 -0.55283490398E+03  0.89975455763E+03  0.00000000000E+00 0. -1.
        -13    1    3    3    0    0 -0.26714629465E+03 -0.55023012250E+03 -0.42313723206E+03  0.74375093116E+03  0.00000000000E+00 0.  1.
          2    1    6    6  502    0  0.52519226663E+01  0.34771793533E+00 -0.50302998673E+01  0.72806260864E+01  0.00000000000E+00 0. -1.
          3    1    5    5  503    0 -0.23289004102E+01  0.96747604672E+02 -0.22713126568E+03  0.24688891153E+03  0.00000000000E+00 0. -1.
         -4    1    5    5    0  503  0.17144761567E+03  0.42027048001E+03 -0.11599335921E+04  0.12455791823E+04  0.00000000000E+00 0.  1.
         -1    1    6    6    0  502  0.32115000288E+03  0.70500789898E+03 -0.31097699463E+03  0.83479347935E+03  0.00000000000E+00 0.  1.
<mgrwt>
<rscale>  0 0.29406777E+04</rscale>
<asrwt>0</asrwt>
<pdfrwt beam="1">  1        2 0.51208400E+00 0.29406777E+04</pdfrwt>
<pdfrwt beam="2">  1       -2 0.99923338E-01 0.29406777E+04</pdfrwt>
<totfact> 0.75822800E-01</totfact>
</mgrwt>
</event>
<event>
12    1  0.2588309E-007  0.1440758E+04  0.7818608E-02  0.8924833E-01
         -1   -1    0    0    0  501 -0.00000000000E+00  0.00000000000E+00  0.22175770732E+03  0.22175770732E+03  0.00000000000E+00 0.  1.
          1   -1    0    0  501    0  0.00000000000E+00 -0.00000000000E+00 -0.23401477047E+04  0.23401477047E+04  0.00000000000E+00 0. -1.
         23    2    1    2    0    0 -0.35376115473E+03 -0.75153890382E+02 -0.23077979675E+03  0.43968779928E+03  0.96285951257E+02 0.  0.
        254    2    1    2    0    0  0.35376115473E+03  0.75153890382E+02 -0.18876102006E+04  0.21222176127E+04  0.89996681299E+03 0.  0.
        -24    2    4    4    0    0  0.61015251662E+03  0.13027163924E+03 -0.16243290666E+04  0.17418652211E+04  0.79954602050E+02 0.  0.
         24    2    4    4    0    0 -0.25639136188E+03 -0.55117748861E+02 -0.26328113399E+03  0.38035239160E+03  0.81095558390E+02 0.  0.
         13    1    3    3    0    0 -0.19474482015E+03  0.71919884655E+01 -0.12910571175E+03  0.23376388618E+03  0.00000000000E+00 0.  1.
        -13    1    3    3    0    0 -0.15901633458E+03 -0.82345878847E+02 -0.10167408500E+03  0.20592391311E+03  0.00000000000E+00 0. -1.
          2    1    6    6  502    0 -0.16212577892E+03 -0.88729582663E+01 -0.20056459742E+03  0.25804971482E+03  0.00000000000E+00 0. -1.
          3    1    5    5  503    0  0.60593509085E+02 -0.14468065741E+01 -0.11114726213E+03  0.12659929096E+03  0.00000000000E+00 0. -1.
         -4    1    5    5    0  503  0.54955900753E+03  0.13171844582E+03 -0.15131818045E+04  0.16152659302E+04  0.00000000000E+00 0.  1.
         -1    1    6    6    0  502 -0.94265582961E+02 -0.46244790595E+02 -0.62716536575E+02  0.12230267678E+03  0.00000000000E+00 0.  1.
<mgrwt>
<rscale>  0 0.14407578E+04</rscale>
<asrwt>0</asrwt>
<pdfrwt beam="1">  1        1 0.36002272E+00 0.14407578E+04</pdfrwt>
<pdfrwt beam="2">  1       -1 0.34116571E-01 0.14407578E+04</pdfrwt>
<totfact> 0.13822406E+01</totfact>
</mgrwt>
</event>
<event>
12    1  0.2588309E-007  0.3731225E+04  0.7818608E-02  0.8061077E-01
          2   -1    0    0  501    0  0.00000000000E+00  0.00000000000E+00  0.24514515263E+04  0.24514515263E+04  0.00000000000E+00 0.  1.
         -2   -1    0    0    0  501 -0.00000000000E+00 -0.00000000000E+00 -0.14197751803E+04  0.14197751803E+04  0.00000000000E+00 0. -1.
         23    2    1    2    0    0 -0.10897108173E+04 -0.11344767394E+04  0.12952120141E+04  0.20396970011E+04  0.91008555490E+02 0.  0.
        254    2    1    2    0    0  0.10897108173E+04  0.11344767394E+04 -0.26353566817E+03  0.18315297055E+04  0.90030154732E+03 0.  0.
        -24    2    4    4    0    0  0.74007982168E+03  0.43729956085E+03  0.24420226619E+03  0.89712699027E+03  0.79076175225E+02 0.  0.
         24    2    4    4    0    0  0.34963099566E+03  0.69717717857E+03 -0.50773793436E+03  0.93440271524E+03  0.83742300103E+02 0.  0.
         13    1    3    3    0    0 -0.30579693641E+03 -0.30855407172E+03  0.41056327099E+03  0.59772868509E+03  0.00000000000E+00 0. -1.
        -13    1    3    3    0    0 -0.78391388093E+03 -0.82592266769E+03  0.88464874312E+03  0.14419683160E+04  0.00000000000E+00 0.  1.
          4    1    6    6  502    0  0.33766572415E+03  0.66960870721E+03 -0.50523929447E+03  0.90424593265E+03  0.00000000000E+00 0. -1.
          1    1    5    5  503    0  0.66513321846E+03  0.40255610483E+03  0.19720985058E+03  0.80208811299E+03  0.00000000000E+00 0. -1.
         -4    1    5    5    0  503  0.74946603215E+02  0.34743456021E+02  0.46992415611E+02  0.95038877281E+02  0.00000000000E+00 0.  1.
         -3    1    6    6    0  502  0.11965271510E+02  0.27568471358E+02 -0.24986398950E+01  0.30156782598E+02  0.00000000000E+00 0.  1.
<mgrwt>
<rscale>  0 0.37312250E+04</rscale>
<asrwt>0</asrwt>
<pdfrwt beam="1">  1        2 0.37714639E+00 0.37312250E+04</pdfrwt>
<pdfrwt beam="2">  1       -2 0.21842695E+00 0.37312250E+04</pdfrwt>
<totfact> 0.30283384E-01</totfact>
</mgrwt>
</event>
<event>
12    1  0.2588309E-007  0.1669549E+04  0.7818608E-02  0.8778925E-01
          1   -1    0    0  501    0  0.00000000000E+00  0.00000000000E+00  0.11141886437E+04  0.11141886437E+04  0.00000000000E+00 0. -1.
         -1   -1    0    0    0  501 -0.00000000000E+00 -0.00000000000E+00 -0.62543139400E+03  0.62543139400E+03  0.00000000000E+00 0.  1.
         23    2    1    2    0    0  0.52245667569E+03 -0.17319284762E+03 -0.43233756438E+02  0.55952004212E+03  0.90756704459E+02 0.  0.
        254    2    1    2    0    0 -0.52245667569E+03  0.17319284762E+03  0.53199100616E+03  0.11800999956E+04  0.89814521572E+03 0.  0.
        -24    2    4    4    0    0  0.44710562078E+02  0.25889185307E+03  0.53480468487E+03  0.60107913555E+03  0.79095197652E+02 0.  0.
         24    2    4    4    0    0 -0.56716723776E+03 -0.85699005444E+02 -0.28136787091E+01  0.57902086004E+03  0.78957231769E+02 0.  0.
         13    1    3    3    0    0  0.42544236238E+03 -0.15728530085E+03 -0.66659860282E+02  0.45845763877E+03  0.00000000000E+00 0.  1.
        -13    1    3    3    0    0  0.97014313302E+02 -0.15907546771E+02  0.23426103845E+02  0.10106240335E+03  0.00000000000E+00 0. -1.
          2    1    6    6  502    0 -0.27043044813E+03 -0.44455779282E+02  0.37934898308E+02  0.27667309247E+03  0.00000000000E+00 0. -1.
          1    1    5    5  503    0 -0.12806631333E+02  0.12079677158E+03  0.19407051826E+03  0.22895247517E+03  0.00000000000E+00 0. -1.
         -2    1    5    5    0  503  0.57517193411E+02  0.13809508148E+03  0.34073416661E+03  0.37212666038E+03  0.00000000000E+00 0.  1.
         -1    1    6    6    0  502 -0.29673678964E+03 -0.41243226161E+02 -0.40748577017E+02  0.30234776758E+03  0.00000000000E+00 0.  1.
<mgrwt>
<rscale>  0 0.16695491E+04</rscale>
<asrwt>0</asrwt>
<pdfrwt beam="1">  1        1 0.17141364E+00 0.16695491E+04</pdfrwt>
<pdfrwt beam="2">  1       -1 0.96220215E-01 0.16695491E+04</pdfrwt>
<totfact> 0.12280965E+01</totfact>
</mgrwt>
</event>
<event>
12    1  0.2588309E-007  0.2053721E+04  0.7818608E-02  0.8581908E-01
          1   -1    0    0  501    0  0.00000000000E+00  0.00000000000E+00  0.19822198021E+04  0.19822198021E+04  0.00000000000E+00 0. -1.
         -1   -1    0    0    0  501 -0.00000000000E+00 -0.00000000000E+00 -0.53195057105E+03  0.53195057105E+03  0.00000000000E+00 0.  1.
         23    2    1    2    0    0 -0.22918533513E+03  0.55577272214E+03 -0.10821872282E+03  0.61716113575E+03  0.88132508148E+02 0.  0.
        254    2    1    2    0    0  0.22918533513E+03 -0.55577272214E+03  0.15584879538E+04  0.18970092374E+04  0.89908292605E+03 0.  0.
        -24    2    4    4    0    0  0.37646304979E+03 -0.60048344452E+03  0.15707461105E+04  0.17250908961E+04  0.79940360029E+02 0.  0.
         24    2    4    4    0    0 -0.14727771465E+03  0.44710722388E+02 -0.12258156711E+02  0.17191834123E+03  0.75603437200E+02 0.  0.
         13    1    3    3    0    0 -0.17260252864E+02  0.13831779940E+03 -0.27843636175E+02  0.14214428597E+03  0.00000000000E+00 0.  1.
        -13    1    3    3    0    0 -0.21192508227E+03  0.41745492274E+03 -0.80375086649E+02  0.47501684978E+03  0.00000000000E+00 0. -1.
          4    1    6    6  502    0 -0.24625780465E+02  0.30919867098E+02  0.20067978305E+02  0.44330474824E+02  0.00000000000E+00 0. -1.
          1    1    5    5  503    0  0.68464598378E+01 -0.45831512660E+02  0.11641123861E+03  0.12529556273E+03  0.00000000000E+00 0. -1.
         -2    1    5    5    0  503  0.36961658995E+03 -0.55465193187E+03  0.14543348719E+04  0.15997953334E+04  0.00000000000E+00 0.  1.
         -3    1    6    6    0  502 -0.12265193419E+03  0.13790855290E+02 -0.32326135016E+02  0.12758786641E+03  0.00000000000E+00 0.  1.
<mgrwt>
<rscale>  0 0.20537215E+04</rscale>
<asrwt>0</asrwt>
<pdfrwt beam="1">  1        1 0.30495689E+00 0.20537215E+04</pdfrwt>
<pdfrwt beam="2">  1       -1 0.81838550E-01 0.20537215E+04</pdfrwt>
<totfact> 0.42033085E+00</totfact>
</mgrwt>
</event>
<event>
12    1  0.2588309E-007  0.1399206E+04  0.7818608E-02  0.8954394E-01
         -2   -1    0    0    0  501 -0.00000000000E+00  0.00000000000E+00  0.25149323641E+03  0.25149323641E+03  0.00000000000E+00 0.  1.
          2   -1    0    0  501    0  0.00000000000E+00 -0.00000000000E+00 -0.19461518356E+04  0.19461518356E+04  0.00000000000E+00 0. -1.
         23    2    1    2    0    0  0.30971944371E+03 -0.25698416065E+03 -0.44143683559E+03  0.60333198660E+03  0.84711354612E+02 0.  0.
        254    2    1    2    0    0 -0.30971944371E+03  0.25698416065E+03 -0.12532217636E+04  0.15943130854E+04  0.89961237927E+03 0.  0.
        -24    2    4    4    0    0 -0.51693541007E+03  0.77309114277E+02 -0.11893547027E+04  0.13015794385E+04  0.79658700696E+02 0.  0.
         24    2    4    4    0    0  0.20721596636E+03  0.17967504638E+03 -0.63867060866E+02  0.29273364687E+03  0.79952533068E+02 0.  0.
         11    1    3    3    0    0  0.29692466172E+02 -0.85983072832E+01 -0.67486839193E+02  0.74229690150E+02  0.00000000000E+00 0. -1.
        -11    1    3    3    0    0  0.28002697754E+03 -0.24838585337E+03 -0.37394999640E+03  0.52910229645E+03  0.00000000000E+00 0.  1.
          4    1    6    6  502    0  0.23357344235E+02  0.35984580915E+02  0.16456654427E+02  0.45948635108E+02  0.00000000000E+00 0. -1.
          1    1    5    5  503    0 -0.95552135965E+02  0.10383346463E+02 -0.30299100465E+03  0.31787037212E+03  0.00000000000E+00 0. -1.
         -2    1    5    5    0  503 -0.42138327410E+03  0.66925767814E+02 -0.88636369807E+03  0.98370906642E+03  0.00000000000E+00 0.  1.
         -3    1    6    6    0  502  0.18385862212E+03  0.14369046546E+03 -0.80323715293E+02  0.24678501177E+03  0.00000000000E+00 0.  1.
<mgrwt>
<rscale>  0 0.13992055E+04</rscale>
<asrwt>0</asrwt>
<pdfrwt beam="1">  1        2 0.29940798E+00 0.13992055E+04</pdfrwt>
<pdfrwt beam="2">  1       -2 0.38691267E-01 0.13992055E+04</pdfrwt>
<totfact> 0.43994827E+01</totfact>
</mgrwt>
</event>
<event>
12    1  0.2588309E-007  0.2216096E+04  0.7818608E-02  0.8511758E-01
          2   -1    0    0  501    0  0.00000000000E+00  0.00000000000E+00  0.15197837940E+04  0.15197837940E+04  0.00000000000E+00 0. -1.
         -2   -1    0    0    0  501 -0.00000000000E+00 -0.00000000000E+00 -0.80785832529E+03  0.80785832529E+03  0.00000000000E+00 0.  1.
         23    2    1    2    0    0  0.39071264900E+02 -0.87199844065E+03 -0.14297010831E+02  0.87859700382E+03  0.99098165258E+02 0.  0.
        254    2    1    2    0    0 -0.39071264900E+02  0.87199844065E+03  0.72622247957E+03  0.14490451155E+04  0.90023597612E+03 0.  0.
        -24    2    4    4    0    0 -0.15323643894E+03  0.69403386092E+03  0.29483883261E+02  0.71586461075E+03  0.80177523202E+02 0.  0.
         24    2    4    4    0    0  0.11416517404E+03  0.17796457973E+03  0.69673859631E+03  0.73318050475E+03  0.86045931680E+02 0.  0.
         11    1    3    3    0    0 -0.32491714969E+02 -0.23203442486E+03 -0.12699989991E+02  0.23464222895E+03  0.00000000000E+00 0. -1.
        -11    1    3    3    0    0  0.71562979869E+02 -0.63996401579E+03 -0.15970208400E+01  0.64395477486E+03  0.00000000000E+00 0.  1.
          4    1    6    6  502    0  0.50126535702E+02  0.46232852482E+02  0.35315259620E+03  0.35967610767E+03  0.00000000000E+00 0. -1.
          3    1    5    5  503    0 -0.11552744441E+03  0.55443417357E+03  0.55076414775E+02  0.56901428339E+03  0.00000000000E+00 0. -1.
         -4    1    5    5    0  503 -0.37708994529E+02  0.13959968735E+03 -0.25592531515E+02  0.14685032736E+03  0.00000000000E+00 0.  1.
         -3    1    6    6    0  502  0.64038638342E+02  0.13173172725E+03  0.34358600011E+03  0.37350439708E+03  0.00000000000E+00 0.  1.
<mgrwt>
<rscale>  0 0.22160957E+04</rscale>
<asrwt>0</asrwt>
<pdfrwt beam="1">  1        2 0.23381289E+00 0.22160957E+04</pdfrwt>
<pdfrwt beam="2">  1       -2 0.12428590E+00 0.22160957E+04</pdfrwt>
<totfact> 0.54942027E+00</totfact>
</mgrwt>
</event>
<event>
12    1  0.2588309E-007  0.3311598E+04  0.7818608E-02  0.8159950E-01
         -1   -1    0    0    0  501 -0.00000000000E+00  0.00000000000E+00  0.17588151742E+04  0.17588151742E+04  0.00000000000E+00 0.  1.
          1   -1    0    0  501    0  0.00000000000E+00 -0.00000000000E+00 -0.15588168779E+04  0.15588168779E+04  0.00000000000E+00 0. -1.
         23    2    1    2    0    0  0.41028035662E+02 -0.79163352973E+03 -0.12213315252E+04  0.14589494447E+04  0.92281323684E+02 0.  0.
        254    2    1    2    0    0 -0.41028035662E+02  0.79163352973E+03  0.14213298214E+04  0.18586826074E+04  0.89786169796E+03 0.  0.
        -24    2    4    4    0    0  0.31852511680E+03  0.55048211826E+01  0.34926453905E+03  0.47930136195E+03  0.79091872120E+02 0.  0.
         24    2    4    4    0    0 -0.35955315247E+03  0.78612870855E+03  0.10720652824E+04  0.13793812454E+04  0.78050206722E+02 0.  0.
         11    1    3    3    0    0  0.44837937801E+02 -0.43134836878E+03 -0.73980087771E+03  0.85754136610E+03  0.00000000000E+00 0. -1.
        -11    1    3    3    0    0 -0.38099021386E+01 -0.36028516095E+03 -0.48153064748E+03  0.60140807861E+03  0.00000000000E+00 0.  1.
          4    1    6    6  502    0 -0.26864978303E+03  0.59709080256E+03  0.86260485875E+03  0.10829484174E+04  0.00000000000E+00 0. -1.
          1    1    5    5  503    0  0.12877459702E+03  0.91063310297E+00  0.86413979121E+02  0.15508417675E+03  0.00000000000E+00 0. -1.
         -2    1    5    5    0  503  0.18975051978E+03  0.45941880796E+01  0.26285055993E+03  0.32421718520E+03  0.00000000000E+00 0.  1.
         -3    1    6    6    0  502 -0.90903369435E+02  0.18903790599E+03  0.20946042361E+03  0.29643282803E+03  0.00000000000E+00 0.  1.
<mgrwt>
<rscale>  0 0.33115983E+04</rscale>
<asrwt>0</asrwt>
<pdfrwt beam="1">  1        1 0.23981798E+00 0.33115983E+04</pdfrwt>
<pdfrwt beam="2">  1       -1 0.27058695E+00 0.33115983E+04</pdfrwt>
<totfact> 0.25284904E-01</totfact>
</mgrwt>
</event>
<event>
12    1  0.5865211E-007  0.3713417E+04  0.7818608E-02  0.8064995E-01
         -2   -1    0    0    0  501 -0.00000000000E+00  0.00000000000E+00  0.13207338260E+04  0.13207338260E+04  0.00000000000E+00 0.  1.
          2   -1    0    0  501    0  0.00000000000E+00 -0.00000000000E+00 -0.26101897833E+04  0.26101897833E+04  0.00000000000E+00 0. -1.
         23    2    1    2    0    0 -0.17250197473E+04 -0.10866889736E+03 -0.32437796131E+03  0.17609824626E+04  0.91302321833E+02 0.  0.
        254    2    1    2    0    0  0.17250197473E+04  0.10866889736E+03 -0.96507799605E+03  0.21699411467E+04  0.88868835024E+03 0.  0.
        -24    2    4    4    0    0  0.23062469336E+03 -0.29953274706E+03 -0.26263948083E+03  0.46710955233E+03  0.79399126184E+02 0.  0.
         24    2    4    4    0    0  0.14943950539E+04  0.40820164442E+03 -0.70243851522E+03  0.17028315944E+04  0.79814856797E+02 0.  0.
         13    1    3    3    0    0 -0.11183131997E+04 -0.31171729644E+02 -0.22921576292E+03  0.11419877211E+04  0.00000000000E+00 0.  1.
        -13    1    3    3    0    0 -0.60670654763E+03 -0.77497167718E+02 -0.95162198399E+02  0.61899474145E+03  0.00000000000E+00 0. -1.
          4    1    6    6  502    0  0.12857710902E+04  0.33398247739E+03 -0.57699704755E+03  0.14483360054E+04  0.00000000000E+00 0. -1.
          3    1    5    5  503    0  0.16789441245E+03 -0.21462441648E+03 -0.23007809607E+03  0.35663441249E+03  0.00000000000E+00 0. -1.
         -4    1    5    5    0  503  0.62730280909E+02 -0.84908330581E+02 -0.32561384758E+02  0.11047513984E+03  0.00000000000E+00 0.  1.
         -3    1    6    6    0  502  0.20862396368E+03  0.74219167036E+02 -0.12544146767E+03  0.25449558894E+03  0.00000000000E+00 0.  1.
<mgrwt>
<rscale>  0 0.37134167E+04</rscale>
<asrwt>0</asrwt>
<pdfrwt beam="1">  1        2 0.40156765E+00 0.37134167E+04</pdfrwt>
<pdfrwt beam="2">  1       -2 0.20318982E+00 0.37134167E+04</pdfrwt>
<totfact> 0.30717854E-01</totfact>
</mgrwt>
</event>
<event>
12    1  0.2588309E-007  0.1857149E+04  0.7818608E-02  0.8676485E-01
          1   -1    0    0  501    0  0.00000000000E+00  0.00000000000E+00  0.10656063094E+04  0.10656063094E+04  0.00000000000E+00 0. -1.
         -1   -1    0    0    0  501 -0.00000000000E+00 -0.00000000000E+00 -0.80916402910E+03  0.80916402910E+03  0.00000000000E+00 0.  1.
         23    2    1    2    0    0 -0.32557582596E+03  0.61421930358E+03  0.27863765669E+03  0.75441033167E+03  0.90725043268E+02 0.  0.
        254    2    1    2    0    0  0.32557582596E+03 -0.61421930358E+03 -0.22195376359E+02  0.11203600069E+04  0.87832166027E+03 0.  0.
        -24    2    4    4    0    0 -0.41527127282E+02 -0.39893115496E+03  0.35853889172E+03  0.54377311689E+03  0.79173840914E+02 0.  0.
         24    2    4    4    0    0  0.36710295324E+03 -0.21528814862E+03 -0.38073426808E+03  0.57658688997E+03  0.79876739902E+02 0.  0.
         11    1    3    3    0    0 -0.12248826788E+03  0.28269177589E+03  0.82456515823E+02  0.31893117271E+03  0.00000000000E+00 0.  1.
        -11    1    3    3    0    0 -0.20308755808E+03  0.33152752768E+03  0.19618114086E+03  0.43547915896E+03  0.00000000000E+00 0. -1.
          2    1    6    6  502    0  0.33301326384E+03 -0.20571776461E+03 -0.31706268209E+03  0.50373244580E+03  0.00000000000E+00 0. -1.
          1    1    5    5  503    0 -0.25254497346E+02 -0.38858920826E+03  0.34449932842E+03  0.51992225351E+03  0.00000000000E+00 0. -1.
         -2    1    5    5    0  503 -0.16272629936E+02 -0.10341946696E+02  0.14039563302E+02  0.23850863385E+02  0.00000000000E+00 0.  1.
         -1    1    6    6    0  502  0.34089689398E+02 -0.95703840084E+01 -0.63671585987E+02  0.72854444170E+02  0.00000000000E+00 0.  1.
<mgrwt>
<rscale>  0 0.18571487E+04</rscale>
<asrwt>0</asrwt>
<pdfrwt beam="1">  1        1 0.16393943E+00 0.18571487E+04</pdfrwt>
<pdfrwt beam="2">  1       -1 0.12448677E+00 0.18571487E+04</pdfrwt>
<totfact> 0.71491780E+00</totfact>
</mgrwt>
</event>
<event>
12    1  0.2588309E-007  0.1288125E+04  0.7818608E-02  0.9039035E-01
          1   -1    0    0  501    0  0.00000000000E+00  0.00000000000E+00  0.66755216490E+03  0.66755216490E+03  0.00000000000E+00 0. -1.
         -1   -1    0    0    0  501 -0.00000000000E+00 -0.00000000000E+00 -0.62139939216E+03  0.62139939216E+03  0.00000000000E+00 0.  1.
         23    2    1    2    0    0 -0.19447468365E+03  0.21463477637E+03  0.10447023608E+03  0.32126629991E+03  0.91703410112E+02 0.  0.
        254    2    1    2    0    0  0.19447468365E+03 -0.21463477637E+03 -0.58317463340E+02  0.96768525716E+03  0.92147997297E+03 0.  0.
        -24    2    4    4    0    0  0.43623141008E+03  0.15255802456E+02  0.24735415974E+03  0.50794443621E+03  0.79327720807E+02 0.  0.
         24    2    4    4    0    0 -0.24175672643E+03 -0.22989057882E+03 -0.30567162308E+03  0.45974082095E+03  0.81427810248E+02 0.  0.
         13    1    3    3    0    0 -0.33851744239E+02  0.74503347131E+02  0.64948570462E+02  0.10447490668E+03  0.00000000000E+00 0. -1.
        -13    1    3    3    0    0 -0.16062293941E+03  0.14013142924E+03  0.39521665617E+02  0.21679139322E+03  0.00000000000E+00 0.  1.
          4    1    6    6  502    0 -0.14756362890E+03 -0.13226054965E+03 -0.23289766935E+03  0.30579274347E+03  0.00000000000E+00 0. -1.
          3    1    5    5  503    0  0.87666204489E+02  0.12731544389E+01  0.88690563920E+02  0.12471166930E+03  0.00000000000E+00 0. -1.
         -4    1    5    5    0  503  0.34856520559E+03  0.13982648017E+02  0.15866359582E+03  0.38323276691E+03  0.00000000000E+00 0.  1.
         -3    1    6    6    0  502 -0.94193097529E+02 -0.97630029169E+02 -0.72773953732E+02  0.15394807748E+03  0.00000000000E+00 0.  1.
<mgrwt>
<rscale>  0 0.12881250E+04</rscale>
<asrwt>0</asrwt>
<pdfrwt beam="1">  1        1 0.10270033E+00 0.12881250E+04</pdfrwt>
<pdfrwt beam="2">  1       -1 0.95599907E-01 0.12881250E+04</pdfrwt>
<totfact> 0.30402191E+01</totfact>
</mgrwt>
</event>
<event>
12    1  0.2588309E-007  0.1483371E+04  0.7818608E-02  0.8895587E-01
         -1   -1    0    0    0  501 -0.00000000000E+00  0.00000000000E+00  0.33620639614E+03  0.33620639614E+03  0.00000000000E+00 0.  1.
          1   -1    0    0  501    0  0.00000000000E+00 -0.00000000000E+00 -0.16361885184E+04  0.16361885184E+04  0.00000000000E+00 0. -1.
         23    2    1    2    0    0  0.32284825959E+03 -0.26064963822E+03 -0.68406426853E+03  0.80572862850E+03  0.95317714409E+02 0.  0.
        254    2    1    2    0    0 -0.32284825959E+03  0.26064963822E+03 -0.61591785375E+03  0.11666662861E+04  0.89977007498E+03 0.  0.
        -24    2    4    4    0    0  0.23781405995E+03  0.33590737923E+03 -0.27644768401E+03  0.50209544273E+03  0.79291973669E+02 0.  0.
         24    2    4    4    0    0 -0.56066231953E+03 -0.75257741014E+02 -0.33947016973E+03  0.66457084332E+03  0.80052767121E+02 0.  0.
         11    1    3    3    0    0  0.10238844909E+03 -0.11722219282E+03 -0.18636757369E+03  0.24281126317E+03  0.00000000000E+00 0.  1.
        -11    1    3    3    0    0  0.22045981050E+03 -0.14342744539E+03 -0.49769669484E+03  0.56291736533E+03  0.00000000000E+00 0. -1.
          2    1    6    6  502    0 -0.44480491975E+02  0.87997531803E+01 -0.47249289711E+02  0.65486221456E+02  0.00000000000E+00 0. -1.
          1    1    5    5  503    0  0.32126049713E+02  0.13379285594E+02 -0.11052982040E+02  0.36513788699E+02  0.00000000000E+00 0. -1.
         -2    1    5    5    0  503  0.20568801024E+03  0.32252809364E+03 -0.26539470197E+03  0.46558165403E+03  0.00000000000E+00 0.  1.
         -1    1    6    6    0  502 -0.51618182756E+03 -0.84057494194E+02 -0.29222088002E+03  0.59908462186E+03  0.00000000000E+00 0.  1.
<mgrwt>
<rscale>  0 0.14833705E+04</rscale>
<asrwt>0</asrwt>
<pdfrwt beam="1">  1        1 0.25172131E+00 0.14833705E+04</pdfrwt>
<pdfrwt beam="2">  1       -1 0.51724061E-01 0.14833705E+04</pdfrwt>
<totfact> 0.19203223E+01</totfact>
</mgrwt>
</event>
<event>
12    1  0.3281238E-007  0.1662148E+04  0.7818608E-02  0.8783252E-01
         -2   -1    0    0    0  501 -0.00000000000E+00  0.00000000000E+00  0.67013289190E+03  0.67013289190E+03  0.00000000000E+00 0.  1.
          2   -1    0    0  501    0  0.00000000000E+00 -0.00000000000E+00 -0.10306671358E+04  0.10306671358E+04  0.00000000000E+00 0. -1.
         23    2    1    2    0    0 -0.20215680532E+03  0.15113520253E+03  0.40958690255E+03  0.48953823881E+03  0.90426949180E+02 0.  0.
        254    2    1    2    0    0  0.20215680532E+03 -0.15113520253E+03 -0.77012114650E+03  0.12112617889E+04  0.90019959880E+03 0.  0.
        -24    2    4    4    0    0  0.12252555950E+03  0.37063080437E+03 -0.36166757965E+03  0.53813165336E+03  0.80015825341E+02 0.  0.
         24    2    4    4    0    0  0.79631245829E+02 -0.52176600690E+03 -0.40845356685E+03  0.67313013558E+03  0.87686725823E+02 0.  0.
         13    1    3    3    0    0 -0.15469501750E+03  0.14964356923E+03  0.36847407112E+03  0.42672811876E+03  0.00000000000E+00 0.  1.
        -13    1    3    3    0    0 -0.47461787820E+02  0.14916333024E+01  0.41112831424E+02  0.62810120050E+02  0.00000000000E+00 0. -1.
          2    1    6    6  502    0  0.34777106674E+01  0.29312215699E+01 -0.15997003858E+01  0.48213662692E+01  0.00000000000E+00 0. -1.
          1    1    5    5  503    0  0.16548153029E+02  0.47430668447E+01 -0.11415869992E+02  0.20655753180E+02  0.00000000000E+00 0. -1.
         -2    1    5    5    0  503  0.10597740647E+03  0.36588773752E+03 -0.35025170966E+03  0.51747590018E+03  0.00000000000E+00 0.  1.
         -1    1    6    6    0  502  0.76153535161E+02 -0.52469722847E+03 -0.40685386646E+03  0.66830876931E+03  0.00000000000E+00 0.  1.
<mgrwt>
<rscale>  0 0.16621479E+04</rscale>
<asrwt>0</asrwt>
<pdfrwt beam="1">  1        2 0.15856418E+00 0.16621479E+04</pdfrwt>
<pdfrwt beam="2">  1       -2 0.10309737E+00 0.16621479E+04</pdfrwt>
<totfact> 0.17650945E+01</totfact>
</mgrwt>
</event>
<event>
12    1  0.2588309E-007  0.2013190E+04  0.7818608E-02  0.8600479E-01
          2   -1    0    0  501    0  0.00000000000E+00  0.00000000000E+00  0.23312432786E+04  0.23312432786E+04  0.00000000000E+00 0. -1.
         -2   -1    0    0    0  501 -0.00000000000E+00 -0.00000000000E+00 -0.43463225566E+03  0.43463225566E+03  0.00000000000E+00 0.  1.
         23    2    1    2    0    0  0.56716666091E+03  0.45432073002E+03  0.12236230844E+04  0.14261066614E+04  0.91877146535E+02 0.  0.
        254    2    1    2    0    0 -0.56716666091E+03 -0.45432073002E+03  0.67298793852E+03  0.13397688728E+04  0.90220979835E+03 0.  0.
        -24    2    4    4    0    0 -0.56233873138E+03 -0.61558222290E+03  0.76775107451E+03  0.11362303159E+04  0.80070571325E+02 0.  0.
         24    2    4    4    0    0 -0.48279295244E+01  0.16126149288E+03 -0.94763135995E+02  0.20353855693E+03  0.80120622961E+02 0.  0.
         13    1    3    3    0    0  0.49038429581E+03  0.37594629216E+03  0.97446360877E+03  0.11538594789E+04  0.00000000000E+00 0.  1.
        -13    1    3    3    0    0  0.76782365103E+02  0.78374437858E+02  0.24915947567E+03  0.27224718257E+03  0.00000000000E+00 0. -1.
          4    1    6    6  502    0  0.30522004004E+02  0.84547831094E+02 -0.23204640722E+02  0.92835250967E+02  0.00000000000E+00 0. -1.
          1    1    5    5  503    0 -0.27398548263E+03 -0.27198653475E+03  0.30759076882E+03  0.49361604597E+03  0.00000000000E+00 0. -1.
         -2    1    5    5    0  503 -0.28835324876E+03 -0.34359568815E+03  0.46016030570E+03  0.64261426993E+03  0.00000000000E+00 0.  1.
         -3    1    6    6    0  502 -0.35349933528E+02  0.76713661784E+02 -0.71558495272E+02  0.11070330596E+03  0.00000000000E+00 0.  1.
<mgrwt>
<rscale>  0 0.20131900E+04</rscale>
<asrwt>0</asrwt>
<pdfrwt beam="1">  1        2 0.35865280E+00 0.20131900E+04</pdfrwt>
<pdfrwt beam="2">  1       -2 0.66866502E-01 0.20131900E+04</pdfrwt>
<totfact> 0.82961729E+00</totfact>
</mgrwt>
</event>
<event>
12    1  0.2588309E-007  0.1842932E+04  0.7818608E-02  0.8683796E-01
         -1   -1    0    0    0  501 -0.00000000000E+00  0.00000000000E+00  0.14685396950E+04  0.14685396950E+04  0.00000000000E+00 0.  1.
          1   -1    0    0  501    0  0.00000000000E+00 -0.00000000000E+00 -0.57819327684E+03  0.57819327684E+03  0.00000000000E+00 0. -1.
         23    2    1    2    0    0 -0.66931314119E+03  0.19351397095E+03  0.30677922868E+03  0.76674884114E+03  0.91446991891E+02 0.  0.
        254    2    1    2    0    0  0.66931314119E+03 -0.19351397095E+03  0.58356718948E+03  0.12799841307E+04  0.90132179174E+03 0.  0.
        -24    2    4    4    0    0  0.51125305818E+03  0.11420831898E+03 -0.70846494269E+02  0.53567539418E+03  0.86635284698E+02 0.  0.
         24    2    4    4    0    0  0.15806008301E+03 -0.30772228993E+03  0.65441368375E+03  0.74430873651E+03  0.77860312159E+02 0.  0.
         11    1    3    3    0    0 -0.45873011419E+03  0.92200667008E+02  0.22475256473E+03  0.51908380442E+03  0.00000000000E+00 0. -1.
        -11    1    3    3    0    0 -0.21058302700E+03  0.10131330394E+03  0.82026663950E+02  0.24766503672E+03  0.00000000000E+00 0.  1.
          4    1    6    6  502    0  0.98735629975E+02 -0.23824706123E+03  0.42174974007E+03  0.49435132251E+03  0.00000000000E+00 0. -1.
          3    1    5    5  503    0  0.32707362650E+03  0.11368108916E+03 -0.57543728213E+02  0.35101542393E+03  0.00000000000E+00 0. -1.
         -4    1    5    5    0  503  0.18417943168E+03  0.52722982535E+00 -0.13302766057E+02  0.18465997025E+03  0.00000000000E+00 0.  1.
         -3    1    6    6    0  502  0.59324453030E+02 -0.69475228706E+02  0.23266394367E+03  0.24995741400E+03  0.00000000000E+00 0.  1.
<mgrwt>
<rscale>  0 0.18429322E+04</rscale>
<asrwt>0</asrwt>
<pdfrwt beam="1">  1        1 0.88952812E-01 0.18429322E+04</pdfrwt>
<pdfrwt beam="2">  1       -1 0.22592918E+00 0.18429322E+04</pdfrwt>
<totfact> 0.34114255E+00</totfact>
</mgrwt>
</event>
<event>
12    1  0.2588309E-007  0.1967521E+04  0.7818608E-02  0.8621958E-01
         -1   -1    0    0    0  501 -0.00000000000E+00  0.00000000000E+00  0.55201553138E+03  0.55201553138E+03  0.00000000000E+00 0.  1.
          1   -1    0    0  501    0  0.00000000000E+00 -0.00000000000E+00 -0.17531840412E+04  0.17531840412E+04  0.00000000000E+00 0. -1.
         23    2    1    2    0    0  0.22816644476E+03  0.72587919400E+03 -0.30696373368E+03  0.82573826202E+03  0.93039845114E+02 0.  0.
        254    2    1    2    0    0 -0.22816644476E+03 -0.72587919400E+03 -0.89420477610E+03  0.14794613105E+04  0.90013502151E+03 0.  0.
        -24    2    4    4    0    0 -0.11790869207E+03 -0.10333365253E+03 -0.81977068655E+03  0.83834743542E+03  0.78880546068E+02 0.  0.
         24    2    4    4    0    0 -0.11025775270E+03 -0.62254554147E+03 -0.74434089554E+02  0.64111387510E+03  0.75939738806E+02 0.  0.
         13    1    3    3    0    0  0.15831801504E+02  0.84742941940E+02 -0.66309995489E+02  0.10876133343E+03  0.00000000000E+00 0. -1.
        -13    1    3    3    0    0  0.21233464326E+03  0.64113625206E+03 -0.24065373819E+03  0.71697692859E+03  0.00000000000E+00 0.  1.
          4    1    6    6  502    0 -0.11653868853E+03 -0.47608293021E+03 -0.54192080726E+02  0.49312574864E+03  0.00000000000E+00 0. -1.
          1    1    5    5  503    0 -0.41680781621E+01  0.11508742742E+02 -0.34300608408E+02  0.36419167649E+02  0.00000000000E+00 0. -1.
         -2    1    5    5    0  503 -0.11374061390E+03 -0.11484239527E+03 -0.78547007814E+03  0.80192826778E+03  0.00000000000E+00 0.  1.
         -3    1    6    6    0  502  0.62809358340E+01 -0.14646261126E+03 -0.20242008829E+02  0.14798812646E+03  0.00000000000E+00 0.  1.
<mgrwt>
<rscale>  0 0.19675211E+04</rscale>
<asrwt>0</asrwt>
<pdfrwt beam="1">  1        1 0.26972063E+00 0.19675211E+04</pdfrwt>
<pdfrwt beam="2">  1       -1 0.84925465E-01 0.19675211E+04</pdfrwt>
<totfact> 0.55936321E+00</totfact>
</mgrwt>
</event>
<event>
12    1  0.2588309E-007  0.1398978E+04  0.7818608E-02  0.8954559E-01
         -2   -1    0    0    0  501 -0.00000000000E+00  0.00000000000E+00  0.13551414063E+03  0.13551414063E+03  0.00000000000E+00 0.  1.
          2   -1    0    0  501    0  0.00000000000E+00 -0.00000000000E+00 -0.36105793500E+04  0.36105793500E+04  0.00000000000E+00 0. -1.
         23    2    1    2    0    0 -0.19744740021E+03 -0.24586870021E+03 -0.17050912422E+04  0.17365795030E+04  0.94526886031E+02 0.  0.
        254    2    1    2    0    0  0.19744740021E+03  0.24586870021E+03 -0.17699739671E+04  0.20095139877E+04  0.89772029537E+03 0.  0.
        -24    2    4    4    0    0  0.27997867358E+03 -0.28582282676E+03 -0.75743576558E+03  0.86017776220E+03  0.78192695652E+02 0.  0.
         24    2    4    4    0    0 -0.82531273371E+02  0.53169152697E+03 -0.10125382015E+04  0.11493362255E+04  0.78948455550E+02 0.  0.
         13    1    3    3    0    0 -0.16425776637E+03 -0.13670367700E+03 -0.11856021970E+04  0.12047078810E+04  0.00000000000E+00 0. -1.
        -13    1    3    3    0    0 -0.33189633835E+02 -0.10916502321E+03 -0.51948904525E+03  0.53187162194E+03  0.00000000000E+00 0.  1.
          2    1    6    6  502    0  0.13558699885E+02  0.65654226036E+02 -0.14862649469E+03  0.16304646780E+03  0.00000000000E+00 0. -1.
          3    1    5    5  503    0  0.77234032094E-01 -0.10084165682E+01 -0.32639292128E+02  0.32654957658E+02  0.00000000000E+00 0. -1.
         -4    1    5    5    0  503  0.27990143955E+03 -0.28481441019E+03 -0.72479647345E+03  0.82752280454E+03  0.00000000000E+00 0.  1.
         -1    1    6    6    0  502 -0.96089973256E+02  0.46603730093E+03 -0.86391170685E+03  0.98628975766E+03  0.00000000000E+00 0.  1.
<mgrwt>
<rscale>  0 0.13989776E+04</rscale>
<asrwt>0</asrwt>
<pdfrwt beam="1">  1        2 0.55547374E+00 0.13989776E+04</pdfrwt>
<pdfrwt beam="2">  1       -2 0.20848329E-01 0.13989776E+04</pdfrwt>
<totfact> 0.13374553E+01</totfact>
</mgrwt>
</event>
<event>
12    1  0.2588309E-007  0.1473454E+04  0.7818608E-02  0.8902300E-01
         -1   -1    0    0    0  501 -0.00000000000E+00  0.00000000000E+00  0.26183691235E+03  0.26183691235E+03  0.00000000000E+00 0.  1.
          1   -1    0    0  501    0  0.00000000000E+00 -0.00000000000E+00 -0.20729192683E+04  0.20729192683E+04  0.00000000000E+00 0. -1.
         23    2    1    2    0    0 -0.37915341800E+03 -0.14926162979E+03 -0.86513120399E+03  0.96045876165E+03  0.89401813206E+02 0.  0.
        254    2    1    2    0    0  0.37915341800E+03  0.14926162979E+03 -0.94595115198E+03  0.13742974190E+04  0.90985354069E+03 0.  0.
        -24    2    4    4    0    0 -0.22841261286E+03 -0.17593373224E+03 -0.34406987318E+03  0.45590469876E+03  0.79624222865E+02 0.  0.
         24    2    4    4    0    0  0.60756603087E+03  0.32519536203E+03 -0.60188127880E+03  0.91839272026E+03  0.79344877079E+02 0.  0.
         11    1    3    3    0    0 -0.10184276745E+03 -0.42164807219E+01 -0.17165094410E+03  0.19963410181E+03  0.00000000000E+00 0. -1.
        -11    1    3    3    0    0 -0.27731065055E+03 -0.14504514907E+03 -0.69348025989E+03  0.76082465985E+03  0.00000000000E+00 0.  1.
          2    1    6    6  502    0  0.54609392755E+03  0.26565037548E+03 -0.51236940453E+03  0.79455088345E+03  0.00000000000E+00 0. -1.
          3    1    5    5  503    0 -0.15219878902E+03 -0.10363432356E+03 -0.27216917647E+03  0.32860402465E+03  0.00000000000E+00 0. -1.
         -4    1    5    5    0  503 -0.76213823848E+02 -0.72299408681E+02 -0.71900696711E+02  0.12730067411E+03  0.00000000000E+00 0.  1.
         -1    1    6    6    0  502  0.61472103318E+02  0.59544986556E+02 -0.89511874270E+02  0.12384183682E+03  0.00000000000E+00 0.  1.
<mgrwt>
<rscale>  0 0.14734541E+04</rscale>
<asrwt>0</asrwt>
<pdfrwt beam="1">  1        1 0.31891065E+00 0.14734541E+04</pdfrwt>
<pdfrwt beam="2">  1       -1 0.40282603E-01 0.14734541E+04</pdfrwt>
<totfact> 0.15512238E+01</totfact>
</mgrwt>
</event>
<event>
12    1  0.2588309E-007  0.1231263E+04  0.7818608E-02  0.9085924E-01
         -2   -1    0    0    0  501 -0.00000000000E+00  0.00000000000E+00  0.12119593535E+03  0.12119593535E+03  0.00000000000E+00 0.  1.
          2   -1    0    0  501    0  0.00000000000E+00 -0.00000000000E+00 -0.31271834808E+04  0.31271834808E+04  0.00000000000E+00 0. -1.
         23    2    1    2    0    0 -0.13345663111E+03  0.20013055455E+03 -0.10683244418E+04  0.10988087972E+04  0.90557984557E+02 0.  0.
        254    2    1    2    0    0  0.13345663111E+03 -0.20013055455E+03 -0.19376631037E+04  0.21495706190E+04  0.89902871560E+03 0.  0.
        -24    2    4    4    0    0  0.12473251295E+02  0.25202144176E+03 -0.15929948216E+03  0.30905205718E+03  0.80414301766E+02 0.  0.
         24    2    4    4    0    0  0.12098337981E+03 -0.45215199630E+03 -0.17783636215E+04  0.18405185618E+04  0.76504902636E+02 0.  0.
         13    1    3    3    0    0 -0.12511766095E+03  0.20829231023E+03 -0.10429447226E+04  0.10708752541E+04  0.00000000000E+00 0.  1.
        -13    1    3    3    0    0 -0.83389701561E+01 -0.81617556804E+01 -0.25379719255E+02  0.27933543072E+02  0.00000000000E+00 0. -1.
          2    1    6    6  502    0  0.10005400602E+03 -0.43156884102E+03 -0.17018701263E+04  0.17585859079E+04  0.00000000000E+00 0. -1.
          1    1    5    5  503    0 -0.96699055826E+00  0.19481312771E+03 -0.15706296577E+03  0.25024361134E+03  0.00000000000E+00 0. -1.
         -2    1    5    5    0  503  0.13440241853E+02  0.57208314046E+02 -0.22365163921E+01  0.58808445844E+02  0.00000000000E+00 0.  1.
         -1    1    6    6    0  502  0.20929373790E+02 -0.20583155284E+02 -0.76493495181E+02  0.81932653891E+02  0.00000000000E+00 0.  1.
<mgrwt>
<rscale>  0 0.12312626E+04</rscale>
<asrwt>0</asrwt>
<pdfrwt beam="1">  1        2 0.48110523E+00 0.12312626E+04</pdfrwt>
<pdfrwt beam="2">  1       -2 0.18645525E-01 0.12312626E+04</pdfrwt>
<totfact> 0.34953071E+01</totfact>
</mgrwt>
</event>
<event>
12    1  0.2588309E-007  0.2576550E+04  0.7818608E-02  0.8376210E-01
         -1   -1    0    0    0  501 -0.00000000000E+00  0.00000000000E+00  0.10961965399E+04  0.10961965399E+04  0.00000000000E+00 0.  1.
          1   -1    0    0  501    0  0.00000000000E+00 -0.00000000000E+00 -0.15140100011E+04  0.15140100011E+04  0.00000000000E+00 0. -1.
         23    2    1    2    0    0  0.74841968782E+03 -0.21041667486E+03 -0.10131799911E+04  0.12803023298E+04  0.90736734641E+02 0.  0.
        254    2    1    2    0    0 -0.74841968782E+03  0.21041667486E+03  0.59536652990E+03  0.13299042112E+04  0.89987593589E+03 0.  0.
        -24    2    4    4    0    0  0.12819896010E+03 -0.71294146460E+02  0.32762171383E+03  0.36771593220E+03  0.79757073249E+02 0.  0.
         24    2    4    4    0    0 -0.87661864791E+03  0.28171082132E+03  0.26774481607E+03  0.96218827905E+03  0.79358409022E+02 0.  0.
         11    1    3    3    0    0  0.38827936780E+03 -0.82469516267E+02 -0.45495041830E+03  0.60377311275E+03  0.00000000000E+00 0. -1.
        -11    1    3    3    0    0  0.36014032002E+03 -0.12794715859E+03 -0.55822957282E+03  0.67652921701E+03  0.00000000000E+00 0.  1.
          2    1    6    6  502    0 -0.23447314620E+03  0.38964779176E+02  0.68211751424E+02  0.24728273966E+03  0.00000000000E+00 0. -1.
          3    1    5    5  503    0 -0.85219397742E+01  0.79101928993E-01  0.44177900327E+01  0.95993011935E+01  0.00000000000E+00 0. -1.
         -4    1    5    5    0  503  0.13672089987E+03 -0.71373248389E+02  0.32320392380E+03  0.35811663101E+03  0.00000000000E+00 0.  1.
         -1    1    6    6    0  502 -0.64214550172E+03  0.24274604214E+03  0.19953306465E+03  0.71490553938E+03  0.00000000000E+00 0.  1.
<mgrwt>
<rscale>  0 0.25765500E+04</rscale>
<asrwt>0</asrwt>
<pdfrwt beam="1">  1        1 0.23292462E+00 0.25765500E+04</pdfrwt>
<pdfrwt beam="2">  1       -1 0.16864562E+00 0.25765500E+04</pdfrwt>
<totfact> 0.14215460E+00</totfact>
</mgrwt>
</event>
<event>
12    1  0.2588309E-007  0.3226796E+04  0.7818608E-02  0.8181776E-01
          1   -1    0    0  501    0  0.00000000000E+00  0.00000000000E+00  0.13895608136E+04  0.13895608136E+04  0.00000000000E+00 0. -1.
         -1   -1    0    0    0  501 -0.00000000000E+00 -0.00000000000E+00 -0.18732919212E+04  0.18732919212E+04  0.00000000000E+00 0.  1.
         23    2    1    2    0    0  0.81593530616E+02  0.11896477123E+04 -0.11193497322E+04  0.16379380100E+04  0.89319191764E+02 0.  0.
        254    2    1    2    0    0 -0.81593530616E+02 -0.11896477123E+04  0.63561862460E+03  0.16249147248E+04  0.90245090910E+03 0.  0.
        -24    2    4    4    0    0 -0.11868587253E+03 -0.19311935625E+03  0.57421023123E+03  0.62260085573E+03  0.80827061145E+02 0.  0.
         24    2    4    4    0    0  0.37092341911E+02 -0.99652835604E+03  0.61408393370E+02  0.10023138691E+04  0.80109269909E+02 0.  0.
         11    1    3    3    0    0  0.34780074220E+02  0.55389568361E+03 -0.58204452382E+03  0.80423001038E+03  0.00000000000E+00 0.  1.
        -11    1    3    3    0    0  0.46813456396E+02  0.63575202868E+03 -0.53730520833E+03  0.83370799958E+03  0.00000000000E+00 0. -1.
          2    1    6    6  502    0  0.58957492844E+02 -0.53949532844E+03  0.24168792374E+02  0.54324518027E+03  0.00000000000E+00 0. -1.
          1    1    5    5  503    0 -0.71076757327E+02 -0.78707269000E+02  0.17526968396E+03  0.20485653941E+03  0.00000000000E+00 0. -1.
         -2    1    5    5    0  503 -0.47609115200E+02 -0.11441208725E+03  0.39894054728E+03  0.41774431632E+03  0.00000000000E+00 0.  1.
         -1    1    6    6    0  502 -0.21865150934E+02 -0.45703302761E+03  0.37239600996E+02  0.45906868880E+03  0.00000000000E+00 0.  1.
<mgrwt>
<rscale>  0 0.32267960E+04</rscale>
<asrwt>0</asrwt>
<pdfrwt beam="1">  1        1 0.21377859E+00 0.32267960E+04</pdfrwt>
<pdfrwt beam="2">  1       -1 0.28819876E+00 0.32267960E+04</pdfrwt>
<totfact> 0.25686441E-01</totfact>
</mgrwt>
</event>
<event>
12    1  0.2588309E-007  0.3351065E+04  0.7818608E-02  0.8150022E-01
          2   -1    0    0  501    0  0.00000000000E+00  0.00000000000E+00  0.15558190710E+04  0.15558190710E+04  0.00000000000E+00 0. -1.
         -2   -1    0    0    0  501 -0.00000000000E+00 -0.00000000000E+00 -0.18044577899E+04  0.18044577899E+04  0.00000000000E+00 0.  1.
         23    2    1    2    0    0 -0.30824429574E+03 -0.10556776554E+04  0.98463176396E+03  0.14787280247E+04  0.87561421341E+02 0.  0.
        254    2    1    2    0    0  0.30824429574E+03  0.10556776554E+04 -0.12332704828E+04  0.18815488362E+04  0.89988892716E+03 0.  0.
        -24    2    4    4    0    0  0.42115270027E+03  0.56076337095E+03 -0.20993001815E+03  0.73637374732E+03  0.79690200661E+02 0.  0.
         24    2    4    4    0    0 -0.11290840452E+03  0.49491428440E+03 -0.10233404647E+04  0.11451750889E+04  0.80695853466E+02 0.  0.
         11    1    3    3    0    0 -0.48759322289E+02 -0.27732113230E+03  0.22208809877E+03  0.35861902564E+03  0.00000000000E+00 0. -1.
        -11    1    3    3    0    0 -0.25948497346E+03 -0.77835652305E+03  0.76254366519E+03  0.11201089990E+04  0.00000000000E+00 0.  1.
          2    1    6    6  502    0 -0.98276825231E+02  0.44665098871E+03 -0.85747754445E+03  0.97181437494E+03  0.00000000000E+00 0. -1.
          3    1    5    5  503    0  0.42084371203E+03  0.55821353979E+03 -0.21440068826E+03  0.73121777952E+03  0.00000000000E+00 0. -1.
         -4    1    5    5    0  503  0.30898823185E+00  0.25498311657E+01  0.44706701135E+01  0.51559678010E+01  0.00000000000E+00 0.  1.
         -1    1    6    6    0  502 -0.14631579292E+02  0.48263295684E+02 -0.16586292023E+03  0.17336071392E+03  0.00000000000E+00 0.  1.
<mgrwt>
<rscale>  0 0.33510654E+04</rscale>
<asrwt>0</asrwt>
<pdfrwt beam="1">  1        2 0.23935678E+00 0.33510654E+04</pdfrwt>
<pdfrwt beam="2">  1       -2 0.27760889E+00 0.33510654E+04</pdfrwt>
<totfact> 0.42767042E-01</totfact>
</mgrwt>
</event>
<event>
12    1  0.2588309E-007  0.1433757E+04  0.7818608E-02  0.8929740E-01
         -2   -1    0    0    0  501 -0.00000000000E+00  0.00000000000E+00  0.69089850082E+03  0.69089850082E+03  0.00000000000E+00 0.  1.
          2   -1    0    0  501    0  0.00000000000E+00 -0.00000000000E+00 -0.74383515117E+03  0.74383515117E+03  0.00000000000E+00 0. -1.
         23    2    1    2    0    0 -0.14462050607E+03  0.29435874368E+03  0.25825935253E+03  0.42748159235E+03  0.92089401486E+02 0.  0.
        254    2    1    2    0    0  0.14462050607E+03 -0.29435874368E+03 -0.31119600287E+03  0.10072520596E+04  0.90008421756E+03 0.  0.
        -24    2    4    4    0    0 -0.12663094174E+01 -0.49475711866E+02  0.30727532612E+03  0.32155329934E+03  0.80801910092E+02 0.  0.
         24    2    4    4    0    0  0.14588681549E+03 -0.24488303182E+03 -0.61847132899E+03  0.68569876030E+03  0.80158236591E+02 0.  0.
         11    1    3    3    0    0 -0.12711640242E+03  0.16064640624E+03  0.17113277120E+03  0.26693121395E+03  0.00000000000E+00 0.  1.
        -11    1    3    3    0    0 -0.17504103653E+02  0.13371233744E+03  0.87126581326E+02  0.16055037839E+03  0.00000000000E+00 0. -1.
          2    1    6    6  502    0  0.12724904818E+03 -0.24461739868E+03 -0.55783059396E+03  0.62225795580E+03  0.00000000000E+00 0. -1.
          1    1    5    5  503    0 -0.12160316863E+01  0.22348414461E+02  0.88674114644E+02  0.91455065305E+02  0.00000000000E+00 0. -1.
         -2    1    5    5    0  503 -0.50277731146E-01 -0.71824126327E+02  0.21860121147E+03  0.23009823404E+03  0.00000000000E+00 0.  1.
         -1    1    6    6    0  502  0.18637767305E+02 -0.26563314270E+00 -0.60640735033E+02  0.63440804507E+02  0.00000000000E+00 0.  1.
<mgrwt>
<rscale>  0 0.14337567E+04</rscale>
<asrwt>0</asrwt>
<pdfrwt beam="1">  1        2 0.11443618E+00 0.14337567E+04</pdfrwt>
<pdfrwt beam="2">  1       -2 0.10629208E+00 0.14337567E+04</pdfrwt>
<totfact> 0.26271752E+01</totfact>
</mgrwt>
</event>
<event>
12    1  0.2588309E-007  0.2180272E+04  0.7818608E-02  0.8526684E-01
          1   -1    0    0  501    0  0.00000000000E+00  0.00000000000E+00  0.23334328106E+04  0.23334328106E+04  0.00000000000E+00 0. -1.
         -1   -1    0    0    0  501 -0.00000000000E+00 -0.00000000000E+00 -0.50929110848E+03  0.50929110848E+03  0.00000000000E+00 0.  1.
         23    2    1    2    0    0  0.86774736559E+03  0.13746705576E+03  0.10275306049E+04  0.13550782304E+04  0.92386061997E+02 0.  0.
        254    2    1    2    0    0 -0.86774736559E+03 -0.13746705576E+03  0.79661109720E+03  0.14876456887E+04  0.89811901943E+03 0.  0.
        -24    2    4    4    0    0 -0.27866365068E+03  0.12688815922E+03  0.77398167700E+03  0.83695291581E+03  0.87684159267E+02 0.  0.
         24    2    4    4    0    0 -0.58908371492E+03 -0.26435521498E+03  0.22629420196E+02  0.65069277291E+03  0.77367248831E+02 0.  0.
         11    1    3    3    0    0  0.11455765346E+03  0.45322417988E+02  0.17128154057E+03  0.21098564804E+03  0.00000000000E+00 0. -1.
        -11    1    3    3    0    0  0.75318971214E+03  0.92144637768E+02  0.85624906437E+03  0.11440925823E+04  0.00000000000E+00 0.  1.
          2    1    6    6  502    0 -0.33090923432E+03 -0.17391620860E+03 -0.17345438670E+02  0.37423072190E+03  0.00000000000E+00 0. -1.
          1    1    5    5  503    0 -0.27457958819E+03  0.10280145761E+03  0.69599560778E+03  0.75522975046E+03  0.00000000000E+00 0. -1.
         -2    1    5    5    0  503 -0.40840624842E+01  0.24086701616E+02  0.77986069224E+02  0.81723165345E+02  0.00000000000E+00 0.  1.
         -1    1    6    6    0  502 -0.25817448059E+03 -0.90439006374E+02  0.39974858865E+02  0.27646205100E+03  0.00000000000E+00 0.  1.
<mgrwt>
<rscale>  0 0.21802721E+04</rscale>
<asrwt>0</asrwt>
<pdfrwt beam="1">  1        1 0.35898966E+00 0.21802721E+04</pdfrwt>
<pdfrwt beam="2">  1       -1 0.78352479E-01 0.21802721E+04</pdfrwt>
<totfact> 0.26286859E+00</totfact>
</mgrwt>
</event>
<event>
12    1  0.2588309E-007  0.2092843E+04  0.7818608E-02  0.8564402E-01
         -2   -1    0    0    0  501 -0.00000000000E+00  0.00000000000E+00  0.40098693614E+03  0.40098693614E+03  0.00000000000E+00 0.  1.
          2   -1    0    0  501    0  0.00000000000E+00 -0.00000000000E+00 -0.27307584389E+04  0.27307584389E+04  0.00000000000E+00 0. -1.
         23    2    1    2    0    0 -0.54123445460E+03 -0.46103038302E+03 -0.25428640375E+03  0.76060654677E+03  0.91525924987E+02 0.  0.
        254    2    1    2    0    0  0.54123445460E+03  0.46103038302E+03 -0.20754850990E+04  0.23711388282E+04  0.89954277153E+03 0.  0.
        -24    2    4    4    0    0 -0.77584236980E+02  0.47314790053E+03 -0.62343945567E+03  0.79064803521E+03  0.80989573982E+02 0.  0.
         24    2    4    4    0    0  0.61881869158E+03 -0.12117517504E+02 -0.14520456433E+04  0.15804907930E+04  0.80194696528E+02 0.  0.
         13    1    3    3    0    0 -0.29130765594E+03 -0.25676442587E+03 -0.90824287232E+02  0.39879464885E+03  0.00000000000E+00 0.  1.
        -13    1    3    3    0    0 -0.24992679866E+03 -0.20426595715E+03 -0.16346211652E+03  0.36181189792E+03  0.00000000000E+00 0. -1.
          4    1    6    6  502    0  0.86004206836E+02 -0.50053891142E+01 -0.14021002613E+03  0.16456193042E+03  0.00000000000E+00 0. -1.
          3    1    5    5  503    0 -0.56949300280E+02  0.43655961394E+03 -0.59393882016E+03  0.73931782166E+03  0.00000000000E+00 0. -1.
         -4    1    5    5    0  503 -0.20634936700E+02  0.36588286587E+02 -0.29500635514E+02  0.51330213556E+02  0.00000000000E+00 0.  1.
         -3    1    6    6    0  502  0.53281448474E+03 -0.71121283900E+01 -0.13118356171E+04  0.14159288626E+04  0.00000000000E+00 0.  1.
<mgrwt>
<rscale>  0 0.20928435E+04</rscale>
<asrwt>0</asrwt>
<pdfrwt beam="1">  1        2 0.42011670E+00 0.20928435E+04</pdfrwt>
<pdfrwt beam="2">  1       -2 0.61690296E-01 0.20928435E+04</pdfrwt>
<totfact> 0.57357625E+00</totfact>
</mgrwt>
</event>
<event>
12    1  0.2588309E-007  0.1931667E+04  0.7818608E-02  0.8639252E-01
          1   -1    0    0  501    0  0.00000000000E+00  0.00000000000E+00  0.14710053211E+04  0.14710053211E+04  0.00000000000E+00 0. -1.
         -1   -1    0    0    0  501 -0.00000000000E+00 -0.00000000000E+00 -0.63414733305E+03  0.63414733305E+03  0.00000000000E+00 0.  1.
         23    2    1    2    0    0  0.70298231894E+03 -0.26980435896E+03  0.31841512426E+03  0.82243182318E+03  0.89595644775E+02 0.  0.
        254    2    1    2    0    0 -0.70298231894E+03  0.26980435896E+03  0.51844286383E+03  0.12827208310E+04  0.89978397096E+03 0.  0.
        -24    2    4    4    0    0 -0.28593377466E+03  0.34943736800E+03  0.68129335371E+03  0.82099238420E+03  0.77480729686E+02 0.  0.
         24    2    4    4    0    0 -0.41704854428E+03 -0.79633009034E+02 -0.16285048988E+03  0.46172844680E+03  0.80012324767E+02 0.  0.
         11    1    3    3    0    0  0.24258430548E+03 -0.48871129796E+02  0.11210471880E+03  0.27166707672E+03  0.00000000000E+00 0. -1.
        -11    1    3    3    0    0  0.46039801345E+03 -0.22093322917E+03  0.20631040546E+03  0.55076474646E+03  0.00000000000E+00 0.  1.
          2    1    6    6  502    0 -0.19451348236E+02 -0.31812662914E+01  0.92699548030E+01  0.21780896801E+02  0.00000000000E+00 0. -1.
          1    1    5    5  503    0 -0.71300463187E+02  0.49246243720E+02  0.98538132880E+02  0.13122009070E+03  0.00000000000E+00 0. -1.
         -2    1    5    5    0  503 -0.21463331147E+03  0.30019112428E+03  0.58275522083E+03  0.68977229351E+03  0.00000000000E+00 0.  1.
         -1    1    6    6    0  502 -0.39759719604E+03 -0.76451742743E+02 -0.17212044469E+03  0.43994755000E+03  0.00000000000E+00 0.  1.
<mgrwt>
<rscale>  0 0.19316667E+04</rscale>
<asrwt>0</asrwt>
<pdfrwt beam="1">  1        1 0.22630851E+00 0.19316667E+04</pdfrwt>
<pdfrwt beam="2">  1       -1 0.97561128E-01 0.19316667E+04</pdfrwt>
<totfact> 0.64468531E+00</totfact>
</mgrwt>
</event>
<event>
12    1  0.2588309E-007  0.1771226E+04  0.7818608E-02  0.8721753E-01
         -2   -1    0    0    0  501 -0.00000000000E+00  0.00000000000E+00  0.20379945343E+04  0.20379945343E+04  0.00000000000E+00 0.  1.
          2   -1    0    0  501    0  0.00000000000E+00 -0.00000000000E+00 -0.38484402495E+03  0.38484402495E+03  0.00000000000E+00 0. -1.
         23    2    1    2    0    0  0.42307185651E+03  0.44380459009E+03  0.30813697862E+03  0.69224362072E+03  0.91107205476E+02 0.  0.
        254    2    1    2    0    0 -0.42307185651E+03 -0.44380459009E+03  0.13450135307E+04  0.17305949385E+04  0.89996951806E+03 0.  0.
        -24    2    4    4    0    0  0.82094990398E+02 -0.83075259401E+02  0.10117891014E+04  0.10216189971E+04  0.79668710412E+02 0.  0.
         24    2    4    4    0    0 -0.50516684691E+03 -0.36072933068E+03  0.33322442934E+03  0.70897594139E+03  0.79304299605E+02 0.  0.
         13    1    3    3    0    0  0.48604108451E+02  0.29348029813E+02  0.57287010279E+01  0.57065613356E+02  0.00000000000E+00 0. -1.
        -13    1    3    3    0    0  0.37446774806E+03  0.41445656027E+03  0.30240827759E+03  0.63517800737E+03  0.00000000000E+00 0.  1.
          4    1    6    6  502    0 -0.85264570765E+02 -0.27281109492E+02  0.44040417633E+02  0.99769055063E+02  0.00000000000E+00 0. -1.
          1    1    5    5  503    0  0.81001938074E+02 -0.95635147911E+02  0.83179184645E+03  0.84118076018E+03  0.00000000000E+00 0. -1.
         -2    1    5    5    0  503  0.10930523235E+01  0.12559888510E+02  0.17999725496E+03  0.18043823696E+03  0.00000000000E+00 0.  1.
         -3    1    6    6    0  502 -0.41990227614E+03 -0.33344822119E+03  0.28918401170E+03  0.60920688633E+03  0.00000000000E+00 0.  1.
<mgrwt>
<rscale>  0 0.17712256E+04</rscale>
<asrwt>0</asrwt>
<pdfrwt beam="1">  1        2 0.59206774E-01 0.17712256E+04</pdfrwt>
<pdfrwt beam="2">  1       -2 0.31353761E+00 0.17712256E+04</pdfrwt>
<totfact> 0.20678792E+00</totfact>
</mgrwt>
</event>
<event>
12    1  0.2588309E-007  0.2056599E+04  0.7818608E-02  0.8580606E-01
         -2   -1    0    0    0  501 -0.00000000000E+00  0.00000000000E+00  0.75782120099E+03  0.75782120099E+03  0.00000000000E+00 0.  1.
          2   -1    0    0  501    0  0.00000000000E+00 -0.00000000000E+00 -0.13953162598E+04  0.13953162598E+04  0.00000000000E+00 0. -1.
         23    2    1    2    0    0 -0.20513532343E+02  0.76381204385E+02  0.60470024919E+03  0.61707084262E+03  0.94123004900E+02 0.  0.
        254    2    1    2    0    0  0.20513532343E+02 -0.76381204385E+02 -0.12421953080E+04  0.15360666182E+04  0.90010920383E+03 0.  0.
        -24    2    4    4    0    0 -0.24052524287E+03 -0.86853645714E+02 -0.37089903011E+01  0.26798862878E+03  0.80051235575E+02 0.  0.
         24    2    4    4    0    0  0.26103877521E+03  0.10472441329E+02 -0.12384863177E+04  0.12680779894E+04  0.76957870438E+02 0.  0.
         11    1    3    3    0    0  0.11776178064E+02  0.79729912579E+02  0.52272737585E+03  0.52890400527E+03  0.00000000000E+00 0.  1.
        -11    1    3    3    0    0 -0.32289710407E+02 -0.33487081942E+01  0.81972873344E+02  0.88166837354E+02  0.00000000000E+00 0. -1.
          2    1    6    6  502    0  0.26257825917E+03  0.18219903749E+02 -0.12181412124E+04  0.12462533131E+04  0.00000000000E+00 0. -1.
          1    1    5    5  503    0 -0.18615937970E+03 -0.64934893094E+02  0.31424393654E+02  0.19964805912E+03  0.00000000000E+00 0. -1.
         -2    1    5    5    0  503 -0.54365863167E+02 -0.21918752620E+02 -0.35133383955E+02  0.68340569668E+02  0.00000000000E+00 0.  1.
         -1    1    6    6    0  502 -0.15394839538E+01 -0.77474624199E+01 -0.20345105339E+02  0.21824676311E+02  0.00000000000E+00 0.  1.
<mgrwt>
<rscale>  0 0.20565994E+04</rscale>
<asrwt>0</asrwt>
<pdfrwt beam="1">  1        2 0.21466404E+00 0.20565994E+04</pdfrwt>
<pdfrwt beam="2">  1       -2 0.11658788E+00 0.20565994E+04</pdfrwt>
<totfact> 0.76792789E+00</totfact>
</mgrwt>
</event>
<event>
12    1  0.2588309E-007  0.2153293E+04  0.7818608E-02  0.8538124E-01
         -2   -1    0    0    0  501 -0.00000000000E+00  0.00000000000E+00  0.56490661217E+03  0.56490661217E+03  0.00000000000E+00 0. -1.
          2   -1    0    0  501    0  0.00000000000E+00 -0.00000000000E+00 -0.20519634493E+04  0.20519634493E+04  0.00000000000E+00 0.  1.
         23    2    1    2    0    0 -0.77636378007E+03  0.27654190716E+03 -0.10063940437E+04  0.13039457912E+04  0.90716644709E+02 0.  0.
        254    2    1    2    0    0  0.77636378007E+03 -0.27654190716E+03 -0.48066279340E+03  0.13129242703E+04  0.90195192400E+03 0.  0.
        -24    2    4    4    0    0  0.89363987171E+02 -0.48456355373E+03 -0.16343126445E+03  0.52424098676E+03  0.73014205436E+02 0.  0.
         24    2    4    4    0    0  0.68699979290E+03  0.20802164657E+03 -0.31723152895E+03  0.78868328355E+03  0.78382127459E+02 0.  0.
         13    1    3    3    0    0 -0.31438443020E+03  0.14605622857E+03 -0.47154465726E+03  0.58525580360E+03  0.00000000000E+00 0.  1.
        -13    1    3    3    0    0 -0.46197934987E+03  0.13048567859E+03 -0.53484938647E+03  0.71868998757E+03  0.00000000000E+00 0. -1.
          2    1    6    6  502    0  0.65796868270E+03  0.21212760565E+03 -0.31365987161E+03  0.75914650994E+03  0.00000000000E+00 0. -1.
          3    1    5    5  503    0  0.89649184279E+02 -0.43382478471E+03 -0.16688724963E+03  0.47338385499E+03  0.00000000000E+00 0. -1.
         -4    1    5    5    0  503 -0.28519710756E+00 -0.50738769022E+02  0.34559851823E+01  0.50857131779E+02  0.00000000000E+00 0.  1.
         -1    1    6    6    0  502  0.29031110203E+02 -0.41059590727E+01 -0.35716573405E+01  0.29536773617E+02  0.00000000000E+00 0.  1.
<mgrwt>
<rscale>  0 0.21532930E+04</rscale>
<asrwt>0</asrwt>
<pdfrwt beam="1">  1        2 0.31568669E+00 0.21532930E+04</pdfrwt>
<pdfrwt beam="2">  1       -2 0.86908707E-01 0.21532930E+04</pdfrwt>
<totfact> 0.65674883E+00</totfact>
</mgrwt>
</event>
<event>
12    1  0.2588309E-007  0.3901920E+04  0.7818608E-02  0.8024630E-01
          2   -1    0    0  501    0  0.00000000000E+00  0.00000000000E+00  0.15410763399E+04  0.15410763399E+04  0.00000000000E+00 0.  1.
         -2   -1    0    0    0  501 -0.00000000000E+00 -0.00000000000E+00 -0.24698609641E+04  0.24698609641E+04  0.00000000000E+00 0. -1.
         23    2    1    2    0    0  0.10820434893E+04 -0.13392471595E+04  0.24313983970E+03  0.17410876392E+04  0.88702416279E+02 0.  0.
        254    2    1    2    0    0 -0.10820434893E+04  0.13392471595E+04 -0.11719244638E+04  0.22698496648E+04  0.90244638900E+03 0.  0.
        -24    2    4    4    0    0 -0.57640207624E+01 -0.89839818598E+02 -0.19646490774E+03  0.23056977914E+03  0.80371301693E+02 0.  0.
         24    2    4    4    0    0 -0.10762794685E+04  0.14290869781E+04 -0.97545955608E+03  0.20392798857E+04  0.80461302714E+02 0.  0.
         11    1    3    3    0    0  0.71558330376E+03 -0.92667447167E+03  0.13246672533E+03  0.11782752117E+04  0.00000000000E+00 0. -1.
        -11    1    3    3    0    0  0.36646018552E+03 -0.41257268785E+03  0.11067311437E+03  0.56281242753E+03  0.00000000000E+00 0.  1.
          2    1    6    6  502    0 -0.22245405043E+02  0.30028865335E+02 -0.80726479185E+01  0.38232949707E+02  0.00000000000E+00 0. -1.
          3    1    5    5  503    0 -0.36967934975E+02 -0.15663470386E+02 -0.68835705192E+02  0.79688937941E+02  0.00000000000E+00 0. -1.
         -4    1    5    5    0  503  0.31203914213E+02 -0.74176348213E+02 -0.12762920255E+03  0.15088084120E+03  0.00000000000E+00 0.  1.
         -1    1    6    6    0  502 -0.10540340635E+04  0.13990581128E+04 -0.96738690816E+03  0.20010469360E+04  0.00000000000E+00 0.  1.
<mgrwt>
<rscale>  0 0.39019197E+04</rscale>
<asrwt>0</asrwt>
<pdfrwt beam="1">  1        2 0.23708867E+00 0.39019197E+04</pdfrwt>
<pdfrwt beam="2">  1       -2 0.37997861E+00 0.39019197E+04</pdfrwt>
<totfact> 0.95790771E-02</totfact>
</mgrwt>
</event>
<event>
12    1  0.2588309E-007  0.1566696E+04  0.7818608E-02  0.8841273E-01
          1   -1    0    0  501    0  0.00000000000E+00  0.00000000000E+00  0.82141639356E+03  0.82141639356E+03  0.00000000000E+00 0. -1.
         -1   -1    0    0    0  501 -0.00000000000E+00 -0.00000000000E+00 -0.74704392298E+03  0.74704392298E+03  0.00000000000E+00 0.  1.
         23    2    1    2    0    0 -0.20588239044E+03 -0.37003777165E+03  0.32375978203E+03  0.54069627829E+03  0.90645230212E+02 0.  0.
        254    2    1    2    0    0  0.20588239044E+03  0.37003777165E+03 -0.24938731144E+03  0.10277640382E+04  0.90265684292E+03 0.  0.
        -24    2    4    4    0    0  0.47742983343E+03  0.10327263453E+03  0.99438359354E+02  0.50483236895E+03  0.79769985193E+02 0.  0.
         24    2    4    4    0    0 -0.27154744299E+03  0.26676513712E+03 -0.34882567079E+03  0.52293166929E+03  0.82924845299E+02 0.  0.
         11    1    3    3    0    0 -0.10885137880E+03 -0.26053508209E+03  0.17580221692E+03  0.33261625207E+03  0.00000000000E+00 0.  1.
        -11    1    3    3    0    0 -0.97031011639E+02 -0.10950268956E+03  0.14795756511E+03  0.20808002623E+03  0.00000000000E+00 0. -1.
          2    1    6    6  502    0 -0.13144526746E+03  0.18441853390E+03 -0.18859430872E+03  0.29471319493E+03  0.00000000000E+00 0. -1.
          3    1    5    5  503    0  0.24470531009E+03  0.14969806874E+02  0.64264091981E+02  0.25344557093E+03  0.00000000000E+00 0. -1.
         -4    1    5    5    0  503  0.23272452334E+03  0.88302827654E+02  0.35174267373E+02  0.25138679803E+03  0.00000000000E+00 0.  1.
         -1    1    6    6    0  502 -0.14010217553E+03  0.82346603227E+02 -0.16023136207E+03  0.22821847437E+03  0.00000000000E+00 0.  1.
<mgrwt>
<rscale>  0 0.15666960E+04</rscale>
<asrwt>0</asrwt>
<pdfrwt beam="1">  1        1 0.12637175E+00 0.15666960E+04</pdfrwt>
<pdfrwt beam="2">  1       -1 0.11492983E+00 0.15666960E+04</pdfrwt>
<totfact> 0.14015037E+01</totfact>
</mgrwt>
</event>
<event>
12    1  0.2588309E-007  0.2641599E+04  0.7818608E-02  0.8354207E-01
         -1   -1    0    0    0  501 -0.00000000000E+00  0.00000000000E+00  0.14896162830E+04  0.14896162830E+04  0.00000000000E+00 0.  1.
          1   -1    0    0  501    0  0.00000000000E+00 -0.00000000000E+00 -0.11711143028E+04  0.11711143028E+04  0.00000000000E+00 0. -1.
         23    2    1    2    0    0 -0.30287031382E+03  0.11243034434E+04  0.19458745416E+03  0.11841001672E+04  0.91870935499E+02 0.  0.
        254    2    1    2    0    0  0.30287031382E+03 -0.11243034434E+04  0.12391452602E+03  0.14766304186E+04  0.89960764982E+03 0.  0.
        -24    2    4    4    0    0  0.18853816082E+03 -0.10803262461E+04  0.39496816805E+03  0.11683347174E+04  0.79716509738E+02 0.  0.
         24    2    4    4    0    0  0.11433215301E+03 -0.43977197276E+02 -0.27105364203E+03  0.30829570124E+03  0.81057556438E+02 0.  0.
         13    1    3    3    0    0 -0.66823479508E+02  0.35035038721E+03  0.26284510322E+02  0.35763339709E+03  0.00000000000E+00 0. -1.
        -13    1    3    3    0    0 -0.23604683432E+03  0.77395305618E+03  0.16830294383E+03  0.82646677009E+03  0.00000000000E+00 0.  1.
          4    1    6    6  502    0  0.12524217067E+03 -0.29851221706E+02 -0.23131012916E+03  0.26472829959E+03  0.00000000000E+00 0. -1.
          3    1    5    5  503    0  0.77513317651E+02 -0.58593141455E+03  0.17925379940E+03  0.61762113109E+03  0.00000000000E+00 0. -1.
         -4    1    5    5    0  503  0.11102484317E+03 -0.49439483157E+03  0.21571436865E+03  0.55071358629E+03  0.00000000000E+00 0.  1.
         -3    1    6    6    0  502 -0.10910017669E+02 -0.14125975570E+02 -0.39743512874E+02  0.43567401654E+02  0.00000000000E+00 0.  1.
<mgrwt>
<rscale>  0 0.26415987E+04</rscale>
<asrwt>0</asrwt>
<pdfrwt beam="1">  1        1 0.18017143E+00 0.26415987E+04</pdfrwt>
<pdfrwt beam="2">  1       -1 0.22917174E+00 0.26415987E+04</pdfrwt>
<totfact> 0.94134368E-01</totfact>
</mgrwt>
</event>
<event>
12    1  0.2588309E-007  0.1991372E+04  0.7818608E-02  0.8610665E-01
          1   -1    0    0  501    0  0.00000000000E+00  0.00000000000E+00  0.89173250280E+03  0.89173250280E+03  0.00000000000E+00 0. -1.
         -1   -1    0    0    0  501 -0.00000000000E+00 -0.00000000000E+00 -0.11117578395E+04  0.11117578395E+04  0.00000000000E+00 0.  1.
         23    2    1    2    0    0 -0.73911432176E+03 -0.13538931316E+02  0.19271028013E+03  0.76927299649E+03  0.90390307940E+02 0.  0.
        254    2    1    2    0    0  0.73911432176E+03  0.13538931316E+02 -0.41273561685E+03  0.12342173458E+04  0.89803590355E+03 0.  0.
        -24    2    4    4    0    0  0.15232973223E+03  0.34171578486E+03  0.86657670397E+02  0.39291236547E+03  0.83045470413E+02 0.  0.
         24    2    4    4    0    0  0.58678458953E+03 -0.32817685354E+03 -0.49939328725E+03  0.84130498037E+03  0.79901269921E+02 0.  0.
         13    1    3    3    0    0 -0.41599167998E+03  0.18093248047E+02  0.70202987968E+02  0.42226165224E+03  0.00000000000E+00 0.  1.
        -13    1    3    3    0    0 -0.32312264178E+03 -0.31632179363E+02  0.12250729216E+03  0.34701134425E+03  0.00000000000E+00 0. -1.
          2    1    6    6  502    0  0.26729534608E+03 -0.12819809140E+03 -0.17663782418E+03  0.34508328503E+03  0.00000000000E+00 0. -1.
          3    1    5    5  503    0  0.10394364237E+03  0.25743521329E+03  0.27136129455E+02  0.27895078303E+03  0.00000000000E+00 0. -1.
         -4    1    5    5    0  503  0.48386089861E+02  0.84280571572E+02  0.59521540943E+02  0.11396158244E+03  0.00000000000E+00 0.  1.
         -1    1    6    6    0  502  0.31948924345E+03 -0.19997876214E+03 -0.32275546306E+03  0.49622169534E+03  0.00000000000E+00 0.  1.
<mgrwt>
<rscale>  0 0.19913720E+04</rscale>
<asrwt>0</asrwt>
<pdfrwt beam="1">  1        1 0.13718962E+00 0.19913720E+04</pdfrwt>
<pdfrwt beam="2">  1       -1 0.17103967E+00 0.19913720E+04</pdfrwt>
<totfact> 0.41486748E+00</totfact>
</mgrwt>
</event>
<event>
12    1  0.2588309E-007  0.3453256E+04  0.7818608E-02  0.8124958E-01
         -1   -1    0    0    0  501 -0.00000000000E+00  0.00000000000E+00  0.10962749555E+04  0.10962749555E+04  0.00000000000E+00 0.  1.
          1   -1    0    0  501    0  0.00000000000E+00 -0.00000000000E+00 -0.27194307799E+04  0.27194307799E+04  0.00000000000E+00 0. -1.
         23    2    1    2    0    0 -0.11425190291E+04 -0.10273446852E+04 -0.12798417520E+04  0.20017683166E+04  0.91074964683E+02 0.  0.
        254    2    1    2    0    0  0.11425190291E+04  0.10273446852E+04 -0.34331407242E+03  0.18139374187E+04  0.90095370177E+03 0.  0.
        -24    2    4    4    0    0  0.76968581369E+02  0.63176200348E+03 -0.12847374450E+03  0.65425049736E+03  0.80565617429E+02 0.  0.
         24    2    4    4    0    0  0.10655504477E+04  0.39558268175E+03 -0.21484032792E+03  0.11596869214E+04  0.82667856164E+02 0.  0.
         13    1    3    3    0    0 -0.21300318732E+03 -0.24092969179E+03 -0.27313695912E+03  0.42192567193E+03  0.00000000000E+00 0. -1.
        -13    1    3    3    0    0 -0.92951584174E+03 -0.78641499344E+03 -0.10067047929E+04  0.15798426447E+04  0.00000000000E+00 0.  1.
          4    1    6    6  502    0  0.98982805426E+03  0.35521501055E+03 -0.17931538947E+03  0.10668136152E+04  0.00000000000E+00 0. -1.
          1    1    5    5  503    0  0.40090257029E+02  0.55371316782E+03 -0.10913229308E+03  0.56578737907E+03  0.00000000000E+00 0. -1.
         -2    1    5    5    0  503  0.36878324340E+02  0.78048835656E+02 -0.19341451418E+02  0.88463118283E+02  0.00000000000E+00 0.  1.
         -3    1    6    6    0  502  0.75722393425E+02  0.40367671207E+02 -0.35524938441E+02  0.92873306154E+02  0.00000000000E+00 0.  1.
<mgrwt>
<rscale>  0 0.34532558E+04</rscale>
<asrwt>0</asrwt>
<pdfrwt beam="1">  1        1 0.41837396E+00 0.34532558E+04</pdfrwt>
<pdfrwt beam="2">  1       -1 0.16865769E+00 0.34532558E+04</pdfrwt>
<totfact> 0.19595924E-01</totfact>
</mgrwt>
</event>
<event>
12    1  0.2588309E-007  0.1311377E+04  0.7818608E-02  0.9020591E-01
          2   -1    0    0  501    0  0.00000000000E+00  0.00000000000E+00  0.28776176673E+04  0.28776176673E+04  0.00000000000E+00 0. -1.
         -2   -1    0    0    0  501 -0.00000000000E+00 -0.00000000000E+00 -0.14940404933E+03  0.14940404933E+03  0.00000000000E+00 0.  1.
         23    2    1    2    0    0 -0.31219815750E+03 -0.12325817283E+03  0.83349233551E+03  0.90306089575E+03  0.90273148608E+02 0.  0.
        254    2    1    2    0    0  0.31219815750E+03  0.12325817283E+03  0.18947212825E+04  0.21239608209E+04  0.89921107851E+03 0.  0.
        -24    2    4    4    0    0  0.39909813629E+03  0.43998971079E+03  0.98092900435E+03  0.11496739959E+04  0.81598512807E+02 0.  0.
         24    2    4    4    0    0 -0.86899978786E+02 -0.31673153796E+03  0.91379227812E+03  0.97428682499E+03  0.79674439705E+02 0.  0.
         13    1    3    3    0    0 -0.76202774643E+02 -0.40902762276E+01  0.27094660687E+03  0.28148828927E+03  0.00000000000E+00 0. -1.
        -13    1    3    3    0    0 -0.23599538286E+03 -0.11916789660E+03  0.56254572864E+03  0.62157260648E+03  0.00000000000E+00 0.  1.
          2    1    6    6  502    0 -0.70660545002E+02 -0.13030071916E+03  0.34480419104E+03  0.37531469488E+03  0.00000000000E+00 0. -1.
          3    1    5    5  503    0  0.18496195849E+03  0.21334229207E+03  0.54377790676E+03  0.61271548989E+03  0.00000000000E+00 0. -1.
         -4    1    5    5    0  503  0.21413617779E+03  0.22664741872E+03  0.43715109759E+03  0.53695850601E+03  0.00000000000E+00 0.  1.
         -1    1    6    6    0  502 -0.16239433784E+02 -0.18643081880E+03  0.56898808708E+03  0.59897213011E+03  0.00000000000E+00 0.  1.
<mgrwt>
<rscale>  0 0.13113775E+04</rscale>
<asrwt>0</asrwt>
<pdfrwt beam="1">  1        2 0.44271037E+00 0.13113775E+04</pdfrwt>
<pdfrwt beam="2">  1       -2 0.22985240E-01 0.13113775E+04</pdfrwt>
<totfact> 0.34224917E+01</totfact>
</mgrwt>
</event>
<event>
12    1  0.2588309E-007  0.1911611E+04  0.7818608E-02  0.8649098E-01
         -1   -1    0    0    0  501 -0.00000000000E+00  0.00000000000E+00  0.11550773452E+04  0.11550773452E+04  0.00000000000E+00 0. -1.
          1   -1    0    0  501    0  0.00000000000E+00 -0.00000000000E+00 -0.79091164259E+03  0.79091164259E+03  0.00000000000E+00 0.  1.
         23    2    1    2    0    0  0.58203449826E+03 -0.43907842416E+03  0.13546004076E+02  0.73510569323E+03  0.92967017081E+02 0.  0.
        254    2    1    2    0    0 -0.58203449826E+03  0.43907842416E+03  0.35061969854E+03  0.12108832946E+04  0.90097178663E+03 0.  0.
        -24    2    4    4    0    0 -0.21916673652E+03  0.26470206773E+02 -0.28345879984E+03  0.36820357549E+03  0.80562097496E+02 0.  0.
         24    2    4    4    0    0 -0.36286776174E+03  0.41260821739E+03  0.63407849839E+03  0.84267971907E+03  0.78326325350E+02 0.  0.
         13    1    3    3    0    0  0.28578543532E+03 -0.15926045724E+03 -0.45582512796E+01  0.32719716676E+03  0.00000000000E+00 0.  1.
        -13    1    3    3    0    0  0.29624906294E+03 -0.27981796693E+03  0.18104255356E+02  0.40790852647E+03  0.00000000000E+00 0. -1.
          4    1    6    6  502    0 -0.12171667107E+03  0.13238686382E+03  0.26520508349E+03  0.32042934641E+03  0.00000000000E+00 0. -1.
          1    1    5    5  503    0 -0.16037388775E+03 -0.89504323858E+00 -0.14893993022E+03  0.21886911109E+03  0.00000000000E+00 0. -1.
         -2    1    5    5    0  503 -0.58792848777E+02  0.27365250012E+02 -0.13451886962E+03  0.14933446441E+03  0.00000000000E+00 0.  1.
         -1    1    6    6    0  502 -0.24115109066E+03  0.28022135357E+03  0.36887341489E+03  0.52225037266E+03  0.00000000000E+00 0.  1.
<mgrwt>
<rscale>  0 0.19116110E+04</rscale>
<asrwt>0</asrwt>
<pdfrwt beam="1">  1        1 0.12167871E+00 0.19116110E+04</pdfrwt>
<pdfrwt beam="2">  1       -1 0.17770421E+00 0.19116110E+04</pdfrwt>
<totfact> 0.45502455E+00</totfact>
</mgrwt>
</event>
<event>
12    1  0.2588309E-007  0.1423349E+04  0.7818608E-02  0.8937089E-01
         -2   -1    0    0    0  501 -0.00000000000E+00  0.00000000000E+00  0.13275662014E+03  0.13275662014E+03  0.00000000000E+00 0.  1.
          2   -1    0    0  501    0  0.00000000000E+00 -0.00000000000E+00 -0.38151038080E+04  0.38151038080E+04  0.00000000000E+00 0. -1.
         23    2    1    2    0    0 -0.92871721765E+02 -0.38888038853E+03 -0.75707139996E+03  0.86139248345E+03  0.94798695288E+02 0.  0.
        254    2    1    2    0    0  0.92871721765E+02  0.38888038853E+03 -0.29252757879E+04  0.30864679447E+04  0.89955145767E+03 0.  0.
        -24    2    4    4    0    0  0.25054760375E+03  0.44886038349E+03 -0.28290408789E+04  0.28765530562E+04  0.82676752132E+02 0.  0.
         24    2    4    4    0    0 -0.15767588199E+03 -0.59979994959E+02 -0.96234909008E+02  0.20991488844E+03  0.79648095522E+02 0.  0.
         11    1    3    3    0    0  0.90741820514E+01 -0.13880900272E+03 -0.29597579146E+03  0.32703508855E+03  0.00000000000E+00 0. -1.
        -11    1    3    3    0    0 -0.10194590382E+03 -0.25007138581E+03 -0.46109560850E+03  0.53435739490E+03  0.00000000000E+00 0.  1.
          2    1    6    6  502    0 -0.79535682096E+02 -0.70185804385E+02 -0.68977677057E+02  0.12653020112E+03  0.00000000000E+00 0. -1.
          1    1    5    5  503    0  0.47429040903E+01  0.16330121210E+02 -0.20950600275E+03  0.21019498849E+03  0.00000000000E+00 0. -1.
         -2    1    5    5    0  503  0.24580469966E+03  0.43253026228E+03 -0.26195348761E+04  0.26663580677E+04  0.00000000000E+00 0.  1.
         -1    1    6    6    0  502 -0.78140199893E+02  0.10205809427E+02 -0.27257231951E+02  0.83384687317E+02  0.00000000000E+00 0.  1.
<mgrwt>
<rscale>  0 0.14233486E+04</rscale>
<asrwt>0</asrwt>
<pdfrwt beam="1">  1        2 0.58693911E+00 0.14233486E+04</pdfrwt>
<pdfrwt beam="2">  1       -2 0.20424093E-01 0.14233486E+04</pdfrwt>
<totfact> 0.97938049E+00</totfact>
</mgrwt>
</event>
<event>
12    1  0.2588309E-007  0.1515743E+04  0.7818608E-02  0.8874051E-01
         -3   -1    0    0    0  501 -0.00000000000E+00  0.00000000000E+00  0.23499119398E+03  0.23499119398E+03  0.00000000000E+00 0. -1.
          3   -1    0    0  501    0  0.00000000000E+00 -0.00000000000E+00 -0.24442162210E+04  0.24442162210E+04  0.00000000000E+00 0.  1.
         23    2    1    2    0    0 -0.27748448724E+03 -0.39839494382E+03 -0.72739205955E+03  0.87920357275E+03  0.90462932272E+02 0.  0.
        254    2    1    2    0    0  0.27748448724E+03  0.39839494382E+03 -0.14818329675E+04  0.18000038423E+04  0.89914888461E+03 0.  0.
        -24    2    4    4    0    0  0.29945614892E+03 -0.10952977445E+03 -0.12963829826E+03  0.35318749845E+03  0.79148999124E+02 0.  0.
         24    2    4    4    0    0 -0.21971661687E+02  0.50792471827E+03 -0.13521946692E+04  0.14468163438E+04  0.79855093128E+02 0.  0.
         11    1    3    3    0    0 -0.16114885112E+03 -0.18244069705E+03 -0.42561990680E+03  0.49031200804E+03  0.00000000000E+00 0. -1.
        -11    1    3    3    0    0 -0.11633563612E+03 -0.21595424677E+03 -0.30177215275E+03  0.38889156471E+03  0.00000000000E+00 0.  1.
          2    1    6    6  502    0  0.10833281226E+02  0.40836662139E+03 -0.11155293136E+04  0.11879757181E+04  0.00000000000E+00 0. -1.
          1    1    5    5  503    0  0.23107817238E+03 -0.75881090979E+02 -0.61295942869E+02  0.25082315350E+03  0.00000000000E+00 0. -1.
         -2    1    5    5    0  503  0.68377976542E+02 -0.33648683470E+02 -0.68342355394E+02  0.10236434495E+03  0.00000000000E+00 0.  1.
         -3    1    6    6    0  502 -0.32804942912E+02  0.99558096877E+02 -0.23666535567E+03  0.25884062569E+03  0.00000000000E+00 0.  1.
<mgrwt>
<rscale>  0 0.15157431E+04</rscale>
<asrwt>0</asrwt>
<pdfrwt beam="1">  1        3 0.37603328E+00 0.15157431E+04</pdfrwt>
<pdfrwt beam="2">  1       -3 0.36152490E-01 0.15157431E+04</pdfrwt>
<totfact> 0.28865321E-01</totfact>
</mgrwt>
</event>
<event>
12    1  0.2588309E-007  0.1905565E+04  0.7818608E-02  0.8652091E-01
         -1   -1    0    0    0  501 -0.00000000000E+00  0.00000000000E+00  0.97177367278E+03  0.97177367278E+03  0.00000000000E+00 0.  1.
          1   -1    0    0  501    0  0.00000000000E+00 -0.00000000000E+00 -0.93416260443E+03  0.93416260443E+03  0.00000000000E+00 0. -1.
         23    2    1    2    0    0  0.53040690808E+03  0.44683820510E+03 -0.23203152498E+03  0.73697415313E+03  0.91084598685E+02 0.  0.
        254    2    1    2    0    0 -0.53040690808E+03 -0.44683820510E+03  0.26964259333E+03  0.11689621241E+04  0.90153727028E+03 0.  0.
        -24    2    4    4    0    0 -0.45320279166E+03 -0.36409731982E+03 -0.24531291751E+03  0.63555330455E+03  0.76091699660E+02 0.  0.
         24    2    4    4    0    0 -0.77204116420E+02 -0.82740885277E+02  0.51495551084E+03  0.53340881952E+03  0.80865696750E+02 0.  0.
         13    1    3    3    0    0  0.24036091975E+03  0.16916434218E+03 -0.59200900216E+02  0.29982443695E+03  0.00000000000E+00 0.  1.
        -13    1    3    3    0    0  0.29004598833E+03  0.27767386292E+03 -0.17283062476E+03  0.43714971618E+03  0.00000000000E+00 0. -1.
          4    1    6    6  502    0  0.14985808045E+02 -0.28304909415E+02  0.11858302004E+03  0.12283189725E+03  0.00000000000E+00 0. -1.
          1    1    5    5  503    0 -0.18018323437E+03 -0.11315072521E+03 -0.11911725722E+03  0.24384012289E+03  0.00000000000E+00 0. -1.
         -2    1    5    5    0  503 -0.27301955730E+03 -0.25094659461E+03 -0.12619566029E+03  0.39171318166E+03  0.00000000000E+00 0.  1.
         -3    1    6    6    0  502 -0.92189924466E+02 -0.54435975862E+02  0.39637249080E+03  0.41057692227E+03  0.00000000000E+00 0.  1.
<mgrwt>
<rscale>  0 0.19055651E+04</rscale>
<asrwt>0</asrwt>
<pdfrwt beam="1">  1        1 0.14371732E+00 0.19055651E+04</pdfrwt>
<pdfrwt beam="2">  1       -1 0.14950364E+00 0.19055651E+04</pdfrwt>
<totfact> 0.56194343E+00</totfact>
</mgrwt>
</event>
<event>
12    1  0.2588309E-007  0.2691348E+04  0.7818608E-02  0.8337818E-01
          2   -1    0    0  501    0  0.00000000000E+00  0.00000000000E+00  0.21112736890E+04  0.21112736890E+04  0.00000000000E+00 0. -1.
         -2   -1    0    0    0  501 -0.00000000000E+00 -0.00000000000E+00 -0.85769961670E+03  0.85769961670E+03  0.00000000000E+00 0.  1.
         23    2    1    2    0    0  0.10546496814E+04  0.51320199565E+03  0.79783569923E+03  0.14215002540E+04  0.91972442274E+02 0.  0.
        254    2    1    2    0    0 -0.10546496814E+04 -0.51320199565E+03  0.45573837306E+03  0.15474730517E+04  0.90072922807E+03 0.  0.
        -24    2    4    4    0    0 -0.18453047301E+03 -0.27802310630E+03 -0.22937962073E+03  0.41255707829E+03  0.78993603125E+02 0.  0.
         24    2    4    4    0    0 -0.87011920843E+03 -0.23517888935E+03  0.68511799379E+03  0.11349159735E+04  0.78937028770E+02 0.  0.
         13    1    3    3    0    0  0.34669232461E+03  0.19414615839E+03  0.22588896716E+03  0.45707124636E+03  0.00000000000E+00 0.  1.
        -13    1    3    3    0    0  0.70795735683E+03  0.31905583726E+03  0.57194673207E+03  0.96442900760E+03  0.00000000000E+00 0. -1.
          2    1    6    6  502    0 -0.81511472362E+03 -0.23387780823E+03  0.62512893250E+03  0.10535165039E+04  0.00000000000E+00 0. -1.
          1    1    5    5  503    0 -0.36592880027E+01 -0.25915954232E+02 -0.43775301891E+02  0.51002981561E+02  0.00000000000E+00 0. -1.
         -2    1    5    5    0  503 -0.18087118500E+03 -0.25210715207E+03 -0.18560431884E+03  0.36155409673E+03  0.00000000000E+00 0.  1.
         -1    1    6    6    0  502 -0.55004484812E+02 -0.13010811256E+01  0.59989061295E+02  0.81399469510E+02  0.00000000000E+00 0.  1.
<mgrwt>
<rscale>  0 0.26913481E+04</rscale>
<asrwt>0</asrwt>
<pdfrwt beam="1">  1        2 0.32481133E+00 0.26913481E+04</pdfrwt>
<pdfrwt beam="2">  1       -2 0.13195379E+00 0.26913481E+04</pdfrwt>
<totfact> 0.21259527E+00</totfact>
</mgrwt>
</event>
<event>
12    1  0.2588309E-007  0.1745898E+04  0.7818608E-02  0.8735612E-01
         -1   -1    0    0    0  501 -0.00000000000E+00  0.00000000000E+00  0.29808963242E+03  0.29808963242E+03  0.00000000000E+00 0.  1.
          1   -1    0    0  501    0  0.00000000000E+00 -0.00000000000E+00 -0.25564117542E+04  0.25564117542E+04  0.00000000000E+00 0. -1.
         23    2    1    2    0    0 -0.49785694963E+03  0.24177931213E+03 -0.31856895969E+03  0.64502231249E+03  0.90823033770E+02 0.  0.
        254    2    1    2    0    0  0.49785694963E+03 -0.24177931213E+03 -0.19397531621E+04  0.22094790741E+04  0.90157455104E+03 0.  0.
        -24    2    4    4    0    0 -0.70717718716E+02 -0.41832832788E+03 -0.58931706095E+03  0.73135888779E+03  0.87130010736E+02 0.  0.
         24    2    4    4    0    0  0.56857466835E+03  0.17654901575E+03 -0.13504361012E+04  0.14781201864E+04  0.81944576036E+02 0.  0.
         11    1    3    3    0    0 -0.39561296014E+03  0.22661094918E+03 -0.27794921018E+03  0.53396432462E+03  0.00000000000E+00 0. -1.
        -11    1    3    3    0    0 -0.10224398949E+03  0.15168362951E+02 -0.40619749508E+02  0.11105798787E+03  0.00000000000E+00 0.  1.
          4    1    6    6  502    0  0.29590344443E+03  0.55358480746E+02 -0.62531388793E+03  0.69400350737E+03  0.00000000000E+00 0. -1.
          3    1    5    5  503    0 -0.61713375597E+02 -0.14881731220E+03 -0.25803937142E+03  0.30420297556E+03  0.00000000000E+00 0. -1.
         -4    1    5    5    0  503 -0.90043431190E+01 -0.26951101568E+03 -0.33127768953E+03  0.42715591222E+03  0.00000000000E+00 0.  1.
         -3    1    6    6    0  502  0.27267122392E+03  0.12119053501E+03 -0.72512221325E+03  0.78411667899E+03  0.00000000000E+00 0.  1.
<mgrwt>
<rscale>  0 0.17458979E+04</rscale>
<asrwt>0</asrwt>
<pdfrwt beam="1">  1        1 0.39329410E+00 0.17458979E+04</pdfrwt>
<pdfrwt beam="2">  1       -1 0.45859945E-01 0.17458979E+04</pdfrwt>
<totfact> 0.55540955E+00</totfact>
</mgrwt>
</event>
<event>
12    1  0.2588309E-007  0.1418613E+04  0.7818608E-02  0.8940454E-01
         -2   -1    0    0    0  501 -0.00000000000E+00  0.00000000000E+00  0.75433099402E+03  0.75433099402E+03  0.00000000000E+00 0.  1.
          2   -1    0    0  501    0  0.00000000000E+00 -0.00000000000E+00 -0.66696982402E+03  0.66696982402E+03  0.00000000000E+00 0. -1.
         23    2    1    2    0    0  0.28251514014E+03  0.28581323908E+03  0.13936649749E+03  0.43577665826E+03  0.94732587934E+02 0.  0.
        254    2    1    2    0    0 -0.28251514014E+03 -0.28581323908E+03 -0.52005327482E+02  0.98552415978E+03  0.89835922848E+03 0.  0.
        -24    2    4    4    0    0 -0.32583278641E+03  0.32146327773E+02 -0.38808068970E+03  0.51397598556E+03  0.79776568724E+02 0.  0.
         24    2    4    4    0    0  0.43317646270E+02 -0.31795956686E+03  0.33607536222E+03  0.47154817423E+03  0.80226721811E+02 0.  0.
         11    1    3    3    0    0  0.12649956400E+03  0.13460616921E+03  0.14742557618E+02  0.18530597262E+03  0.00000000000E+00 0. -1.
        -11    1    3    3    0    0  0.15601557614E+03  0.15120706987E+03  0.12462393987E+03  0.25047068564E+03  0.00000000000E+00 0.  1.
          2    1    6    6  502    0 -0.22366521814E+02 -0.10753938796E+03  0.99740218146E+02  0.14836809757E+03  0.00000000000E+00 0. -1.
          3    1    5    5  503    0 -0.22567539279E+02 -0.13066545204E+02 -0.57238181737E+02  0.62898631792E+02  0.00000000000E+00 0. -1.
         -4    1    5    5    0  503 -0.30326524713E+03  0.45212872978E+02 -0.33084250797E+03  0.45107735376E+03  0.00000000000E+00 0.  1.
         -1    1    6    6    0  502  0.65684168084E+02 -0.21042017889E+03  0.23633514407E+03  0.32318007666E+03  0.00000000000E+00 0.  1.
<mgrwt>
<rscale>  0 0.14186134E+04</rscale>
<asrwt>0</asrwt>
<pdfrwt beam="1">  1        2 0.10261074E+00 0.14186134E+04</pdfrwt>
<pdfrwt beam="2">  1       -2 0.11605092E+00 0.14186134E+04</pdfrwt>
<totfact> 0.24405346E+01</totfact>
</mgrwt>
</event>
<event>
12    1  0.2588309E-007  0.1726248E+04  0.7818608E-02  0.8746534E-01
          2   -1    0    0  501    0  0.00000000000E+00  0.00000000000E+00  0.23433959097E+04  0.23433959097E+04  0.00000000000E+00 0. -1.
         -2   -1    0    0    0  501 -0.00000000000E+00 -0.00000000000E+00 -0.31790739299E+03  0.31790739299E+03  0.00000000000E+00 0.  1.
         23    2    1    2    0    0  0.42820562717E+03 -0.35156776045E+03  0.11849986489E+04  0.13113501527E+04  0.91964534296E+02 0.  0.
        254    2    1    2    0    0 -0.42820562717E+03  0.35156776045E+03  0.84048986773E+03  0.13499531500E+04  0.89943890292E+03 0.  0.
        -24    2    4    4    0    0  0.24885869759E+03  0.25021470277E+03  0.22389749762E+03  0.42514124639E+03  0.77954737448E+02 0.  0.
         24    2    4    4    0    0 -0.67706432476E+03  0.10135305768E+03  0.61659237011E+03  0.92481190360E+03  0.80014773628E+02 0.  0.
         13    1    3    3    0    0  0.69569932057E+02 -0.19675896079E+02  0.17542344559E+03  0.18973798142E+03  0.00000000000E+00 0. -1.
        -13    1    3    3    0    0  0.35863569512E+03 -0.33189186437E+03  0.10095752033E+04  0.11216121712E+04  0.00000000000E+00 0.  1.
          2    1    6    6  502    0 -0.22687243857E+03  0.54935155091E+02  0.16814249463E+03  0.28768189576E+03  0.00000000000E+00 0. -1.
          1    1    5    5  503    0  0.71253185812E+02  0.60371438325E+02  0.10108521409E+03  0.13762248203E+03  0.00000000000E+00 0. -1.
         -2    1    5    5    0  503  0.17760551178E+03  0.18984326445E+03  0.12281228353E+03  0.28751876436E+03  0.00000000000E+00 0.  1.
         -1    1    6    6    0  502 -0.45019188619E+03  0.46417902588E+02  0.44844987548E+03  0.63713000784E+03  0.00000000000E+00 0.  1.
<mgrwt>
<rscale>  0 0.17262478E+04</rscale>
<asrwt>0</asrwt>
<pdfrwt beam="1">  1        2 0.36052244E+00 0.17262478E+04</pdfrwt>
<pdfrwt beam="2">  1       -2 0.48908831E-01 0.17262478E+04</pdfrwt>
<totfact> 0.16113736E+01</totfact>
</mgrwt>
</event>
<event>
12    1  0.2588309E-007  0.1700291E+04  0.7818608E-02  0.8761199E-01
         -3   -1    0    0    0  501 -0.00000000000E+00  0.00000000000E+00  0.10662138637E+04  0.10662138637E+04  0.00000000000E+00 0.  1.
          3   -1    0    0  501    0  0.00000000000E+00 -0.00000000000E+00 -0.67786304528E+03  0.67786304528E+03  0.00000000000E+00 0. -1.
         23    2    1    2    0    0 -0.53630040841E+03 -0.28664457968E+03  0.12704516853E+03  0.62773362005E+03  0.90143107179E+02 0.  0.
        254    2    1    2    0    0  0.53630040841E+03  0.28664457968E+03  0.26130564992E+03  0.11163432890E+04  0.89897633618E+03 0.  0.
        -24    2    4    4    0    0  0.73209217204E+03  0.36643038267E+03  0.77729338477E+02  0.82613016264E+03  0.78860775111E+02 0.  0.
         24    2    4    4    0    0 -0.19579176364E+03 -0.79785802982E+02  0.18357631144E+03  0.29021312633E+03  0.76309943698E+02 0.  0.
         13    1    3    3    0    0 -0.11504552807E+03 -0.10047483573E+03  0.50374784398E+02  0.16083620565E+03  0.00000000000E+00 0.  1.
        -13    1    3    3    0    0 -0.42125488033E+03 -0.18616974395E+03  0.76670384133E+02  0.46689741440E+03  0.00000000000E+00 0. -1.
          4    1    6    6  502    0 -0.63259821348E+02 -0.27427057558E+02  0.11004266487E+03  0.12985929530E+03  0.00000000000E+00 0. -1.
          1    1    5    5  503    0  0.35110613888E+03  0.19156663039E+03  0.10051447726E+01  0.39996787990E+03  0.00000000000E+00 0. -1.
         -2    1    5    5    0  503  0.38098603316E+03  0.17486375228E+03  0.76724193705E+02  0.42616228273E+03  0.00000000000E+00 0.  1.
         -3    1    6    6    0  502 -0.13253194229E+03 -0.52358745424E+02  0.73533646568E+02  0.16035383103E+03  0.00000000000E+00 0.  1.
<mgrwt>
<rscale>  0 0.17002905E+04</rscale>
<asrwt>0</asrwt>
<pdfrwt beam="1">  1        3 0.10428662E+00 0.17002905E+04</pdfrwt>
<pdfrwt beam="2">  1       -3 0.16403290E+00 0.17002905E+04</pdfrwt>
<totfact> 0.50269133E-01</totfact>
</mgrwt>
</event>
<event>
12    1  0.2588309E-007  0.1743376E+04  0.7818608E-02  0.8737005E-01
         -2   -1    0    0    0  501 -0.00000000000E+00  0.00000000000E+00  0.53682739386E+03  0.53682739386E+03  0.00000000000E+00 0. -1.
          2   -1    0    0  501    0  0.00000000000E+00 -0.00000000000E+00 -0.14154271676E+04  0.14154271676E+04  0.00000000000E+00 0.  1.
         23    2    1    2    0    0  0.30107229901E+03  0.55321490865E+03 -0.41054953089E+03  0.75712477470E+03  0.89418917358E+02 0.  0.
        254    2    1    2    0    0 -0.30107229901E+03 -0.55321490865E+03 -0.46805024283E+03  0.11951297867E+04  0.90142826277E+03 0.  0.
        -24    2    4    4    0    0  0.30501364010E+03 -0.28015396008E+03 -0.10553342084E+03  0.43435839647E+03  0.77526457911E+02 0.  0.
         24    2    4    4    0    0 -0.60608593911E+03 -0.27306094857E+03 -0.36251682199E+03  0.76077139025E+03  0.73839114219E+02 0.  0.
         13    1    3    3    0    0  0.30406639082E+03  0.53292238713E+03 -0.38497280330E+03  0.72433880195E+03  0.00000000000E+00 0.  1.
        -13    1    3    3    0    0 -0.29940918160E+01  0.20292521513E+02 -0.25576727583E+02  0.32785972748E+02  0.00000000000E+00 0. -1.
          2    1    6    6  502    0  0.57702501631E-01 -0.62890173003E+01 -0.58150063798E+01  0.85655920624E+01  0.00000000000E+00 0. -1.
          3    1    5    5  503    0  0.47529267194E+01 -0.36780767203E+01  0.86444017345E+01  0.10528259215E+02  0.00000000000E+00 0. -1.
         -4    1    5    5    0  503  0.30026071338E+03 -0.27647588336E+03 -0.11417782258E+03  0.42383013726E+03  0.00000000000E+00 0.  1.
         -3    1    6    6    0  502 -0.60614364161E+03 -0.26677193127E+03 -0.35670181561E+03  0.75220579819E+03  0.00000000000E+00 0.  1.
<mgrwt>
<rscale>  0 0.17433761E+04</rscale>
<asrwt>0</asrwt>
<pdfrwt beam="1">  1        2 0.21775802E+00 0.17433761E+04</pdfrwt>
<pdfrwt beam="2">  1       -2 0.82588831E-01 0.17433761E+04</pdfrwt>
<totfact> 0.17297473E+01</totfact>
</mgrwt>
</event>
<event>
12    1  0.2588309E-007  0.3367972E+04  0.7818608E-02  0.8145812E-01
         -1   -1    0    0    0  501 -0.00000000000E+00  0.00000000000E+00  0.14221660373E+04  0.14221660373E+04  0.00000000000E+00 0.  1.
          1   -1    0    0  501    0  0.00000000000E+00 -0.00000000000E+00 -0.19940066550E+04  0.19940066550E+04  0.00000000000E+00 0. -1.
         23    2    1    2    0    0 -0.21043993780E+03 -0.15226659585E+04 -0.17462759290E+02  0.15398809949E+04  0.90177280012E+02 0.  0.
        254    2    1    2    0    0  0.21043993780E+03  0.15226659585E+04 -0.55437785840E+03  0.18762916974E+04  0.92213834930E+03 0.  0.
        -24    2    4    4    0    0  0.53122396672E+03  0.92919368419E+03 -0.52863245234E+03  0.11964377265E+04  0.80069707537E+02 0.  0.
         24    2    4    4    0    0 -0.32078402892E+03  0.59347227435E+03 -0.25745406058E+02  0.67985397098E+03  0.80167713468E+02 0.  0.
         11    1    3    3    0    0 -0.46892618411E+02 -0.63602652382E+03 -0.25205506847E+02  0.63825071425E+03  0.00000000000E+00 0.  1.
        -11    1    3    3    0    0 -0.16354731939E+03 -0.88663943472E+03  0.77427475570E+01  0.90163028067E+03  0.00000000000E+00 0. -1.
          4    1    6    6  502    0 -0.15240347315E+03  0.36491135924E+03 -0.17605689099E+02  0.39584981877E+03  0.00000000000E+00 0. -1.
          1    1    5    5  503    0  0.30550306257E+02  0.76583028593E+02 -0.61704647501E+02  0.10298419784E+03  0.00000000000E+00 0. -1.
         -2    1    5    5    0  503  0.50067366047E+03  0.85261065559E+03 -0.46692780484E+03  0.10934535286E+04  0.00000000000E+00 0.  1.
         -3    1    6    6    0  502 -0.16838055577E+03  0.22856091511E+03 -0.81397169589E+01  0.28400415221E+03  0.00000000000E+00 0.  1.
<mgrwt>
<rscale>  0 0.33679718E+04</rscale>
<asrwt>0</asrwt>
<pdfrwt beam="1">  1        1 0.30677025E+00 0.33679718E+04</pdfrwt>
<pdfrwt beam="2">  1       -1 0.21879478E+00 0.33679718E+04</pdfrwt>
<totfact> 0.27822687E-01</totfact>
</mgrwt>
</event>
<event>
12    1  0.2588309E-007  0.1609768E+04  0.7818608E-02  0.8814570E-01
         -2   -1    0    0    0  501 -0.00000000000E+00  0.00000000000E+00  0.23636996763E+03  0.23636996763E+03  0.00000000000E+00 0.  1.
          2   -1    0    0  501    0  0.00000000000E+00 -0.00000000000E+00 -0.27407799218E+04  0.27407799218E+04  0.00000000000E+00 0. -1.
         23    2    1    2    0    0 -0.27280381097E+03  0.46925523363E+03 -0.10186889429E+04  0.11578426917E+04  0.90830296532E+02 0.  0.
        254    2    1    2    0    0  0.27280381097E+03 -0.46925523363E+03 -0.14857210113E+04  0.18193071978E+04  0.89882665895E+03 0.  0.
        -24    2    4    4    0    0 -0.41495111022E+02 -0.57566923847E+03 -0.13154361363E+04  0.14385861585E+04  0.77723809039E+02 0.  0.
         24    2    4    4    0    0  0.31429892199E+03  0.10641400484E+03 -0.17028487500E+03  0.38072103923E+03  0.76444870751E+02 0.  0.
         13    1    3    3    0    0 -0.12329356538E+03  0.14055153002E+03 -0.29906707801E+03  0.35269980579E+03  0.00000000000E+00 0.  1.
        -13    1    3    3    0    0 -0.14951024559E+03  0.32870370361E+03 -0.71962186490E+03  0.80514288592E+03  0.00000000000E+00 0. -1.
          4    1    6    6  502    0  0.28424516719E+03  0.96729397595E+02 -0.12435917839E+03  0.32498784082E+03  0.00000000000E+00 0. -1.
          3    1    5    5  503    0 -0.46867053991E+02 -0.16246794883E+03 -0.37400861653E+03  0.41045681914E+03  0.00000000000E+00 0. -1.
         -4    1    5    5    0  503  0.53719429695E+01 -0.41320128965E+03 -0.94142751975E+03  0.10281293394E+04  0.00000000000E+00 0.  1.
         -3    1    6    6    0  502  0.30053754800E+02  0.96846072444E+01 -0.45925696618E+02  0.55733198409E+02  0.00000000000E+00 0.  1.
<mgrwt>
<rscale>  0 0.16097678E+04</rscale>
<asrwt>0</asrwt>
<pdfrwt beam="1">  1        2 0.42165845E+00 0.16097678E+04</pdfrwt>
<pdfrwt beam="2">  1       -2 0.36364610E-01 0.16097678E+04</pdfrwt>
<totfact> 0.17185670E+01</totfact>
</mgrwt>
</event>
<event>
12    1  0.2588309E-007  0.1949386E+04  0.7818608E-02  0.8630657E-01
         -2   -1    0    0    0  501 -0.00000000000E+00  0.00000000000E+00  0.27301171457E+03  0.27301171457E+03  0.00000000000E+00 0. -1.
          2   -1    0    0  501    0  0.00000000000E+00 -0.00000000000E+00 -0.34798027812E+04  0.34798027812E+04  0.00000000000E+00 0.  1.
         23    2    1    2    0    0  0.25305725093E+03  0.68370357885E+03 -0.17061126689E+04  0.18563760280E+04  0.61830108283E+02 0.  0.
        254    2    1    2    0    0 -0.25305725093E+03 -0.68370357885E+03 -0.15006783977E+04  0.18964384677E+04  0.90163997952E+03 0.  0.
        -24    2    4    4    0    0  0.20122917019E+03 -0.18707430400E+02 -0.31929256028E+02  0.21959151395E+03  0.79735868486E+02 0.  0.
         24    2    4    4    0    0 -0.45428642111E+03 -0.66499614845E+03 -0.14687491416E+04  0.16768469538E+04  0.77431488790E+02 0.  0.
         13    1    3    3    0    0  0.58672082081E+02  0.15104688652E+03 -0.44754703603E+03  0.47597891193E+03  0.00000000000E+00 0.  1.
        -13    1    3    3    0    0  0.19438516885E+03  0.53265669233E+03 -0.12585656329E+04  0.13803971161E+04  0.00000000000E+00 0. -1.
          2    1    6    6  502    0 -0.14206016069E+03 -0.15730649686E+03 -0.42462136214E+03  0.47458373802E+03  0.00000000000E+00 0. -1.
          3    1    5    5  503    0 -0.43489999194E+01 -0.10071902704E+02 -0.50726983798E+01  0.12086740389E+02  0.00000000000E+00 0. -1.
         -2    1    5    5    0  503  0.20557817011E+03 -0.86355276956E+01 -0.26856557648E+02  0.20750477356E+03  0.00000000000E+00 0.  1.
         -1    1    6    6    0  502 -0.31222626042E+03 -0.50768965159E+03 -0.10441277795E+04  0.12022632157E+04  0.00000000000E+00 0.  1.
<mgrwt>
<rscale>  0 0.19493865E+04</rscale>
<asrwt>0</asrwt>
<pdfrwt beam="1">  1        2 0.53535422E+00 0.19493865E+04</pdfrwt>
<pdfrwt beam="2">  1       -2 0.42001806E-01 0.19493865E+04</pdfrwt>
<totfact> 0.42343145E+00</totfact>
</mgrwt>
</event>
<event>
12    1  0.3755436E-007  0.4026481E+04  0.7818608E-02  0.7999226E-01
         -2   -1    0    0    0  501 -0.00000000000E+00  0.00000000000E+00  0.25905165465E+04  0.25905165465E+04  0.00000000000E+00 0.  1.
          2   -1    0    0  501    0  0.00000000000E+00 -0.00000000000E+00 -0.15646055562E+04  0.15646055562E+04  0.00000000000E+00 0. -1.
         23    2    1    2    0    0  0.90976010660E+03 -0.16810012626E+04  0.51294519623E+03  0.19810587445E+04  0.89734488147E+02 0.  0.
        254    2    1    2    0    0 -0.90976010660E+03  0.16810012626E+04  0.51296579405E+03  0.21740633581E+04  0.89999382378E+03 0.  0.
        -24    2    4    4    0    0 -0.19829275388E+03  0.12312683930E+03 -0.19987984482E+03  0.31749927780E+03  0.79834856070E+02 0.  0.
         24    2    4    4    0    0 -0.71146735272E+03  0.15578744233E+04  0.71284563887E+03  0.18565640803E+04  0.74315319634E+02 0.  0.
         11    1    3    3    0    0  0.34389234216E+03 -0.72147811053E+03  0.19694655226E+03  0.82315281170E+03  0.00000000000E+00 0. -1.
        -11    1    3    3    0    0  0.56586776444E+03 -0.95952315208E+03  0.31599864397E+03  0.11579059328E+04  0.00000000000E+00 0.  1.
          2    1    6    6  502    0 -0.68220027932E+03  0.14704855582E+04  0.68895321835E+03  0.17613578668E+04  0.00000000000E+00 0. -1.
          1    1    5    5  503    0 -0.12661539947E+03  0.11582955027E+03 -0.16248661227E+03  0.23632571436E+03  0.00000000000E+00 0. -1.
         -4    1    5    5    0  503 -0.71677354406E+02  0.72972890279E+01 -0.37393232546E+02  0.81173563443E+02  0.00000000000E+00 0.  1.
         -1    1    6    6    0  502 -0.29267073397E+02  0.87388865096E+02  0.23892420518E+02  0.95206213486E+02  0.00000000000E+00 0.  1.
<mgrwt>
<rscale>  0 0.40264806E+04</rscale>
<asrwt>0</asrwt>
<pdfrwt beam="1">  1        2 0.24070855E+00 0.40264806E+04</pdfrwt>
<pdfrwt beam="2">  1       -2 0.39854101E+00 0.40264806E+04</pdfrwt>
<totfact> 0.69690186E-02</totfact>
</mgrwt>
</event>
<event>
12    1  0.2588309E-007  0.4238652E+04  0.7818608E-02  0.7958060E-01
         -2   -1    0    0    0  501 -0.00000000000E+00  0.00000000000E+00  0.21986361539E+04  0.21986361539E+04  0.00000000000E+00 0. -1.
          2   -1    0    0  501    0  0.00000000000E+00 -0.00000000000E+00 -0.20428763985E+04  0.20428763985E+04  0.00000000000E+00 0.  1.
         23    2    1    2    0    0  0.12511088731E+04 -0.28064656266E+03 -0.14918860487E+04  0.19691226005E+04  0.87658016626E+02 0.  0.
        254    2    1    2    0    0 -0.12511088731E+04  0.28064656266E+03  0.16476458042E+04  0.22723899519E+04  0.89720872266E+03 0.  0.
        -24    2    4    4    0    0  0.13108165606E+03  0.50963388235E+02  0.17604925676E+03  0.23880952593E+03  0.79101083250E+02 0.  0.
         24    2    4    4    0    0 -0.13821905292E+04  0.22968317442E+03  0.14715965474E+04  0.20335804260E+04  0.81534845506E+02 0.  0.
         11    1    3    3    0    0  0.17072406601E+03 -0.18693364908E+02 -0.16600739220E+03  0.23886105349E+03  0.00000000000E+00 0.  1.
        -11    1    3    3    0    0  0.10803848071E+04 -0.26195319775E+03 -0.13258786565E+04  0.17302615470E+04  0.00000000000E+00 0. -1.
          4    1    6    6  502    0 -0.71619839940E+02 -0.19745536435E+01  0.92876412110E+02  0.11730016309E+03  0.00000000000E+00 0. -1.
          3    1    5    5  503    0  0.42811606577E+02  0.55430053919E+02  0.10073318146E+03  0.12268862369E+03  0.00000000000E+00 0. -1.
         -4    1    5    5    0  503  0.88270049483E+02 -0.44666656837E+01  0.75316075298E+02  0.11612090224E+03  0.00000000000E+00 0.  1.
         -3    1    6    6    0  502 -0.13105706893E+04  0.23165772807E+03  0.13787201353E+04  0.19162802629E+04  0.00000000000E+00 0.  1.
<mgrwt>
<rscale>  0 0.42386516E+04</rscale>
<asrwt>0</asrwt>
<pdfrwt beam="1">  1        2 0.31428868E+00 0.42386516E+04</pdfrwt>
<pdfrwt beam="2">  1       -2 0.33825171E+00 0.42386516E+04</pdfrwt>
<totfact> 0.90228232E-02</totfact>
</mgrwt>
</event>
<event>
12    1  0.2588309E-007  0.1826172E+04  0.7818608E-02  0.8692504E-01
          2   -1    0    0  501    0  0.00000000000E+00  0.00000000000E+00  0.15349118497E+04  0.15349118497E+04  0.00000000000E+00 0.  1.
         -2   -1    0    0    0  501 -0.00000000000E+00 -0.00000000000E+00 -0.54317548970E+03  0.54317548970E+03  0.00000000000E+00 0. -1.
         23    2    1    2    0    0  0.82616289307E+02  0.67757066128E+03  0.46887109366E+03  0.83233037724E+03  0.83703656610E+02 0.  0.
        254    2    1    2    0    0 -0.82616289307E+02 -0.67757066128E+03  0.52286526632E+03  0.12457569621E+04  0.90144044157E+03 0.  0.
        -24    2    4    4    0    0 -0.27927309587E+03 -0.23510443918E+03 -0.15850394541E+03  0.40595596882E+03  0.80057407604E+02 0.  0.
         24    2    4    4    0    0  0.19665680656E+03 -0.44246622210E+03  0.68136921173E+03  0.83980099332E+03  0.80941018152E+02 0.  0.
         11    1    3    3    0    0  0.29466125933E+02  0.18842398715E+03  0.17731779066E+03  0.26041015801E+03  0.00000000000E+00 0.  1.
        -11    1    3    3    0    0  0.53150163374E+02  0.48914667413E+03  0.29155330300E+03  0.57192021924E+03  0.00000000000E+00 0. -1.
          4    1    6    6  502    0  0.38976636068E+02 -0.35818747660E+02  0.53064906904E+02  0.74953620246E+02  0.00000000000E+00 0. -1.
          1    1    5    5  503    0 -0.76861649085E+02 -0.22394259672E+02 -0.36703000549E+02  0.88070007469E+02  0.00000000000E+00 0. -1.
         -2    1    5    5    0  503 -0.20241144679E+03 -0.21271017951E+03 -0.12180094486E+03  0.31788596135E+03  0.00000000000E+00 0.  1.
         -3    1    6    6    0  502  0.15768017050E+03 -0.40664747444E+03  0.62830430482E+03  0.76484737307E+03  0.00000000000E+00 0.  1.
<mgrwt>
<rscale>  0 0.18261725E+04</rscale>
<asrwt>0</asrwt>
<pdfrwt beam="1">  1        2 0.23614028E+00 0.18261725E+04</pdfrwt>
<pdfrwt beam="2">  1       -2 0.83565461E-01 0.18261725E+04</pdfrwt>
<totfact> 0.14314070E+01</totfact>
</mgrwt>
</event>
<event>
12    1  0.2588309E-007  0.3931445E+04  0.7818608E-02  0.8018521E-01
         -2   -1    0    0    0  501 -0.00000000000E+00  0.00000000000E+00  0.13435972149E+04  0.13435972149E+04  0.00000000000E+00 0. -1.
          2   -1    0    0  501    0  0.00000000000E+00 -0.00000000000E+00 -0.28759099959E+04  0.28759099959E+04  0.00000000000E+00 0.  1.
         23    2    1    2    0    0  0.15275599708E+04 -0.10537564090E+04 -0.88085438146E+03  0.20562488358E+04  0.91721314662E+02 0.  0.
        254    2    1    2    0    0 -0.15275599708E+04  0.10537564090E+04 -0.65145839949E+03  0.21632583750E+04  0.90080337301E+03 0.  0.
        -24    2    4    4    0    0 -0.15925973920E+04  0.80735690584E+03 -0.62861291527E+03  0.18948352971E+04  0.83993924319E+02 0.  0.
         24    2    4    4    0    0  0.65037421250E+02  0.24639950318E+03 -0.22845484226E+02  0.26842307791E+03  0.81156954589E+02 0.  0.
         11    1    3    3    0    0  0.12102605930E+03 -0.62261274681E+02 -0.83029307825E+02  0.15942910435E+03  0.00000000000E+00 0.  1.
        -11    1    3    3    0    0  0.14065339115E+04 -0.99149513434E+03 -0.79782507364E+03  0.18968197315E+04  0.00000000000E+00 0. -1.
          4    1    6    6  502    0  0.74188202815E+02  0.24060073212E+03 -0.10499194040E+02  0.25199768810E+03  0.00000000000E+00 0. -1.
          3    1    5    5  503    0 -0.14184615335E+04  0.71619888849E+03 -0.53109922220E+03  0.16754224403E+04  0.00000000000E+00 0. -1.
         -4    1    5    5    0  503 -0.17413585855E+03  0.91158017356E+02 -0.97513693071E+02  0.21941285673E+03  0.00000000000E+00 0.  1.
         -3    1    6    6    0  502 -0.91507815647E+01  0.57987710546E+01 -0.12346290186E+02  0.16425389808E+02  0.00000000000E+00 0.  1.
<mgrwt>
<rscale>  0 0.39314449E+04</rscale>
<asrwt>0</asrwt>
<pdfrwt beam="1">  1        2 0.44244769E+00 0.39314449E+04</pdfrwt>
<pdfrwt beam="2">  1       -2 0.20670726E+00 0.39314449E+04</pdfrwt>
<totfact> 0.19821430E-01</totfact>
</mgrwt>
</event>
<event>
12    1  0.2588309E-007  0.1596598E+04  0.7818608E-02  0.8822641E-01
          1   -1    0    0  501    0  0.00000000000E+00  0.00000000000E+00  0.20978215919E+04  0.20978215919E+04  0.00000000000E+00 0. -1.
         -1   -1    0    0    0  501 -0.00000000000E+00 -0.00000000000E+00 -0.30378246158E+03  0.30378246158E+03  0.00000000000E+00 0.  1.
         23    2    1    2    0    0  0.40684690535E+03  0.29961568462E+03  0.33125440273E+03  0.61126599615E+03  0.92858364516E+02 0.  0.
        254    2    1    2    0    0 -0.40684690535E+03 -0.29961568462E+03  0.14627847276E+04  0.17903380574E+04  0.90015400760E+03 0.  0.
        -24    2    4    4    0    0 -0.33472629942E+03  0.20093537009E+03  0.10798045636E+04  0.11508530503E+04  0.77898198172E+02 0.  0.
         24    2    4    4    0    0 -0.72120605923E+02 -0.50055105471E+03  0.38298016402E+03  0.63948500708E+03  0.80712626554E+02 0.  0.
         13    1    3    3    0    0  0.20925800949E+03  0.97145311024E+02  0.15522458576E+03  0.27806617561E+03  0.00000000000E+00 0. -1.
        -13    1    3    3    0    0  0.19758889585E+03  0.20247037360E+03  0.17602981696E+03  0.33319982054E+03  0.00000000000E+00 0.  1.
          4    1    6    6  502    0  0.89999516486E+01 -0.16639715224E+03  0.14928029448E+03  0.22372665850E+03  0.00000000000E+00 0. -1.
          3    1    5    5  503    0 -0.14054329882E+03  0.11814941753E+03  0.42807461278E+03  0.46578919890E+03  0.00000000000E+00 0. -1.
         -4    1    5    5    0  503 -0.19418300060E+03  0.82785952557E+02  0.65172995082E+03  0.68506385137E+03  0.00000000000E+00 0.  1.
         -3    1    6    6    0  502 -0.81120557571E+02 -0.33415390247E+03  0.23369986954E+03  0.41575834858E+03  0.00000000000E+00 0.  1.
<mgrwt>
<rscale>  0 0.15965981E+04</rscale>
<asrwt>0</asrwt>
<pdfrwt beam="1">  1        1 0.32274177E+00 0.15965981E+04</pdfrwt>
<pdfrwt beam="2">  1       -1 0.46735765E-01 0.15965981E+04</pdfrwt>
<totfact> 0.11203279E+01</totfact>
</mgrwt>
</event>
<event>
12    1  0.2588309E-007  0.4936289E+04  0.7818608E-02  0.7838411E-01
         -2   -1    0    0    0  501 -0.00000000000E+00  0.00000000000E+00  0.23063660924E+04  0.23063660924E+04  0.00000000000E+00 0.  1.
          2   -1    0    0  501    0  0.00000000000E+00 -0.00000000000E+00 -0.26412711507E+04  0.26412711507E+04  0.00000000000E+00 0. -1.
         23    2    1    2    0    0  0.82961515521E+03 -0.13678386332E+04  0.16113964602E+04  0.22723480524E+04  0.87882234204E+02 0.  0.
        254    2    1    2    0    0 -0.82961515521E+03  0.13678386332E+04 -0.19463015185E+04  0.26752891906E+04  0.89991045141E+03 0.  0.
        -24    2    4    4    0    0 -0.96673522443E+03  0.13427950705E+04 -0.16522055994E+04  0.23396797232E+04  0.81500114931E+02 0.  0.
         24    2    4    4    0    0  0.13712006922E+03  0.25043562729E+02 -0.29409591901E+03  0.33560946746E+03  0.81928088318E+02 0.  0.
         11    1    3    3    0    0  0.41627170396E+03 -0.75520110844E+03  0.83167804798E+03  0.11980397411E+04  0.00000000000E+00 0. -1.
        -11    1    3    3    0    0  0.41334345125E+03 -0.61263752479E+03  0.77971841217E+03  0.10743083113E+04  0.00000000000E+00 0.  1.
          4    1    6    6  502    0  0.49661209916E+02  0.50123503705E+02 -0.13540654052E+03  0.15268769633E+03  0.00000000000E+00 0. -1.
          3    1    5    5  503    0 -0.12525679898E+03  0.21532843739E+03 -0.22600651492E+03  0.33635479248E+03  0.00000000000E+00 0. -1.
         -4    1    5    5    0  503 -0.84147842545E+03  0.11274666331E+04 -0.14261990845E+04  0.20033249307E+04  0.00000000000E+00 0.  1.
         -3    1    6    6    0  502  0.87458859305E+02 -0.25079940975E+02 -0.15868937848E+03  0.18292177113E+03  0.00000000000E+00 0.  1.
<mgrwt>
<rscale>  0 0.49362894E+04</rscale>
<asrwt>0</asrwt>
<pdfrwt beam="1">  1        2 0.40634941E+00 0.49362894E+04</pdfrwt>
<pdfrwt beam="2">  1       -2 0.35482556E+00 0.49362894E+04</pdfrwt>
<totfact> 0.30538036E-02</totfact>
</mgrwt>
</event>
<event>
12    1  0.2588309E-007  0.2358175E+04  0.7818608E-02  0.8455330E-01
          1   -1    0    0  501    0  0.00000000000E+00  0.00000000000E+00  0.12323534764E+04  0.12323534764E+04  0.00000000000E+00 0. -1.
         -1   -1    0    0    0  501 -0.00000000000E+00 -0.00000000000E+00 -0.11281239773E+04  0.11281239773E+04  0.00000000000E+00 0.  1.
         23    2    1    2    0    0 -0.95463849742E+03  0.31178370119E+03  0.95269149290E+01  0.10085743896E+04  0.92670384200E+02 0.  0.
        254    2    1    2    0    0  0.95463849742E+03 -0.31178370119E+03  0.94702584139E+02  0.13519030641E+04  0.90007198496E+03 0.  0.
        -24    2    4    4    0    0  0.13643145720E+03 -0.53598679922E+02 -0.34542554910E+03  0.38449175197E+03  0.83837559328E+02 0.  0.
         24    2    4    4    0    0  0.81820704022E+03 -0.25818502127E+03  0.44012813324E+03  0.96741131210E+03  0.77779221159E+02 0.  0.
         11    1    3    3    0    0 -0.29823674934E+03  0.14165077725E+03  0.14089263395E+02  0.33046725813E+03  0.00000000000E+00 0. -1.
        -11    1    3    3    0    0 -0.65640174808E+03  0.17013292395E+03 -0.45623484659E+01  0.67810713145E+03  0.00000000000E+00 0.  1.
          4    1    6    6  502    0  0.28836698537E+03 -0.75626994310E+02  0.19149529575E+03  0.35432387559E+03  0.00000000000E+00 0. -1.
          3    1    5    5  503    0  0.32640277688E+02 -0.56073872732E+02 -0.12474517803E+03  0.14060948180E+03  0.00000000000E+00 0. -1.
         -4    1    5    5    0  503  0.10379117952E+03  0.24751928093E+01 -0.22068037107E+03  0.24388227016E+03  0.00000000000E+00 0.  1.
         -3    1    6    6    0  502  0.52984005485E+03 -0.18255802696E+03  0.24863283749E+03  0.61308743651E+03  0.00000000000E+00 0.  1.
<mgrwt>
<rscale>  0 0.23581751E+04</rscale>
<asrwt>0</asrwt>
<pdfrwt beam="1">  1        1 0.18959284E+00 0.23581751E+04</pdfrwt>
<pdfrwt beam="2">  1       -1 0.17355753E+00 0.23581751E+04</pdfrwt>
<totfact> 0.21093970E+00</totfact>
</mgrwt>
</event>
<event>
12    1  0.2588309E-007  0.1153521E+04  0.7818608E-02  0.9154541E-01
          2   -1    0    0  501    0  0.00000000000E+00  0.00000000000E+00  0.60410105651E+03  0.60410105651E+03  0.00000000000E+00 0. -1.
         -2   -1    0    0    0  501 -0.00000000000E+00 -0.00000000000E+00 -0.55065731943E+03  0.55065731943E+03  0.00000000000E+00 0.  1.
         23    2    1    2    0    0  0.48406880818E+02  0.19769451891E+03 -0.33055993351E+02  0.22780919417E+03  0.96839977974E+02 0.  0.
        254    2    1    2    0    0 -0.48406880818E+02 -0.19769451891E+03  0.86499730427E+02  0.92694918177E+03  0.90018122248E+03 0.  0.
        -24    2    4    4    0    0  0.16332050426E+03 -0.50785846104E+03  0.61377394996E+02  0.54232711393E+03  0.75879577799E+02 0.  0.
         24    2    4    4    0    0 -0.21172738508E+03  0.31016394213E+03  0.25122335431E+02  0.38462206783E+03  0.79201305153E+02 0.  0.
         13    1    3    3    0    0  0.49774166162E+02  0.43343935730E+02  0.11842346808E+02  0.67055242596E+02  0.00000000000E+00 0.  1.
        -13    1    3    3    0    0 -0.13672853439E+01  0.15435058318E+03 -0.44898340159E+02  0.16075395158E+03  0.00000000000E+00 0. -1.
          2    1    6    6  502    0 -0.13187400829E+03  0.21220183284E+03 -0.19477151467E+02  0.25059874571E+03  0.00000000000E+00 0. -1.
          3    1    5    5  503    0  0.86833272204E+02 -0.19450207947E+03  0.53744645354E+02  0.21968059309E+03  0.00000000000E+00 0. -1.
         -2    1    5    5    0  503  0.76487232058E+02 -0.31335638158E+03  0.76327496414E+01  0.32264652084E+03  0.00000000000E+00 0.  1.
         -1    1    6    6    0  502 -0.79853376791E+02  0.97962109288E+02  0.44599486898E+02  0.13402332212E+03  0.00000000000E+00 0.  1.
<mgrwt>
<rscale>  0 0.11535210E+04</rscale>
<asrwt>0</asrwt>
<pdfrwt beam="1">  1        2 0.92938624E-01 0.11535210E+04</pdfrwt>
<pdfrwt beam="2">  1       -2 0.84716510E-01 0.11535210E+04</pdfrwt>
<totfact> 0.59133465E+01</totfact>
</mgrwt>
</event>
<event>
12    1  0.2588309E-007  0.1532233E+04  0.7818608E-02  0.8863297E-01
         -1   -1    0    0    0  501 -0.00000000000E+00  0.00000000000E+00  0.86633385164E+03  0.86633385164E+03  0.00000000000E+00 0.  1.
          1   -1    0    0  501    0  0.00000000000E+00 -0.00000000000E+00 -0.67749233033E+03  0.67749233033E+03  0.00000000000E+00 0. -1.
         23    2    1    2    0    0  0.38723347531E+03 -0.13514768778E+03 -0.21806696397E+03  0.47334244622E+03  0.91023121823E+02 0.  0.
        254    2    1    2    0    0 -0.38723347531E+03  0.13514768778E+03  0.40690848528E+03  0.10704837358E+04  0.90119157298E+03 0.  0.
        -24    2    4    4    0    0  0.28265039386E+03 -0.11668548643E+02  0.66334194874E+02  0.30138441167E+03  0.80030856624E+02 0.  0.
         24    2    4    4    0    0 -0.66988386917E+03  0.14681623642E+03  0.34057429041E+03  0.76909932408E+03  0.72273906469E+02 0.  0.
         13    1    3    3    0    0  0.25316209592E+03 -0.76711199890E+02 -0.18665913648E+03  0.32375498178E+03  0.00000000000E+00 0. -1.
        -13    1    3    3    0    0  0.13407137939E+03 -0.58436487891E+02 -0.31407827488E+02  0.14958746444E+03  0.00000000000E+00 0.  1.
          4    1    6    6  502    0 -0.28764002930E+03  0.68470973890E+02  0.18655647532E+03  0.34961175496E+03  0.00000000000E+00 0. -1.
          1    1    5    5  503    0  0.14353309996E+03 -0.10386934226E+02 -0.70737435655E+01  0.14408218847E+03  0.00000000000E+00 0. -1.
         -2    1    5    5    0  503  0.13911729390E+03 -0.12816144170E+01  0.73407938439E+02  0.15730222320E+03  0.00000000000E+00 0.  1.
         -3    1    6    6    0  502 -0.38224383987E+03  0.78345262534E+02  0.15401781509E+03  0.41948756912E+03  0.00000000000E+00 0.  1.
<mgrwt>
<rscale>  0 0.15322331E+04</rscale>
<asrwt>0</asrwt>
<pdfrwt beam="1">  1        1 0.10422959E+00 0.15322331E+04</pdfrwt>
<pdfrwt beam="2">  1       -1 0.13328213E+00 0.15322331E+04</pdfrwt>
<totfact> 0.13149907E+01</totfact>
</mgrwt>
</event>
<event>
12    1  0.2588309E-007  0.1298484E+04  0.7818608E-02  0.9030768E-01
         -1   -1    0    0    0  501 -0.00000000000E+00  0.00000000000E+00  0.61296155543E+03  0.61296155543E+03  0.00000000000E+00 0.  1.
          1   -1    0    0  501    0  0.00000000000E+00 -0.00000000000E+00 -0.68766972409E+03  0.68766972409E+03  0.00000000000E+00 0. -1.
         23    2    1    2    0    0  0.26086317114E+03 -0.19356159718E+03  0.36148167745E+02  0.33907720051E+03  0.90282733180E+02 0.  0.
        254    2    1    2    0    0 -0.26086317114E+03  0.19356159718E+03 -0.11085633641E+03  0.96155407902E+03  0.89821012775E+03 0.  0.
        -24    2    4    4    0    0 -0.47503215934E+02 -0.25170717790E+03  0.23231084006E+03  0.35521013519E+03  0.81196396508E+02 0.  0.
         24    2    4    4    0    0 -0.21335995521E+03  0.44526877508E+03 -0.34316717647E+03  0.60634394383E+03  0.78118593596E+02 0.  0.
         11    1    3    3    0    0  0.18880829374E+03 -0.10209109013E+03  0.53858569922E+02  0.22129597381E+03  0.00000000000E+00 0.  1.
        -11    1    3    3    0    0  0.72054877400E+02 -0.91470507049E+02 -0.17710402176E+02  0.11778122670E+03  0.00000000000E+00 0. -1.
          4    1    6    6  502    0 -0.38793589647E+02  0.35104553351E+02 -0.52893840614E+02  0.74397786516E+02  0.00000000000E+00 0. -1.
          3    1    5    5  503    0 -0.34652317704E+02 -0.13735664854E+03  0.17932125515E+03  0.22852515085E+03  0.00000000000E+00 0. -1.
         -4    1    5    5    0  503 -0.12850898230E+02 -0.11435052936E+03  0.52989584905E+02  0.12668498435E+03  0.00000000000E+00 0.  1.
         -3    1    6    6    0  502 -0.17456636556E+03  0.41016422173E+03 -0.29027333585E+03  0.53194615731E+03  0.00000000000E+00 0.  1.
<mgrwt>
<rscale>  0 0.12984839E+04</rscale>
<asrwt>0</asrwt>
<pdfrwt beam="1">  1        1 0.10579534E+00 0.12984839E+04</pdfrwt>
<pdfrwt beam="2">  1       -1 0.94301778E-01 0.12984839E+04</pdfrwt>
<totfact> 0.29956948E+01</totfact>
</mgrwt>
</event>
<event>
12    1  0.2588309E-007  0.1814908E+04  0.7818608E-02  0.8698411E-01
          1   -1    0    0  501    0  0.00000000000E+00  0.00000000000E+00  0.81692678056E+03  0.81692678056E+03  0.00000000000E+00 0. -1.
         -1   -1    0    0    0  501 -0.00000000000E+00 -0.00000000000E+00 -0.10080129937E+04  0.10080129937E+04  0.00000000000E+00 0.  1.
         23    2    1    2    0    0 -0.95986880030E+02  0.26194955541E+03  0.55931935973E+03  0.63187097628E+03  0.92691605741E+02 0.  0.
        254    2    1    2    0    0  0.95986880030E+02 -0.26194955541E+03 -0.75040557291E+03  0.11930687980E+04  0.88457536832E+03 0.  0.
        -24    2    4    4    0    0  0.29253989892E+03  0.22215411186E+03 -0.44359075825E+03  0.58195501010E+03  0.83467545200E+02 0.  0.
         24    2    4    4    0    0 -0.19655301889E+03 -0.48410366727E+03 -0.30681481466E+03  0.61111378792E+03  0.79594480918E+02 0.  0.
         11    1    3    3    0    0 -0.56775137014E+01  0.12412186063E+03  0.29891585490E+03  0.32371153634E+03  0.00000000000E+00 0. -1.
        -11    1    3    3    0    0 -0.90309366329E+02  0.13782769478E+03  0.26040350483E+03  0.30815943994E+03  0.00000000000E+00 0.  1.
          2    1    6    6  502    0 -0.16365519637E+03 -0.44444864939E+03 -0.29586455080E+03  0.55843840991E+03  0.00000000000E+00 0. -1.
          3    1    5    5  503    0  0.29393332701E+03  0.22203399910E+03 -0.42135310632E+03  0.55967342056E+03  0.00000000000E+00 0. -1.
         -4    1    5    5    0  503 -0.13934280866E+01  0.12011276027E+00 -0.22237651933E+02  0.22281589539E+02  0.00000000000E+00 0.  1.
         -3    1    6    6    0  502 -0.32897822528E+02 -0.39655017874E+02 -0.10950263861E+02  0.52675378007E+02  0.00000000000E+00 0.  1.
<mgrwt>
<rscale>  0 0.18149081E+04</rscale>
<asrwt>0</asrwt>
<pdfrwt beam="1">  1        1 0.12568104E+00 0.18149081E+04</pdfrwt>
<pdfrwt beam="2">  1       -1 0.15507892E+00 0.18149081E+04</pdfrwt>
<totfact> 0.64194821E+00</totfact>
</mgrwt>
</event>
<event>
12    1  0.2588309E-007  0.1696719E+04  0.7818608E-02  0.8763238E-01
          2   -1    0    0  501    0  0.00000000000E+00  0.00000000000E+00  0.89638850255E+03  0.89638850255E+03  0.00000000000E+00 0. -1.
         -2   -1    0    0    0  501 -0.00000000000E+00 -0.00000000000E+00 -0.80290413638E+03  0.80290413638E+03  0.00000000000E+00 0.  1.
         23    2    1    2    0    0  0.22559145271E+03  0.52493715651E+03  0.22854236502E+03  0.62238153676E+03  0.93148499055E+02 0.  0.
        254    2    1    2    0    0 -0.22559145271E+03 -0.52493715651E+03 -0.13505799885E+03  0.10769111022E+04  0.90279916764E+03 0.  0.
        -24    2    4    4    0    0 -0.48884269056E+03 -0.36377298136E+03 -0.33339420808E+03  0.69920149263E+03  0.80206428832E+02 0.  0.
         24    2    4    4    0    0  0.26325123786E+03 -0.16116417515E+03  0.19833620923E+03  0.37770960953E+03  0.89734005024E+02 0.  0.
         13    1    3    3    0    0  0.38389626608E+02  0.20100059136E+03  0.87116176559E+02  0.22240555158E+03  0.00000000000E+00 0.  1.
        -13    1    3    3    0    0  0.18720182610E+03  0.32393656515E+03  0.14142618846E+03  0.39997598518E+03  0.00000000000E+00 0. -1.
          2    1    6    6  502    0  0.17446683290E+03 -0.58496495981E+02  0.94802124772E+02  0.20699748473E+03  0.00000000000E+00 0. -1.
          1    1    5    5  503    0 -0.15304174631E+03 -0.11113683229E+03 -0.62353031615E+02  0.19915087787E+03  0.00000000000E+00 0. -1.
         -2    1    5    5    0  503 -0.33580094425E+03 -0.25263614907E+03 -0.27104117647E+03  0.50005061475E+03  0.00000000000E+00 0.  1.
         -1    1    6    6    0  502  0.88784404952E+02 -0.10266767917E+03  0.10353408446E+03  0.17071212480E+03  0.00000000000E+00 0.  1.
<mgrwt>
<rscale>  0 0.16967192E+04</rscale>
<asrwt>0</asrwt>
<pdfrwt beam="1">  1        2 0.13790592E+00 0.16967192E+04</pdfrwt>
<pdfrwt beam="2">  1       -2 0.12352371E+00 0.16967192E+04</pdfrwt>
<totfact> 0.13863788E+01</totfact>
</mgrwt>
</event>
<event>
12    1  0.2588309E-007  0.2667804E+04  0.7818608E-02  0.8345528E-01
          2   -1    0    0  501    0  0.00000000000E+00  0.00000000000E+00  0.88389393367E+03  0.88389393367E+03  0.00000000000E+00 0. -1.
         -2   -1    0    0    0  501 -0.00000000000E+00 -0.00000000000E+00 -0.20130174826E+04  0.20130174826E+04  0.00000000000E+00 0.  1.
         23    2    1    2    0    0 -0.80970888847E+03  0.83764264387E+03 -0.29961283119E+03  0.12063812626E+04  0.91182340356E+02 0.  0.
        254    2    1    2    0    0  0.80970888847E+03 -0.83764264387E+03 -0.82951071773E+03  0.16905301537E+04  0.90140472972E+03 0.  0.
        -24    2    4    4    0    0  0.39594002862E+03  0.12404554331E+03 -0.24326088341E+03  0.48784713326E+03  0.81628211709E+02 0.  0.
         24    2    4    4    0    0  0.41376885984E+03 -0.96168818718E+03 -0.58624983432E+03  0.12026830204E+04  0.81906902147E+02 0.  0.
         13    1    3    3    0    0 -0.58155532753E+03  0.54041494423E+03 -0.20375069134E+03  0.81961530924E+03  0.00000000000E+00 0.  1.
        -13    1    3    3    0    0 -0.22815356094E+03  0.29722769964E+03 -0.95862139847E+02  0.38676595334E+03  0.00000000000E+00 0. -1.
          4    1    6    6  502    0  0.22100724953E+03 -0.61283589635E+03 -0.35618381246E+03  0.74248161489E+03  0.00000000000E+00 0. -1.
          1    1    5    5  503    0  0.18004097976E+03  0.18253844557E+02 -0.12477982741E+03  0.21981347221E+03  0.00000000000E+00 0. -1.
         -2    1    5    5    0  503  0.21589904886E+03  0.10579169876E+03 -0.11848105599E+03  0.26803366105E+03  0.00000000000E+00 0.  1.
         -3    1    6    6    0  502  0.19276161032E+03 -0.34885229083E+03 -0.23006602186E+03  0.46020140552E+03  0.00000000000E+00 0.  1.
<mgrwt>
<rscale>  0 0.26678035E+04</rscale>
<asrwt>0</asrwt>
<pdfrwt beam="1">  1        2 0.13598368E+00 0.26678035E+04</pdfrwt>
<pdfrwt beam="2">  1       -2 0.30969499E+00 0.26678035E+04</pdfrwt>
<totfact> 0.73314940E-01</totfact>
</mgrwt>
</event>
<event>
12    1  0.2588309E-007  0.2869950E+04  0.7818608E-02  0.8281875E-01
         -1   -1    0    0    0  501 -0.00000000000E+00  0.00000000000E+00  0.86874249396E+03  0.86874249396E+03  0.00000000000E+00 0.  1.
          1   -1    0    0  501    0  0.00000000000E+00 -0.00000000000E+00 -0.23702695434E+04  0.23702695434E+04  0.00000000000E+00 0. -1.
         23    2    1    2    0    0 -0.99849043378E+02 -0.12090187976E+04 -0.17613621497E+03  0.12291438207E+04  0.89857005205E+02 0.  0.
        254    2    1    2    0    0  0.99849043378E+02  0.12090187976E+04 -0.13253908345E+04  0.20098682167E+04  0.90067369226E+03 0.  0.
        -24    2    4    4    0    0 -0.83275359675E+02  0.67777398709E+03 -0.12644323845E+04  0.14392256326E+04  0.79175775114E+02 0.  0.
         24    2    4    4    0    0  0.18312440305E+03  0.53124481048E+03 -0.60958450009E+02  0.57064258413E+03  0.78494780291E+02 0.  0.
         11    1    3    3    0    0  0.50736799518E+01 -0.27797995853E+03 -0.66068319094E+02  0.28576847685E+03  0.00000000000E+00 0. -1.
        -11    1    3    3    0    0 -0.10492272333E+03 -0.93103883905E+03 -0.11006789588E+03  0.94337534385E+03  0.00000000000E+00 0.  1.
          2    1    6    6  502    0  0.13961869738E+03  0.47708530383E+03 -0.63450699632E+02  0.50112848559E+03  0.00000000000E+00 0. -1.
          3    1    5    5  503    0 -0.98926268875E+02  0.60136863371E+03 -0.11221930322E+04  0.12770073774E+04  0.00000000000E+00 0. -1.
         -2    1    5    5    0  503  0.15650909200E+02  0.76405353384E+02 -0.14223935226E+03  0.16221825519E+03  0.00000000000E+00 0.  1.
         -1    1    6    6    0  502  0.43505705672E+02  0.54159506657E+02  0.24922496233E+01  0.69514098538E+02  0.00000000000E+00 0.  1.
<mgrwt>
<rscale>  0 0.28699504E+04</rscale>
<asrwt>0</asrwt>
<pdfrwt beam="1">  1        1 0.36465685E+00 0.28699504E+04</pdfrwt>
<pdfrwt beam="2">  1       -1 0.13365269E+00 0.28699504E+04</pdfrwt>
<totfact> 0.67715200E-01</totfact>
</mgrwt>
</event>
<event>
12    1  0.2588309E-007  0.2327011E+04  0.7818608E-02  0.8467347E-01
         -2   -1    0    0    0  501 -0.00000000000E+00  0.00000000000E+00  0.24419037921E+03  0.24419037921E+03  0.00000000000E+00 0. -1.
          2   -1    0    0  501    0  0.00000000000E+00 -0.00000000000E+00 -0.55438080062E+04  0.55438080062E+04  0.00000000000E+00 0.  1.
         23    2    1    2    0    0 -0.73348034081E+02  0.98004826795E+03 -0.20546771088E+04  0.22794041231E+04  0.90058832593E+02 0.  0.
        254    2    1    2    0    0  0.73348034081E+02 -0.98004826795E+03 -0.32449405183E+04  0.35085942624E+04  0.90261851815E+03 0.  0.
        -24    2    4    4    0    0  0.28478020538E+03 -0.10524119327E+04 -0.25551759021E+04  0.27792143157E+04  0.80235156800E+02 0.  0.
         24    2    4    4    0    0 -0.21143217130E+03  0.72363664741E+02 -0.68976461619E+03  0.72937994671E+03  0.79245302017E+02 0.  0.
         11    1    3    3    0    0 -0.63640545441E+02  0.29605212333E+03 -0.63821798012E+03  0.70641288840E+03  0.00000000000E+00 0.  1.
        -11    1    3    3    0    0 -0.97074886398E+01  0.68399614462E+03 -0.14164591286E+04  0.15729912347E+04  0.00000000000E+00 0. -1.
          4    1    6    6  502    0 -0.51518347347E+02 -0.15358102858E+02 -0.18599287472E+03  0.19360620053E+03  0.00000000000E+00 0. -1.
          3    1    5    5  503    0  0.12843752197E+03 -0.47172589500E+03 -0.12479370662E+04  0.13402867001E+04  0.00000000000E+00 0. -1.
         -4    1    5    5    0  503  0.15634268341E+03 -0.58068603769E+03 -0.13072388358E+04  0.14389276156E+04  0.00000000000E+00 0.  1.
         -3    1    6    6    0  502 -0.15991382395E+03  0.87721767599E+02 -0.50377174147E+03  0.53577374619E+03  0.00000000000E+00 0.  1.
<mgrwt>
<rscale>  0 0.23270106E+04</rscale>
<asrwt>0</asrwt>
<pdfrwt beam="1">  1        2 0.85289353E+00 0.23270106E+04</pdfrwt>
<pdfrwt beam="2">  1       -2 0.37567751E-01 0.23270106E+04</pdfrwt>
<totfact> 0.30652508E-02</totfact>
</mgrwt>
</event>
<event>
12    1  0.2588309E-007  0.1935880E+04  0.7818608E-02  0.8637200E-01
         -2   -1    0    0    0  501 -0.00000000000E+00  0.00000000000E+00  0.10300412763E+04  0.10300412763E+04  0.00000000000E+00 0.  1.
          2   -1    0    0  501    0  0.00000000000E+00 -0.00000000000E+00 -0.90958308426E+03  0.90958308426E+03  0.00000000000E+00 0. -1.
         23    2    1    2    0    0 -0.58944531607E+03  0.46900555524E+03 -0.97320355779E+01  0.75849031656E+03  0.88322456432E+02 0.  0.
        254    2    1    2    0    0  0.58944531607E+03 -0.46900555524E+03  0.13019022766E+03  0.11811340441E+04  0.90039776941E+03 0.  0.
        -24    2    4    4    0    0  0.35749145491E+01  0.19355624487E+03  0.20089587416E+03  0.29012313660E+03  0.79595742343E+02 0.  0.
         24    2    4    4    0    0  0.58587040152E+03 -0.66256180011E+03 -0.70705646493E+02  0.89101090745E+03  0.81663225555E+02 0.  0.
         13    1    3    3    0    0 -0.20149288122E+03  0.16582490777E+03 -0.45228739459E+02  0.26484508697E+03  0.00000000000E+00 0. -1.
        -13    1    3    3    0    0 -0.38795243485E+03  0.30318064747E+03  0.35496703881E+02  0.49364522959E+03  0.00000000000E+00 0.  1.
          4    1    6    6  502    0  0.31467746761E+03 -0.41653484912E+03 -0.40840223907E+02  0.52363261266E+03  0.00000000000E+00 0. -1.
          3    1    5    5  503    0  0.27131161253E+02  0.10634455873E+03  0.66944899053E+02  0.12855693132E+03  0.00000000000E+00 0. -1.
         -4    1    5    5    0  503 -0.23556246704E+02  0.87211686140E+02  0.13395097510E+03  0.16156620528E+03  0.00000000000E+00 0.  1.
         -3    1    6    6    0  502  0.27119293391E+03 -0.24602695098E+03 -0.29865422586E+02  0.36737829479E+03  0.00000000000E+00 0.  1.
<mgrwt>
<rscale>  0 0.19358803E+04</rscale>
<asrwt>0</asrwt>
<pdfrwt beam="1">  1        2 0.13993586E+00 0.19358803E+04</pdfrwt>
<pdfrwt beam="2">  1       -2 0.15846789E+00 0.19358803E+04</pdfrwt>
<totfact> 0.69737453E+00</totfact>
</mgrwt>
</event>
<event>
12    1  0.2588309E-007  0.2671030E+04  0.7818608E-02  0.8344466E-01
          2   -1    0    0  501    0  0.00000000000E+00  0.00000000000E+00  0.17487193534E+04  0.17487193534E+04  0.00000000000E+00 0. -1.
         -2   -1    0    0    0  501 -0.00000000000E+00 -0.00000000000E+00 -0.10199463302E+04  0.10199463302E+04  0.00000000000E+00 0.  1.
         23    2    1    2    0    0 -0.69662462232E+03  0.85879839214E+03 -0.11020772593E+03  0.11148483151E+04  0.88997079072E+02 0.  0.
        254    2    1    2    0    0  0.69662462232E+03 -0.85879839214E+03  0.83898074915E+03  0.16538173685E+04  0.89911214436E+03 0.  0.
        -24    2    4    4    0    0  0.67754194077E+03 -0.56929898445E+03  0.97896006024E+03  0.13223678730E+04  0.84436820994E+02 0.  0.
         24    2    4    4    0    0  0.19082681554E+02 -0.28949940769E+03 -0.13997931109E+03  0.33144949552E+03  0.78041686048E+02 0.  0.
         13    1    3    3    0    0 -0.24769386064E+03  0.27219098010E+03 -0.19676911815E+00  0.36802203326E+03  0.00000000000E+00 0. -1.
        -13    1    3    3    0    0 -0.44893076168E+03  0.58660741205E+03 -0.11001095681E+03  0.74682628185E+03  0.00000000000E+00 0.  1.
          2    1    6    6  502    0  0.37208189013E+02 -0.98669386903E+02 -0.73584892009E+02  0.12858784380E+03  0.00000000000E+00 0. -1.
          1    1    5    5  503    0  0.17785388639E+03 -0.19789265317E+03  0.30934600372E+03  0.40802997084E+03  0.00000000000E+00 0. -1.
         -2    1    5    5    0  503  0.49968805437E+03 -0.37140633128E+03  0.66961405652E+03  0.91433790214E+03  0.00000000000E+00 0.  1.
         -1    1    6    6    0  502 -0.18125507459E+02 -0.19083002079E+03 -0.66394419080E+02  0.20286165172E+03  0.00000000000E+00 0.  1.
<mgrwt>
<rscale>  0 0.26710297E+04</rscale>
<asrwt>0</asrwt>
<pdfrwt beam="1">  1        2 0.26903375E+00 0.26710297E+04</pdfrwt>
<pdfrwt beam="2">  1       -2 0.15691482E+00 0.26710297E+04</pdfrwt>
<totfact> 0.21521116E+00</totfact>
</mgrwt>
</event>
<event>
12    1  0.2588309E-007  0.1923347E+04  0.7818608E-02  0.8643321E-01
         -2   -1    0    0    0  501 -0.00000000000E+00  0.00000000000E+00  0.47079913833E+03  0.47079913833E+03  0.00000000000E+00 0.  1.
          2   -1    0    0  501    0  0.00000000000E+00 -0.00000000000E+00 -0.19643542871E+04  0.19643542871E+04  0.00000000000E+00 0. -1.
         23    2    1    2    0    0  0.45093955275E+03 -0.34992472113E+03 -0.11953898535E+04  0.13276497451E+04  0.88899681019E+02 0.  0.
        254    2    1    2    0    0 -0.45093955275E+03  0.34992472113E+03 -0.29816529534E+03  0.11075036803E+04  0.90103721783E+03 0.  0.
        -24    2    4    4    0    0 -0.11318469350E+03 -0.18491439848E+03 -0.39954247427E+03  0.46187405478E+03  0.81788410665E+02 0.  0.
         24    2    4    4    0    0 -0.33775485925E+03  0.53483911961E+03  0.10137717893E+03  0.64562962556E+03  0.80181370550E+02 0.  0.
         13    1    3    3    0    0  0.10617371347E+03 -0.54032645841E+02 -0.31850002648E+03  0.34005095370E+03  0.00000000000E+00 0. -1.
        -13    1    3    3    0    0  0.34476583929E+03 -0.29589207529E+03 -0.87688982700E+03  0.98759879144E+03  0.00000000000E+00 0.  1.
          2    1    6    6  502    0 -0.14853661663E+03  0.30983348276E+03  0.51474457853E+02  0.34743277526E+03  0.00000000000E+00 0. -1.
          1    1    5    5  503    0 -0.12116145757E+03 -0.17500618650E+03 -0.34111509188E+03  0.40207806458E+03  0.00000000000E+00 0. -1.
         -2    1    5    5    0  503  0.79767640639E+01 -0.99082119802E+01 -0.58427382394E+02  0.59795990192E+02  0.00000000000E+00 0.  1.
         -1    1    6    6    0  502 -0.18921824262E+03  0.22500563685E+03  0.49902721079E+02  0.29819685030E+03  0.00000000000E+00 0.  1.
<mgrwt>
<rscale>  0 0.19233474E+04</rscale>
<asrwt>0</asrwt>
<pdfrwt beam="1">  1        2 0.30220836E+00 0.19233474E+04</pdfrwt>
<pdfrwt beam="2">  1       -2 0.72430635E-01 0.19233474E+04</pdfrwt>
<totfact> 0.11274599E+01</totfact>
</mgrwt>
</event>
<event>
12    1  0.2588309E-007  0.1612365E+04  0.7818608E-02  0.8812987E-01
         -1   -1    0    0    0  501 -0.00000000000E+00  0.00000000000E+00  0.26432788620E+03  0.26432788620E+03  0.00000000000E+00 0.  1.
          1   -1    0    0  501    0  0.00000000000E+00 -0.00000000000E+00 -0.24588032718E+04  0.24588032718E+04  0.00000000000E+00 0. -1.
         23    2    1    2    0    0 -0.37332900046E+03 -0.40464198569E+03 -0.74238882602E+03  0.92902713837E+03  0.94024335501E+02 0.  0.
        254    2    1    2    0    0  0.37332900046E+03  0.40464198569E+03 -0.14520865595E+04  0.17941040196E+04  0.89841203104E+03 0.  0.
        -24    2    4    4    0    0 -0.25623280884E+03  0.29879266346E+03 -0.45001989681E+03  0.60318329070E+03  0.79874067094E+02 0.  0.
         24    2    4    4    0    0  0.62956180930E+03  0.10584932224E+03 -0.10020666627E+04  0.11909207289E+04  0.81255370224E+02 0.  0.
         13    1    3    3    0    0 -0.11058423454E+03 -0.72054965683E+02 -0.21695891535E+03  0.25395267661E+03  0.00000000000E+00 0. -1.
        -13    1    3    3    0    0 -0.26274476592E+03 -0.33258702001E+03 -0.52542991067E+03  0.67507446176E+03  0.00000000000E+00 0.  1.
          2    1    6    6  502    0  0.15064637835E+03 -0.74501153758E+01 -0.21406814119E+03  0.26186829629E+03  0.00000000000E+00 0. -1.
          1    1    5    5  503    0 -0.11067017530E+03  0.13886271884E+03 -0.26268190379E+03  0.31706864393E+03  0.00000000000E+00 0. -1.
         -4    1    5    5    0  503 -0.14556263354E+03  0.15992994462E+03 -0.18733799302E+03  0.28611464677E+03  0.00000000000E+00 0.  1.
         -1    1    6    6    0  502  0.47891543095E+03  0.11329943761E+03 -0.78799852155E+03  0.92905243261E+03  0.00000000000E+00 0.  1.
<mgrwt>
<rscale>  0 0.16123651E+04</rscale>
<asrwt>0</asrwt>
<pdfrwt beam="1">  1        1 0.37827743E+00 0.16123651E+04</pdfrwt>
<pdfrwt beam="2">  1       -1 0.40665829E-01 0.16123651E+04</pdfrwt>
<totfact> 0.82097677E+00</totfact>
</mgrwt>
</event>
<event>
12    1  0.2588309E-007  0.1179652E+04  0.7818608E-02  0.9130856E-01
          1   -1    0    0  501    0  0.00000000000E+00  0.00000000000E+00  0.72192445479E+03  0.72192445479E+03  0.00000000000E+00 0. -1.
         -1   -1    0    0    0  501 -0.00000000000E+00 -0.00000000000E+00 -0.48189906295E+03  0.48189906295E+03  0.00000000000E+00 0.  1.
         23    2    1    2    0    0 -0.13194902784E+03  0.14029960847E+03  0.18427861063E+03  0.28231530616E+03  0.92998922959E+02 0.  0.
        254    2    1    2    0    0  0.13194902784E+03 -0.14029960847E+03  0.55746781207E+02  0.92150821158E+03  0.89943046107E+03 0.  0.
        -24    2    4    4    0    0 -0.30310591828E+01 -0.51042423308E+03  0.15323474216E+02  0.51763698584E+03  0.84682673639E+02 0.  0.
         24    2    4    4    0    0  0.13498008702E+03  0.37012462461E+03  0.40423306991E+02  0.40387122574E+03  0.79158458765E+02 0.  0.
         11    1    3    3    0    0 -0.70455918155E+02  0.44962850267E+02  0.25909170661E+02  0.87504168081E+02  0.00000000000E+00 0.  1.
        -11    1    3    3    0    0 -0.61493109687E+02  0.95336758207E+02  0.15836943997E+03  0.19481113808E+03  0.00000000000E+00 0. -1.
          2    1    6    6  502    0  0.10538353260E+02  0.13854961989E+03  0.13729709475E+02  0.13962649814E+03  0.00000000000E+00 0. -1.
          1    1    5    5  503    0  0.19383804584E+02 -0.33951892471E+02 -0.86296752213E+01  0.40036660412E+02  0.00000000000E+00 0. -1.
         -2    1    5    5    0  503 -0.22414863767E+02 -0.47647234061E+03  0.23953149437E+02  0.47760032543E+03  0.00000000000E+00 0.  1.
         -1    1    6    6    0  502  0.12444173376E+03  0.23157500472E+03  0.26693597517E+02  0.26424472760E+03  0.00000000000E+00 0.  1.
<mgrwt>
<rscale>  0 0.11796520E+04</rscale>
<asrwt>0</asrwt>
<pdfrwt beam="1">  1        1 0.11106530E+00 0.11796520E+04</pdfrwt>
<pdfrwt beam="2">  1       -1 0.74138317E-01 0.11796520E+04</pdfrwt>
<totfact> 0.47196562E+01</totfact>
</mgrwt>
</event>
<event>
12    1  0.2588309E-007  0.1591650E+04  0.7818608E-02  0.8825694E-01
          1   -1    0    0  501    0  0.00000000000E+00  0.00000000000E+00  0.41558147306E+04  0.41558147306E+04  0.00000000000E+00 0. -1.
         -1   -1    0    0    0  501 -0.00000000000E+00 -0.00000000000E+00 -0.15239796823E+03  0.15239796823E+03  0.00000000000E+00 0.  1.
         23    2    1    2    0    0 -0.38037698519E+03  0.14764833546E+03  0.43673120769E+03  0.60442297466E+03  0.90035008231E+02 0.  0.
        254    2    1    2    0    0  0.38037698519E+03 -0.14764833546E+03  0.35666855546E+04  0.37037897241E+04  0.91122214251E+03 0.  0.
        -24    2    4    4    0    0  0.58932467919E+03 -0.36797608176E+02  0.13824934435E+04  0.15054283533E+04  0.79804537929E+02 0.  0.
         24    2    4    4    0    0 -0.20894769401E+03 -0.11085072728E+03  0.21841921111E+04  0.21983613708E+04  0.78425222783E+02 0.  0.
         11    1    3    3    0    0 -0.28256065654E+03  0.14252758637E+03  0.29873714357E+03  0.43519940080E+03  0.00000000000E+00 0.  1.
        -11    1    3    3    0    0 -0.97816328642E+02  0.51207490838E+01  0.13799406412E+03  0.16922357387E+03  0.00000000000E+00 0. -1.
          4    1    6    6  502    0 -0.11406510832E+03 -0.51809526848E+02  0.14871795601E+04  0.14924470242E+04  0.00000000000E+00 0. -1.
          1    1    5    5  503    0  0.54988385923E+03 -0.53743236436E+02  0.12964780986E+04  0.14092962975E+04  0.00000000000E+00 0. -1.
         -2    1    5    5    0  503  0.39440819963E+02  0.16945628260E+02  0.86015344939E+02  0.96132055848E+02  0.00000000000E+00 0.  1.
         -3    1    6    6    0  502 -0.94882585689E+02 -0.59041200433E+02  0.69701255100E+03  0.70591434655E+03  0.00000000000E+00 0.  1.
<mgrwt>
<rscale>  0 0.15916504E+04</rscale>
<asrwt>0</asrwt>
<pdfrwt beam="1">  1        1 0.63935603E+00 0.15916504E+04</pdfrwt>
<pdfrwt beam="2">  1       -1 0.23445844E-01 0.15916504E+04</pdfrwt>
<totfact> 0.10633615E+00</totfact>
</mgrwt>
</event>
<event>
12    1  0.2588309E-007  0.2264271E+04  0.7818608E-02  0.8492143E-01
         -1   -1    0    0    0  501 -0.00000000000E+00  0.00000000000E+00  0.92617507133E+03  0.92617507133E+03  0.00000000000E+00 0.  1.
          1   -1    0    0  501    0  0.00000000000E+00 -0.00000000000E+00 -0.13838963169E+04  0.13838963169E+04  0.00000000000E+00 0. -1.
         23    2    1    2    0    0  0.90531175415E+03 -0.26665142232E+03 -0.30762095585E+03  0.99707665551E+03  0.94015165105E+02 0.  0.
        254    2    1    2    0    0 -0.90531175415E+03  0.26665142232E+03 -0.15010028970E+03  0.13129947327E+04  0.90040697348E+03 0.  0.
        -24    2    4    4    0    0 -0.48565954599E+03 -0.16799795435E+03  0.25694560257E+03  0.58011937120E+03  0.80180639071E+02 0.  0.
         24    2    4    4    0    0 -0.41965220815E+03  0.43464937667E+03 -0.40704589227E+03  0.73287536149E+03  0.79949237808E+02 0.  0.
         11    1    3    3    0    0  0.17757311028E+03 -0.15392458250E+02 -0.67765670186E+02  0.19068645291E+03  0.00000000000E+00 0. -1.
        -11    1    3    3    0    0  0.72773864386E+03 -0.25125896407E+03 -0.23985528567E+03  0.80639020261E+03  0.00000000000E+00 0.  1.
          4    1    6    6  502    0 -0.35262685510E+03  0.32677985669E+03 -0.34350663753E+03  0.59087019192E+03  0.00000000000E+00 0. -1.
          3    1    5    5  503    0 -0.27985327288E+03 -0.11873688646E+03  0.18853238605E+03  0.35771603701E+03  0.00000000000E+00 0. -1.
         -4    1    5    5    0  503 -0.20580627312E+03 -0.49261067893E+02  0.68413216523E+02  0.22240333419E+03  0.00000000000E+00 0.  1.
         -3    1    6    6    0  502 -0.67025353055E+02  0.10786951998E+03 -0.63539254739E+02  0.14200516957E+03  0.00000000000E+00 0.  1.
<mgrwt>
<rscale>  0 0.22642705E+04</rscale>
<asrwt>0</asrwt>
<pdfrwt beam="1">  1        1 0.21290712E+00 0.22642705E+04</pdfrwt>
<pdfrwt beam="2">  1       -1 0.14248847E+00 0.22642705E+04</pdfrwt>
<totfact> 0.28615211E+00</totfact>
</mgrwt>
</event>
<event>
12    1  0.2588309E-007  0.1543765E+04  0.7818608E-02  0.8855860E-01
          1   -1    0    0  501    0  0.00000000000E+00  0.00000000000E+00  0.21445607983E+04  0.21445607983E+04  0.00000000000E+00 0. -1.
         -1   -1    0    0    0  501 -0.00000000000E+00 -0.00000000000E+00 -0.27782043886E+03  0.27782043886E+03  0.00000000000E+00 0.  1.
         23    2    1    2    0    0 -0.45093883636E+03 -0.21266880190E+03  0.50056146172E+03  0.71252903489E+03  0.92531049727E+02 0.  0.
        254    2    1    2    0    0  0.45093883636E+03  0.21266880190E+03  0.13661788977E+04  0.17098522022E+04  0.89920849617E+03 0.  0.
        -24    2    4    4    0    0  0.29760978784E+03 -0.23838156130E+03  0.18071901479E+03  0.42967832867E+03  0.81035481345E+02 0.  0.
         24    2    4    4    0    0  0.15332904853E+03  0.45105036320E+03  0.11854598829E+04  0.12801738736E+04  0.81078883655E+02 0.  0.
         11    1    3    3    0    0 -0.38333600496E+03 -0.14182345544E+03  0.41515673601E+03  0.58259376984E+03  0.00000000000E+00 0. -1.
        -11    1    3    3    0    0 -0.67602831408E+02 -0.70845346459E+02  0.85404725713E+02  0.12993526505E+03  0.00000000000E+00 0.  1.
          4    1    6    6  502    0  0.12730811029E+03  0.27586868375E+03  0.80785315670E+03  0.86309768185E+03  0.00000000000E+00 0. -1.
          3    1    5    5  503    0  0.24320665985E+03 -0.15457306165E+03  0.11605965811E+03  0.31066405493E+03  0.00000000000E+00 0. -1.
         -2    1    5    5    0  503  0.54403127989E+02 -0.83808499645E+02  0.64659356682E+02  0.11901427374E+03  0.00000000000E+00 0.  1.
         -3    1    6    6    0  502  0.26020938236E+02  0.17518167944E+03  0.37760672617E+03  0.41707619170E+03  0.00000000000E+00 0.  1.
<mgrwt>
<rscale>  0 0.15437653E+04</rscale>
<asrwt>0</asrwt>
<pdfrwt beam="1">  1        1 0.32993242E+00 0.15437653E+04</pdfrwt>
<pdfrwt beam="2">  1       -1 0.42741607E-01 0.15437653E+04</pdfrwt>
<totfact> 0.12359567E+01</totfact>
</mgrwt>
</event>
<event>
12    1  0.2588309E-007  0.1561237E+04  0.7818608E-02  0.8844722E-01
          1   -1    0    0  501    0  0.00000000000E+00  0.00000000000E+00  0.25197124539E+04  0.25197124539E+04  0.00000000000E+00 0. -1.
         -1   -1    0    0    0  501 -0.00000000000E+00 -0.00000000000E+00 -0.24183908287E+03  0.24183908287E+03  0.00000000000E+00 0.  1.
         23    2    1    2    0    0 -0.36564725213E+03 -0.27841245141E+03  0.34902050043E+03  0.58369341426E+03  0.87585878132E+02 0.  0.
        254    2    1    2    0    0  0.36564725213E+03  0.27841245141E+03  0.19288528707E+04  0.21778581225E+04  0.90076700608E+03 0.  0.
        -24    2    4    4    0    0  0.21669260461E+03  0.48842889439E+02  0.86667803010E+01  0.23663777883E+03  0.81123440159E+02 0.  0.
         24    2    4    4    0    0  0.14895464751E+03  0.22956956197E+03  0.19201860903E+04  0.19412203437E+04  0.79574685102E+02 0.  0.
         13    1    3    3    0    0 -0.21374678490E+03 -0.11497581369E+03  0.15474960703E+03  0.28784469192E+03  0.00000000000E+00 0.  1.
        -13    1    3    3    0    0 -0.15190046723E+03 -0.16343663772E+03  0.19427089340E+03  0.29584872235E+03  0.00000000000E+00 0. -1.
          4    1    6    6  502    0  0.22496449240E+02  0.93446205281E+02  0.52616239974E+03  0.53486928722E+03  0.00000000000E+00 0. -1.
          3    1    5    5  503    0  0.19948840152E+03  0.23653394650E+02  0.24318890383E+02  0.20235244957E+03  0.00000000000E+00 0. -1.
         -4    1    5    5    0  503  0.17204203097E+02  0.25189494790E+02 -0.15652110082E+02  0.34285329253E+02  0.00000000000E+00 0.  1.
         -3    1    6    6    0  502  0.12645819827E+03  0.13612335669E+03  0.13940236906E+04  0.14063510565E+04  0.00000000000E+00 0.  1.
<mgrwt>
<rscale>  0 0.15612366E+04</rscale>
<asrwt>0</asrwt>
<pdfrwt beam="1">  1        1 0.38764805E+00 0.15612366E+04</pdfrwt>
<pdfrwt beam="2">  1       -1 0.37206014E-01 0.15612366E+04</pdfrwt>
<totfact> 0.88020759E+00</totfact>
</mgrwt>
</event>
<event>
12    1  0.2588309E-007  0.1466516E+04  0.7818608E-02  0.8907030E-01
          2   -1    0    0  501    0  0.00000000000E+00  0.00000000000E+00  0.13906381053E+04  0.13906381053E+04  0.00000000000E+00 0. -1.
         -2   -1    0    0    0  501 -0.00000000000E+00 -0.00000000000E+00 -0.38663341052E+03  0.38663341052E+03  0.00000000000E+00 0.  1.
         23    2    1    2    0    0  0.27698018120E+03 -0.34993860968E+02 -0.11361003231E+03  0.31485528758E+03  0.91016600637E+02 0.  0.
        254    2    1    2    0    0 -0.27698018120E+03  0.34993860968E+02  0.11176147271E+04  0.14624162283E+04  0.90091950549E+03 0.  0.
        -24    2    4    4    0    0 -0.48455977478E+03  0.18034178686E+03  0.30133339686E+03  0.60368698375E+03  0.79465859719E+02 0.  0.
         24    2    4    4    0    0  0.20757959358E+03 -0.14534792589E+03  0.81628133027E+03  0.85872924454E+03  0.82978298593E+02 0.  0.
         11    1    3    3    0    0  0.25574358171E+02  0.20905954137E+02  0.79846191494E+00  0.33041553469E+02  0.00000000000E+00 0. -1.
        -11    1    3    3    0    0  0.25140582303E+03 -0.55899815105E+02 -0.11440849422E+03  0.28181373411E+03  0.00000000000E+00 0.  1.
          4    1    6    6  502    0  0.20086498285E+03 -0.11236218982E+03  0.66354876514E+03  0.70233109482E+03  0.00000000000E+00 0. -1.
          3    1    5    5  503    0 -0.13087010359E+03  0.16320675202E+02  0.95387938339E+02  0.16276426891E+03  0.00000000000E+00 0. -1.
         -4    1    5    5    0  503 -0.35368967119E+03  0.16402111166E+03  0.20594545852E+03  0.44092271484E+03  0.00000000000E+00 0.  1.
         -3    1    6    6    0  502  0.67146107292E+01 -0.32985736073E+02  0.15273256514E+03  0.15639814972E+03  0.00000000000E+00 0.  1.
<mgrwt>
<rscale>  0 0.14665158E+04</rscale>
<asrwt>0</asrwt>
<pdfrwt beam="1">  1        2 0.21394432E+00 0.14665158E+04</pdfrwt>
<pdfrwt beam="2">  1       -2 0.59482064E-01 0.14665158E+04</pdfrwt>
<totfact> 0.37429043E+01</totfact>
</mgrwt>
</event>
<event>
12    1  0.2829851E-007  0.1708019E+04  0.7818608E-02  0.8756804E-01
         -2   -1    0    0    0  501 -0.00000000000E+00  0.00000000000E+00  0.45715472488E+03  0.45715472488E+03  0.00000000000E+00 0.  1.
          2   -1    0    0  501    0  0.00000000000E+00 -0.00000000000E+00 -0.15953737553E+04  0.15953737553E+04  0.00000000000E+00 0. -1.
         23    2    1    2    0    0  0.56621096997E+03 -0.11978842204E+01 -0.12857016313E+03  0.58802443748E+03  0.92984701921E+02 0.  0.
        254    2    1    2    0    0 -0.56621096997E+03  0.11978842204E+01 -0.10096488673E+04  0.14645040427E+04  0.89709807626E+03 0.  0.
        -24    2    4    4    0    0 -0.70886240160E+03 -0.13061282045E+03 -0.42052901020E+03  0.83836575274E+03  0.80416874304E+02 0.  0.
         24    2    4    4    0    0  0.14265143163E+03  0.13181070467E+03 -0.58911985714E+03  0.62613829000E+03  0.85225931048E+02 0.  0.
         13    1    3    3    0    0  0.21556558349E+03 -0.44483928448E+02 -0.38939695083E+02  0.22352548071E+03  0.00000000000E+00 0.  1.
        -13    1    3    3    0    0  0.35064538648E+03  0.43286044227E+02 -0.89630468043E+02  0.36449895677E+03  0.00000000000E+00 0. -1.
          2    1    6    6  502    0 -0.59167950629E+01  0.31808578598E+02 -0.73619806356E+02  0.80415608088E+02  0.00000000000E+00 0. -1.
          1    1    5    5  503    0 -0.20930114411E+03 -0.74847498046E+02 -0.14052255625E+03  0.26297472446E+03  0.00000000000E+00 0. -1.
         -2    1    5    5    0  503 -0.49956125749E+03 -0.55765322407E+02 -0.28000645395E+03  0.57539102828E+03  0.00000000000E+00 0.  1.
         -1    1    6    6    0  502  0.14856822669E+03  0.10000212607E+03 -0.51550005078E+03  0.54572268192E+03  0.00000000000E+00 0.  1.
<mgrwt>
<rscale>  0 0.17080195E+04</rscale>
<asrwt>0</asrwt>
<pdfrwt beam="1">  1        2 0.24544212E+00 0.17080195E+04</pdfrwt>
<pdfrwt beam="2">  1       -2 0.70331495E-01 0.17080195E+04</pdfrwt>
<totfact> 0.19626044E+01</totfact>
</mgrwt>
</event>
<event>
12    1  0.2588309E-007  0.2860059E+04  0.7818608E-02  0.8284861E-01
          1   -1    0    0  501    0  0.00000000000E+00  0.00000000000E+00  0.12942622393E+04  0.12942622393E+04  0.00000000000E+00 0. -1.
         -1   -1    0    0    0  501 -0.00000000000E+00 -0.00000000000E+00 -0.15800384966E+04  0.15800384966E+04  0.00000000000E+00 0.  1.
         23    2    1    2    0    0  0.11833289708E+04 -0.38911359469E+03  0.19257330928E+03  0.12636485978E+04  0.89702043217E+02 0.  0.
        254    2    1    2    0    0 -0.11833289708E+04  0.38911359469E+03 -0.47834956657E+03  0.16106521381E+04  0.90205607328E+03 0.  0.
        -24    2    4    4    0    0 -0.11160151941E+04  0.16980219599E+03 -0.67552894389E+02  0.11336535768E+04  0.79273826076E+02 0.  0.
         24    2    4    4    0    0 -0.67313776684E+02  0.21931139870E+03 -0.41079667218E+03  0.47699856123E+03  0.78390607957E+02 0.  0.
         11    1    3    3    0    0  0.77120526633E+03 -0.25917826622E+03  0.16849994521E+03  0.83085688782E+03  0.00000000000E+00 0.  1.
        -11    1    3    3    0    0  0.41212370445E+03 -0.12993532847E+03  0.24073364079E+02  0.43279170996E+03  0.00000000000E+00 0. -1.
          4    1    6    6  502    0 -0.41186326244E+02  0.33279341664E+02 -0.68968415119E+02  0.86950965119E+02  0.00000000000E+00 0. -1.
          3    1    5    5  503    0 -0.63109815667E+03  0.80523553168E+02 -0.17656595175E+01  0.63621697833E+03  0.00000000000E+00 0. -1.
         -4    1    5    5    0  503 -0.48491703742E+03  0.89278642823E+02 -0.65787234871E+02  0.49743659849E+03  0.00000000000E+00 0.  1.
         -3    1    6    6    0  502 -0.26127450440E+02  0.18603205703E+03 -0.34182825706E+03  0.39004759611E+03  0.00000000000E+00 0.  1.
<mgrwt>
<rscale>  0 0.28600589E+04</rscale>
<asrwt>0</asrwt>
<pdfrwt beam="1">  1        1 0.19911727E+00 0.28600589E+04</pdfrwt>
<pdfrwt beam="2">  1       -1 0.24308284E+00 0.28600589E+04</pdfrwt>
<totfact> 0.60859506E-01</totfact>
</mgrwt>
</event>
<event>
12    1  0.2588309E-007  0.2057631E+04  0.7818608E-02  0.8580140E-01
          2   -1    0    0  501    0  0.00000000000E+00  0.00000000000E+00  0.29151435380E+04  0.29151435380E+04  0.00000000000E+00 0.  1.
         -2   -1    0    0    0  501 -0.00000000000E+00 -0.00000000000E+00 -0.36309073770E+03  0.36309073770E+03  0.00000000000E+00 0. -1.
         23    2    1    2    0    0  0.73092140815E+03 -0.28308371245E+03  0.14556550275E+04  0.16557931776E+04  0.91307144690E+02 0.  0.
        254    2    1    2    0    0 -0.73092140815E+03  0.28308371245E+03  0.10963977728E+04  0.16224410981E+04  0.90324113477E+03 0.  0.
        -24    2    4    4    0    0 -0.87849361983E+03  0.36141951592E+03  0.69418169368E+03  0.11796145418E+04  0.85012568640E+02 0.  0.
         24    2    4    4    0    0  0.14757221168E+03 -0.78335803464E+02  0.40221607912E+03  0.44282655633E+03  0.80022052712E+02 0.  0.
         11    1    3    3    0    0  0.24288859022E+03 -0.51771186981E+02  0.42647726450E+03  0.49351593713E+03  0.00000000000E+00 0.  1.
        -11    1    3    3    0    0  0.48803281793E+03 -0.23131252547E+03  0.10291777630E+04  0.11622772404E+04  0.00000000000E+00 0. -1.
          4    1    6    6  502    0 -0.32011163520E+01 -0.30415854570E+01 -0.20283175367E+01  0.48592653788E+01  0.00000000000E+00 0. -1.
          3    1    5    5  503    0 -0.61557489749E+02  0.21997358999E+02  0.76733741769E+02  0.10080315210E+03  0.00000000000E+00 0. -1.
         -4    1    5    5    0  503 -0.81693613008E+03  0.33942215692E+03  0.61744795191E+03  0.10788113897E+04  0.00000000000E+00 0.  1.
         -3    1    6    6    0  502  0.15077332803E+03 -0.75294218007E+02  0.40424439666E+03  0.43796729095E+03  0.00000000000E+00 0.  1.
<mgrwt>
<rscale>  0 0.20576313E+04</rscale>
<asrwt>0</asrwt>
<pdfrwt beam="1">  1        2 0.44848361E+00 0.20576313E+04</pdfrwt>
<pdfrwt beam="2">  1       -2 0.55860115E-01 0.20576313E+04</pdfrwt>
<totfact> 0.54823098E+00</totfact>
</mgrwt>
</event>
<event>
12    1  0.2588309E-007  0.2732056E+04  0.7818608E-02  0.8324678E-01
          2   -1    0    0  501    0  0.00000000000E+00  0.00000000000E+00  0.21005139212E+04  0.21005139212E+04  0.00000000000E+00 0.  1.
         -2   -1    0    0    0  501 -0.00000000000E+00 -0.00000000000E+00 -0.88836969251E+03  0.88836969251E+03  0.00000000000E+00 0. -1.
         23    2    1    2    0    0  0.97445254159E+03 -0.66732195057E+03  0.85765016484E+03  0.14622871514E+04  0.88563910646E+02 0.  0.
        254    2    1    2    0    0 -0.97445254159E+03  0.66732195057E+03  0.35449406389E+03  0.15265964624E+04  0.89997465305E+03 0.  0.
        -24    2    4    4    0    0  0.82767775681E+02 -0.52459463462E+02 -0.10608353298E+03  0.16485650465E+03  0.79507554089E+02 0.  0.
         24    2    4    4    0    0 -0.10572203173E+04  0.71978141403E+03  0.46057759687E+03  0.13617399577E+04  0.80024412219E+02 0.  0.
         13    1    3    3    0    0  0.51252470964E+03 -0.34347448897E+03  0.39382183849E+03  0.73195077911E+03  0.00000000000E+00 0. -1.
        -13    1    3    3    0    0  0.46192783196E+03 -0.32384746159E+03  0.46382832635E+03  0.73033637226E+03  0.00000000000E+00 0.  1.
          4    1    6    6  502    0 -0.42034195805E+02  0.18761963847E+02  0.37996654797E+01  0.46187902768E+02  0.00000000000E+00 0. -1.
          1    1    5    5  503    0 -0.84831234072E+01 -0.30039486358E+02 -0.35911567660E+02  0.47581244364E+02  0.00000000000E+00 0. -1.
         -4    1    5    5    0  503  0.91250899088E+02 -0.22419977104E+02 -0.70171965318E+02  0.11727526028E+03  0.00000000000E+00 0.  1.
         -3    1    6    6    0  502 -0.10151861215E+04  0.70101945018E+03  0.45677793139E+03  0.13155520550E+04  0.00000000000E+00 0.  1.
<mgrwt>
<rscale>  0 0.27320563E+04</rscale>
<asrwt>0</asrwt>
<pdfrwt beam="1">  1        2 0.32315599E+00 0.27320563E+04</pdfrwt>
<pdfrwt beam="2">  1       -2 0.13667226E+00 0.27320563E+04</pdfrwt>
<totfact> 0.19640846E+00</totfact>
</mgrwt>
</event>
<event>
12    1  0.2588309E-007  0.2459730E+04  0.7818608E-02  0.8417474E-01
         -1   -1    0    0    0  501 -0.00000000000E+00  0.00000000000E+00  0.68433366161E+03  0.68433366161E+03  0.00000000000E+00 0.  1.
          1   -1    0    0  501    0  0.00000000000E+00 -0.00000000000E+00 -0.22102780441E+04  0.22102780441E+04  0.00000000000E+00 0. -1.
         23    2    1    2    0    0  0.44946374660E+03 -0.40141946593E+02 -0.17938233431E+04  0.18519266369E+04  0.90559631172E+02 0.  0.
        254    2    1    2    0    0 -0.44946374660E+03  0.40141946593E+02  0.26787896063E+03  0.10426850688E+04  0.90100165358E+03 0.  0.
        -24    2    4    4    0    0 -0.24821833330E+03 -0.38724019282E+03  0.31373363203E+03  0.56253657919E+03  0.80320004590E+02 0.  0.
         24    2    4    4    0    0 -0.20124541329E+03  0.42738213941E+03 -0.45854671403E+02  0.48014848960E+03  0.72696022691E+02 0.  0.
         11    1    3    3    0    0  0.16097606985E+03 -0.14004039035E+02 -0.47719437409E+03  0.50380936756E+03  0.00000000000E+00 0.  1.
        -11    1    3    3    0    0  0.28848767675E+03 -0.26137907558E+02 -0.13166289690E+04  0.13481172693E+04  0.00000000000E+00 0. -1.
          4    1    6    6  502    0 -0.18759045964E+03  0.41452963790E+03 -0.56646593643E+02  0.45851263649E+03  0.00000000000E+00 0. -1.
          3    1    5    5  503    0 -0.24340277926E+03 -0.33559602450E+03  0.27052319791E+03  0.49502768127E+03  0.00000000000E+00 0. -1.
         -4    1    5    5    0  503 -0.48155540427E+01 -0.51644168317E+02  0.43210434118E+02  0.67508897922E+02  0.00000000000E+00 0.  1.
         -3    1    6    6    0  502 -0.13654953651E+02  0.12852501514E+02  0.10791922240E+02  0.21635853115E+02  0.00000000000E+00 0.  1.
<mgrwt>
<rscale>  0 0.24597298E+04</rscale>
<asrwt>0</asrwt>
<pdfrwt beam="1">  1        1 0.34004278E+00 0.24597298E+04</pdfrwt>
<pdfrwt beam="2">  1       -1 0.10528210E+00 0.24597298E+04</pdfrwt>
<totfact> 0.16164147E+00</totfact>
</mgrwt>
</event>
<event>
12    1  0.2588309E-007  0.2307551E+04  0.7818608E-02  0.8474950E-01
         -2   -1    0    0    0  501 -0.00000000000E+00  0.00000000000E+00  0.91579258605E+03  0.91579258605E+03  0.00000000000E+00 0.  1.
          2   -1    0    0  501    0  0.00000000000E+00 -0.00000000000E+00 -0.14536017856E+04  0.14536017856E+04  0.00000000000E+00 0. -1.
         23    2    1    2    0    0 -0.44345795869E+03 -0.70112690201E+03  0.29968764878E+03  0.88651503880E+03  0.88669799467E+02 0.  0.
        254    2    1    2    0    0  0.44345795869E+03  0.70112690201E+03 -0.83749684835E+03  0.14828793329E+04  0.89960894336E+03 0.  0.
        -24    2    4    4    0    0  0.70100395874E+03  0.42330259830E+03 -0.46439303481E+03  0.94519619626E+03  0.84518156322E+02 0.  0.
         24    2    4    4    0    0 -0.25754600004E+03  0.27782430372E+03 -0.37310381353E+03  0.53768313660E+03  0.79877492713E+02 0.  0.
         13    1    3    3    0    0 -0.18005197481E+03 -0.34485129698E+03  0.17243365417E+03  0.42552848994E+03  0.00000000000E+00 0. -1.
        -13    1    3    3    0    0 -0.26340598388E+03 -0.35627560503E+03  0.12725399461E+03  0.46098654886E+03  0.00000000000E+00 0.  1.
          2    1    6    6  502    0 -0.14795173263E+02  0.52929669720E+02 -0.38646363885E+02  0.67186222770E+02  0.00000000000E+00 0. -1.
          3    1    5    5  503    0  0.33734946502E+03  0.18659680874E+03 -0.26403293253E+03  0.46726482859E+03  0.00000000000E+00 0. -1.
         -4    1    5    5    0  503  0.36365449371E+03  0.23670578956E+03 -0.20036010229E+03  0.47793136766E+03  0.00000000000E+00 0.  1.
         -1    1    6    6    0  502 -0.24275082678E+03  0.22489463400E+03 -0.33445744965E+03  0.47049691383E+03  0.00000000000E+00 0.  1.
<mgrwt>
<rscale>  0 0.23075509E+04</rscale>
<asrwt>0</asrwt>
<pdfrwt beam="1">  1        2 0.22363104E+00 0.23075509E+04</pdfrwt>
<pdfrwt beam="2">  1       -2 0.14089117E+00 0.23075509E+04</pdfrwt>
<totfact> 0.43175712E+00</totfact>
</mgrwt>
</event>
<event>
12    1  0.2588309E-007  0.1029845E+04  0.7818608E-02  0.9276403E-01
         -2   -1    0    0    0  501 -0.00000000000E+00  0.00000000000E+00  0.13017119569E+03  0.13017119569E+03  0.00000000000E+00 0. -1.
          2   -1    0    0  501    0  0.00000000000E+00 -0.00000000000E+00 -0.20368976980E+04  0.20368976980E+04  0.00000000000E+00 0.  1.
         23    2    1    2    0    0 -0.83755860972E+02  0.13916503642E+02 -0.21538923032E+03  0.24938735888E+03  0.92697469825E+02 0.  0.
        254    2    1    2    0    0  0.83755860972E+02 -0.13916503642E+02 -0.16913372720E+04  0.19176815348E+04  0.89981775264E+03 0.  0.
        -24    2    4    4    0    0  0.37112308464E+03  0.18895423294E+03 -0.13715002222E+04  0.14355428407E+04  0.79588578198E+02 0.  0.
         24    2    4    4    0    0 -0.28736722367E+03 -0.20287073658E+03 -0.31983704978E+03  0.48213869413E+03  0.80159372295E+02 0.  0.
         11    1    3    3    0    0 -0.76702033516E+02  0.28070483321E+02 -0.84411283447E+02  0.11745815745E+03  0.00000000000E+00 0. -1.
        -11    1    3    3    0    0 -0.70538274557E+01 -0.14153979679E+02 -0.13097794687E+03  0.13192920143E+03  0.00000000000E+00 0.  1.
          2    1    6    6  502    0 -0.13131325918E+03 -0.10422278200E+03 -0.10057015382E+03  0.19549914620E+03  0.00000000000E+00 0. -1.
          3    1    5    5  503    0  0.10494672604E+03  0.54198900230E+02 -0.52137039416E+03  0.53458247633E+03  0.00000000000E+00 0. -1.
         -4    1    5    5    0  503  0.26617635860E+03  0.13475533271E+03 -0.85012982803E+03  0.90096036433E+03  0.00000000000E+00 0.  1.
         -1    1    6    6    0  502 -0.15605396449E+03 -0.98647954577E+02 -0.21926689596E+03  0.28663954793E+03  0.00000000000E+00 0.  1.
<mgrwt>
<rscale>  0 0.10298454E+04</rscale>
<asrwt>0</asrwt>
<pdfrwt beam="1">  1        2 0.31336882E+00 0.10298454E+04</pdfrwt>
<pdfrwt beam="2">  1       -2 0.20026341E-01 0.10298454E+04</pdfrwt>
<totfact> 0.13594902E+02</totfact>
</mgrwt>
</event>
<event>
12    1  0.2588309E-007  0.1679431E+04  0.7818608E-02  0.8773183E-01
          2   -1    0    0  501    0  0.00000000000E+00  0.00000000000E+00  0.14448682219E+04  0.14448682219E+04  0.00000000000E+00 0. -1.
         -2   -1    0    0    0  501 -0.00000000000E+00 -0.00000000000E+00 -0.48801837361E+03  0.48801837361E+03  0.00000000000E+00 0.  1.
         23    2    1    2    0    0 -0.46519748607E+03 -0.36431412618E+03  0.26937877874E+03  0.65512955169E+03  0.86581288251E+02 0.  0.
        254    2    1    2    0    0  0.46519748607E+03  0.36431412618E+03  0.68747106956E+03  0.12777570438E+04  0.90050713934E+03 0.  0.
        -24    2    4    4    0    0  0.69986128881E+03  0.12345756933E+03  0.35508431613E+03  0.79843429235E+03  0.79780026549E+02 0.  0.
         24    2    4    4    0    0 -0.23466380274E+03  0.24085655685E+03  0.33238675342E+03  0.47932275148E+03  0.78678872293E+02 0.  0.
         13    1    3    3    0    0 -0.44624712567E+03 -0.32171663543E+03  0.25490234031E+03  0.60631121858E+03  0.00000000000E+00 0.  1.
        -13    1    3    3    0    0 -0.18950360403E+02 -0.42597490751E+02  0.14476438426E+02  0.48818333106E+02  0.00000000000E+00 0. -1.
          2    1    6    6  502    0 -0.24047887733E+03  0.23937393326E+03  0.32757888213E+03  0.47163322019E+03  0.00000000000E+00 0. -1.
          3    1    5    5  503    0  0.36756213261E+03  0.10150970255E+03  0.20819297724E+03  0.43445420565E+03  0.00000000000E+00 0. -1.
         -4    1    5    5    0  503  0.33229915620E+03  0.21947866781E+02  0.14689133890E+03  0.36398008670E+03  0.00000000000E+00 0.  1.
         -1    1    6    6    0  502  0.58150745913E+01  0.14826235942E+01  0.48078712921E+01  0.76895312982E+01  0.00000000000E+00 0.  1.
<mgrwt>
<rscale>  0 0.16794311E+04</rscale>
<asrwt>0</asrwt>
<pdfrwt beam="1">  1        2 0.22228742E+00 0.16794311E+04</pdfrwt>
<pdfrwt beam="2">  1       -2 0.75079751E-01 0.16794311E+04</pdfrwt>
<totfact> 0.20711530E+01</totfact>
</mgrwt>
</event>
<event>
12    1  0.2588309E-007  0.1808659E+04  0.7818608E-02  0.8701708E-01
          1   -1    0    0  501    0  0.00000000000E+00  0.00000000000E+00  0.17783390711E+04  0.17783390711E+04  0.00000000000E+00 0. -1.
         -1   -1    0    0    0  501 -0.00000000000E+00 -0.00000000000E+00 -0.45987421553E+03  0.45987421553E+03  0.00000000000E+00 0.  1.
         23    2    1    2    0    0 -0.68139614500E+02  0.36263820983E+03  0.11982049997E+04  0.12569367502E+04  0.89695564987E+02 0.  0.
        254    2    1    2    0    0  0.68139614500E+02 -0.36263820983E+03  0.12025985581E+03  0.98127653638E+03  0.90127228385E+03 0.  0.
        -24    2    4    4    0    0 -0.40089426765E+02 -0.29257254525E+03 -0.36296487403E+03  0.47470412730E+03  0.79966570051E+02 0.  0.
         24    2    4    4    0    0  0.10822904126E+03 -0.70065664579E+02  0.48322472985E+03  0.50657240908E+03  0.80540321408E+02 0.  0.
         13    1    3    3    0    0 -0.73693136606E+02  0.36219002823E+03  0.11941586367E+04  0.12500508568E+04  0.00000000000E+00 0. -1.
        -13    1    3    3    0    0  0.55535221058E+01  0.44818159824E+00  0.40463630033E+01  0.68858934118E+01  0.00000000000E+00 0.  1.
          4    1    6    6  502    0  0.10622281949E+03 -0.54854921359E+02  0.47361105139E+03  0.48846676221E+03  0.00000000000E+00 0. -1.
          3    1    5    5  503    0 -0.53391847823E+02 -0.22444107120E+03 -0.23618398409E+03  0.33016262387E+03  0.00000000000E+00 0. -1.
         -4    1    5    5    0  503  0.13302421058E+02 -0.68131474044E+02 -0.12678088994E+03  0.14454150344E+03  0.00000000000E+00 0.  1.
         -3    1    6    6    0  502  0.20062217729E+01 -0.15210743220E+02  0.96136784564E+01  0.18105646870E+02  0.00000000000E+00 0.  1.
<mgrwt>
<rscale>  0 0.18086595E+04</rscale>
<asrwt>0</asrwt>
<pdfrwt beam="1">  1        1 0.27359062E+00 0.18086595E+04</pdfrwt>
<pdfrwt beam="2">  1       -1 0.70749881E-01 0.18086595E+04</pdfrwt>
<totfact> 0.80208823E+00</totfact>
</mgrwt>
</event>
<event>
12    1  0.2588309E-007  0.3447644E+04  0.7818608E-02  0.8126311E-01
         -2   -1    0    0    0  501 -0.00000000000E+00  0.00000000000E+00  0.16068762684E+04  0.16068762684E+04  0.00000000000E+00 0.  1.
          2   -1    0    0  501    0  0.00000000000E+00 -0.00000000000E+00 -0.18492784430E+04  0.18492784430E+04  0.00000000000E+00 0. -1.
         23    2    1    2    0    0  0.24854788089E+03 -0.15715671148E+04  0.10179175788E+03  0.15963435296E+04  0.79698539587E+02 0.  0.
        254    2    1    2    0    0 -0.24854788089E+03  0.15715671148E+04 -0.34419393242E+03  0.18598111818E+04  0.89934916650E+03 0.  0.
        -24    2    4    4    0    0 -0.57486939487E+03  0.83279211492E+03 -0.22219636264E+03  0.10391866149E+04  0.80746945301E+02 0.  0.
         24    2    4    4    0    0  0.32632151399E+03  0.73877499987E+03 -0.12199756978E+03  0.82062456686E+03  0.79164649757E+02 0.  0.
         13    1    3    3    0    0  0.10633495223E+03 -0.59787704888E+03  0.18683304035E+01  0.60726236365E+03  0.00000000000E+00 0. -1.
        -13    1    3    3    0    0  0.14221292865E+03 -0.97369006591E+03  0.99923427478E+02  0.98908116597E+03  0.00000000000E+00 0.  1.
          4    1    6    6  502    0  0.25162686136E+03  0.61474674478E+03 -0.12450681785E+03  0.67581919569E+03  0.00000000000E+00 0. -1.
          3    1    5    5  503    0 -0.77758092608E+02  0.82187199167E+02 -0.44186176275E+02  0.12146388289E+03  0.00000000000E+00 0. -1.
         -4    1    5    5    0  503 -0.49711130227E+03  0.75060491575E+03 -0.17801018637E+03  0.91772273200E+03  0.00000000000E+00 0.  1.
         -3    1    6    6    0  502  0.74694652628E+02  0.12402825510E+03  0.25092480711E+01  0.14480537117E+03  0.00000000000E+00 0.  1.
<mgrwt>
<rscale>  0 0.34476436E+04</rscale>
<asrwt>0</asrwt>
<pdfrwt beam="1">  1        2 0.28450438E+00 0.34476436E+04</pdfrwt>
<pdfrwt beam="2">  1       -2 0.24721173E+00 0.34476436E+04</pdfrwt>
<totfact> 0.44701895E-01</totfact>
</mgrwt>
</event>
<event>
12    1  0.3482716E-007  0.3224625E+04  0.7818608E-02  0.8182344E-01
          1   -1    0    0  501    0  0.00000000000E+00  0.00000000000E+00  0.19432927973E+04  0.19432927973E+04  0.00000000000E+00 0. -1.
         -1   -1    0    0    0  501 -0.00000000000E+00 -0.00000000000E+00 -0.13377048832E+04  0.13377048832E+04  0.00000000000E+00 0.  1.
         23    2    1    2    0    0 -0.11473678123E+04  0.92935265338E+03  0.11294351789E+03  0.14832054324E+04  0.83623355272E+02 0.  0.
        254    2    1    2    0    0  0.11473678123E+04 -0.92935265338E+03  0.49264439622E+03  0.17977922480E+04  0.89956056764E+03 0.  0.
        -24    2    4    4    0    0  0.34129359982E+03 -0.52721027685E+02  0.48931325159E+03  0.60416794693E+03  0.79565205152E+02 0.  0.
         24    2    4    4    0    0  0.80607421248E+03 -0.87663162570E+03  0.33311446293E+01  0.11936243011E+04  0.80555772192E+02 0.  0.
         13    1    3    3    0    0 -0.52464594782E+03  0.44816971203E+03  0.90504253538E+02  0.69591700744E+03  0.00000000000E+00 0. -1.
        -13    1    3    3    0    0 -0.62272186449E+03  0.48118294135E+03  0.22439264353E+02  0.78728842501E+03  0.00000000000E+00 0.  1.
          2    1    6    6  502    0  0.33332442273E+03 -0.33923369559E+03 -0.34843109944E+02  0.47686341160E+03  0.00000000000E+00 0. -1.
          1    1    5    5  503    0  0.20778567208E+03 -0.70906936497E+02  0.29633140811E+03  0.36880209137E+03  0.00000000000E+00 0. -1.
         -2    1    5    5    0  503  0.13350792775E+03  0.18185908811E+02  0.19298184348E+03  0.23536585556E+03  0.00000000000E+00 0.  1.
         -1    1    6    6    0  502  0.47274978975E+03 -0.53739793011E+03  0.38174254573E+02  0.71676088949E+03  0.00000000000E+00 0.  1.
<mgrwt>
<rscale>  0 0.32246254E+04</rscale>
<asrwt>0</asrwt>
<pdfrwt beam="1">  1        1 0.29896812E+00 0.32246254E+04</pdfrwt>
<pdfrwt beam="2">  1       -1 0.20580075E+00 0.32246254E+04</pdfrwt>
<totfact> 0.37330910E-01</totfact>
</mgrwt>
</event>
<event>
12    1  0.2849390E-007  0.3311840E+04  0.7818608E-02  0.8159889E-01
          2   -1    0    0  501    0  0.00000000000E+00  0.00000000000E+00  0.24311807344E+04  0.24311807344E+04  0.00000000000E+00 0. -1.
         -2   -1    0    0    0  501 -0.00000000000E+00 -0.00000000000E+00 -0.11278765055E+04  0.11278765055E+04  0.00000000000E+00 0.  1.
         23    2    1    2    0    0 -0.13721069729E+04 -0.67979320095E+03  0.65777062763E+03  0.16691945442E+04  0.93551518675E+02 0.  0.
        254    2    1    2    0    0  0.13721069729E+04  0.67979320095E+03  0.64553360127E+03  0.18898626957E+04  0.90003946416E+03 0.  0.
        -24    2    4    4    0    0  0.45534989225E+03  0.42793626705E+03 -0.14966402053E+03  0.64785568645E+03  0.82732692407E+02 0.  0.
         24    2    4    4    0    0  0.91675708067E+03  0.25185693390E+03  0.79519762180E+03  0.12420070093E+04  0.79791561005E+02 0.  0.
         13    1    3    3    0    0 -0.63897123681E+03 -0.32334687070E+03  0.35804225436E+03  0.80064455046E+03  0.00000000000E+00 0. -1.
        -13    1    3    3    0    0 -0.73313573610E+03 -0.35644633025E+03  0.29972837327E+03  0.86854999375E+03  0.00000000000E+00 0.  1.
          4    1    6    6  502    0  0.28351979748E+03  0.40518947966E+02  0.23081673594E+03  0.36783369381E+03  0.00000000000E+00 0. -1.
          3    1    5    5  503    0  0.25356438341E+03  0.26657228323E+03 -0.51635778259E+02  0.37151303116E+03  0.00000000000E+00 0. -1.
         -2    1    5    5    0  503  0.20178550884E+03  0.16136398382E+03 -0.98028242271E+02  0.27634265529E+03  0.00000000000E+00 0.  1.
         -3    1    6    6    0  502  0.63323728318E+03  0.21133798594E+03  0.56438088586E+03  0.87417331545E+03  0.00000000000E+00 0.  1.
<mgrwt>
<rscale>  0 0.33118404E+04</rscale>
<asrwt>0</asrwt>
<pdfrwt beam="1">  1        2 0.37402780E+00 0.33118404E+04</pdfrwt>
<pdfrwt beam="2">  1       -2 0.17351946E+00 0.33118404E+04</pdfrwt>
<totfact> 0.64054493E-01</totfact>
</mgrwt>
</event>
<event>
12    1  0.2588309E-007  0.1384581E+04  0.7818608E-02  0.8965056E-01
          2   -1    0    0  501    0  0.00000000000E+00  0.00000000000E+00  0.15294547690E+04  0.15294547690E+04  0.00000000000E+00 0. -1.
         -2   -1    0    0    0  501 -0.00000000000E+00 -0.00000000000E+00 -0.31335752870E+03  0.31335752870E+03  0.00000000000E+00 0.  1.
         23    2    1    2    0    0  0.21733817196E+03  0.27830790611E+03  0.59219384161E+03  0.69573753321E+03  0.93091339428E+02 0.  0.
        254    2    1    2    0    0 -0.21733817196E+03 -0.27830790611E+03  0.62390339872E+03  0.11470747645E+04  0.89545178145E+03 0.  0.
        -24    2    4    4    0    0  0.34210488679E+03 -0.85442229086E+02  0.28628270367E+03  0.46104241867E+03  0.79159316043E+02 0.  0.
         24    2    4    4    0    0 -0.55944305875E+03 -0.19286567703E+03  0.33762069505E+03  0.68603234586E+03  0.80491865969E+02 0.  0.
         13    1    3    3    0    0 -0.12659967071E+01  0.19459927523E+02  0.94735081869E+01  0.21680380168E+02  0.00000000000E+00 0.  1.
        -13    1    3    3    0    0  0.21860416867E+03  0.25884797859E+03  0.58272033342E+03  0.67405715304E+03  0.00000000000E+00 0. -1.
          2    1    6    6  502    0 -0.30751218936E+02 -0.24916578599E+01  0.38879888813E+02  0.49633573104E+02  0.00000000000E+00 0. -1.
          1    1    5    5  503    0  0.22706663151E+01  0.50489586910E+01 -0.24203046522E+01  0.60420016541E+01  0.00000000000E+00 0. -1.
         -2    1    5    5    0  503  0.33983422047E+03 -0.90491187777E+02  0.28870300832E+03  0.45500041702E+03  0.00000000000E+00 0.  1.
         -1    1    6    6    0  502 -0.52869183981E+03 -0.19037401917E+03  0.29874080624E+03  0.63639877276E+03  0.00000000000E+00 0.  1.
<mgrwt>
<rscale>  0 0.13845810E+04</rscale>
<asrwt>0</asrwt>
<pdfrwt beam="1">  1        2 0.23530073E+00 0.13845810E+04</pdfrwt>
<pdfrwt beam="2">  1       -2 0.48208852E-01 0.13845810E+04</pdfrwt>
<totfact> 0.48509979E+01</totfact>
</mgrwt>
</event>
<event>
12    1  0.2588309E-007  0.1838161E+04  0.7818608E-02  0.8686265E-01
          1   -1    0    0  501    0  0.00000000000E+00  0.00000000000E+00  0.30733080100E+03  0.30733080100E+03  0.00000000000E+00 0. -1.
         -1   -1    0    0    0  501 -0.00000000000E+00 -0.00000000000E+00 -0.27485344952E+04  0.27485344952E+04  0.00000000000E+00 0.  1.
         23    2    1    2    0    0 -0.60818790548E+03 -0.15165445215E+03 -0.42406330080E+03  0.76274774872E+03  0.95198969870E+02 0.  0.
        254    2    1    2    0    0  0.60818790548E+03  0.15165445215E+03 -0.20171403934E+04  0.22931175475E+04  0.89254754420E+03 0.  0.
        -24    2    4    4    0    0 -0.55924635066E+02  0.36256304787E+03 -0.53805327367E+03  0.65614309017E+03  0.80267683263E+02 0.  0.
         24    2    4    4    0    0  0.66411254054E+03 -0.21090859572E+03 -0.14790871198E+04  0.16369744573E+04  0.80366435141E+02 0.  0.
         13    1    3    3    0    0 -0.54745087256E+03 -0.12103038974E+03 -0.34441369586E+03  0.65800578037E+03  0.00000000000E+00 0. -1.
        -13    1    3    3    0    0 -0.60737032921E+02 -0.30624062407E+02 -0.79649604944E+02  0.10474196835E+03  0.00000000000E+00 0.  1.
          2    1    6    6  502    0  0.96461525292E+02 -0.55276021238E+02 -0.19634862816E+03  0.22563919909E+03  0.00000000000E+00 0. -1.
          1    1    5    5  503    0 -0.13891645146E+02  0.19290003699E+02 -0.71781812729E+02  0.75615545268E+02  0.00000000000E+00 0. -1.
         -4    1    5    5    0  503 -0.42032989921E+02  0.34327304417E+03 -0.46627146095E+03  0.58052754490E+03  0.00000000000E+00 0.  1.
         -1    1    6    6    0  502  0.56765101525E+03 -0.15563257448E+03 -0.12827384916E+04  0.14113352583E+04  0.00000000000E+00 0.  1.
<mgrwt>
<rscale>  0 0.18381614E+04</rscale>
<asrwt>0</asrwt>
<pdfrwt beam="1">  1        1 0.47281663E-01 0.18381614E+04</pdfrwt>
<pdfrwt beam="2">  1       -1 0.42285145E+00 0.18381614E+04</pdfrwt>
<totfact> 0.39916985E-01</totfact>
</mgrwt>
</event>
<event>
12    1  0.2588309E-007  0.1483059E+04  0.7818608E-02  0.8895797E-01
          1   -1    0    0  501    0  0.00000000000E+00  0.00000000000E+00  0.79948206989E+03  0.79948206989E+03  0.00000000000E+00 0. -1.
         -1   -1    0    0    0  501 -0.00000000000E+00 -0.00000000000E+00 -0.68777748437E+03  0.68777748437E+03  0.00000000000E+00 0.  1.
         23    2    1    2    0    0  0.43584523929E+03  0.15053874888E+03  0.38010158296E+02  0.47198694442E+03  0.93294780373E+02 0.  0.
        254    2    1    2    0    0 -0.43584523929E+03 -0.15053874888E+03  0.73694427226E+02  0.10152726098E+04  0.90151240489E+03 0.  0.
        -24    2    4    4    0    0 -0.16234610792E+03 -0.35273395947E+03 -0.30438318605E+03  0.50036595167E+03  0.83303401637E+02 0.  0.
         24    2    4    4    0    0 -0.27349913136E+03  0.20219521058E+03  0.37807761328E+03  0.51490665817E+03  0.80631922524E+02 0.  0.
         11    1    3    3    0    0  0.12977504473E+03  0.34352205099E+02 -0.30143217013E+02  0.13758724418E+03  0.00000000000E+00 0.  1.
        -11    1    3    3    0    0  0.30607019455E+03  0.11618654379E+03  0.68153375310E+02  0.33439970023E+03  0.00000000000E+00 0. -1.
          4    1    6    6  502    0 -0.23314956690E+03  0.17866087159E+03  0.27783593349E+03  0.40431575967E+03  0.00000000000E+00 0. -1.
          1    1    5    5  503    0 -0.23890272238E+02 -0.13251137130E+03 -0.78563973892E+02  0.15589197101E+03  0.00000000000E+00 0. -1.
         -2    1    5    5    0  503 -0.13845583568E+03 -0.22022258817E+03 -0.22581921216E+03  0.34447398066E+03  0.00000000000E+00 0.  1.
         -3    1    6    6    0  502 -0.40349564468E+02  0.23534338994E+02  0.10024167979E+03  0.11059089850E+03  0.00000000000E+00 0.  1.
<mgrwt>
<rscale>  0 0.14830587E+04</rscale>
<asrwt>0</asrwt>
<pdfrwt beam="1">  1        1 0.12299724E+00 0.14830587E+04</pdfrwt>
<pdfrwt beam="2">  1       -1 0.10581192E+00 0.14830587E+04</pdfrwt>
<totfact> 0.17933560E+01</totfact>
</mgrwt>
</event>
<event>
12    1  0.2588309E-007  0.2026897E+04  0.7818608E-02  0.8594148E-01
          2   -1    0    0  501    0  0.00000000000E+00  0.00000000000E+00  0.12266255451E+04  0.12266255451E+04  0.00000000000E+00 0. -1.
         -2   -1    0    0    0  501 -0.00000000000E+00 -0.00000000000E+00 -0.83731996108E+03  0.83731996108E+03  0.00000000000E+00 0.  1.
         23    2    1    2    0    0 -0.65788665429E+03  0.47140482299E+03  0.10289031881E+03  0.82043140237E+03  0.86509602107E+02 0.  0.
        254    2    1    2    0    0  0.65788665429E+03 -0.47140482299E+03  0.28641526516E+03  0.12435141038E+04  0.89958671908E+03 0.  0.
        -24    2    4    4    0    0  0.60030696507E+03 -0.30821141055E+02 -0.14042322323E+03  0.62228897561E+03  0.78781295342E+02 0.  0.
         24    2    4    4    0    0  0.57579689218E+02 -0.44058368193E+03  0.42683848839E+03  0.62122512817E+03  0.79373568000E+02 0.  0.
         11    1    3    3    0    0 -0.32042387076E+03  0.20644361784E+03  0.87603884069E+02  0.39110722929E+03  0.00000000000E+00 0. -1.
        -11    1    3    3    0    0 -0.33746278353E+03  0.26496120515E+03  0.15286434746E+02  0.42932417308E+03  0.00000000000E+00 0.  1.
          2    1    6    6  502    0  0.62106603390E+02 -0.42357824141E+03  0.42547197072E+03  0.60357448144E+03  0.00000000000E+00 0. -1.
          3    1    5    5  503    0  0.56215682118E+03 -0.39282993726E+02 -0.11352498269E+03  0.57484899485E+03  0.00000000000E+00 0. -1.
         -4    1    5    5    0  503  0.38150143895E+02  0.84618526712E+01 -0.26898240544E+02  0.47439980757E+02  0.00000000000E+00 0.  1.
         -1    1    6    6    0  502 -0.45269141722E+01 -0.17005440525E+02  0.13665176765E+01  0.17650646729E+02  0.00000000000E+00 0.  1.
<mgrwt>
<rscale>  0 0.20268972E+04</rscale>
<asrwt>0</asrwt>
<pdfrwt beam="1">  1        2 0.18871162E+00 0.20268972E+04</pdfrwt>
<pdfrwt beam="2">  1       -2 0.12881846E+00 0.20268972E+04</pdfrwt>
<totfact> 0.75251596E+00</totfact>
</mgrwt>
</event>
<event>
12    1  0.2588309E-007  0.3969674E+04  0.7818608E-02  0.8010692E-01
         -2   -1    0    0    0  501 -0.00000000000E+00  0.00000000000E+00  0.18301988875E+04  0.18301988875E+04  0.00000000000E+00 0.  1.
          2   -1    0    0  501    0  0.00000000000E+00 -0.00000000000E+00 -0.21525403849E+04  0.21525403849E+04  0.00000000000E+00 0. -1.
         23    2    1    2    0    0 -0.17957302946E+04 -0.36427236314E+02  0.40928355430E+03  0.18443861961E+04  0.90957013315E+02 0.  0.
        254    2    1    2    0    0  0.17957302946E+04  0.36427236314E+02 -0.73162505176E+03  0.21383530762E+04  0.90072439066E+03 0.  0.
        -24    2    4    4    0    0  0.16641117507E+02 -0.14329808743E+03 -0.22363379869E+03  0.27778344755E+03  0.79625995521E+02 0.  0.
         24    2    4    4    0    0  0.17790891771E+04  0.17972532374E+03 -0.50799125307E+03  0.18605696287E+04  0.78770159845E+02 0.  0.
         11    1    3    3    0    0 -0.10624474375E+04 -0.69444524910E+01  0.19864933640E+03  0.10808812801E+04  0.00000000000E+00 0. -1.
        -11    1    3    3    0    0 -0.73328285711E+03 -0.29482783823E+02  0.21063421791E+03  0.76350491605E+03  0.00000000000E+00 0.  1.
          4    1    6    6  502    0  0.13482808985E+04  0.12258648310E+03 -0.41651815847E+03  0.14164660968E+04  0.00000000000E+00 0. -1.
          3    1    5    5  503    0 -0.24031685009E+02 -0.38899646371E+02 -0.32034268312E+02  0.55829192349E+02  0.00000000000E+00 0. -1.
         -4    1    5    5    0  503  0.40672802516E+02 -0.10439844106E+03 -0.19159953037E+03  0.22195425520E+03  0.00000000000E+00 0.  1.
         -3    1    6    6    0  502  0.43080827855E+03  0.57138840641E+02 -0.91473094596E+02  0.44410353186E+03  0.00000000000E+00 0.  1.
<mgrwt>
<rscale>  0 0.39696735E+04</rscale>
<asrwt>0</asrwt>
<pdfrwt beam="1">  1        2 0.33116006E+00 0.39696735E+04</pdfrwt>
<pdfrwt beam="2">  1       -2 0.28156906E+00 0.39696735E+04</pdfrwt>
<totfact> 0.17888945E-01</totfact>
</mgrwt>
</event>
<event>
12    1  0.2588309E-007  0.1508727E+04  0.7818608E-02  0.8878670E-01
          2   -1    0    0  501    0  0.00000000000E+00  0.00000000000E+00  0.77523135357E+03  0.77523135357E+03  0.00000000000E+00 0. -1.
         -2   -1    0    0    0  501 -0.00000000000E+00 -0.00000000000E+00 -0.73405724149E+03  0.73405724149E+03  0.00000000000E+00 0.  1.
         23    2    1    2    0    0  0.34721379773E+03 -0.28811289623E+03 -0.15373473012E+03  0.48412041866E+03  0.84686186695E+02 0.  0.
        254    2    1    2    0    0 -0.34721379773E+03  0.28811289623E+03  0.19490884220E+03  0.10251681764E+04  0.89967431376E+03 0.  0.
        -24    2    4    4    0    0  0.12261334377E+03  0.42572145122E+03  0.26740617079E+03  0.52375755615E+03  0.80889624515E+02 0.  0.
         24    2    4    4    0    0 -0.46982714150E+03 -0.13760855499E+03 -0.72497328593E+02  0.50141062025E+03  0.80517638752E+02 0.  0.
         11    1    3    3    0    0  0.17040693117E+03 -0.13649110122E+03 -0.11892035922E+03  0.24861696391E+03  0.00000000000E+00 0.  1.
        -11    1    3    3    0    0  0.17680686655E+03 -0.15162179500E+03 -0.34814370896E+02  0.23550345476E+03  0.00000000000E+00 0. -1.
          4    1    6    6  502    0 -0.16951782241E+03 -0.10174098161E+02 -0.20286868669E+02  0.17103029389E+03  0.00000000000E+00 0. -1.
          3    1    5    5  503    0  0.60507988953E+02  0.92370358369E+02  0.52172343280E+02  0.12212883867E+03  0.00000000000E+00 0. -1.
         -4    1    5    5    0  503  0.62105354816E+02  0.33335109285E+03  0.21523382751E+03  0.40162871748E+03  0.00000000000E+00 0.  1.
         -3    1    6    6    0  502 -0.30030931909E+03 -0.12743445683E+03 -0.52210459923E+02  0.33038032636E+03  0.00000000000E+00 0.  1.
<mgrwt>
<rscale>  0 0.15087269E+04</rscale>
<asrwt>0</asrwt>
<pdfrwt beam="1">  1        2 0.11926636E+00 0.15087269E+04</pdfrwt>
<pdfrwt beam="2">  1       -2 0.11293188E+00 0.15087269E+04</pdfrwt>
<totfact> 0.21372476E+01</totfact>
</mgrwt>
</event>
<event>
12    1  0.2588309E-007  0.2135838E+04  0.7818608E-02  0.8545619E-01
         -1   -1    0    0    0  501 -0.00000000000E+00  0.00000000000E+00  0.10685698690E+04  0.10685698690E+04  0.00000000000E+00 0.  1.
          1   -1    0    0  501    0  0.00000000000E+00 -0.00000000000E+00 -0.10672690025E+04  0.10672690025E+04  0.00000000000E+00 0. -1.
         23    2    1    2    0    0 -0.46244136630E+03 -0.32070556691E+03  0.67150957690E+03  0.88089543855E+03  0.91365112989E+02 0.  0.
        254    2    1    2    0    0  0.46244136630E+03  0.32070556691E+03 -0.67020871044E+03  0.12549434329E+04  0.89944384280E+03 0.  0.
        -24    2    4    4    0    0 -0.75015925112E+02 -0.11950095073E+03  0.11836720218E+03  0.20090341872E+03  0.80271556947E+02 0.  0.
         24    2    4    4    0    0  0.53745729142E+03  0.44020651764E+03 -0.78857591263E+03  0.10540400142E+04  0.80661411431E+02 0.  0.
         13    1    3    3    0    0 -0.16527483004E+03 -0.12967070730E+03  0.31801441134E+03  0.38113439572E+03  0.00000000000E+00 0.  1.
        -13    1    3    3    0    0 -0.29716653626E+03 -0.19103485962E+03  0.35349516556E+03  0.49976104283E+03  0.00000000000E+00 0. -1.
          4    1    6    6  502    0  0.43017763079E+03  0.38142522623E+03 -0.61726290556E+03  0.84353511593E+03  0.00000000000E+00 0. -1.
          3    1    5    5  503    0 -0.66336050254E+02 -0.61230553458E+02  0.30843504788E+02  0.95399025297E+02  0.00000000000E+00 0. -1.
         -4    1    5    5    0  503 -0.86798748582E+01 -0.58270397268E+02  0.87523697392E+02  0.10550439342E+03  0.00000000000E+00 0.  1.
         -3    1    6    6    0  502  0.10727966063E+03  0.58781291414E+02 -0.17131300707E+03  0.21050489827E+03  0.00000000000E+00 0.  1.
<mgrwt>
<rscale>  0 0.21358385E+04</rscale>
<asrwt>0</asrwt>
<pdfrwt beam="1">  1        1 0.16419523E+00 0.21358385E+04</pdfrwt>
<pdfrwt beam="2">  1       -1 0.16439536E+00 0.21358385E+04</pdfrwt>
<totfact> 0.33330431E+00</totfact>
</mgrwt>
</event>
<event>
12    1  0.2981294E-007  0.2043233E+04  0.7818608E-02  0.8586670E-01
         -1   -1    0    0    0  501 -0.00000000000E+00  0.00000000000E+00  0.69108659453E+03  0.69108659453E+03  0.00000000000E+00 0.  1.
          1   -1    0    0  501    0  0.00000000000E+00 -0.00000000000E+00 -0.15102305537E+04  0.15102305537E+04  0.00000000000E+00 0. -1.
         23    2    1    2    0    0  0.74375549545E+03 -0.34645115810E+03 -0.31919724671E+03  0.88495433522E+03  0.89758850062E+02 0.  0.
        254    2    1    2    0    0 -0.74375549545E+03  0.34645115810E+03 -0.49994671250E+03  0.13163628130E+04  0.89981314632E+03 0.  0.
        -24    2    4    4    0    0 -0.63842077284E+03 -0.17687205193E+03 -0.18745994288E+03  0.69279472336E+03  0.77191272737E+02 0.  0.
         24    2    4    4    0    0 -0.10533472261E+03  0.52332321003E+03 -0.31248676962E+03  0.62356808968E+03  0.78908778627E+02 0.  0.
         11    1    3    3    0    0  0.46267621814E+03 -0.16878913839E+03 -0.17769049611E+03  0.52357708934E+03  0.00000000000E+00 0.  1.
        -11    1    3    3    0    0  0.28107927731E+03 -0.17766201971E+03 -0.14150675059E+03  0.36137724589E+03  0.00000000000E+00 0. -1.
          4    1    6    6  502    0 -0.86689905967E+02  0.46101900219E+03 -0.24265473833E+03  0.52814295622E+03  0.00000000000E+00 0. -1.
          3    1    5    5  503    0 -0.46800060003E+03 -0.11635515265E+03 -0.16902548930E+03  0.51101144724E+03  0.00000000000E+00 0. -1.
         -4    1    5    5    0  503 -0.17042017281E+03 -0.60516899288E+02 -0.18434453582E+02  0.18178327613E+03  0.00000000000E+00 0.  1.
         -3    1    6    6    0  502 -0.18644816643E+02  0.62304207844E+02 -0.69832031287E+02  0.95425133463E+02  0.00000000000E+00 0.  1.
<mgrwt>
<rscale>  0 0.20432328E+04</rscale>
<asrwt>0</asrwt>
<pdfrwt beam="1">  1        1 0.23234316E+00 0.20432328E+04</pdfrwt>
<pdfrwt beam="2">  1       -1 0.10632102E+00 0.20432328E+04</pdfrwt>
<totfact> 0.49177500E+00</totfact>
</mgrwt>
</event>
<event>
12    1  0.2588309E-007  0.1955830E+04  0.7818608E-02  0.8627555E-01
          2   -1    0    0  501    0  0.00000000000E+00  0.00000000000E+00  0.86482438472E+03  0.86482438472E+03  0.00000000000E+00 0. -1.
         -2   -1    0    0    0  501 -0.00000000000E+00 -0.00000000000E+00 -0.11057943084E+04  0.11057943084E+04  0.00000000000E+00 0.  1.
         23    2    1    2    0    0 -0.48802447562E+03  0.20900965826E+03 -0.65394175461E+03  0.84753326573E+03  0.93914280360E+02 0.  0.
        254    2    1    2    0    0  0.48802447562E+03 -0.20900965826E+03  0.41297183092E+03  0.11230854274E+04  0.89940103294E+03 0.  0.
        -24    2    4    4    0    0  0.68540683611E+03 -0.25964829816E+03  0.10398419440E+03  0.74447533591E+03  0.78936958210E+02 0.  0.
         24    2    4    4    0    0 -0.19738236049E+03  0.50638639899E+02  0.30898763652E+03  0.37861009149E+03  0.79675427633E+02 0.  0.
         13    1    3    3    0    0 -0.36419756791E+03  0.11539161585E+03 -0.43208255578E+03  0.57675855302E+03  0.00000000000E+00 0. -1.
        -13    1    3    3    0    0 -0.12382690771E+03  0.93618042407E+02 -0.22185919883E+03  0.27077471271E+03  0.00000000000E+00 0.  1.
          2    1    6    6  502    0 -0.34356160257E+02  0.11320121941E+02  0.13042086789E+02  0.38452398316E+02  0.00000000000E+00 0. -1.
          1    1    5    5  503    0  0.20410102705E+03 -0.44344782669E+02  0.11677412938E+02  0.20918903166E+03  0.00000000000E+00 0. -1.
         -4    1    5    5    0  503  0.48130580906E+03 -0.21530351549E+03  0.92306781466E+02  0.53528630425E+03  0.00000000000E+00 0.  1.
         -1    1    6    6    0  502 -0.16302620023E+03  0.39318517957E+02  0.29594554973E+03  0.34015769317E+03  0.00000000000E+00 0.  1.
<mgrwt>
<rscale>  0 0.19558301E+04</rscale>
<asrwt>0</asrwt>
<pdfrwt beam="1">  1        2 0.13304991E+00 0.19558301E+04</pdfrwt>
<pdfrwt beam="2">  1       -2 0.17012220E+00 0.19558301E+04</pdfrwt>
<totfact> 0.61444486E+00</totfact>
</mgrwt>
</event>
<event>
12    1  0.2588309E-007  0.1492746E+04  0.7818608E-02  0.8889291E-01
         -2   -1    0    0    0  501 -0.00000000000E+00  0.00000000000E+00  0.28958368724E+03  0.28958368724E+03  0.00000000000E+00 0.  1.
          2   -1    0    0  501    0  0.00000000000E+00 -0.00000000000E+00 -0.19237019732E+04  0.19237019732E+04  0.00000000000E+00 0. -1.
         23    2    1    2    0    0  0.54930314165E+01 -0.40331099821E+03 -0.87657158621E+03  0.96883236078E+03  0.86996912951E+02 0.  0.
        254    2    1    2    0    0 -0.54930314165E+01  0.40331099821E+03 -0.75754669979E+03  0.12444532997E+04  0.90116429029E+03 0.  0.
        -24    2    4    4    0    0  0.12850079446E+03  0.63927110507E+03 -0.33892116035E+03  0.73917953553E+03  0.79616787519E+02 0.  0.
         24    2    4    4    0    0 -0.13399382588E+03 -0.23596010686E+03 -0.41862553943E+03  0.50527376417E+03  0.80141856036E+02 0.  0.
         11    1    3    3    0    0 -0.31817099420E+01 -0.13045471149E+03 -0.38540958679E+03  0.40690183659E+03  0.00000000000E+00 0. -1.
        -11    1    3    3    0    0  0.86747413585E+01 -0.27285628672E+03 -0.49116199942E+03  0.56193052418E+03  0.00000000000E+00 0.  1.
          2    1    6    6  502    0 -0.20494603795E+02 -0.43581253475E+02 -0.29151791043E+02  0.56295482591E+02  0.00000000000E+00 0. -1.
          3    1    5    5  503    0  0.27317080296E+02  0.20028505457E+03 -0.14473567177E+03  0.24861363728E+03  0.00000000000E+00 0. -1.
         -4    1    5    5    0  503  0.10118371416E+03  0.43898605051E+03 -0.19418548858E+03  0.49056589825E+03  0.00000000000E+00 0.  1.
         -1    1    6    6    0  502 -0.11349922208E+03 -0.19237885338E+03 -0.38947374839E+03  0.44897828158E+03  0.00000000000E+00 0.  1.
<mgrwt>
<rscale>  0 0.14927461E+04</rscale>
<asrwt>0</asrwt>
<pdfrwt beam="1">  1        2 0.29595414E+00 0.14927461E+04</pdfrwt>
<pdfrwt beam="2">  1       -2 0.44551338E-01 0.14927461E+04</pdfrwt>
<totfact> 0.34033902E+01</totfact>
</mgrwt>
</event>
<event>
12    1  0.2588309E-007  0.2095782E+04  0.7818608E-02  0.8563104E-01
          2   -1    0    0  501    0  0.00000000000E+00  0.00000000000E+00  0.26171886566E+04  0.26171886566E+04  0.00000000000E+00 0. -1.
         -2   -1    0    0    0  501 -0.00000000000E+00 -0.00000000000E+00 -0.41956313194E+03  0.41956313194E+03  0.00000000000E+00 0.  1.
         23    2    1    2    0    0  0.38213160344E+03  0.65905197515E+03  0.34708094104E+03  0.84223807585E+03  0.92334871459E+02 0.  0.
        254    2    1    2    0    0 -0.38213160344E+03 -0.65905197515E+03  0.18505445836E+04  0.21945137127E+04  0.90055600099E+03 0.  0.
        -24    2    4    4    0    0 -0.19884739287E+03 -0.82943748439E+03  0.10683202882E+04  0.13693923515E+04  0.80127073096E+02 0.  0.
         24    2    4    4    0    0 -0.18328421057E+03  0.17038550924E+03  0.78222429538E+03  0.82512136121E+03  0.79536713803E+02 0.  0.
         13    1    3    3    0    0  0.16525556779E+03  0.20770154095E+03  0.14303082635E+03  0.30150812607E+03  0.00000000000E+00 0.  1.
        -13    1    3    3    0    0  0.21687603565E+03  0.45135043419E+03  0.20405011470E+03  0.54072994979E+03  0.00000000000E+00 0. -1.
          2    1    6    6  502    0  0.57610720107E+01  0.93243763508E+01  0.14181586012E+02  0.17923485343E+02  0.00000000000E+00 0. -1.
          3    1    5    5  503    0 -0.24549237042E+02 -0.13435806168E+03  0.12840655097E+03  0.18746465297E+03  0.00000000000E+00 0. -1.
         -4    1    5    5    0  503 -0.17429815583E+03 -0.69507942271E+03  0.93991373725E+03  0.11819276985E+04  0.00000000000E+00 0.  1.
         -1    1    6    6    0  502 -0.18904528258E+03  0.16106113289E+03  0.76804270937E+03  0.80719787587E+03  0.00000000000E+00 0.  1.
<mgrwt>
<rscale>  0 0.20957823E+04</rscale>
<asrwt>0</asrwt>
<pdfrwt beam="1">  1        2 0.40264440E+00 0.20957823E+04</pdfrwt>
<pdfrwt beam="2">  1       -2 0.64548176E-01 0.20957823E+04</pdfrwt>
<totfact> 0.60776230E+00</totfact>
</mgrwt>
</event>
<event>
12    1  0.2588309E-007  0.4049650E+04  0.7818608E-02  0.7994605E-01
         -1   -1    0    0    0  501 -0.00000000000E+00  0.00000000000E+00  0.14314919296E+04  0.14314919296E+04  0.00000000000E+00 0.  1.
          1   -1    0    0  501    0  0.00000000000E+00 -0.00000000000E+00 -0.28640857527E+04  0.28640857527E+04  0.00000000000E+00 0. -1.
         23    2    1    2    0    0  0.26346186421E+03  0.18890801120E+04 -0.40621803913E+03  0.19523268073E+04  0.92363647488E+02 0.  0.
        254    2    1    2    0    0 -0.26346186421E+03 -0.18890801120E+04 -0.10263757840E+04  0.23432508750E+04  0.89405905261E+03 0.  0.
        -24    2    4    4    0    0 -0.15212670652E+03 -0.57286801421E+03  0.98483522025E+02  0.60658322278E+03  0.83210008453E+02 0.  0.
         24    2    4    4    0    0 -0.11133515768E+03 -0.13162120978E+04 -0.11248593060E+04  0.17366676522E+04  0.76787186740E+02 0.  0.
         11    1    3    3    0    0  0.11938862622E+03  0.11126496656E+04 -0.26727282174E+03  0.11505119225E+04  0.00000000000E+00 0. -1.
        -11    1    3    3    0    0  0.14407323798E+03  0.77643044642E+03 -0.13894521738E+03  0.80181488478E+03  0.00000000000E+00 0.  1.
          4    1    6    6  502    0 -0.82933559438E+02 -0.11954009149E+04 -0.10015439531E+04  0.15617143185E+04  0.00000000000E+00 0. -1.
          3    1    5    5  503    0 -0.16114376822E+03 -0.55450733151E+03  0.10011844329E+03  0.58606262244E+03  0.00000000000E+00 0. -1.
         -4    1    5    5    0  503  0.90170616943E+01 -0.18360682694E+02 -0.16349212678E+01  0.20520600336E+02  0.00000000000E+00 0.  1.
         -3    1    6    6    0  502 -0.28401598245E+02 -0.12081118289E+03 -0.12331535298E+03  0.17495333370E+03  0.00000000000E+00 0.  1.
<mgrwt>
<rscale>  0 0.40496497E+04</rscale>
<asrwt>0</asrwt>
<pdfrwt beam="1">  1        1 0.44062858E+00 0.40496497E+04</pdfrwt>
<pdfrwt beam="2">  1       -1 0.22022953E+00 0.40496497E+04</pdfrwt>
<totfact> 0.64075689E-02</totfact>
</mgrwt>
</event>
<event>
12    1  0.2588309E-007  0.1773852E+04  0.7818608E-02  0.8720330E-01
         -2   -1    0    0    0  501 -0.00000000000E+00  0.00000000000E+00  0.12724607754E+04  0.12724607754E+04  0.00000000000E+00 0.  1.
          2   -1    0    0  501    0  0.00000000000E+00 -0.00000000000E+00 -0.61820181041E+03  0.61820181041E+03  0.00000000000E+00 0. -1.
         23    2    1    2    0    0  0.59036315170E+03 -0.16728459013E+03  0.48968624668E+03  0.79038755604E+03  0.91690149860E+02 0.  0.
        254    2    1    2    0    0 -0.59036315170E+03  0.16728459013E+03  0.16457271833E+03  0.11002750298E+04  0.89833633821E+03 0.  0.
        -24    2    4    4    0    0  0.36831175453E+02 -0.17119651482E+03 -0.21484887085E+03  0.28882305324E+03  0.81203057880E+02 0.  0.
         24    2    4    4    0    0 -0.62719432715E+03  0.33848110495E+03  0.37942158917E+03  0.81145197653E+03  0.80940629290E+02 0.  0.
         13    1    3    3    0    0  0.37227994864E+03 -0.14470637255E+03  0.28731654276E+03  0.49201940019E+03  0.00000000000E+00 0. -1.
        -13    1    3    3    0    0  0.21808320306E+03 -0.22578217586E+02  0.20236970392E+03  0.29836815585E+03  0.00000000000E+00 0.  1.
          4    1    6    6  502    0 -0.62530713320E+03  0.32750329576E+03  0.37612324480E+03  0.79983505477E+03  0.00000000000E+00 0. -1.
          1    1    5    5  503    0  0.10071359538E+02 -0.14682660978E+03 -0.20300675100E+03  0.25074135394E+03  0.00000000000E+00 0. -1.
         -2    1    5    5    0  503  0.26759815915E+02 -0.24369905036E+02 -0.11842119842E+02  0.38081699301E+02  0.00000000000E+00 0.  1.
         -3    1    6    6    0  502 -0.18871939538E+01  0.10977809190E+02  0.32983443732E+01  0.11616921762E+02  0.00000000000E+00 0.  1.
<mgrwt>
<rscale>  0 0.17738518E+04</rscale>
<asrwt>0</asrwt>
<pdfrwt beam="1">  1        2 0.95107971E-01 0.17738518E+04</pdfrwt>
<pdfrwt beam="2">  1       -2 0.19576320E+00 0.17738518E+04</pdfrwt>
<totfact> 0.64125115E+00</totfact>
</mgrwt>
</event>
<event>
12    1  0.2588309E-007  0.2838474E+04  0.7818608E-02  0.8291422E-01
         -1   -1    0    0    0  501 -0.00000000000E+00  0.00000000000E+00  0.15040800478E+04  0.15040800478E+04  0.00000000000E+00 0.  1.
          1   -1    0    0  501    0  0.00000000000E+00 -0.00000000000E+00 -0.13391802928E+04  0.13391802928E+04  0.00000000000E+00 0. -1.
         23    2    1    2    0    0 -0.47327665092E+03 -0.11816887233E+04  0.13173785094E+03  0.12830619198E+04  0.92271347758E+02 0.  0.
        254    2    1    2    0    0  0.47327665092E+03  0.11816887233E+04  0.33161904041E+02  0.15601984207E+04  0.90152114394E+03 0.  0.
        -24    2    4    4    0    0  0.46945146778E+03  0.31170941794E+03  0.30422024770E+03  0.64541664004E+03  0.80406705561E+02 0.  0.
         24    2    4    4    0    0  0.38251831324E+01  0.86997930541E+03 -0.27105834366E+03  0.91478178068E+03  0.80464008979E+02 0.  0.
         13    1    3    3    0    0 -0.26668700056E+03 -0.74014656522E+03  0.45764159314E+02  0.78805663029E+03  0.00000000000E+00 0. -1.
        -13    1    3    3    0    0 -0.20658965036E+03 -0.44154215813E+03  0.85973691622E+02  0.49500528956E+03  0.00000000000E+00 0.  1.
          2    1    6    6  502    0 -0.15766637372E+02  0.64302289301E+03 -0.23128772217E+03  0.68353568906E+03  0.00000000000E+00 0. -1.
          3    1    5    5  503    0  0.39740830972E+03  0.22718975989E+03  0.25427278060E+03  0.52364415263E+03  0.00000000000E+00 0. -1.
         -4    1    5    5    0  503  0.72043158067E+02  0.84519658051E+02  0.49947467104E+02  0.12177248742E+03  0.00000000000E+00 0.  1.
         -1    1    6    6    0  502  0.19591820504E+02  0.22695641239E+03 -0.39770621490E+02  0.23124609162E+03  0.00000000000E+00 0.  1.
<mgrwt>
<rscale>  0 0.28384745E+04</rscale>
<asrwt>0</asrwt>
<pdfrwt beam="1">  1        1 0.20602774E+00 0.28384745E+04</pdfrwt>
<pdfrwt beam="2">  1       -1 0.23139693E+00 0.28384745E+04</pdfrwt>
<totfact> 0.67628387E-01</totfact>
</mgrwt>
</event>
<event>
12    1  0.2588309E-007  0.1504120E+04  0.7818608E-02  0.8881718E-01
         -2   -1    0    0    0  501 -0.00000000000E+00  0.00000000000E+00  0.65220331969E+03  0.65220331969E+03  0.00000000000E+00 0.  1.
          2   -1    0    0  501    0  0.00000000000E+00 -0.00000000000E+00 -0.86720503407E+03  0.86720503407E+03  0.00000000000E+00 0. -1.
         23    2    1    2    0    0 -0.39713098428E+03  0.20950361566E+03  0.10635606164E+03  0.46996378075E+03  0.89160303496E+02 0.  0.
        254    2    1    2    0    0  0.39713098428E+03 -0.20950361566E+03 -0.32135777603E+03  0.10494445730E+04  0.89244512882E+03 0.  0.
        -24    2    4    4    0    0  0.22264031224E+03  0.20841933415E+03  0.18525081328E+03  0.36555826949E+03  0.79420759841E+02 0.  0.
         24    2    4    4    0    0  0.17449067204E+03 -0.41792294981E+03 -0.50660858931E+03  0.68388630351E+03  0.77081948392E+02 0.  0.
         11    1    3    3    0    0 -0.25274480886E+03  0.14761698585E+03  0.11039349242E+03  0.31282173212E+03  0.00000000000E+00 0.  1.
        -11    1    3    3    0    0 -0.14438617541E+03  0.61886629806E+02 -0.40374307712E+01  0.15714204863E+03  0.00000000000E+00 0. -1.
          2    1    6    6  502    0  0.11287973180E+03 -0.26129850842E+03 -0.37180568573E+03  0.46825015996E+03  0.00000000000E+00 0. -1.
          3    1    5    5  503    0  0.12456381148E+03  0.77039035438E+02  0.11906300547E+03  0.18875157055E+03  0.00000000000E+00 0. -1.
         -4    1    5    5    0  503  0.98076500757E+02  0.13138029871E+03  0.66187807807E+02  0.17680669894E+03  0.00000000000E+00 0.  1.
         -1    1    6    6    0  502  0.61610940241E+02 -0.15662444138E+03 -0.13480290357E+03  0.21563614356E+03  0.00000000000E+00 0.  1.
<mgrwt>
<rscale>  0 0.15041197E+04</rscale>
<asrwt>0</asrwt>
<pdfrwt beam="1">  1        2 0.13341616E+00 0.15041197E+04</pdfrwt>
<pdfrwt beam="2">  1       -2 0.10033897E+00 0.15041197E+04</pdfrwt>
<totfact> 0.24442510E+01</totfact>
</mgrwt>
</event>
<event>
12    1  0.2588309E-007  0.2502444E+04  0.7818608E-02  0.8402115E-01
         -3   -1    0    0    0  501 -0.00000000000E+00  0.00000000000E+00  0.57960237214E+03  0.57960237214E+03  0.00000000000E+00 0.  1.
          3   -1    0    0  501    0  0.00000000000E+00 -0.00000000000E+00 -0.27010877912E+04  0.27010877912E+04  0.00000000000E+00 0. -1.
         23    2    1    2    0    0  0.94653864764E+03 -0.50557381035E+03 -0.69232478979E+03  0.12802571657E+04  0.90578730926E+02 0.  0.
        254    2    1    2    0    0 -0.94653864764E+03  0.50557381035E+03 -0.14291606293E+04  0.20004329977E+04  0.89871674337E+03 0.  0.
        -24    2    4    4    0    0 -0.60023417855E+03 -0.15815368488E+03 -0.81949466010E+03  0.10311088564E+04  0.79500431363E+02 0.  0.
         24    2    4    4    0    0 -0.34630446909E+03  0.66372749523E+03 -0.60966596921E+03  0.96932414136E+03  0.86230642953E+02 0.  0.
         11    1    3    3    0    0  0.74163269769E+03 -0.37126957249E+03 -0.57048918471E+03  0.10066370069E+04  0.00000000000E+00 0.  1.
        -11    1    3    3    0    0  0.20490594995E+03 -0.13430423786E+03 -0.12183560508E+03  0.27362015879E+03  0.00000000000E+00 0. -1.
          2    1    6    6  502    0 -0.24934416646E+03  0.52982200461E+03 -0.50825398706E+03  0.77537473861E+03  0.00000000000E+00 0. -1.
          1    1    5    5  503    0 -0.46199225100E+03 -0.97393226532E+02 -0.57854106425E+03  0.74674764384E+03  0.00000000000E+00 0. -1.
         -2    1    5    5    0  503 -0.13824192755E+03 -0.60760458346E+02 -0.24095359585E+03  0.28436121252E+03  0.00000000000E+00 0.  1.
         -1    1    6    6    0  502 -0.96960302633E+02  0.13390549062E+03 -0.10141198215E+03  0.19394940276E+03  0.00000000000E+00 0.  1.
<mgrwt>
<rscale>  0 0.25024443E+04</rscale>
<asrwt>0</asrwt>
<pdfrwt beam="1">  1        3 0.41555198E+00 0.25024443E+04</pdfrwt>
<pdfrwt beam="2">  1       -3 0.89169594E-01 0.25024443E+04</pdfrwt>
<totfact> 0.24377937E-02</totfact>
</mgrwt>
</event>
<event>
12    1  0.2588309E-007  0.1524430E+04  0.7818608E-02  0.8868368E-01
         -1   -1    0    0    0  501 -0.00000000000E+00  0.00000000000E+00  0.41800012670E+03  0.41800012670E+03  0.00000000000E+00 0.  1.
          1   -1    0    0  501    0  0.00000000000E+00 -0.00000000000E+00 -0.13898834486E+04  0.13898834486E+04  0.00000000000E+00 0. -1.
         23    2    1    2    0    0 -0.43772213092E+03  0.13572717502E+02 -0.58218436501E+03  0.73384342338E+03  0.88332624893E+02 0.  0.
        254    2    1    2    0    0  0.43772213092E+03 -0.13572717502E+02 -0.38969895687E+03  0.10740401519E+04  0.89995115888E+03 0.  0.
        -24    2    4    4    0    0  0.44154733514E+03  0.38017275316E+03 -0.15302738425E+03  0.60761036320E+03  0.79231317855E+02 0.  0.
         24    2    4    4    0    0 -0.38252042186E+01 -0.39374547066E+03 -0.23667157262E+03  0.46642978871E+03  0.80580311854E+02 0.  0.
         11    1    3    3    0    0 -0.14599385425E+03 -0.12997425194E+01 -0.12984970093E+03  0.19538894452E+03  0.00000000000E+00 0.  1.
        -11    1    3    3    0    0 -0.29172827667E+03  0.14872460022E+02 -0.45233466408E+03  0.53845447886E+03  0.00000000000E+00 0. -1.
          4    1    6    6  502    0  0.43695356341E+01 -0.36568234575E+03 -0.23935185153E+03  0.43707205318E+03  0.00000000000E+00 0. -1.
          1    1    5    5  503    0  0.41255587114E+03  0.35235842255E+03 -0.16244402556E+03  0.56634518290E+03  0.00000000000E+00 0. -1.
         -2    1    5    5    0  503  0.28991464001E+02  0.27814330607E+02  0.94166413071E+01  0.41265180305E+02  0.00000000000E+00 0.  1.
         -3    1    6    6    0  502 -0.81947398527E+01 -0.28063124905E+02  0.26802789079E+01  0.29357735534E+02  0.00000000000E+00 0.  1.
<mgrwt>
<rscale>  0 0.15244297E+04</rscale>
<asrwt>0</asrwt>
<pdfrwt beam="1">  1        1 0.21382822E+00 0.15244297E+04</pdfrwt>
<pdfrwt beam="2">  1       -1 0.64307711E-01 0.15244297E+04</pdfrwt>
<totfact> 0.18487678E+01</totfact>
</mgrwt>
</event>
<event>
12    1  0.2588309E-007  0.1991854E+04  0.7818608E-02  0.8610439E-01
         -2   -1    0    0    0  501 -0.00000000000E+00  0.00000000000E+00  0.77826739204E+03  0.77826739204E+03  0.00000000000E+00 0. -1.
          2   -1    0    0  501    0  0.00000000000E+00 -0.00000000000E+00 -0.12744599501E+04  0.12744599501E+04  0.00000000000E+00 0.  1.
         23    2    1    2    0    0 -0.64560879134E+03  0.40001351833E+03 -0.40900899098E+03  0.86745114692E+03  0.91441846412E+02 0.  0.
        254    2    1    2    0    0  0.64560879134E+03 -0.40001351833E+03 -0.87183567081E+02  0.11852761952E+04  0.90579090207E+03 0.  0.
        -24    2    4    4    0    0  0.86511919316E+03 -0.32149050522E+03 -0.12893448627E+03  0.93535344912E+03  0.80464959506E+02 0.  0.
         24    2    4    4    0    0 -0.21951040182E+03 -0.78523013117E+02  0.41750919194E+02  0.24992274610E+03  0.79796990352E+02 0.  0.
         11    1    3    3    0    0 -0.60382089381E+03  0.37340613724E+03 -0.35363598134E+03  0.79315208026E+03  0.00000000000E+00 0. -1.
        -11    1    3    3    0    0 -0.41787897536E+02  0.26607381095E+02 -0.55373009639E+02  0.74299066655E+02  0.00000000000E+00 0.  1.
          2    1    6    6  502    0 -0.55982205788E+02 -0.43669021951E+02 -0.16451400723E+02  0.72880994976E+02  0.00000000000E+00 0. -1.
          1    1    5    5  503    0  0.54442765050E+03 -0.16279826935E+03 -0.66241375285E+02  0.57209497719E+03  0.00000000000E+00 0. -1.
         -2    1    5    5    0  503  0.32069154266E+03 -0.15869223587E+03 -0.62693110990E+02  0.36325847193E+03  0.00000000000E+00 0.  1.
         -1    1    6    6    0  502 -0.16352819603E+03 -0.34853991166E+02  0.58202319917E+02  0.17704175112E+03  0.00000000000E+00 0.  1.
<mgrwt>
<rscale>  0 0.19918540E+04</rscale>
<asrwt>0</asrwt>
<pdfrwt beam="1">  1        2 0.19607076E+00 0.19918540E+04</pdfrwt>
<pdfrwt beam="2">  1       -2 0.11973344E+00 0.19918540E+04</pdfrwt>
<totfact> 0.84951256E+00</totfact>
</mgrwt>
</event>
<event>
12    1  0.2588309E-007  0.1533267E+04  0.7818608E-02  0.8862627E-01
         -1   -1    0    0    0  501 -0.00000000000E+00  0.00000000000E+00  0.16190654945E+04  0.16190654945E+04  0.00000000000E+00 0.  1.
          1   -1    0    0  501    0  0.00000000000E+00 -0.00000000000E+00 -0.36300393749E+03  0.36300393749E+03  0.00000000000E+00 0. -1.
         23    2    1    2    0    0  0.43961916253E+03 -0.21127071647E+03  0.29322145091E+03  0.57649648377E+03  0.92027456856E+02 0.  0.
        254    2    1    2    0    0 -0.43961916253E+03  0.21127071647E+03  0.96284010614E+03  0.14055729483E+04  0.90037432172E+03 0.  0.
        -24    2    4    4    0    0 -0.40713407207E+03 -0.16675201598E+03  0.90974253664E+03  0.10140288268E+04  0.84015422300E+02 0.  0.
         24    2    4    4    0    0 -0.32485090462E+02  0.37802273245E+03  0.53097569505E+02  0.39154412145E+03  0.80814477668E+02 0.  0.
         11    1    3    3    0    0  0.63980210069E+02 -0.23355853518E+02  0.81244418648E+02  0.10601706813E+03  0.00000000000E+00 0.  1.
        -11    1    3    3    0    0  0.37563895246E+03 -0.18791486296E+03  0.21197703226E+03  0.47047941563E+03  0.00000000000E+00 0. -1.
          2    1    6    6  502    0  0.16108450646E+02  0.21772357721E+03  0.50202763125E+02  0.22401641833E+03  0.00000000000E+00 0. -1.
          1    1    5    5  503    0 -0.23105472916E+03 -0.10726357867E+03  0.43351586845E+03  0.50281981999E+03  0.00000000000E+00 0. -1.
         -2    1    5    5    0  503 -0.17607934291E+03 -0.59488437307E+02  0.47622666819E+03  0.51120900683E+03  0.00000000000E+00 0.  1.
         -1    1    6    6    0  502 -0.48593541108E+02  0.16029915524E+03  0.28948063806E+01  0.16752770312E+03  0.00000000000E+00 0.  1.
<mgrwt>
<rscale>  0 0.15332673E+04</rscale>
<asrwt>0</asrwt>
<pdfrwt beam="1">  1        1 0.55846760E-01 0.15332673E+04</pdfrwt>
<pdfrwt beam="2">  1       -1 0.24908700E+00 0.15332673E+04</pdfrwt>
<totfact> 0.46566018E+00</totfact>
</mgrwt>
</event>
<event>
12    1  0.2633977E-007  0.3426772E+04  0.7818608E-02  0.8131367E-01
          2   -1    0    0  501    0  0.00000000000E+00  0.00000000000E+00  0.22186734338E+04  0.22186734338E+04  0.00000000000E+00 0. -1.
         -2   -1    0    0    0  501 -0.00000000000E+00 -0.00000000000E+00 -0.13231740610E+04  0.13231740610E+04  0.00000000000E+00 0.  1.
         23    2    1    2    0    0 -0.15528001522E+04 -0.49517185640E+02  0.48226948324E+02  0.15571012801E+04  0.92726983783E+02 0.  0.
        254    2    1    2    0    0  0.15528001522E+04  0.49517185640E+02  0.84727242439E+03  0.19847462147E+04  0.89872504778E+03 0.  0.
        -24    2    4    4    0    0  0.10016995882E+04  0.10808141855E+03  0.98197460419E+03  0.14088977580E+04  0.75067376899E+02 0.  0.
         24    2    4    4    0    0  0.55110056395E+03 -0.58564232906E+02 -0.13470217980E+03  0.57584845676E+03  0.79468024683E+02 0.  0.
         13    1    3    3    0    0 -0.93246376453E+03  0.14649308147E+02  0.19066428179E+02  0.93277371483E+03  0.00000000000E+00 0. -1.
        -13    1    3    3    0    0 -0.62033638766E+03 -0.64166493787E+02  0.29160520146E+02  0.62432756524E+03  0.00000000000E+00 0.  1.
          4    1    6    6  502    0  0.18917283718E+02  0.99729599676E+01 -0.14884476809E+02  0.26055156949E+02  0.00000000000E+00 0. -1.
          3    1    5    5  503    0  0.17542522016E+03  0.87190990835E+01  0.13550354973E+03  0.22183607134E+03  0.00000000000E+00 0. -1.
         -4    1    5    5    0  503  0.82627436807E+03  0.99362319462E+02  0.84647105446E+03  0.11870616866E+04  0.00000000000E+00 0.  1.
         -3    1    6    6    0  502  0.53218328023E+03 -0.68537192873E+02 -0.11981770299E+03  0.54979329981E+03  0.00000000000E+00 0.  1.
<mgrwt>
<rscale>  0 0.34267717E+04</rscale>
<asrwt>0</asrwt>
<pdfrwt beam="1">  1        2 0.34133437E+00 0.34267717E+04</pdfrwt>
<pdfrwt beam="2">  1       -2 0.20356524E+00 0.34267717E+04</pdfrwt>
<totfact> 0.52515137E-01</totfact>
</mgrwt>
</event>
<event>
12    1  0.2588309E-007  0.2667954E+04  0.7818608E-02  0.8345478E-01
         -1   -1    0    0    0  501 -0.00000000000E+00  0.00000000000E+00  0.85635612319E+03  0.85635612319E+03  0.00000000000E+00 0.  1.
          1   -1    0    0  501    0  0.00000000000E+00 -0.00000000000E+00 -0.20779838206E+04  0.20779838206E+04  0.00000000000E+00 0. -1.
         23    2    1    2    0    0  0.20705856604E+03 -0.11340720940E+04 -0.26369836500E+03  0.11862137677E+04  0.92593255221E+02 0.  0.
        254    2    1    2    0    0 -0.20705856604E+03  0.11340720940E+04 -0.95792933240E+03  0.17481261761E+04  0.89962423134E+03 0.  0.
        -24    2    4    4    0    0 -0.33034248589E+03  0.10941331302E+04 -0.47202883734E+03  0.12391273289E+04  0.79823864277E+02 0.  0.
         24    2    4    4    0    0  0.12328391985E+03  0.39938963704E+02 -0.48590049506E+03  0.50899884717E+03  0.78654240854E+02 0.  0.
         11    1    3    3    0    0  0.28046437399E+02 -0.39558370511E+03 -0.83810325447E+02  0.40533596072E+03  0.00000000000E+00 0.  1.
        -11    1    3    3    0    0  0.17901212864E+03 -0.73848838884E+03 -0.17988803955E+03  0.78087780698E+03  0.00000000000E+00 0. -1.
          4    1    6    6  502    0  0.29802704684E+02 -0.22985373133E+02 -0.15224505210E+03  0.15682820050E+03  0.00000000000E+00 0. -1.
          3    1    5    5  503    0 -0.25448717915E+03  0.93958347839E+03 -0.40689524936E+03  0.10550566720E+04  0.00000000000E+00 0. -1.
         -4    1    5    5    0  503 -0.75855306741E+02  0.15454965186E+03 -0.65133587984E+02  0.18407065691E+03  0.00000000000E+00 0.  1.
         -3    1    6    6    0  502  0.93481215167E+02  0.62924336836E+02 -0.33365544296E+03  0.35217064667E+03  0.00000000000E+00 0.  1.
<mgrwt>
<rscale>  0 0.26679536E+04</rscale>
<asrwt>0</asrwt>
<pdfrwt beam="1">  1        1 0.31968982E+00 0.26679536E+04</pdfrwt>
<pdfrwt beam="2">  1       -1 0.13174710E+00 0.26679536E+04</pdfrwt>
<totfact> 0.11320837E+00</totfact>
</mgrwt>
</event>
<event>
12    1  0.2588309E-007  0.1991336E+04  0.7818608E-02  0.8610682E-01
         -2   -1    0    0    0  501 -0.00000000000E+00  0.00000000000E+00  0.38134474654E+03  0.38134474654E+03  0.00000000000E+00 0. -1.
          2   -1    0    0  501    0  0.00000000000E+00 -0.00000000000E+00 -0.25996282313E+04  0.25996282313E+04  0.00000000000E+00 0.  1.
         23    2    1    2    0    0  0.59975754023E+03 -0.49613000449E+03 -0.10463361758E+04  0.13072283544E+04  0.90401821279E+02 0.  0.
        254    2    1    2    0    0 -0.59975754023E+03  0.49613000449E+03 -0.11719473090E+04  0.16737446235E+04  0.90670087745E+03 0.  0.
        -24    2    4    4    0    0 -0.32062451920E+03  0.66913043996E+03 -0.43724016358E+03  0.86496813113E+03  0.80344752292E+02 0.  0.
         24    2    4    4    0    0 -0.27913302102E+03 -0.17300043548E+03 -0.73470714540E+03  0.80877649234E+03  0.80501124015E+02 0.  0.
         13    1    3    3    0    0  0.44660268325E+03 -0.37192577649E+03 -0.71218643196E+03  0.91923460215E+03  0.00000000000E+00 0.  1.
        -13    1    3    3    0    0  0.15315485697E+03 -0.12420422799E+03 -0.33414974382E+03  0.38799375222E+03  0.00000000000E+00 0. -1.
          2    1    6    6  502    0 -0.19481919604E+03 -0.10042494227E+03 -0.56323040711E+03  0.60437420500E+03  0.00000000000E+00 0. -1.
          1    1    5    5  503    0 -0.19962204490E+03  0.33197226403E+03 -0.24633372358E+03  0.45905865449E+03  0.00000000000E+00 0. -1.
         -2    1    5    5    0  503 -0.12100247431E+03  0.33715817594E+03 -0.19090643999E+03  0.40590947663E+03  0.00000000000E+00 0.  1.
         -1    1    6    6    0  502 -0.84313824982E+02 -0.72575493208E+02 -0.17147673829E+03  0.20440228735E+03  0.00000000000E+00 0.  1.
<mgrwt>
<rscale>  0 0.19913358E+04</rscale>
<asrwt>0</asrwt>
<pdfrwt beam="1">  1        2 0.39994279E+00 0.19913358E+04</pdfrwt>
<pdfrwt beam="2">  1       -2 0.58668424E-01 0.19913358E+04</pdfrwt>
<totfact> 0.76939448E+00</totfact>
</mgrwt>
</event>
<event>
12    1  0.2588309E-007  0.2411160E+04  0.7818608E-02  0.8435337E-01
         -1   -1    0    0    0  501 -0.00000000000E+00  0.00000000000E+00  0.99334148802E+03  0.99334148802E+03  0.00000000000E+00 0.  1.
          1   -1    0    0  501    0  0.00000000000E+00 -0.00000000000E+00 -0.14631652207E+04  0.14631652207E+04  0.00000000000E+00 0. -1.
         23    2    1    2    0    0 -0.50813869551E+03 -0.61884413990E+03 -0.87088911169E+03  0.11865012672E+04  0.90357118699E+02 0.  0.
        254    2    1    2    0    0  0.50813869551E+03  0.61884413990E+03  0.40106537905E+03  0.12700054415E+04  0.90049285377E+03 0.  0.
        -24    2    4    4    0    0  0.22022494074E+03 -0.86212388304E+02 -0.18204005140E+03  0.30748280230E+03  0.73996574069E+02 0.  0.
         24    2    4    4    0    0  0.28791375477E+03  0.70505652821E+03  0.58310543045E+03  0.96252263916E+03  0.80242443344E+02 0.  0.
         13    1    3    3    0    0 -0.36461414642E+03 -0.37761248097E+03 -0.58002682183E+03  0.78228241422E+03  0.00000000000E+00 0. -1.
        -13    1    3    3    0    0 -0.14352454909E+03 -0.24123165893E+03 -0.29086228986E+03  0.40421885301E+03  0.00000000000E+00 0.  1.
          2    1    6    6  502    0  0.27719033137E+03  0.61137653857E+03  0.51876844190E+03  0.84837282372E+03  0.00000000000E+00 0. -1.
          3    1    5    5  503    0  0.17295497620E+03 -0.94260189477E+02 -0.16379760611E+03  0.25617974721E+03  0.00000000000E+00 0. -1.
         -4    1    5    5    0  503  0.47269964539E+02  0.80478011732E+01 -0.18242445293E+02  0.51303055089E+02  0.00000000000E+00 0.  1.
         -1    1    6    6    0  502  0.10723423402E+02  0.93679989641E+02  0.64336988550E+02  0.11414981544E+03  0.00000000000E+00 0.  1.
<mgrwt>
<rscale>  0 0.24111597E+04</rscale>
<asrwt>0</asrwt>
<pdfrwt beam="1">  1        1 0.22510234E+00 0.24111597E+04</pdfrwt>
<pdfrwt beam="2">  1       -1 0.15282177E+00 0.24111597E+04</pdfrwt>
<totfact> 0.20607738E+00</totfact>
</mgrwt>
</event>
<event>
12    1  0.2588309E-007  0.3947636E+04  0.7818608E-02  0.8015194E-01
          1   -1    0    0  501    0  0.00000000000E+00  0.00000000000E+00  0.49481686071E+04  0.49481686071E+04  0.00000000000E+00 0. -1.
         -1   -1    0    0    0  501 -0.00000000000E+00 -0.00000000000E+00 -0.78735361200E+03  0.78735361200E+03  0.00000000000E+00 0.  1.
         23    2    1    2    0    0 -0.13020318584E+04 -0.13221414223E+04  0.16316930956E+04  0.24725849610E+04  0.88933292024E+02 0.  0.
        254    2    1    2    0    0  0.13020318584E+04  0.13221414223E+04  0.25291218996E+04  0.32629372581E+04  0.89830789096E+03 0.  0.
        -24    2    4    4    0    0  0.14418238013E+03 -0.12150635352E+03  0.31116320334E+03  0.37345476956E+03  0.84223352533E+02 0.  0.
         24    2    4    4    0    0  0.11578494782E+04  0.14436477758E+04  0.22179586962E+04  0.28894824886E+04  0.70950396695E+02 0.  0.
         11    1    3    3    0    0 -0.90734669621E+03 -0.88972283034E+03  0.11629624169E+04  0.17226045179E+04  0.00000000000E+00 0. -1.
        -11    1    3    3    0    0 -0.39468516216E+03 -0.43241859196E+03  0.46873067865E+03  0.74998044309E+03  0.00000000000E+00 0.  1.
          4    1    6    6  502    0  0.97074128830E+03  0.12375960626E+04  0.19131669576E+04  0.24767297936E+04  0.00000000000E+00 0. -1.
          3    1    5    5  503    0  0.13733998496E+03 -0.11049800931E+03  0.22256842845E+03  0.28391686613E+03  0.00000000000E+00 0. -1.
         -4    1    5    5    0  503  0.68423951735E+01 -0.11008344208E+02  0.88594774888E+02  0.89537903434E+02  0.00000000000E+00 0.  1.
         -3    1    6    6    0  502  0.18710818995E+03  0.20605171319E+03  0.30479173863E+03  0.41275269495E+03  0.00000000000E+00 0.  1.
<mgrwt>
<rscale>  0 0.39476365E+04</rscale>
<asrwt>0</asrwt>
<pdfrwt beam="1">  1        1 0.76125669E+00 0.39476365E+04</pdfrwt>
<pdfrwt beam="2">  1       -1 0.12113133E+00 0.39476365E+04</pdfrwt>
<totfact> 0.47372242E-03</totfact>
</mgrwt>
</event>
<event>
12    1  0.2588309E-007  0.1501696E+04  0.7818608E-02  0.8883326E-01
          1   -1    0    0  501    0  0.00000000000E+00  0.00000000000E+00  0.42630959174E+03  0.42630959174E+03  0.00000000000E+00 0. -1.
         -1   -1    0    0    0  501 -0.00000000000E+00 -0.00000000000E+00 -0.13224497500E+04  0.13224497500E+04  0.00000000000E+00 0.  1.
         23    2    1    2    0    0  0.23891682311E+03 -0.39909252985E+03 -0.40224152247E+03  0.62211509822E+03  0.94195845384E+02 0.  0.
        254    2    1    2    0    0 -0.23891682311E+03  0.39909252985E+03 -0.49389863577E+03  0.11266442435E+04  0.89946389214E+03 0.  0.
        -24    2    4    4    0    0 -0.19915372772E+02 -0.24133695528E+03 -0.34458636051E+03  0.42885561537E+03  0.80853144234E+02 0.  0.
         24    2    4    4    0    0 -0.21900145033E+03  0.64042948513E+03 -0.14931227526E+03  0.69778862813E+03  0.80642751279E+02 0.  0.
         13    1    3    3    0    0  0.63223682461E+02 -0.18761618769E+03 -0.14294608266E+03  0.24419387883E+03  0.00000000000E+00 0. -1.
        -13    1    3    3    0    0  0.17569314065E+03 -0.21147634216E+03 -0.25929543980E+03  0.37792121939E+03  0.00000000000E+00 0.  1.
          2    1    6    6  502    0 -0.16758047093E+03  0.54907399326E+03 -0.14841301437E+03  0.59295184218E+03  0.00000000000E+00 0. -1.
          3    1    5    5  503    0 -0.87948317137E+01 -0.16151577576E+03 -0.16035725884E+03  0.22776993951E+03  0.00000000000E+00 0. -1.
         -4    1    5    5    0  503 -0.11120541058E+02 -0.79821179519E+02 -0.18422910167E+03  0.20108567586E+03  0.00000000000E+00 0.  1.
         -1    1    6    6    0  502 -0.51420979409E+02  0.91355491865E+02 -0.89926088381E+00  0.10483678595E+03  0.00000000000E+00 0.  1.
<mgrwt>
<rscale>  0 0.15016964E+04</rscale>
<asrwt>0</asrwt>
<pdfrwt beam="1">  1        1 0.65586091E-01 0.15016964E+04</pdfrwt>
<pdfrwt beam="2">  1       -1 0.20345381E+00 0.15016964E+04</pdfrwt>
<totfact> 0.75907538E+00</totfact>
</mgrwt>
</event>
<event>
12    1  0.2588309E-007  0.2173824E+04  0.7818608E-02  0.8529403E-01
          2   -1    0    0  501    0  0.00000000000E+00  0.00000000000E+00  0.20426737539E+04  0.20426737539E+04  0.00000000000E+00 0.  1.
         -2   -1    0    0    0  501 -0.00000000000E+00 -0.00000000000E+00 -0.57834845776E+03  0.57834845776E+03  0.00000000000E+00 0. -1.
         23    2    1    2    0    0 -0.76477434143E+03 -0.31845410066E+01  0.11728742758E+04  0.14031860986E+04  0.91690926868E+02 0.  0.
        254    2    1    2    0    0  0.76477434143E+03  0.31845410066E+01  0.29145102038E+03  0.12178361130E+04  0.90182657218E+03 0.  0.
        -24    2    4    4    0    0  0.14800091236E+03  0.23305573926E+02  0.52618456580E+03  0.55284602700E+03  0.79505424001E+02 0.  0.
         24    2    4    4    0    0  0.61677342907E+03 -0.20121032920E+02 -0.23473354542E+03  0.66499008603E+03  0.79357787219E+02 0.  0.
         13    1    3    3    0    0 -0.62197470235E+03  0.25984549384E+02  0.98809432170E+03  0.11678433610E+04  0.00000000000E+00 0. -1.
        -13    1    3    3    0    0 -0.14279963907E+03 -0.29169090390E+02  0.18477995406E+03  0.23534273767E+03  0.00000000000E+00 0.  1.
          4    1    6    6  502    0  0.39805663756E+03 -0.19673684331E+02 -0.19098447706E+03  0.44194027995E+03  0.00000000000E+00 0. -1.
          3    1    5    5  503    0  0.75714515805E+02  0.45781595721E+02  0.35148665174E+03  0.36245207789E+03  0.00000000000E+00 0. -1.
         -4    1    5    5    0  503  0.72286396551E+02 -0.22476021795E+02  0.17469791406E+03  0.19039394911E+03  0.00000000000E+00 0.  1.
         -3    1    6    6    0  502  0.21871679151E+03 -0.44734858914E+00 -0.43749068359E+02  0.22304980608E+03  0.00000000000E+00 0.  1.
<mgrwt>
<rscale>  0 0.21738236E+04</rscale>
<asrwt>0</asrwt>
<pdfrwt beam="1">  1        2 0.31425750E+00 0.21738236E+04</pdfrwt>
<pdfrwt beam="2">  1       -2 0.88976687E-01 0.21738236E+04</pdfrwt>
<totfact> 0.62862049E+00</totfact>
</mgrwt>
</event>
<event>
12    1  0.2588309E-007  0.2214430E+04  0.7818608E-02  0.8512446E-01
          1   -1    0    0  501    0  0.00000000000E+00  0.00000000000E+00  0.15508836409E+04  0.15508836409E+04  0.00000000000E+00 0. -1.
         -1   -1    0    0    0  501 -0.00000000000E+00 -0.00000000000E+00 -0.79046882147E+03  0.79046882147E+03  0.00000000000E+00 0.  1.
         23    2    1    2    0    0 -0.53952061279E+02 -0.33916308431E+02  0.12890378765E+04  0.12960253257E+04  0.11832944199E+03 0.  0.
        254    2    1    2    0    0  0.53952061279E+02  0.33916308431E+02 -0.52862305710E+03  0.10453271367E+04  0.89955841681E+03 0.  0.
        -24    2    4    4    0    0 -0.34068493893E+03  0.16959954010E+03 -0.29654586301E+02  0.38987736646E+03  0.79339364537E+02 0.  0.
         24    2    4    4    0    0  0.39463700021E+03 -0.13568323167E+03 -0.49896847080E+03  0.65544977021E+03  0.80601272431E+02 0.  0.
         13    1    3    3    0    0 -0.18047156459E+02 -0.76201832973E+02  0.69245695086E+03  0.69687089765E+03  0.00000000000E+00 0. -1.
        -13    1    3    3    0    0 -0.35904904820E+02  0.42285524542E+02  0.59658092563E+03  0.59915442801E+03  0.00000000000E+00 0.  1.
          4    1    6    6  502    0  0.52775706668E+02 -0.47799188464E+02 -0.99852332389E+02  0.12263982190E+03  0.00000000000E+00 0. -1.
          1    1    5    5  503    0 -0.26950595906E+02  0.37166075335E+02  0.10151805819E+02  0.47018197933E+02  0.00000000000E+00 0. -1.
         -2    1    5    5    0  503 -0.31373434303E+03  0.13243346477E+03 -0.39806392120E+02  0.34285916852E+03  0.00000000000E+00 0.  1.
         -3    1    6    6    0  502  0.34186129355E+03 -0.87884043210E+02 -0.39911613841E+03  0.53280994831E+03  0.00000000000E+00 0.  1.
<mgrwt>
<rscale>  0 0.22144301E+04</rscale>
<asrwt>0</asrwt>
<pdfrwt beam="1">  1        1 0.23859748E+00 0.22144301E+04</pdfrwt>
<pdfrwt beam="2">  1       -1 0.12161059E+00 0.22144301E+04</pdfrwt>
<totfact> 0.32906652E+00</totfact>
</mgrwt>
</event>
<event>
12    1  0.2588309E-007  0.2663110E+04  0.7818608E-02  0.8347075E-01
          2   -1    0    0  501    0  0.00000000000E+00  0.00000000000E+00  0.10471541980E+04  0.10471541980E+04  0.00000000000E+00 0. -1.
         -2   -1    0    0    0  501 -0.00000000000E+00 -0.00000000000E+00 -0.16931970818E+04  0.16931970818E+04  0.00000000000E+00 0.  1.
         23    2    1    2    0    0  0.46976563757E+03 -0.96656872520E+03  0.21011872877E+03  0.10985102536E+04  0.87407335965E+02 0.  0.
        254    2    1    2    0    0 -0.46976563757E+03  0.96656872520E+03 -0.85616161256E+03  0.16418410262E+04  0.89871819486E+03 0.  0.
        -24    2    4    4    0    0 -0.45392511053E+03  0.37214526237E+03  0.41861761478E+01  0.59283024574E+03  0.83006469121E+02 0.  0.
         24    2    4    4    0    0 -0.15840527033E+02  0.59442346283E+03 -0.86034778870E+03  0.10490107805E+04  0.81456273978E+02 0.  0.
         11    1    3    3    0    0  0.19700153596E+03 -0.37538934064E+03  0.12442628701E+03  0.44182424462E+03  0.00000000000E+00 0. -1.
        -11    1    3    3    0    0  0.27276410161E+03 -0.59117938456E+03  0.85692441762E+02  0.65668600901E+03  0.00000000000E+00 0.  1.
          2    1    6    6  502    0  0.28232869393E+02  0.15061033442E+03 -0.19481824030E+03  0.24786027214E+03  0.00000000000E+00 0. -1.
          1    1    5    5  503    0 -0.35853591713E+03  0.25745455851E+03 -0.19299572751E+02  0.44181820592E+03  0.00000000000E+00 0. -1.
         -2    1    5    5    0  503 -0.95389193399E+02  0.11469070387E+03  0.23485748899E+02  0.15101203983E+03  0.00000000000E+00 0.  1.
         -1    1    6    6    0  502 -0.44073396426E+02  0.44381312840E+03 -0.66552954840E+03  0.80115050834E+03  0.00000000000E+00 0.  1.
<mgrwt>
<rscale>  0 0.26631098E+04</rscale>
<asrwt>0</asrwt>
<pdfrwt beam="1">  1        2 0.16110065E+00 0.26631098E+04</pdfrwt>
<pdfrwt beam="2">  1       -2 0.26049186E+00 0.26631098E+04</pdfrwt>
<totfact> 0.11459671E+00</totfact>
</mgrwt>
</event>
<event>
12    1  0.2588309E-007  0.1062030E+04  0.7818608E-02  0.9243011E-01
          1   -1    0    0  501    0  0.00000000000E+00  0.00000000000E+00  0.21751612892E+04  0.21751612892E+04  0.00000000000E+00 0. -1.
         -1   -1    0    0    0  501 -0.00000000000E+00 -0.00000000000E+00 -0.12963496241E+03  0.12963496241E+03  0.00000000000E+00 0.  1.
         23    2    1    2    0    0 -0.88472314052E+02  0.65712913436E+02  0.30654106287E+03  0.34460566276E+03  0.11242820924E+03 0.  0.
        254    2    1    2    0    0  0.88472314052E+02 -0.65712913436E+02  0.17389852639E+04  0.19601905888E+04  0.89784846110E+03 0.  0.
        -24    2    4    4    0    0  0.24243800953E+03 -0.38252252928E+03  0.55047595608E+03  0.71744735839E+03  0.81285053750E+02 0.  0.
         24    2    4    4    0    0 -0.15396569548E+03  0.31680961584E+03  0.11885093078E+04  0.12427432304E+04  0.88219011248E+02 0.  0.
         11    1    3    3    0    0 -0.81258633871E+02  0.25094981505E+01  0.10219805775E+03  0.13058983945E+03  0.00000000000E+00 0.  1.
        -11    1    3    3    0    0 -0.72136801815E+01  0.63203415286E+02  0.20434300511E+03  0.21401582330E+03  0.00000000000E+00 0. -1.
          4    1    6    6  502    0  0.34038961160E+01  0.55788891502E+02  0.13732693359E+03  0.14826555100E+03  0.00000000000E+00 0. -1.
          3    1    5    5  503    0  0.14735422844E+02 -0.76883712402E+02  0.79473484109E+02  0.11155389996E+03  0.00000000000E+00 0. -1.
         -2    1    5    5    0  503  0.22770258669E+03 -0.30563881687E+03  0.47100247197E+03  0.60589345843E+03  0.00000000000E+00 0.  1.
         -3    1    6    6    0  502 -0.15736959160E+03  0.26102072434E+03  0.10511823742E+04  0.10944776794E+04  0.00000000000E+00 0.  1.
<mgrwt>
<rscale>  0 0.10620300E+04</rscale>
<asrwt>0</asrwt>
<pdfrwt beam="1">  1        1 0.33464017E+00 0.10620300E+04</pdfrwt>
<pdfrwt beam="2">  1       -1 0.19943842E-01 0.10620300E+04</pdfrwt>
<totfact> 0.46757905E+01</totfact>
</mgrwt>
</event>
<event>
12    1  0.2860151E-007  0.2478530E+04  0.7818608E-02  0.8410674E-01
         -2   -1    0    0    0  501 -0.00000000000E+00  0.00000000000E+00  0.10738045572E+04  0.10738045572E+04  0.00000000000E+00 0.  1.
          2   -1    0    0  501    0  0.00000000000E+00 -0.00000000000E+00 -0.14302210622E+04  0.14302210622E+04  0.00000000000E+00 0. -1.
         23    2    1    2    0    0 -0.94176893142E+03  0.67708690273E+02  0.35919780815E+03  0.10143014599E+04  0.90946133796E+02 0.  0.
        254    2    1    2    0    0  0.94176893142E+03 -0.67708690273E+02 -0.71561431316E+03  0.14897241595E+04  0.90313954591E+03 0.  0.
        -24    2    4    4    0    0 -0.93958430746E+02  0.95883537440E+02 -0.33794272887E+03  0.37221416861E+03  0.79474900827E+02 0.  0.
         24    2    4    4    0    0  0.10357273622E+04 -0.16359222771E+03 -0.37767158429E+03  0.11175099909E+04  0.81848448519E+02 0.  0.
         13    1    3    3    0    0 -0.24454614410E+03  0.52273290019E+02  0.73418832470E+02  0.26062547535E+03  0.00000000000E+00 0. -1.
        -13    1    3    3    0    0 -0.69722278733E+03  0.15435400254E+02  0.28577897568E+03  0.75367598455E+03  0.00000000000E+00 0.  1.
          4    1    6    6  502    0  0.34027069684E+03 -0.71012978415E+02 -0.88720660152E+02  0.35874551673E+03  0.00000000000E+00 0. -1.
          3    1    5    5  503    0  0.19446641176E+01  0.18795941042E+02 -0.12383805651E+03  0.12527143872E+03  0.00000000000E+00 0. -1.
         -4    1    5    5    0  503 -0.95903094864E+02  0.77087596399E+02 -0.21410467236E+03  0.24694272990E+03  0.00000000000E+00 0.  1.
         -3    1    6    6    0  502  0.69545666532E+03 -0.92579249298E+02 -0.28895092414E+03  0.75876447420E+03  0.00000000000E+00 0.  1.
<mgrwt>
<rscale>  0 0.24785301E+04</rscale>
<asrwt>0</asrwt>
<pdfrwt beam="1">  1        2 0.22003401E+00 0.24785301E+04</pdfrwt>
<pdfrwt beam="2">  1       -2 0.16520070E+00 0.24785301E+04</pdfrwt>
<totfact> 0.28672988E+00</totfact>
</mgrwt>
</event>
<event>
12    1  0.2588309E-007  0.1541338E+04  0.7818608E-02  0.8857419E-01
          2   -1    0    0  501    0  0.00000000000E+00  0.00000000000E+00  0.16780974824E+04  0.16780974824E+04  0.00000000000E+00 0. -1.
         -2   -1    0    0    0  501 -0.00000000000E+00 -0.00000000000E+00 -0.35393106658E+03  0.35393106658E+03  0.00000000000E+00 0.  1.
         23    2    1    2    0    0  0.12718959118E+03 -0.43026004900E+03  0.14149884946E+03  0.47918909865E+03  0.91100856156E+02 0.  0.
        254    2    1    2    0    0 -0.12718959118E+03  0.43026004900E+03  0.11826675664E+04  0.15528394503E+04  0.90072575412E+03 0.  0.
        -24    2    4    4    0    0 -0.33921233846E+03 -0.58910064538E+02  0.84719744706E+03  0.91787412047E+03  0.78828804719E+02 0.  0.
         24    2    4    4    0    0  0.21202274728E+03  0.48917011354E+03  0.33547011929E+03  0.63496532986E+03  0.79998273992E+02 0.  0.
         11    1    3    3    0    0  0.82124623052E+02 -0.22102842253E+03  0.11859576487E+03  0.26393744092E+03  0.00000000000E+00 0. -1.
        -11    1    3    3    0    0  0.45064968129E+02 -0.20923162647E+03  0.22903084595E+02  0.21525165772E+03  0.00000000000E+00 0.  1.
          4    1    6    6  502    0  0.25056866433E+02  0.95954760848E+02  0.96132881072E+02  0.13811840394E+03  0.00000000000E+00 0. -1.
          1    1    5    5  503    0 -0.19057339241E+03 -0.43049339153E+02  0.37903118131E+03  0.42642244301E+03  0.00000000000E+00 0. -1.
         -2    1    5    5    0  503 -0.14863894606E+03 -0.15860725385E+02  0.46816626575E+03  0.49145167746E+03  0.00000000000E+00 0.  1.
         -3    1    6    6    0  502  0.18696588085E+03  0.39321535269E+03  0.23933723822E+03  0.49684692592E+03  0.00000000000E+00 0.  1.
<mgrwt>
<rscale>  0 0.15413382E+04</rscale>
<asrwt>0</asrwt>
<pdfrwt beam="1">  1        2 0.25816884E+00 0.15413382E+04</pdfrwt>
<pdfrwt beam="2">  1       -2 0.54450934E-01 0.15413382E+04</pdfrwt>
<totfact> 0.30836765E+01</totfact>
</mgrwt>
</event>
<event>
12    1  0.2588309E-007  0.3132200E+04  0.7818608E-02  0.8206956E-01
          1   -1    0    0  501    0  0.00000000000E+00  0.00000000000E+00  0.14069769303E+04  0.14069769303E+04  0.00000000000E+00 0. -1.
         -1   -1    0    0    0  501 -0.00000000000E+00 -0.00000000000E+00 -0.17432188377E+04  0.17432188377E+04  0.00000000000E+00 0.  1.
         23    2    1    2    0    0 -0.79591274561E+03 -0.11410252361E+04 -0.51051353489E+03  0.14845629824E+04  0.88811549297E+02 0.  0.
        254    2    1    2    0    0  0.79591274561E+03  0.11410252361E+04  0.17427162756E+03  0.16656327856E+04  0.89919201960E+03 0.  0.
        -24    2    4    4    0    0  0.59774483544E+03  0.11472311519E+04 -0.12013427276E+03  0.13013841642E+04  0.75698714199E+02 0.  0.
         24    2    4    4    0    0  0.19816791017E+03 -0.62059157434E+01  0.29440590032E+03  0.36424862133E+03  0.81811918373E+02 0.  0.
         11    1    3    3    0    0 -0.70464404033E+03 -0.10132178282E+04 -0.48204696242E+03  0.13249539105E+04  0.00000000000E+00 0. -1.
        -11    1    3    3    0    0 -0.91268705281E+02 -0.12780740795E+03 -0.28466572467E+02  0.15960907192E+03  0.00000000000E+00 0.  1.
          4    1    6    6  502    0  0.70842362118E+02 -0.24563032231E+01  0.44345100269E+02  0.83613166510E+02  0.00000000000E+00 0. -1.
          1    1    5    5  503    0  0.35661875533E+03  0.65387018171E+03 -0.10391745292E+03  0.75201196014E+03  0.00000000000E+00 0. -1.
         -2    1    5    5    0  503  0.24112608012E+03  0.49336097016E+03 -0.16216819841E+02  0.54937220410E+03  0.00000000000E+00 0.  1.
         -3    1    6    6    0  502  0.12732554805E+03 -0.37496125204E+01  0.25006080006E+03  0.28063545482E+03  0.00000000000E+00 0.  1.
<mgrwt>
<rscale>  0 0.31321997E+04</rscale>
<asrwt>0</asrwt>
<pdfrwt beam="1">  1        1 0.21645799E+00 0.31321997E+04</pdfrwt>
<pdfrwt beam="2">  1       -1 0.26818751E+00 0.31321997E+04</pdfrwt>
<totfact> 0.33934859E-01</totfact>
</mgrwt>
</event>
<event>
12    1  0.2588309E-007  0.3252970E+04  0.7818608E-02  0.8174966E-01
          1   -1    0    0  501    0  0.00000000000E+00  0.00000000000E+00  0.21085519174E+04  0.21085519174E+04  0.00000000000E+00 0. -1.
         -1   -1    0    0    0  501 -0.00000000000E+00 -0.00000000000E+00 -0.12546307291E+04  0.12546307291E+04  0.00000000000E+00 0.  1.
         23    2    1    2    0    0 -0.29938148853E+03 -0.14174869492E+04  0.79840983709E+03  0.16569175287E+04  0.94967899083E+02 0.  0.
        254    2    1    2    0    0  0.29938148853E+03  0.14174869492E+04  0.55511351202E+02  0.17062651178E+04  0.89964471597E+03 0.  0.
        -24    2    4    4    0    0  0.61412201227E+03  0.89898625194E+03  0.49017929057E+00  0.10921038487E+04  0.85839669824E+02 0.  0.
         24    2    4    4    0    0 -0.31474052374E+03  0.51850069731E+03  0.55021171911E+02  0.61416126906E+03  0.79133840177E+02 0.  0.
         13    1    3    3    0    0 -0.15218876789E+02 -0.70804287495E+02  0.65279443659E+02  0.97500087706E+02  0.00000000000E+00 0. -1.
        -13    1    3    3    0    0 -0.28416261174E+03 -0.13466826618E+04  0.73313039343E+03  0.15594174410E+04  0.00000000000E+00 0.  1.
          2    1    6    6  502    0 -0.11120191731E+02  0.24922879433E+02  0.19587153838E+02  0.33592635783E+02  0.00000000000E+00 0. -1.
          3    1    5    5  503    0  0.24159039345E+02  0.22826945070E+02 -0.13147657863E+02  0.35743384151E+02  0.00000000000E+00 0. -1.
         -2    1    5    5    0  503  0.58996297293E+03  0.87615930687E+03  0.13637837154E+02  0.10563604645E+04  0.00000000000E+00 0.  1.
         -1    1    6    6    0  502 -0.30362033201E+03  0.49357781788E+03  0.35434018073E+02  0.58056863328E+03  0.00000000000E+00 0.  1.
<mgrwt>
<rscale>  0 0.32529704E+04</rscale>
<asrwt>0</asrwt>
<pdfrwt beam="1">  1        1 0.32439260E+00 0.32529704E+04</pdfrwt>
<pdfrwt beam="2">  1       -1 0.19302011E+00 0.32529704E+04</pdfrwt>
<totfact> 0.35246722E-01</totfact>
</mgrwt>
</event>
<event>
12    1  0.2588309E-007  0.1632225E+04  0.7818608E-02  0.8800992E-01
          1   -1    0    0  501    0  0.00000000000E+00  0.00000000000E+00  0.54515394853E+03  0.54515394853E+03  0.00000000000E+00 0. -1.
         -1   -1    0    0    0  501 -0.00000000000E+00 -0.00000000000E+00 -0.12217452152E+04  0.12217452152E+04  0.00000000000E+00 0.  1.
         23    2    1    2    0    0  0.90040132332E+02 -0.51354475274E+03 -0.45651217157E+03  0.70369553776E+03  0.12226450252E+03 0.  0.
        254    2    1    2    0    0 -0.90040132332E+02  0.51354475274E+03 -0.22007909513E+03  0.10632036260E+04  0.90007316577E+03 0.  0.
        -24    2    4    4    0    0  0.23231774751E+03 -0.11135516154E+03 -0.23191322627E+03  0.35555669864E+03  0.79153734106E+02 0.  0.
         24    2    4    4    0    0 -0.32235787984E+03  0.62489991428E+03  0.11834131135E+02  0.70764692736E+03  0.78801152111E+02 0.  0.
         13    1    3    3    0    0  0.82651324533E+02 -0.16353890374E+03 -0.12715750221E+03  0.22303642046E+03  0.00000000000E+00 0. -1.
        -13    1    3    3    0    0  0.73888077992E+01 -0.35000584900E+03 -0.32935466936E+03  0.48065911730E+03  0.00000000000E+00 0.  1.
          4    1    6    6  502    0 -0.25287744273E+03  0.47917275143E+03 -0.23759471449E+02  0.54232650612E+03  0.00000000000E+00 0. -1.
          1    1    5    5  503    0  0.17561255506E+03 -0.11225279801E+03 -0.15379869548E+03  0.25902605832E+03  0.00000000000E+00 0. -1.
         -2    1    5    5    0  503  0.56705192453E+02  0.89763646740E+00 -0.78114530786E+02  0.96530640329E+02  0.00000000000E+00 0.  1.
         -3    1    6    6    0  502 -0.69480437112E+02  0.14572716284E+03  0.35593602584E+02  0.16532042123E+03  0.00000000000E+00 0.  1.
<mgrwt>
<rscale>  0 0.16322245E+04</rscale>
<asrwt>0</asrwt>
<pdfrwt beam="1">  1        1 0.83869839E-01 0.16322245E+04</pdfrwt>
<pdfrwt beam="2">  1       -1 0.18796080E+00 0.16322245E+04</pdfrwt>
<totfact> 0.68642243E+00</totfact>
</mgrwt>
</event>
<event>
12    1  0.2588309E-007  0.2500805E+04  0.7818608E-02  0.8402699E-01
         -2   -1    0    0    0  501 -0.00000000000E+00  0.00000000000E+00  0.52554498782E+03  0.52554498782E+03  0.00000000000E+00 0.  1.
          2   -1    0    0  501    0  0.00000000000E+00 -0.00000000000E+00 -0.29750200284E+04  0.29750200284E+04  0.00000000000E+00 0. -1.
         23    2    1    2    0    0 -0.27524745860E+03  0.10502636197E+04 -0.11111308030E+04  0.15560353116E+04  0.88427344164E+02 0.  0.
        254    2    1    2    0    0  0.27524745860E+03 -0.10502636197E+04 -0.13383442376E+04  0.19445297046E+04  0.90067510205E+03 0.  0.
        -24    2    4    4    0    0 -0.27275199181E+03 -0.28367821398E+03 -0.68781964584E+03  0.79651593341E+03  0.80466072665E+02 0.  0.
         24    2    4    4    0    0  0.54799945040E+03 -0.76658540576E+03 -0.65052459174E+03  0.11480137712E+04  0.82442661603E+02 0.  0.
         13    1    3    3    0    0 -0.12697187765E+03  0.52164700971E+03 -0.48769076905E+03  0.72531355059E+03  0.00000000000E+00 0. -1.
        -13    1    3    3    0    0 -0.14827558095E+03  0.52861661003E+03 -0.62344003394E+03  0.83072176102E+03  0.00000000000E+00 0.  1.
          4    1    6    6  502    0  0.48813196066E+03 -0.68259033590E+03 -0.60881164937E+03  0.10367516588E+04  0.00000000000E+00 0. -1.
          3    1    5    5  503    0 -0.22020516883E+03 -0.25329829865E+03 -0.52898068342E+03  0.62647498586E+03  0.00000000000E+00 0. -1.
         -4    1    5    5    0  503 -0.52546822977E+02 -0.30379915330E+02 -0.15883896242E+03  0.17004094755E+03  0.00000000000E+00 0.  1.
         -3    1    6    6    0  502  0.59867489746E+02 -0.83995069860E+02 -0.41712942377E+02  0.11126211238E+03  0.00000000000E+00 0.  1.
<mgrwt>
<rscale>  0 0.25008054E+04</rscale>
<asrwt>0</asrwt>
<pdfrwt beam="1">  1        2 0.45769539E+00 0.25008054E+04</pdfrwt>
<pdfrwt beam="2">  1       -2 0.80853075E-01 0.25008054E+04</pdfrwt>
<totfact> 0.21728261E+00</totfact>
</mgrwt>
</event>
<event>
12    1  0.2588309E-007  0.2013527E+04  0.7818608E-02  0.8600322E-01
         -2   -1    0    0    0  501 -0.00000000000E+00  0.00000000000E+00  0.70462277180E+03  0.70462277180E+03  0.00000000000E+00 0.  1.
          2   -1    0    0  501    0  0.00000000000E+00 -0.00000000000E+00 -0.14384613670E+04  0.14384613670E+04  0.00000000000E+00 0. -1.
         23    2    1    2    0    0  0.67573094350E+03 -0.85020680164E+02 -0.74687411768E+03  0.10148829782E+04  0.91245206984E+02 0.  0.
        254    2    1    2    0    0 -0.67573094350E+03  0.85020680164E+02  0.13035522519E+02  0.11282011605E+04  0.89934815824E+03 0.  0.
        -24    2    4    4    0    0 -0.17141810913E+03  0.24271954137E+03 -0.36175807816E+03  0.47518240144E+03  0.81439938706E+02 0.  0.
         24    2    4    4    0    0 -0.50431283437E+03 -0.15769886121E+03  0.37479360068E+03  0.65301875909E+03  0.82236797626E+02 0.  0.
         13    1    3    3    0    0  0.36081944600E+03 -0.46049965780E+02 -0.46566987699E+03  0.59089737374E+03  0.00000000000E+00 0. -1.
        -13    1    3    3    0    0  0.31491149750E+03 -0.38970714384E+02 -0.28120424069E+03  0.42398560450E+03  0.00000000000E+00 0.  1.
          4    1    6    6  502    0 -0.72169215818E+02 -0.41727960484E+02  0.89796942273E+02  0.12252799370E+03  0.00000000000E+00 0. -1.
          1    1    5    5  503    0 -0.87938059184E+02  0.10664180548E+03 -0.10812514375E+03  0.17548966819E+03  0.00000000000E+00 0. -1.
         -2    1    5    5    0  503 -0.83480049944E+02  0.13607773590E+03 -0.25363293441E+03  0.29969273325E+03  0.00000000000E+00 0.  1.
         -3    1    6    6    0  502 -0.43214361855E+03 -0.11597090073E+03  0.28499665841E+03  0.53049076540E+03  0.00000000000E+00 0.  1.
<mgrwt>
<rscale>  0 0.20135269E+04</rscale>
<asrwt>0</asrwt>
<pdfrwt beam="1">  1        2 0.22130175E+00 0.20135269E+04</pdfrwt>
<pdfrwt beam="2">  1       -2 0.10840350E+00 0.20135269E+04</pdfrwt>
<totfact> 0.86914917E+00</totfact>
</mgrwt>
</event>
<event>
12    1  0.2588309E-007  0.2438843E+04  0.7818608E-02  0.8425103E-01
          1   -1    0    0  501    0  0.00000000000E+00  0.00000000000E+00  0.16356053467E+04  0.16356053467E+04  0.00000000000E+00 0. -1.
         -1   -1    0    0    0  501 -0.00000000000E+00 -0.00000000000E+00 -0.90913647290E+03  0.90913647290E+03  0.00000000000E+00 0.  1.
         23    2    1    2    0    0 -0.37486860397E+03 -0.21780016159E+03 -0.68429809681E+03  0.81579963407E+03  0.96445720583E+02 0.  0.
        254    2    1    2    0    0  0.37486860397E+03  0.21780016159E+03  0.14107669706E+04  0.17289421855E+04  0.90056329867E+03 0.  0.
        -24    2    4    4    0    0  0.31408299027E+02 -0.10015906607E+03  0.12023406565E+04  0.12100250644E+04  0.86713796477E+02 0.  0.
         24    2    4    4    0    0  0.34346030494E+03  0.31795922766E+03  0.20842631407E+03  0.51891712107E+03  0.82282432013E+02 0.  0.
         11    1    3    3    0    0 -0.62847553289E+02 -0.83115975462E+02 -0.15351100004E+03  0.18553626994E+03  0.00000000000E+00 0. -1.
        -11    1    3    3    0    0 -0.31202105068E+03 -0.13468418613E+03 -0.53078709677E+03  0.63026336413E+03  0.00000000000E+00 0.  1.
          4    1    6    6  502    0  0.20685437325E+03  0.13564915915E+03  0.10502277811E+03  0.26873632064E+03  0.00000000000E+00 0. -1.
          1    1    5    5  503    0  0.58125268564E+01 -0.87611730254E+01  0.12198800042E+02  0.16104482100E+02  0.00000000000E+00 0. -1.
         -2    1    5    5    0  503  0.25595772170E+02 -0.91397893041E+02  0.11901418565E+04  0.11939205823E+04  0.00000000000E+00 0.  1.
         -3    1    6    6    0  502  0.13660593169E+03  0.18231006851E+03  0.10340353596E+03  0.25018080042E+03  0.00000000000E+00 0.  1.
<mgrwt>
<rscale>  0 0.24388427E+04</rscale>
<asrwt>0</asrwt>
<pdfrwt beam="1">  1        1 0.25163159E+00 0.24388427E+04</pdfrwt>
<pdfrwt beam="2">  1       -1 0.13986715E+00 0.24388427E+04</pdfrwt>
<totfact> 0.19795642E+00</totfact>
</mgrwt>
</event>
<event>
12    1  0.2588309E-007  0.1562903E+04  0.7818608E-02  0.8843668E-01
         -2   -1    0    0    0  501 -0.00000000000E+00  0.00000000000E+00  0.46789173456E+03  0.46789173456E+03  0.00000000000E+00 0. -1.
          2   -1    0    0  501    0  0.00000000000E+00 -0.00000000000E+00 -0.13051440729E+04  0.13051440729E+04  0.00000000000E+00 0.  1.
         23    2    1    2    0    0  0.43663089513E+02 -0.51190306642E+03 -0.37221723326E+03  0.64042102760E+03  0.87419729231E+02 0.  0.
        254    2    1    2    0    0 -0.43663089513E+02  0.51190306642E+03 -0.46503510506E+03  0.11326147798E+04  0.89588357265E+03 0.  0.
        -24    2    4    4    0    0  0.31306715847E+03  0.33945251210E+03 -0.54678832067E+03  0.72019397312E+03  0.80391775818E+02 0.  0.
         24    2    4    4    0    0 -0.35673024798E+03  0.17245055432E+03  0.81753215609E+02  0.41242080671E+03  0.80072904480E+02 0.  0.
         13    1    3    3    0    0  0.22477899341E+02 -0.47555392518E+03 -0.35916965435E+03  0.59637205863E+03  0.00000000000E+00 0.  1.
        -13    1    3    3    0    0  0.21185190173E+02 -0.36349141240E+02 -0.13047578912E+02  0.44048968966E+02  0.00000000000E+00 0. -1.
          4    1    6    6  502    0 -0.26396134884E+03  0.10052092392E+03  0.29704533869E+02  0.28401128351E+03  0.00000000000E+00 0. -1.
          3    1    5    5  503    0  0.94018011093E+01  0.37047033320E+02 -0.28525195404E+02  0.47692382146E+02  0.00000000000E+00 0. -1.
         -4    1    5    5    0  503  0.30366535736E+03  0.30240547878E+03 -0.51826312526E+03  0.67250159098E+03  0.00000000000E+00 0.  1.
         -3    1    6    6    0  502 -0.92768899139E+02  0.71929630398E+02  0.52048681740E+02  0.12840952320E+03  0.00000000000E+00 0.  1.
<mgrwt>
<rscale>  0 0.15629026E+04</rscale>
<asrwt>0</asrwt>
<pdfrwt beam="1">  1        2 0.20079140E+00 0.15629026E+04</pdfrwt>
<pdfrwt beam="2">  1       -2 0.71983344E-01 0.15629026E+04</pdfrwt>
<totfact> 0.27604658E+01</totfact>
</mgrwt>
</event>
<event>
12    1  0.2588309E-007  0.1767262E+04  0.7818608E-02  0.8723906E-01
         -1   -1    0    0    0  501 -0.00000000000E+00  0.00000000000E+00  0.27084219069E+04  0.27084219069E+04  0.00000000000E+00 0.  1.
          1   -1    0    0  501    0  0.00000000000E+00 -0.00000000000E+00 -0.28828722814E+03  0.28828722814E+03  0.00000000000E+00 0. -1.
         23    2    1    2    0    0  0.60723244282E+03  0.21375234036E+03  0.73942154097E+03  0.98447239564E+03  0.89556573775E+02 0.  0.
        254    2    1    2    0    0 -0.60723244282E+03 -0.21375234036E+03  0.16807131378E+04  0.20122367394E+04  0.89993263152E+03 0.  0.
        -24    2    4    4    0    0 -0.75125164258E+03 -0.10653658720E+03  0.78249869045E+03  0.10928320468E+04  0.79048131220E+02 0.  0.
         24    2    4    4    0    0  0.14401919976E+03 -0.10721575316E+03  0.89821444731E+03  0.91940469260E+03  0.79240442828E+02 0.  0.
         13    1    3    3    0    0  0.30163628655E+03  0.14917673422E+03  0.35480088453E+03  0.48900083339E+03  0.00000000000E+00 0.  1.
        -13    1    3    3    0    0  0.30559615627E+03  0.64575606138E+02  0.38462065645E+03  0.49547156225E+03  0.00000000000E+00 0. -1.
          4    1    6    6  502    0  0.33419400120E+02 -0.73232335656E+02  0.37917320100E+03  0.38762371915E+03  0.00000000000E+00 0. -1.
          1    1    5    5  503    0 -0.66395550504E+03 -0.71604065181E+02  0.66629140639E+03  0.94334950737E+03  0.00000000000E+00 0. -1.
         -2    1    5    5    0  503 -0.87296137538E+02 -0.34932522020E+02  0.11620728406E+03  0.14948253942E+03  0.00000000000E+00 0.  1.
         -3    1    6    6    0  502  0.11059979964E+03 -0.33983417501E+02  0.51904124631E+03  0.53178097345E+03  0.00000000000E+00 0.  1.
<mgrwt>
<rscale>  0 0.17672617E+04</rscale>
<asrwt>0</asrwt>
<pdfrwt beam="1">  1        1 0.44351883E-01 0.17672617E+04</pdfrwt>
<pdfrwt beam="2">  1       -1 0.41668028E+00 0.17672617E+04</pdfrwt>
<totfact> 0.48190684E-01</totfact>
</mgrwt>
</event>
<event>
12    1  0.2588309E-007  0.2462768E+04  0.7818608E-02  0.8416371E-01
          2   -1    0    0  501    0  0.00000000000E+00  0.00000000000E+00  0.24157971600E+04  0.24157971600E+04  0.00000000000E+00 0.  1.
         -2   -1    0    0    0  501 -0.00000000000E+00 -0.00000000000E+00 -0.62766307688E+03  0.62766307688E+03  0.00000000000E+00 0. -1.
         23    2    1    2    0    0 -0.94026855910E+03  0.43094954274E+03  0.10838824901E+04  0.15009964288E+04  0.91468876053E+02 0.  0.
        254    2    1    2    0    0  0.94026855910E+03 -0.43094954274E+03  0.70425159298E+03  0.15424638081E+04  0.90188792060E+03 0.  0.
        -24    2    4    4    0    0  0.81069260634E+03 -0.61326092426E+03  0.78964743499E+03  0.12897383398E+04  0.81058314443E+02 0.  0.
         24    2    4    4    0    0  0.12957595275E+03  0.18231138151E+03 -0.85395842007E+02  0.25272546826E+03  0.80934202376E+02 0.  0.
         13    1    3    3    0    0 -0.35126473937E+03  0.17670631426E+03  0.35200644489E+03  0.52775048637E+03  0.00000000000E+00 0. -1.
        -13    1    3    3    0    0 -0.58900381973E+03  0.25424322848E+03  0.73187604520E+03  0.97324594241E+03  0.00000000000E+00 0.  1.
          4    1    6    6  502    0  0.40377974810E+02  0.38811164064E+02  0.12592627525E+02  0.57404368943E+02  0.00000000000E+00 0. -1.
          3    1    5    5  503    0  0.70325336312E+02 -0.76402687886E+02  0.10169166223E+03  0.14534172770E+03  0.00000000000E+00 0. -1.
         -4    1    5    5    0  503  0.74036727003E+03 -0.53685823637E+03  0.68795577276E+03  0.11443966121E+04  0.00000000000E+00 0.  1.
         -3    1    6    6    0  502  0.89197977942E+02  0.14350021745E+03 -0.97988469533E+02  0.19532109932E+03  0.00000000000E+00 0.  1.
<mgrwt>
<rscale>  0 0.24627681E+04</rscale>
<asrwt>0</asrwt>
<pdfrwt beam="1">  1        2 0.37166110E+00 0.24627681E+04</pdfrwt>
<pdfrwt beam="2">  1       -2 0.96563552E-01 0.24627681E+04</pdfrwt>
<totfact> 0.31238652E+00</totfact>
</mgrwt>
</event>
<event>
12    1  0.2588309E-007  0.1539003E+04  0.7818608E-02  0.8858923E-01
         -1   -1    0    0    0  501 -0.00000000000E+00  0.00000000000E+00  0.72654182850E+03  0.72654182850E+03  0.00000000000E+00 0.  1.
          1   -1    0    0  501    0  0.00000000000E+00 -0.00000000000E+00 -0.81500173167E+03  0.81500173167E+03  0.00000000000E+00 0. -1.
         23    2    1    2    0    0  0.22418076807E+00 -0.12190882979E+03  0.45671333228E+03  0.48187536442E+03  0.93568081686E+02 0.  0.
        254    2    1    2    0    0 -0.22418076807E+00  0.12190882979E+03 -0.54517323544E+03  0.10596681958E+04  0.90045600415E+03 0.  0.
        -24    2    4    4    0    0 -0.33413741056E+03  0.35370033190E+03 -0.27845134124E+03  0.56650744627E+03  0.81509529001E+02 0.  0.
         24    2    4    4    0    0  0.33391322979E+03 -0.23179150211E+03 -0.26672189421E+03  0.49316074949E+03  0.82714028484E+02 0.  0.
         11    1    3    3    0    0  0.41794924787E+01  0.12271909389E+02  0.98242059094E+02  0.99093743962E+02  0.00000000000E+00 0. -1.
        -11    1    3    3    0    0 -0.39553117106E+01 -0.13418073918E+03  0.35847127319E+03  0.38278162045E+03  0.00000000000E+00 0.  1.
          4    1    6    6  502    0  0.86638553586E+02 -0.83643861955E+02 -0.41591167028E+02  0.12740627844E+03  0.00000000000E+00 0. -1.
          1    1    5    5  503    0 -0.89488808064E+02  0.93396511699E+02 -0.11729418129E+03  0.17461122567E+03  0.00000000000E+00 0. -1.
         -2    1    5    5    0  503 -0.24464860249E+03  0.26030382020E+03 -0.16115715995E+03  0.39189622059E+03  0.00000000000E+00 0.  1.
         -3    1    6    6    0  502  0.24727467620E+03 -0.14814764016E+03 -0.22513072718E+03  0.36575447105E+03  0.00000000000E+00 0.  1.
<mgrwt>
<rscale>  0 0.15390034E+04</rscale>
<asrwt>0</asrwt>
<pdfrwt beam="1">  1        1 0.12538488E+00 0.15390034E+04</pdfrwt>
<pdfrwt beam="2">  1       -1 0.11177567E+00 0.15390034E+04</pdfrwt>
<totfact> 0.15205912E+01</totfact>
</mgrwt>
</event>
<event>
12    1  0.2588309E-007  0.1303013E+04  0.7818608E-02  0.9027180E-01
         -2   -1    0    0    0  501 -0.00000000000E+00  0.00000000000E+00  0.25187759041E+03  0.25187759041E+03  0.00000000000E+00 0.  1.
          2   -1    0    0  501    0  0.00000000000E+00 -0.00000000000E+00 -0.16851855468E+04  0.16851855468E+04  0.00000000000E+00 0. -1.
         23    2    1    2    0    0 -0.11534403647E+03  0.58606329630E+02 -0.81793208562E+03  0.83353481525E+03  0.95018118921E+02 0.  0.
        254    2    1    2    0    0  0.11534403647E+03 -0.58606329630E+02 -0.61537587078E+03  0.11035283220E+04  0.90683424419E+03 0.  0.
        -24    2    4    4    0    0  0.11931009134E+03 -0.46332400416E+03 -0.22114953571E+03  0.53282516309E+03  0.78048104096E+02 0.  0.
         24    2    4    4    0    0 -0.39660548661E+01  0.40471767453E+03 -0.39422633507E+03  0.57070315888E+03  0.80470905430E+02 0.  0.
         11    1    3    3    0    0 -0.11334534557E+03  0.12133184824E+02 -0.57600698101E+03  0.58717835767E+03  0.00000000000E+00 0.  1.
        -11    1    3    3    0    0 -0.19986909014E+01  0.46473144805E+02 -0.24192510461E+03  0.24635645758E+03  0.00000000000E+00 0. -1.
          2    1    6    6  502    0  0.11920289355E+02  0.19367053113E+02 -0.61160861360E+01  0.23549576519E+02  0.00000000000E+00 0. -1.
          3    1    5    5  503    0 -0.59398188989E+01 -0.64694079095E+02 -0.14025422728E+02  0.66462905452E+02  0.00000000000E+00 0. -1.
         -4    1    5    5    0  503  0.12524991024E+03 -0.39862992507E+03 -0.20712411298E+03  0.46636225764E+03  0.00000000000E+00 0.  1.
         -1    1    6    6    0  502 -0.15886344221E+02  0.38535062142E+03 -0.38811024894E+03  0.54715358236E+03  0.00000000000E+00 0.  1.
<mgrwt>
<rscale>  0 0.13030126E+04</rscale>
<asrwt>0</asrwt>
<pdfrwt beam="1">  1        2 0.25925932E+00 0.13030126E+04</pdfrwt>
<pdfrwt beam="2">  1       -2 0.38750398E-01 0.13030126E+04</pdfrwt>
<totfact> 0.61625928E+01</totfact>
</mgrwt>
</event>
<event>
12    1  0.2588309E-007  0.2249929E+04  0.7818608E-02  0.8497929E-01
          2   -1    0    0  501    0  0.00000000000E+00  0.00000000000E+00  0.25296126567E+04  0.25296126567E+04  0.00000000000E+00 0. -1.
         -2   -1    0    0    0  501 -0.00000000000E+00 -0.00000000000E+00 -0.50029191689E+03  0.50029191689E+03  0.00000000000E+00 0.  1.
         23    2    1    2    0    0 -0.91709132136E+03  0.12958065169E+03  0.61931480024E+03  0.11178828623E+04  0.90904537450E+02 0.  0.
        254    2    1    2    0    0  0.91709132136E+03 -0.12958065169E+03  0.14100059395E+04  0.19120217113E+04  0.89992368450E+03 0.  0.
        -24    2    4    4    0    0  0.23483893758E+03 -0.89463979338E+02  0.11448335938E+04  0.11748562151E+04  0.80560775058E+02 0.  0.
         24    2    4    4    0    0  0.68225238378E+03 -0.40116672354E+02  0.26517234576E+03  0.73716549621E+03  0.77581784434E+02 0.  0.
         11    1    3    3    0    0 -0.56193335524E+03  0.73558885418E+02  0.32549707351E+03  0.65355057205E+03  0.00000000000E+00 0. -1.
        -11    1    3    3    0    0 -0.35515796611E+03  0.56021766274E+02  0.29381772673E+03  0.46433229021E+03  0.00000000000E+00 0.  1.
          2    1    6    6  502    0  0.33034227743E+03 -0.38593056041E+02  0.92734808186E+02  0.34527552604E+03  0.00000000000E+00 0. -1.
          3    1    5    5  503    0  0.23382127578E+03 -0.75858090498E+02  0.10165586583E+04  0.10458577077E+04  0.00000000000E+00 0. -1.
         -4    1    5    5    0  503  0.10176617960E+01 -0.13605888840E+02  0.12827493543E+03  0.12899850738E+03  0.00000000000E+00 0.  1.
         -1    1    6    6    0  502  0.35191010635E+03 -0.15236163133E+01  0.17243753758E+03  0.39188997018E+03  0.00000000000E+00 0.  1.
<mgrwt>
<rscale>  0 0.22499287E+04</rscale>
<asrwt>0</asrwt>
<pdfrwt beam="1">  1        2 0.38917117E+00 0.22499287E+04</pdfrwt>
<pdfrwt beam="2">  1       -2 0.76967988E-01 0.22499287E+04</pdfrwt>
<totfact> 0.45913761E+00</totfact>
</mgrwt>
</event>
<event>
12    1  0.2588309E-007  0.3032492E+04  0.7818608E-02  0.8234513E-01
          2   -1    0    0  501    0  0.00000000000E+00  0.00000000000E+00  0.17835080880E+04  0.17835080880E+04  0.00000000000E+00 0. -1.
         -2   -1    0    0    0  501 -0.00000000000E+00 -0.00000000000E+00 -0.12890336921E+04  0.12890336921E+04  0.00000000000E+00 0.  1.
         23    2    1    2    0    0 -0.29514667715E+03 -0.13488723226E+04  0.19808350860E+03  0.13977981100E+04  0.89634682557E+02 0.  0.
        254    2    1    2    0    0  0.29514667715E+03  0.13488723226E+04  0.29639088739E+03  0.16747436701E+04  0.90019481150E+03 0.  0.
        -24    2    4    4    0    0  0.53223638171E+03  0.55024367074E+03  0.32945923860E+03  0.83717879981E+03  0.79254588183E+02 0.  0.
         24    2    4    4    0    0 -0.23708970456E+03  0.79862865185E+03 -0.33068351210E+02  0.83756487027E+03  0.80013401959E+02 0.  0.
         11    1    3    3    0    0 -0.11770854996E+03 -0.57978261419E+03  0.41030794264E+02  0.59303179386E+03  0.00000000000E+00 0. -1.
        -11    1    3    3    0    0 -0.17743812719E+03 -0.76908970840E+03  0.15705271434E+03  0.80476631617E+03  0.00000000000E+00 0.  1.
          4    1    6    6  502    0 -0.12929793252E+03  0.48059377592E+03 -0.56844762158E+02  0.50091881557E+03  0.00000000000E+00 0. -1.
          3    1    5    5  503    0  0.52994579375E+03  0.53661967951E+03  0.31545001437E+03  0.81750347787E+03  0.00000000000E+00 0. -1.
         -4    1    5    5    0  503  0.22905879590E+01  0.13623991224E+02  0.14009224229E+02  0.19675321944E+02  0.00000000000E+00 0.  1.
         -1    1    6    6    0  502 -0.10779177203E+03  0.31803487593E+03  0.23776410948E+02  0.33664605470E+03  0.00000000000E+00 0.  1.
<mgrwt>
<rscale>  0 0.30324921E+04</rscale>
<asrwt>0</asrwt>
<pdfrwt beam="1">  1        2 0.27438586E+00 0.30324921E+04</pdfrwt>
<pdfrwt beam="2">  1       -2 0.19831287E+00 0.30324921E+04</pdfrwt>
<totfact> 0.10266974E+00</totfact>
</mgrwt>
</event>
<event>
12    1  0.2588309E-007  0.2755432E+04  0.7818608E-02  0.8317240E-01
          2   -1    0    0  501    0  0.00000000000E+00  0.00000000000E+00  0.30910911030E+04  0.30910911030E+04  0.00000000000E+00 0. -1.
         -2   -1    0    0    0  501 -0.00000000000E+00 -0.00000000000E+00 -0.61405532314E+03  0.61405532314E+03  0.00000000000E+00 0.  1.
         23    2    1    2    0    0 -0.88180632438E+03  0.45625304424E+02 -0.41620113330E+02  0.88843468732E+03  0.88993807065E+02 0.  0.
        254    2    1    2    0    0  0.88180632438E+03 -0.45625304424E+02  0.25186558932E+04  0.28167117388E+04  0.90031852650E+03 0.  0.
        -24    2    4    4    0    0  0.24300046531E+03  0.19778858887E+03  0.17715909905E+04  0.18008281740E+04  0.79233341371E+02 0.  0.
         24    2    4    4    0    0  0.63880585906E+03 -0.24341389329E+03  0.74706490268E+03  0.10158835649E+04  0.81180043938E+02 0.  0.
         11    1    3    3    0    0 -0.27828765246E+03  0.32698086572E+02  0.23966238162E+02  0.28122511081E+03  0.00000000000E+00 0. -1.
        -11    1    3    3    0    0 -0.60351867191E+03  0.12927217852E+02 -0.65586351492E+02  0.60720957652E+03  0.00000000000E+00 0.  1.
          2    1    6    6  502    0  0.47104156777E+03 -0.21150155876E+03  0.53375079081E+03  0.74263246268E+03  0.00000000000E+00 0. -1.
          1    1    5    5  503    0  0.21075901906E+03  0.12871486556E+03  0.13527966451E+04  0.13751529529E+04  0.00000000000E+00 0. -1.
         -2    1    5    5    0  503  0.32241446255E+02  0.69073723307E+02  0.41879434538E+03  0.42567522106E+03  0.00000000000E+00 0.  1.
         -1    1    6    6    0  502  0.16776429129E+03 -0.31912334527E+02  0.21331411186E+03  0.27325110219E+03  0.00000000000E+00 0.  1.
<mgrwt>
<rscale>  0 0.27554317E+04</rscale>
<asrwt>0</asrwt>
<pdfrwt beam="1">  1        2 0.47555247E+00 0.27554317E+04</pdfrwt>
<pdfrwt beam="2">  1       -2 0.94470051E-01 0.27554317E+04</pdfrwt>
<totfact> 0.12569566E+00</totfact>
</mgrwt>
</event>
<event>
12    1  0.2588309E-007  0.3188976E+04  0.7818608E-02  0.8191735E-01
          1   -1    0    0  501    0  0.00000000000E+00  0.00000000000E+00  0.29603679829E+04  0.29603679829E+04  0.00000000000E+00 0. -1.
         -1   -1    0    0    0  501 -0.00000000000E+00 -0.00000000000E+00 -0.85880924841E+03  0.85880924841E+03  0.00000000000E+00 0.  1.
         23    2    1    2    0    0  0.23543688455E+03 -0.10934587042E+04 -0.16720952333E+03  0.11345513321E+04  0.90361695876E+02 0.  0.
        254    2    1    2    0    0 -0.23543688455E+03  0.10934587042E+04  0.22687682578E+04  0.26846258992E+04  0.89934662216E+03 0.  0.
        -24    2    4    4    0    0  0.30066566110E+03  0.24135184262E+03  0.91381521644E+03  0.99459242804E+03  0.74197684709E+02 0.  0.
         24    2    4    4    0    0 -0.53610254565E+03  0.85210686156E+03  0.13549530414E+04  0.16900334712E+04  0.82603549862E+02 0.  0.
         13    1    3    3    0    0  0.38933715455E+02 -0.38476794527E+03 -0.57902214662E+02  0.39104331265E+03  0.00000000000E+00 0. -1.
        -13    1    3    3    0    0  0.19650316909E+03 -0.70869075891E+03 -0.10930730867E+03  0.74350801943E+03  0.00000000000E+00 0.  1.
          4    1    6    6  502    0 -0.46757541630E+03  0.73967706830E+03  0.12210915997E+04  0.15022694932E+04  0.00000000000E+00 0. -1.
          3    1    5    5  503    0  0.25219749928E+03  0.20785148733E+03  0.69534311183E+03  0.76831495013E+03  0.00000000000E+00 0. -1.
         -4    1    5    5    0  503  0.48468161816E+02  0.33500355286E+02  0.21847210461E+03  0.22627747791E+03  0.00000000000E+00 0.  1.
         -3    1    6    6    0  502 -0.68527129349E+02  0.11242979326E+03  0.13386144166E+03  0.18776397800E+03  0.00000000000E+00 0.  1.
<mgrwt>
<rscale>  0 0.31889756E+04</rscale>
<asrwt>0</asrwt>
<pdfrwt beam="1">  1        1 0.45544122E+00 0.31889756E+04</pdfrwt>
<pdfrwt beam="2">  1       -1 0.13212450E+00 0.31889756E+04</pdfrwt>
<totfact> 0.26017404E-01</totfact>
</mgrwt>
</event>
<event>
12    1  0.2588309E-007  0.2307435E+04  0.7818608E-02  0.8474995E-01
         -1   -1    0    0    0  501 -0.00000000000E+00  0.00000000000E+00  0.14677662280E+04  0.14677662280E+04  0.00000000000E+00 0.  1.
          1   -1    0    0  501    0  0.00000000000E+00 -0.00000000000E+00 -0.90686395438E+03  0.90686395438E+03  0.00000000000E+00 0. -1.
         23    2    1    2    0    0 -0.29493138597E+03 -0.29223185278E+03  0.11476561481E+04  0.12239533965E+04  0.92538123628E+02 0.  0.
        254    2    1    2    0    0  0.29493138597E+03  0.29223185278E+03 -0.58675387446E+03  0.11506767859E+04  0.89855048729E+03 0.  0.
        -24    2    4    4    0    0 -0.14041781042E+03 -0.22601813855E+03 -0.47635582891E+02  0.28144338200E+03  0.78357310308E+02 0.  0.
         24    2    4    4    0    0  0.43534919639E+03  0.51824999133E+03 -0.53911829157E+03  0.86923340390E+03  0.82499708163E+02 0.  0.
         13    1    3    3    0    0 -0.40470933673E+02 -0.10956543654E+02  0.71200232695E+02  0.82628175927E+02  0.00000000000E+00 0. -1.
        -13    1    3    3    0    0 -0.25446045229E+03 -0.28127530912E+03  0.10764559154E+04  0.11413252206E+04  0.00000000000E+00 0.  1.
          4    1    6    6  502    0  0.14303051835E+03  0.23307883580E+03 -0.21456573597E+03  0.34759448778E+03  0.00000000000E+00 0. -1.
          3    1    5    5  503    0 -0.55806689074E+02 -0.11226718903E+03 -0.60281253071E+02  0.13911196121E+03  0.00000000000E+00 0. -1.
         -4    1    5    5    0  503 -0.84611121346E+02 -0.11375094952E+03  0.12645670180E+02  0.14233142080E+03  0.00000000000E+00 0.  1.
         -3    1    6    6    0  502  0.29231867804E+03  0.28517115553E+03 -0.32455255560E+03  0.52163891613E+03  0.00000000000E+00 0.  1.
<mgrwt>
<rscale>  0 0.23074352E+04</rscale>
<asrwt>0</asrwt>
<pdfrwt beam="1">  1        1 0.13951753E+00 0.23074352E+04</pdfrwt>
<pdfrwt beam="2">  1       -1 0.22581019E+00 0.23074352E+04</pdfrwt>
<totfact> 0.16328484E+00</totfact>
</mgrwt>
</event>
<event>
12    1  0.2588309E-007  0.3823069E+04  0.7818608E-02  0.8041222E-01
          2   -1    0    0  501    0  0.00000000000E+00  0.00000000000E+00  0.10966880871E+04  0.10966880871E+04  0.00000000000E+00 0. -1.
         -2   -1    0    0    0  501 -0.00000000000E+00 -0.00000000000E+00 -0.33318174195E+04  0.33318174195E+04  0.00000000000E+00 0.  1.
         23    2    1    2    0    0 -0.71444541263E+03 -0.15968084238E+04 -0.53968034070E+03  0.18334025245E+04  0.99400988782E+02 0.  0.
        254    2    1    2    0    0  0.71444541263E+03  0.15968084238E+04 -0.16954489917E+04  0.25951029821E+04  0.89430577222E+03 0.  0.
        -24    2    4    4    0    0  0.74600079314E+03  0.70412008216E+03 -0.64803385480E+03  0.12161462530E+04  0.82228694473E+02 0.  0.
         24    2    4    4    0    0 -0.31555380509E+02  0.89268834166E+03 -0.10474151370E+04  0.13789567292E+04  0.80962796363E+02 0.  0.
         11    1    3    3    0    0 -0.49420998266E+03 -0.10223507898E+04 -0.31482016049E+03  0.11783702211E+04  0.00000000000E+00 0. -1.
        -11    1    3    3    0    0 -0.22023542997E+03 -0.57445763398E+03 -0.22486018021E+03  0.65503230340E+03  0.00000000000E+00 0.  1.
          4    1    6    6  502    0 -0.21190309790E+02  0.85144719683E+03 -0.10177293162E+04  0.13270961982E+04  0.00000000000E+00 0. -1.
          3    1    5    5  503    0  0.58777905350E+03  0.57286866563E+03 -0.48149094739E+03  0.95157567025E+03  0.00000000000E+00 0. -1.
         -4    1    5    5    0  503  0.15822173964E+03  0.13125141653E+03 -0.16654290740E+03  0.26457058272E+03  0.00000000000E+00 0.  1.
         -3    1    6    6    0  502 -0.10365070719E+02  0.41241144824E+02 -0.29685820764E+02  0.51860530964E+02  0.00000000000E+00 0.  1.
<mgrwt>
<rscale>  0 0.38230692E+04</rscale>
<asrwt>0</asrwt>
<pdfrwt beam="1">  1        2 0.16872124E+00 0.38230692E+04</pdfrwt>
<pdfrwt beam="2">  1       -2 0.51258730E+00 0.38230692E+04</pdfrwt>
<totfact> 0.24218374E-02</totfact>
</mgrwt>
</event>
<event>
12    1  0.2588309E-007  0.1884212E+04  0.7818608E-02  0.8662755E-01
          1   -1    0    0  501    0  0.00000000000E+00  0.00000000000E+00  0.22756818224E+04  0.22756818224E+04  0.00000000000E+00 0. -1.
         -1   -1    0    0    0  501 -0.00000000000E+00 -0.00000000000E+00 -0.39002090260E+03  0.39002090260E+03  0.00000000000E+00 0.  1.
         23    2    1    2    0    0  0.51383619044E+03 -0.36662502934E+03  0.12030633395E+04  0.13616008711E+04  0.90299449717E+02 0.  0.
        254    2    1    2    0    0 -0.51383619044E+03  0.36662502934E+03  0.68259758028E+03  0.13041018539E+04  0.91449474898E+03 0.  0.
        -24    2    4    4    0    0 -0.28826488539E+03 -0.28368765234E+03  0.31132263936E+03  0.51784568319E+03  0.87561621661E+02 0.  0.
         24    2    4    4    0    0 -0.22557130505E+03  0.65031268167E+03  0.37127494093E+03  0.78625617068E+03  0.81022753373E+02 0.  0.
         13    1    3    3    0    0  0.69475908436E+02 -0.28682292374E+02  0.19983415791E+03  0.21350238035E+03  0.00000000000E+00 0. -1.
        -13    1    3    3    0    0  0.44436028200E+03 -0.33794273696E+03  0.10032291816E+04  0.11480984908E+04  0.00000000000E+00 0.  1.
          4    1    6    6  502    0 -0.15230826195E+03  0.31701734376E+03  0.19563057520E+03  0.40245387916E+03  0.00000000000E+00 0. -1.
          3    1    5    5  503    0 -0.30726324800E+02 -0.23548872171E+02  0.22823221232E+01  0.38779703590E+02  0.00000000000E+00 0. -1.
         -4    1    5    5    0  503 -0.25753856059E+03 -0.26013878016E+03  0.30904031723E+03  0.47906597960E+03  0.00000000000E+00 0.  1.
         -3    1    6    6    0  502 -0.73263043100E+02  0.33329533792E+03  0.17564436573E+03  0.38380229152E+03  0.00000000000E+00 0.  1.
<mgrwt>
<rscale>  0 0.18842117E+04</rscale>
<asrwt>0</asrwt>
<pdfrwt beam="1">  1        1 0.35010489E+00 0.18842117E+04</pdfrwt>
<pdfrwt beam="2">  1       -1 0.60003217E-01 0.18842117E+04</pdfrwt>
<totfact> 0.51043538E+00</totfact>
</mgrwt>
</event>
<event>
12    1  0.2588309E-007  0.3368087E+04  0.7818608E-02  0.8145783E-01
          1   -1    0    0  501    0  0.00000000000E+00  0.00000000000E+00  0.23712630475E+04  0.23712630475E+04  0.00000000000E+00 0. -1.
         -1   -1    0    0    0  501 -0.00000000000E+00 -0.00000000000E+00 -0.11959882659E+04  0.11959882659E+04  0.00000000000E+00 0.  1.
         23    2    1    2    0    0  0.11638147999E+04 -0.10400817645E+04  0.59322981017E+03  0.16723208794E+04  0.92198431218E+02 0.  0.
        254    2    1    2    0    0 -0.11638147999E+04  0.10400817645E+04  0.58204497143E+03  0.18949304339E+04  0.90318881473E+03 0.  0.
        -24    2    4    4    0    0 -0.11242042382E+04  0.10347230267E+04  0.74967430000E+03  0.17038225561E+04  0.80702140798E+02 0.  0.
         24    2    4    4    0    0 -0.39610561692E+02  0.53587378648E+01 -0.16762932857E+03  0.19110787775E+03  0.82613052683E+02 0.  0.
         11    1    3    3    0    0  0.10557085904E+04 -0.96100031320E+03  0.51783702335E+03  0.15186169407E+04  0.00000000000E+00 0.  1.
        -11    1    3    3    0    0  0.10810620956E+03 -0.79081451323E+02  0.75392786817E+02  0.15370393877E+03  0.00000000000E+00 0. -1.
          2    1    6    6  502    0 -0.12479846320E+02 -0.29294935538E+02 -0.12794356585E+03  0.13184648594E+03  0.00000000000E+00 0. -1.
          3    1    5    5  503    0 -0.86593328770E+03  0.75984774461E+03  0.54062701634E+03  0.12725905172E+04  0.00000000000E+00 0. -1.
         -4    1    5    5    0  503 -0.25827095054E+03  0.27487528205E+03  0.20904728365E+03  0.43123203890E+03  0.00000000000E+00 0.  1.
         -1    1    6    6    0  502 -0.27130715372E+02  0.34653673403E+02 -0.39685762716E+02  0.59261391810E+02  0.00000000000E+00 0.  1.
<mgrwt>
<rscale>  0 0.33680872E+04</rscale>
<asrwt>0</asrwt>
<pdfrwt beam="1">  1        1 0.36480970E+00 0.33680872E+04</pdfrwt>
<pdfrwt beam="2">  1       -1 0.18399820E+00 0.33680872E+04</pdfrwt>
<totfact> 0.26722064E-01</totfact>
</mgrwt>
</event>
<event>
12    1  0.2588309E-007  0.4144036E+04  0.7818608E-02  0.7976104E-01
          2   -1    0    0  501    0  0.00000000000E+00  0.00000000000E+00  0.41260346663E+04  0.41260346663E+04  0.00000000000E+00 0. -1.
         -2   -1    0    0    0  501 -0.00000000000E+00 -0.00000000000E+00 -0.10405290886E+04  0.10405290886E+04  0.00000000000E+00 0.  1.
         23    2    1    2    0    0  0.11034570864E+04  0.15311738975E+04  0.21894200003E+04  0.28919678053E+04  0.88356117411E+02 0.  0.
        254    2    1    2    0    0 -0.11034570864E+04 -0.15311738975E+04  0.89608557735E+03  0.22745959495E+04  0.89928100498E+03 0.  0.
        -24    2    4    4    0    0 -0.10503242152E+04 -0.16375103566E+04  0.83997783051E+03  0.21207619966E+04  0.86299277508E+02 0.  0.
         24    2    4    4    0    0 -0.53132871151E+02  0.10633645908E+03  0.56107746837E+02  0.15383395299E+03  0.79914087060E+02 0.  0.
         13    1    3    3    0    0  0.23934609172E+03  0.34608215338E+03  0.54427371982E+03  0.68796314625E+03  0.00000000000E+00 0. -1.
        -13    1    3    3    0    0  0.86411099464E+03  0.11850917441E+04  0.16451462805E+04  0.22040046591E+04  0.00000000000E+00 0.  1.
          4    1    6    6  502    0  0.37426344456E+01  0.69822548900E+02  0.50021292626E+02  0.85972817585E+02  0.00000000000E+00 0. -1.
          1    1    5    5  503    0 -0.51654938658E+03 -0.76049984851E+03  0.35803619061E+03  0.98659677789E+03  0.00000000000E+00 0. -1.
         -2    1    5    5    0  503 -0.53377482863E+03 -0.87701050808E+03  0.48194163990E+03  0.11341652187E+04  0.00000000000E+00 0.  1.
         -3    1    6    6    0  502 -0.56875505596E+02  0.36513910181E+02  0.60864542102E+01  0.67861135405E+02  0.00000000000E+00 0.  1.
<mgrwt>
<rscale>  0 0.41440362E+04</rscale>
<asrwt>0</asrwt>
<pdfrwt beam="1">  1        2 0.63477456E+00 0.41440362E+04</pdfrwt>
<pdfrwt beam="2">  1       -2 0.16008140E+00 0.41440362E+04</pdfrwt>
<totfact> 0.52535725E-02</totfact>
</mgrwt>
</event>
<event>
12    1  0.2588309E-007  0.1966513E+04  0.7818608E-02  0.8622439E-01
         -2   -1    0    0    0  501 -0.00000000000E+00  0.00000000000E+00  0.32948268842E+03  0.32948268842E+03  0.00000000000E+00 0.  1.
          2   -1    0    0  501    0  0.00000000000E+00 -0.00000000000E+00 -0.29342777876E+04  0.29342777876E+04  0.00000000000E+00 0. -1.
         23    2    1    2    0    0 -0.53672349162E+03  0.52430117553E+03 -0.13489306360E+04  0.15462933151E+04  0.91898457080E+02 0.  0.
        254    2    1    2    0    0  0.53672349162E+03 -0.52430117553E+03 -0.12558644632E+04  0.17174671609E+04  0.89974111268E+03 0.  0.
        -24    2    4    4    0    0  0.73129469527E+02 -0.34201545065E+02 -0.97507637200E+03  0.98235605439E+03  0.87930776012E+02 0.  0.
         24    2    4    4    0    0  0.46359402210E+03 -0.49009963047E+03 -0.28078809118E+03  0.73511110653E+03  0.80183051142E+02 0.  0.
         11    1    3    3    0    0 -0.16541651353E+02  0.23252315653E+02 -0.23970718194E+02  0.37267837923E+02  0.00000000000E+00 0.  1.
        -11    1    3    3    0    0 -0.52018184027E+03  0.50104885988E+03 -0.13249599178E+04  0.15090254772E+04  0.00000000000E+00 0. -1.
          4    1    6    6  502    0  0.33880165931E+03 -0.34085796704E+03 -0.23631431135E+03  0.53555127840E+03  0.00000000000E+00 0. -1.
          1    1    5    5  503    0  0.88666335248E+01 -0.20837787828E+02 -0.66609435172E+03  0.66647919397E+03  0.00000000000E+00 0. -1.
         -2    1    5    5    0  503  0.64262836002E+02 -0.13363757236E+02 -0.30898202028E+03  0.31587686043E+03  0.00000000000E+00 0.  1.
         -3    1    6    6    0  502  0.12479236278E+03 -0.14924166343E+03 -0.44473779833E+02  0.19955982813E+03  0.00000000000E+00 0.  1.
<mgrwt>
<rscale>  0 0.19665134E+04</rscale>
<asrwt>0</asrwt>
<pdfrwt beam="1">  1        2 0.45142734E+00 0.19665134E+04</pdfrwt>
<pdfrwt beam="2">  1       -2 0.50689646E-01 0.19665134E+04</pdfrwt>
<totfact> 0.65740100E+00</totfact>
</mgrwt>
</event>
<event>
12    1  0.2588309E-007  0.2310183E+04  0.7818608E-02  0.8473917E-01
          1   -1    0    0  501    0  0.00000000000E+00  0.00000000000E+00  0.12248101714E+04  0.12248101714E+04  0.00000000000E+00 0. -1.
         -1   -1    0    0    0  501 -0.00000000000E+00 -0.00000000000E+00 -0.10893413992E+04  0.10893413992E+04  0.00000000000E+00 0.  1.
         23    2    1    2    0    0  0.33431266645E+03  0.82559253237E+03  0.46019371712E+03  0.10066931593E+04  0.91021268366E+02 0.  0.
        254    2    1    2    0    0 -0.33431266645E+03 -0.82559253237E+03 -0.32472494497E+03  0.13074584112E+04  0.90035171950E+03 0.  0.
        -24    2    4    4    0    0 -0.10610854777E+03 -0.76153361852E+03 -0.56638479192E+03  0.95878181464E+03  0.85313302181E+02 0.  0.
         24    2    4    4    0    0 -0.22820411868E+03 -0.64058913852E+02  0.24165984696E+03  0.34867659661E+03  0.83637450709E+02 0.  0.
         13    1    3    3    0    0  0.33585579461E+03  0.82290082163E+03  0.46329960329E+03  0.10023030477E+04  0.00000000000E+00 0. -1.
        -13    1    3    3    0    0 -0.15431281502E+01  0.26917107327E+01 -0.31058861705E+01  0.43901116228E+01  0.00000000000E+00 0.  1.
          2    1    6    6  502    0 -0.15830194213E+03 -0.22090264431E+02  0.11076169114E+03  0.19446243053E+03  0.00000000000E+00 0. -1.
          3    1    5    5  503    0 -0.71292075273E+02 -0.39614191550E+03 -0.24712830992E+03  0.47231703206E+03  0.00000000000E+00 0. -1.
         -2    1    5    5    0  503 -0.34816472499E+02 -0.36539170302E+03 -0.31925648201E+03  0.48646478258E+03  0.00000000000E+00 0.  1.
         -1    1    6    6    0  502 -0.69902176556E+02 -0.41968649421E+02  0.13089815582E+03  0.15421416608E+03  0.00000000000E+00 0.  1.
<mgrwt>
<rscale>  0 0.23101830E+04</rscale>
<asrwt>0</asrwt>
<pdfrwt beam="1">  1        1 0.18843233E+00 0.23101830E+04</pdfrwt>
<pdfrwt beam="2">  1       -1 0.16759098E+00 0.23101830E+04</pdfrwt>
<totfact> 0.23729557E+00</totfact>
</mgrwt>
</event>
<event>
12    1  0.2588309E-007  0.2704478E+04  0.7818608E-02  0.8333553E-01
          2   -1    0    0  501    0  0.00000000000E+00  0.00000000000E+00  0.31517491534E+04  0.31517491534E+04  0.00000000000E+00 0. -1.
         -2   -1    0    0    0  501 -0.00000000000E+00 -0.00000000000E+00 -0.58017005854E+03  0.58017005854E+03  0.00000000000E+00 0.  1.
         23    2    1    2    0    0  0.51826226840E+03 -0.10773440184E+04  0.10074035237E+04  0.15660937897E+04  0.92314601820E+02 0.  0.
        254    2    1    2    0    0 -0.51826226840E+03  0.10773440184E+04  0.15641755712E+04  0.21658254222E+04  0.90271181967E+03 0.  0.
        -24    2    4    4    0    0  0.13019168591E+02  0.32714284637E+02  0.70641968405E+03  0.71125408120E+03  0.74925795520E+02 0.  0.
         24    2    4    4    0    0 -0.53128143699E+03  0.10446297338E+04  0.85775588710E+03  0.14545713410E+04  0.80755051618E+02 0.  0.
         13    1    3    3    0    0  0.25325060018E+03 -0.54008933952E+03  0.56242450134E+03  0.81984979165E+03  0.00000000000E+00 0.  1.
        -13    1    3    3    0    0  0.26501166822E+03 -0.53725467887E+03  0.44497902232E+03  0.74624399801E+03  0.00000000000E+00 0. -1.
          2    1    6    6  502    0 -0.22581190842E+03  0.43515864362E+03  0.40821279564E+03  0.63795905011E+03  0.00000000000E+00 0. -1.
          3    1    5    5  503    0 -0.32881956729E+01 -0.23754359816E+02  0.19620457621E+03  0.19766465938E+03  0.00000000000E+00 0. -1.
         -4    1    5    5    0  503  0.16307364264E+02  0.56468644453E+02  0.51021510784E+03  0.51358942182E+03  0.00000000000E+00 0.  1.
         -1    1    6    6    0  502 -0.30546952858E+03  0.60947109013E+03  0.44954309146E+03  0.81661229092E+03  0.00000000000E+00 0.  1.
<mgrwt>
<rscale>  0 0.27044781E+04</rscale>
<asrwt>0</asrwt>
<pdfrwt beam="1">  1        2 0.48488447E+00 0.27044781E+04</pdfrwt>
<pdfrwt beam="2">  1       -2 0.89256934E-01 0.27044781E+04</pdfrwt>
<totfact> 0.13164809E+00</totfact>
</mgrwt>
</event>
<event>
12    1  0.2588309E-007  0.2481142E+04  0.7818608E-02  0.8409735E-01
         -2   -1    0    0    0  501 -0.00000000000E+00  0.00000000000E+00  0.61113584263E+03  0.61113584263E+03  0.00000000000E+00 0.  1.
          2   -1    0    0  501    0  0.00000000000E+00 -0.00000000000E+00 -0.25182876548E+04  0.25182876548E+04  0.00000000000E+00 0. -1.
         23    2    1    2    0    0 -0.33016612583E+03  0.82327556958E+03 -0.15940059457E+04  0.18268218190E+04  0.98135973458E+02 0.  0.
        254    2    1    2    0    0  0.33016612583E+03 -0.82327556958E+03 -0.31314586652E+03  0.13026016785E+04  0.90106518354E+03 0.  0.
        -24    2    4    4    0    0  0.14201129473E+03 -0.14399699090E+02  0.24784366697E+03  0.29737665540E+03  0.81436065428E+02 0.  0.
         24    2    4    4    0    0  0.18815483110E+03 -0.80887587049E+03 -0.56098953349E+03  0.10052250231E+04  0.78010743161E+02 0.  0.
         13    1    3    3    0    0 -0.19006057345E+03  0.53155398375E+03 -0.92494059609E+03  0.10835994488E+04  0.00000000000E+00 0.  1.
        -13    1    3    3    0    0 -0.14010555238E+03  0.29172158583E+03 -0.66906534957E+03  0.74322237012E+03  0.00000000000E+00 0. -1.
          4    1    6    6  502    0  0.15413408859E+03 -0.67083159475E+03 -0.49880284670E+03  0.85004507272E+03  0.00000000000E+00 0. -1.
          3    1    5    5  503    0  0.14994159656E+03 -0.11396356569E+02  0.20813920053E+03  0.25677672426E+03  0.00000000000E+00 0. -1.
         -4    1    5    5    0  503 -0.79303018283E+01 -0.30033425213E+01  0.39704466439E+02  0.40599931140E+02  0.00000000000E+00 0.  1.
         -3    1    6    6    0  502  0.34020742505E+02 -0.13804427574E+03 -0.62186686795E+02  0.15517995038E+03  0.00000000000E+00 0.  1.
<mgrwt>
<rscale>  0 0.24811416E+04</rscale>
<asrwt>0</asrwt>
<pdfrwt beam="1">  1        2 0.38742888E+00 0.24811416E+04</pdfrwt>
<pdfrwt beam="2">  1       -2 0.94020898E-01 0.24811416E+04</pdfrwt>
<totfact> 0.28969351E+00</totfact>
</mgrwt>
</event>
<event>
12    1  0.2588309E-007  0.4414661E+04  0.7818608E-02  0.7925750E-01
         -2   -1    0    0    0  501 -0.00000000000E+00  0.00000000000E+00  0.10706031391E+04  0.10706031391E+04  0.00000000000E+00 0. -1.
          2   -1    0    0  501    0  0.00000000000E+00 -0.00000000000E+00 -0.45509934278E+04  0.45509934278E+04  0.00000000000E+00 0.  1.
         23    2    1    2    0    0 -0.19197165660E+04 -0.67516945614E+03 -0.24010062571E+04  0.31487331928E+04  0.92326510912E+02 0.  0.
        254    2    1    2    0    0  0.19197165660E+04  0.67516945614E+03 -0.10793840316E+04  0.24728633741E+04  0.89934303292E+03 0.  0.
        -24    2    4    4    0    0  0.91293140096E+03 -0.23633741877E+02 -0.14229568312E+03  0.92811874712E+03  0.84581621556E+02 0.  0.
         24    2    4    4    0    0  0.10067851650E+04  0.69880319802E+03 -0.93708834853E+03  0.15447446270E+04  0.78480007084E+02 0.  0.
         11    1    3    3    0    0 -0.16030026237E+04 -0.55992840139E+03 -0.19489368056E+04  0.25848581970E+04  0.00000000000E+00 0. -1.
        -11    1    3    3    0    0 -0.31671394226E+03 -0.11524105475E+03 -0.45206945146E+03  0.56387499578E+03  0.00000000000E+00 0.  1.
          2    1    6    6  502    0  0.71065252846E+03  0.53313019151E+03 -0.66216759633E+03  0.11080256057E+04  0.00000000000E+00 0. -1.
          3    1    5    5  503    0  0.90066223594E+03 -0.12931736336E+02 -0.14165301336E+03  0.91182524052E+03  0.00000000000E+00 0. -1.
         -2    1    5    5    0  503  0.12269165018E+02 -0.10702005541E+02 -0.64266975844E+00  0.16293506598E+02  0.00000000000E+00 0.  1.
         -1    1    6    6    0  502  0.29613263658E+03  0.16567300650E+03 -0.27492075220E+03  0.43671902125E+03  0.00000000000E+00 0.  1.
<mgrwt>
<rscale>  0 0.44146610E+04</rscale>
<asrwt>0</asrwt>
<pdfrwt beam="1">  1        2 0.70015284E+00 0.44146610E+04</pdfrwt>
<pdfrwt beam="2">  1       -2 0.16470818E+00 0.44146610E+04</pdfrwt>
<totfact> 0.19273976E-02</totfact>
</mgrwt>
</event>
<event>
12    1  0.2588309E-007  0.2089584E+04  0.7818608E-02  0.8565845E-01
          3   -1    0    0  501    0  0.00000000000E+00  0.00000000000E+00  0.13668771577E+04  0.13668771577E+04  0.00000000000E+00 0. -1.
         -3   -1    0    0    0  501 -0.00000000000E+00 -0.00000000000E+00 -0.79860184986E+03  0.79860184986E+03  0.00000000000E+00 0.  1.
         23    2    1    2    0    0 -0.20162842836E+03  0.75480748563E+03 -0.11097710258E+03  0.79414528846E+03  0.89232608367E+02 0.  0.
        254    2    1    2    0    0  0.20162842836E+03 -0.75480748563E+03  0.67925241039E+03  0.13713337191E+04  0.89932417323E+03 0.  0.
        -24    2    4    4    0    0  0.19819866004E+03 -0.22375789998E+02 -0.15003955288E+03  0.26208109052E+03  0.79945267261E+02 0.  0.
         24    2    4    4    0    0  0.34297683130E+01 -0.73243169563E+03  0.82929196326E+03  0.11092526286E+04  0.79046072251E+02 0.  0.
         11    1    3    3    0    0 -0.13364967051E+03  0.34374570462E+03 -0.33216945766E+02  0.37030623726E+03  0.00000000000E+00 0. -1.
        -11    1    3    3    0    0 -0.67978757845E+02  0.41106178102E+03 -0.77760156818E+02  0.42383905120E+03  0.00000000000E+00 0.  1.
          2    1    6    6  502    0  0.10822780539E+02 -0.27220533027E+03  0.36519526197E+03  0.45560997989E+03  0.00000000000E+00 0. -1.
          1    1    5    5  503    0  0.12608426955E+03 -0.51995845497E+02 -0.86451386917E+02  0.16147647902E+03  0.00000000000E+00 0. -1.
         -4    1    5    5    0  503  0.72114390494E+02  0.29620055499E+02 -0.63588165960E+02  0.10060461150E+03  0.00000000000E+00 0.  1.
         -1    1    6    6    0  502 -0.73930122259E+01 -0.46022636536E+03  0.46409670129E+03  0.65364264866E+03  0.00000000000E+00 0.  1.
<mgrwt>
<rscale>  0 0.20895843E+04</rscale>
<asrwt>0</asrwt>
<pdfrwt beam="1">  1        3 0.21028879E+00 0.20895843E+04</pdfrwt>
<pdfrwt beam="2">  1       -3 0.12286182E+00 0.20895843E+04</pdfrwt>
<totfact> 0.16337735E-01</totfact>
</mgrwt>
</event>
<event>
12    1  0.2588309E-007  0.1513324E+04  0.7818608E-02  0.8875641E-01
         -2   -1    0    0    0  501 -0.00000000000E+00  0.00000000000E+00  0.19599079024E+03  0.19599079024E+03  0.00000000000E+00 0.  1.
          2   -1    0    0  501    0  0.00000000000E+00 -0.00000000000E+00 -0.29212458568E+04  0.29212458568E+04  0.00000000000E+00 0. -1.
         23    2    1    2    0    0  0.44423589962E+03 -0.20538933916E+01 -0.12788134181E+04  0.13568163512E+04  0.90758467232E+02 0.  0.
        254    2    1    2    0    0 -0.44423589962E+03  0.20538933916E+01 -0.14464416484E+04  0.17604202959E+04  0.89974242030E+03 0.  0.
        -24    2    4    4    0    0 -0.11815686648E+03 -0.37838466811E+03 -0.10237288910E+04  0.11007440948E+04  0.80502905410E+02 0.  0.
         24    2    4    4    0    0 -0.32607903313E+03  0.38043856150E+03 -0.42271275737E+03  0.65967620105E+03  0.73658536963E+02 0.  0.
         13    1    3    3    0    0  0.17871717789E+03  0.12938562957E+02 -0.39254947636E+03  0.43151167710E+03  0.00000000000E+00 0.  1.
        -13    1    3    3    0    0  0.26551872172E+03 -0.14992456348E+02 -0.88626394178E+03  0.92530467406E+03  0.00000000000E+00 0. -1.
          4    1    6    6  502    0 -0.41680220216E+02  0.17141914459E+02 -0.38176234406E+02  0.59063617075E+02  0.00000000000E+00 0. -1.
          3    1    5    5  503    0  0.37600276532E+01 -0.56926534626E+02 -0.20425703973E+03  0.21207476614E+03  0.00000000000E+00 0. -1.
         -4    1    5    5    0  503 -0.12191689414E+03 -0.32145813348E+03 -0.81947185132E+03  0.88866932869E+03  0.00000000000E+00 0.  1.
         -3    1    6    6    0  502 -0.28439881292E+03  0.36329664704E+03 -0.38453652297E+03  0.60061258398E+03  0.00000000000E+00 0.  1.
<mgrwt>
<rscale>  0 0.15133239E+04</rscale>
<asrwt>0</asrwt>
<pdfrwt beam="1">  1        2 0.44942242E+00 0.15133239E+04</pdfrwt>
<pdfrwt beam="2">  1       -2 0.30152431E-01 0.15133239E+04</pdfrwt>
<totfact> 0.19232758E+01</totfact>
</mgrwt>
</event>
<event>
12    1  0.2588309E-007  0.2046044E+04  0.7818608E-02  0.8585391E-01
         -1   -1    0    0    0  501 -0.00000000000E+00  0.00000000000E+00  0.43365423171E+03  0.43365423171E+03  0.00000000000E+00 0.  1.
          1   -1    0    0  501    0  0.00000000000E+00 -0.00000000000E+00 -0.24133841535E+04  0.24133841535E+04  0.00000000000E+00 0. -1.
         23    2    1    2    0    0  0.16791322286E+01  0.81952707423E+03 -0.67619391215E+03  0.10663797806E+04  0.91105349292E+02 0.  0.
        254    2    1    2    0    0 -0.16791322286E+01 -0.81952707423E+03 -0.13035360097E+04  0.17806586047E+04  0.89437771275E+03 0.  0.
        -24    2    4    4    0    0  0.64805154262E+02 -0.10142618665E+00  0.10544153302E+03  0.14727213365E+03  0.79821338986E+02 0.  0.
         24    2    4    4    0    0 -0.66484286491E+02 -0.81942564804E+03 -0.14089775427E+04  0.16333864710E+04  0.82795500812E+02 0.  0.
         11    1    3    3    0    0  0.35848871172E+02  0.63938519042E+03 -0.50534910741E+03  0.81576729749E+03  0.00000000000E+00 0.  1.
        -11    1    3    3    0    0 -0.34169738943E+02  0.18014188380E+03 -0.17084480475E+03  0.25061248307E+03  0.00000000000E+00 0. -1.
          4    1    6    6  502    0 -0.68868673593E+02 -0.61687598585E+03 -0.11197242151E+04  0.12802582529E+04  0.00000000000E+00 0. -1.
          1    1    5    5  503    0  0.25251663540E+02  0.34215423441E+02  0.76284955897E+02  0.87336912065E+02  0.00000000000E+00 0. -1.
         -2    1    5    5    0  503  0.39553490722E+02 -0.34316849628E+02  0.29156577122E+02  0.59935221583E+02  0.00000000000E+00 0.  1.
         -3    1    6    6    0  502  0.23843871023E+01 -0.20254966219E+03 -0.28925332755E+03  0.35312821815E+03  0.00000000000E+00 0.  1.
<mgrwt>
<rscale>  0 0.20460442E+04</rscale>
<asrwt>0</asrwt>
<pdfrwt beam="1">  1        1 0.37128986E+00 0.20460442E+04</pdfrwt>
<pdfrwt beam="2">  1       -1 0.66716037E-01 0.20460442E+04</pdfrwt>
<totfact> 0.32718663E+00</totfact>
</mgrwt>
</event>
<event>
12    1  0.2588309E-007  0.2340540E+04  0.7818608E-02  0.8462106E-01
         -2   -1    0    0    0  501 -0.00000000000E+00  0.00000000000E+00  0.72558870937E+03  0.72558870937E+03  0.00000000000E+00 0.  1.
          2   -1    0    0  501    0  0.00000000000E+00 -0.00000000000E+00 -0.18874769632E+04  0.18874769632E+04  0.00000000000E+00 0. -1.
         23    2    1    2    0    0 -0.38235636972E+03  0.58188593759E+03  0.29796195900E+03  0.76291928984E+03  0.92069951491E+02 0.  0.
        254    2    1    2    0    0  0.38235636972E+03 -0.58188593759E+03 -0.14598502129E+04  0.18501463828E+04  0.89838263330E+03 0.  0.
        -24    2    4    4    0    0  0.46284477217E+03 -0.24947590841E+03 -0.24611363689E+03  0.58614938499E+03  0.80843473848E+02 0.  0.
         24    2    4    4    0    0 -0.80488402446E+02 -0.33241002918E+03 -0.12137365760E+04  0.12639969978E+04  0.86931720797E+02 0.  0.
         13    1    3    3    0    0 -0.28028480171E+03  0.42541464589E+03  0.17241483297E+03  0.53783274876E+03  0.00000000000E+00 0. -1.
        -13    1    3    3    0    0 -0.10207156801E+03  0.15647129170E+03  0.12554712603E+03  0.22508654108E+03  0.00000000000E+00 0.  1.
          4    1    6    6  502    0 -0.61400627600E+02 -0.23681540587E+03 -0.99301483136E+03  0.10227072058E+04  0.00000000000E+00 0. -1.
          1    1    5    5  503    0  0.43245331153E+03 -0.24601390376E+03 -0.21341161020E+03  0.54137161254E+03  0.00000000000E+00 0. -1.
         -2    1    5    5    0  503  0.30391460637E+02 -0.34620046451E+01 -0.32702026692E+02  0.44777772450E+02  0.00000000000E+00 0.  1.
         -3    1    6    6    0  502 -0.19087774845E+02 -0.95594623318E+02 -0.22072174463E+03  0.24128979197E+03  0.00000000000E+00 0.  1.
<mgrwt>
<rscale>  0 0.23405401E+04</rscale>
<asrwt>0</asrwt>
<pdfrwt beam="1">  1        2 0.29038107E+00 0.23405401E+04</pdfrwt>
<pdfrwt beam="2">  1       -2 0.11162903E+00 0.23405401E+04</pdfrwt>
<totfact> 0.44204348E+00</totfact>
</mgrwt>
</event>
<event>
12    1  0.2588309E-007  0.1506176E+04  0.7818608E-02  0.8880356E-01
          1   -1    0    0  501    0  0.00000000000E+00  0.00000000000E+00  0.13730293968E+04  0.13730293968E+04  0.00000000000E+00 0. -1.
         -1   -1    0    0    0  501 -0.00000000000E+00 -0.00000000000E+00 -0.41305877904E+03  0.41305877904E+03  0.00000000000E+00 0.  1.
         23    2    1    2    0    0 -0.39291694725E+03  0.20446047318E+03  0.52369416686E+03  0.69213364529E+03  0.92766319372E+02 0.  0.
        254    2    1    2    0    0  0.39291694725E+03 -0.20446047318E+03  0.43627645090E+03  0.10939545305E+04  0.90011752609E+03 0.  0.
        -24    2    4    4    0    0  0.66395892264E+03 -0.25121810923E+03  0.27861213902E+03  0.76684025134E+03  0.80419262035E+02 0.  0.
         24    2    4    4    0    0 -0.27104197539E+03  0.46757636044E+02  0.15766431188E+03  0.32711427921E+03  0.80595827890E+02 0.  0.
         13    1    3    3    0    0 -0.21160862736E+03  0.14919957484E+03  0.25581020692E+03  0.36397470553E+03  0.00000000000E+00 0.  1.
        -13    1    3    3    0    0 -0.18130831990E+03  0.55260898338E+02  0.26788395994E+03  0.32815893976E+03  0.00000000000E+00 0. -1.
          4    1    6    6  502    0 -0.87566247193E+02  0.23439042759E+02  0.11492897289E+02  0.91374630292E+02  0.00000000000E+00 0. -1.
          3    1    5    5  503    0  0.15273858294E+03 -0.24312947702E+02  0.49108340788E+02  0.16227083311E+03  0.00000000000E+00 0. -1.
         -4    1    5    5    0  503  0.51122033970E+03 -0.22690516152E+03  0.22950379823E+03  0.60456941823E+03  0.00000000000E+00 0.  1.
         -3    1    6    6    0  502 -0.18347572820E+03  0.23318593286E+02  0.14617141459E+03  0.23573964892E+03  0.00000000000E+00 0.  1.
<mgrwt>
<rscale>  0 0.15061764E+04</rscale>
<asrwt>0</asrwt>
<pdfrwt beam="1">  1        1 0.21123529E+00 0.15061764E+04</pdfrwt>
<pdfrwt beam="2">  1       -1 0.63547505E-01 0.15061764E+04</pdfrwt>
<totfact> 0.19489612E+01</totfact>
</mgrwt>
</event>
<event>
12    1  0.2588309E-007  0.2604061E+04  0.7818608E-02  0.8366823E-01
         -3   -1    0    0    0  501 -0.00000000000E+00  0.00000000000E+00  0.24834939109E+04  0.24834939109E+04  0.00000000000E+00 0.  1.
          3   -1    0    0  501    0  0.00000000000E+00 -0.00000000000E+00 -0.68262045167E+03  0.68262045167E+03  0.00000000000E+00 0. -1.
         23    2    1    2    0    0  0.52142027378E+03  0.77879126628E+03  0.80893760655E+01  0.94163150549E+03  0.90606378260E+02 0.  0.
        254    2    1    2    0    0 -0.52142027378E+03 -0.77879126628E+03  0.17927840832E+04  0.22244828571E+04  0.92512392377E+03 0.  0.
        -24    2    4    4    0    0 -0.66016569641E+03 -0.42765864570E+03  0.16179534170E+04  0.18007261038E+04  0.78298002718E+02 0.  0.
         24    2    4    4    0    0  0.13874542264E+03 -0.35113262058E+03  0.17483066618E+03  0.42375675334E+03  0.80371727813E+02 0.  0.
         11    1    3    3    0    0  0.29501633315E+03  0.44743940383E+03 -0.40058914260E+02  0.53743964642E+03  0.00000000000E+00 0. -1.
        -11    1    3    3    0    0  0.22640394063E+03  0.33135186244E+03  0.48148290325E+02  0.40419185907E+03  0.00000000000E+00 0.  1.
          2    1    6    6  502    0  0.87736546386E+02 -0.28835768813E+03  0.16094015695E+03  0.34168639422E+03  0.00000000000E+00 0. -1.
          1    1    5    5  503    0 -0.38426800748E+03 -0.24845123103E+03  0.10279317048E+04  0.11251815433E+04  0.00000000000E+00 0. -1.
         -2    1    5    5    0  503 -0.27589768893E+03 -0.17920741467E+03  0.59002171222E+03  0.67554456043E+03  0.00000000000E+00 0.  1.
         -1    1    6    6    0  502  0.51008876249E+02 -0.62774932447E+02  0.13890509226E+02  0.82070359122E+02  0.00000000000E+00 0.  1.
<mgrwt>
<rscale>  0 0.26040612E+04</rscale>
<asrwt>0</asrwt>
<pdfrwt beam="1">  1        3 0.10501853E+00 0.26040612E+04</pdfrwt>
<pdfrwt beam="2">  1       -3 0.38207598E+00 0.26040612E+04</pdfrwt>
<totfact> 0.23848838E-02</totfact>
</mgrwt>
</event>
<event>
12    1  0.2588309E-007  0.1011896E+04  0.7818608E-02  0.9295593E-01
          2   -1    0    0  501    0  0.00000000000E+00  0.00000000000E+00  0.38322206536E+03  0.38322206536E+03  0.00000000000E+00 0. -1.
         -2   -1    0    0    0  501 -0.00000000000E+00 -0.00000000000E+00 -0.66797669102E+03  0.66797669102E+03  0.00000000000E+00 0.  1.
         23    2    1    2    0    0  0.66767476310E+02  0.28034573675E+02 -0.27526129997E+02  0.11776977678E+03  0.88702870732E+02 0.  0.
        254    2    1    2    0    0 -0.66767476310E+02 -0.28034573675E+02 -0.25722849566E+03  0.93342897960E+03  0.89435973063E+03 0.  0.
        -24    2    4    4    0    0  0.17641651883E+03 -0.35397897821E+03  0.63429921722E+02  0.40816513504E+03  0.78431609435E+02 0.  0.
         24    2    4    4    0    0 -0.24318399514E+03  0.32594440454E+03 -0.32065841738E+03  0.52526384457E+03  0.87761468938E+02 0.  0.
         13    1    3    3    0    0  0.88210295853E+02  0.29444222406E+02 -0.21415029427E+02  0.95428622608E+02  0.00000000000E+00 0. -1.
        -13    1    3    3    0    0 -0.21442819543E+02 -0.14096487306E+01 -0.61111005707E+01  0.22341154171E+02  0.00000000000E+00 0.  1.
          4    1    6    6  502    0 -0.20339691929E+03  0.30748153588E+03 -0.30569271438E+03  0.47891882121E+03  0.00000000000E+00 0. -1.
          3    1    5    5  503    0  0.18071246279E+03 -0.35467368977E+03  0.65388050907E+02  0.40339313036E+03  0.00000000000E+00 0. -1.
         -4    1    5    5    0  503 -0.42959439665E+01  0.69471155481E+00 -0.19581291853E+01  0.47720046745E+01  0.00000000000E+00 0.  1.
         -3    1    6    6    0  502 -0.39787075846E+02  0.18462868658E+02 -0.14965702999E+02  0.46345023355E+02  0.00000000000E+00 0.  1.
<mgrwt>
<rscale>  0 0.10118961E+04</rscale>
<asrwt>0</asrwt>
<pdfrwt beam="1">  1        2 0.58957241E-01 0.10118961E+04</pdfrwt>
<pdfrwt beam="2">  1       -2 0.10276564E+00 0.10118961E+04</pdfrwt>
<totfact> 0.64461694E+01</totfact>
</mgrwt>
</event>
<event>
12    1  0.2588309E-007  0.4146319E+04  0.7818608E-02  0.7975663E-01
          1   -1    0    0  501    0  0.00000000000E+00  0.00000000000E+00  0.26867150142E+04  0.26867150142E+04  0.00000000000E+00 0. -1.
         -1   -1    0    0    0  501 -0.00000000000E+00 -0.00000000000E+00 -0.15997194330E+04  0.15997194330E+04  0.00000000000E+00 0.  1.
         23    2    1    2    0    0  0.49904299274E+03  0.11854612388E+03 -0.14528928318E+04  0.15434150267E+04  0.90195741329E+02 0.  0.
        254    2    1    2    0    0 -0.49904299274E+03 -0.11854612388E+03  0.25398884130E+04  0.27430194205E+04  0.90001405473E+03 0.  0.
        -24    2    4    4    0    0 -0.48391401246E+03 -0.37428975627E+03  0.96432974877E+03  0.11447884520E+04  0.79643846810E+02 0.  0.
         24    2    4    4    0    0 -0.15128980274E+02  0.25574363239E+03  0.15755586643E+04  0.15982309686E+04  0.79520014795E+02 0.  0.
         13    1    3    3    0    0  0.21557342794E+03  0.96190185317E+02 -0.62941976762E+03  0.67223039090E+03  0.00000000000E+00 0. -1.
        -13    1    3    3    0    0  0.28346956480E+03  0.22355938560E+02 -0.82347306418E+03  0.87118463576E+03  0.00000000000E+00 0.  1.
          4    1    6    6  502    0  0.33716400946E+00  0.28486058818E+02  0.70586489247E+02  0.76118471417E+02  0.00000000000E+00 0. -1.
          1    1    5    5  503    0 -0.27523238326E+03 -0.17029990673E+03  0.54621971999E+03  0.63491015548E+03  0.00000000000E+00 0. -1.
         -2    1    5    5    0  503 -0.20868162920E+03 -0.20398984954E+03  0.41811002878E+03  0.50987829651E+03  0.00000000000E+00 0.  1.
         -3    1    6    6    0  502 -0.15466144284E+02  0.22725757357E+03  0.15049721750E+04  0.15221124971E+04  0.00000000000E+00 0.  1.
<mgrwt>
<rscale>  0 0.41463190E+04</rscale>
<asrwt>0</asrwt>
<pdfrwt beam="1">  1        1 0.41334077E+00 0.41463190E+04</pdfrwt>
<pdfrwt beam="2">  1       -1 0.24611068E+00 0.41463190E+04</pdfrwt>
<totfact> 0.57328390E-02</totfact>
</mgrwt>
</event>
<event>
12    1  0.2588309E-007  0.1449801E+04  0.7818608E-02  0.8918539E-01
         -3   -1    0    0    0  501 -0.00000000000E+00  0.00000000000E+00  0.39443661973E+03  0.39443661973E+03  0.00000000000E+00 0.  1.
          3   -1    0    0  501    0  0.00000000000E+00 -0.00000000000E+00 -0.13322304233E+04  0.13322304233E+04  0.00000000000E+00 0. -1.
         23    2    1    2    0    0 -0.10255020050E+03 -0.39548250071E+03 -0.48016385629E+03  0.63670659694E+03  0.88966340338E+02 0.  0.
        254    2    1    2    0    0  0.10255020050E+03  0.39548250071E+03 -0.45762994729E+03  0.10899604461E+04  0.90092488778E+03 0.  0.
        -24    2    4    4    0    0  0.48198846131E+03  0.27585779957E+03 -0.15022952789E+03  0.58083159082E+03  0.79912598660E+02 0.  0.
         24    2    4    4    0    0 -0.37943826081E+03  0.11962470113E+03 -0.30740041940E+03  0.50912885528E+03  0.80210414163E+02 0.  0.
         11    1    3    3    0    0 -0.10500228948E+03 -0.32359004238E+03 -0.35067434173E+03  0.48857802884E+03  0.00000000000E+00 0.  1.
        -11    1    3    3    0    0  0.24520889801E+01 -0.71892458328E+02 -0.12948951457E+03  0.14812856810E+03  0.00000000000E+00 0. -1.
          2    1    6    6  502    0 -0.37552709040E+03  0.10902490371E+03 -0.30807194616E+03  0.49781055560E+03  0.00000000000E+00 0. -1.
          3    1    5    5  503    0  0.44418861556E+03  0.22992056105E+03 -0.14670053920E+03  0.52123702745E+03  0.00000000000E+00 0. -1.
         -4    1    5    5    0  503  0.37799845756E+02  0.45937238526E+02 -0.35289886890E+01  0.59594563375E+02  0.00000000000E+00 0.  1.
         -1    1    6    6    0  502 -0.39111704141E+01  0.10599797426E+02  0.67152676233E+00  0.11318299682E+02  0.00000000000E+00 0.  1.
<mgrwt>
<rscale>  0 0.14498006E+04</rscale>
<asrwt>0</asrwt>
<pdfrwt beam="1">  1        3 0.20495852E+00 0.14498006E+04</pdfrwt>
<pdfrwt beam="2">  1       -3 0.60682558E-01 0.14498006E+04</pdfrwt>
<totfact> 0.92420093E-01</totfact>
</mgrwt>
</event>
<event>
12    1  0.2588309E-007  0.3598980E+04  0.7818608E-02  0.8090725E-01
         -2   -1    0    0    0  501 -0.00000000000E+00  0.00000000000E+00  0.93037967081E+03  0.93037967081E+03  0.00000000000E+00 0.  1.
          2   -1    0    0  501    0  0.00000000000E+00 -0.00000000000E+00 -0.34804767389E+04  0.34804767389E+04  0.00000000000E+00 0. -1.
         23    2    1    2    0    0 -0.15538750733E+04  0.23183744780E+02 -0.19953310445E+04  0.25308107790E+04  0.92693000970E+02 0.  0.
        254    2    1    2    0    0  0.15538750733E+04 -0.23183744780E+02 -0.55476602362E+03  0.18800456308E+04  0.90096670498E+03 0.  0.
        -24    2    4    4    0    0  0.50869656774E+03 -0.22540230461E+03  0.17326752570E+03  0.58789718956E+03  0.77608460084E+02 0.  0.
         24    2    4    4    0    0  0.10451785055E+04  0.20221855983E+03 -0.72803354932E+03  0.12921484412E+04  0.79525410125E+02 0.  0.
         13    1    3    3    0    0 -0.11129985153E+03  0.22140558882E+02 -0.16684196037E+03  0.20177735512E+03  0.00000000000E+00 0. -1.
        -13    1    3    3    0    0 -0.14425752217E+04  0.10431858981E+01 -0.18284890841E+04  0.23290334239E+04  0.00000000000E+00 0.  1.
          2    1    6    6  502    0  0.54530402329E+03  0.98849498164E+02 -0.42632573307E+03  0.69920049470E+03  0.00000000000E+00 0. -1.
          1    1    5    5  503    0  0.23077731595E+03 -0.66051387251E+02  0.94646438486E+02  0.25802888139E+03  0.00000000000E+00 0. -1.
         -4    1    5    5    0  503  0.27791925179E+03 -0.15935091735E+03  0.78621087211E+02  0.32986830817E+03  0.00000000000E+00 0.  1.
         -1    1    6    6    0  502  0.49987448224E+03  0.10336906166E+03 -0.30170781625E+03  0.59294794653E+03  0.00000000000E+00 0.  1.
<mgrwt>
<rscale>  0 0.35989803E+04</rscale>
<asrwt>0</asrwt>
<pdfrwt beam="1">  1        2 0.53545796E+00 0.35989803E+04</pdfrwt>
<pdfrwt beam="2">  1       -2 0.14313533E+00 0.35989803E+04</pdfrwt>
<totfact> 0.23142724E-01</totfact>
</mgrwt>
</event>
<event>
12    1  0.2588309E-007  0.2007078E+04  0.7818608E-02  0.8603319E-01
         -2   -1    0    0    0  501 -0.00000000000E+00  0.00000000000E+00  0.16057207851E+04  0.16057207851E+04  0.00000000000E+00 0.  1.
          2   -1    0    0  501    0  0.00000000000E+00 -0.00000000000E+00 -0.62718883385E+03  0.62718883385E+03  0.00000000000E+00 0. -1.
         23    2    1    2    0    0  0.49060560982E+03 -0.32299374328E+03  0.99367596053E+03  0.11578741511E+04  0.90894514489E+02 0.  0.
        254    2    1    2    0    0 -0.49060560982E+03  0.32299374328E+03 -0.15144009259E+02  0.10750354678E+04  0.90025168341E+03 0.  0.
        -24    2    4    4    0    0 -0.84648539709E+01  0.53042031236E+03 -0.71538724946E+02  0.54133551125E+03  0.80678281137E+02 0.  0.
         24    2    4    4    0    0 -0.48214075585E+03 -0.20742656908E+03  0.56394715687E+02  0.53369995659E+03  0.78548008792E+02 0.  0.
         11    1    3    3    0    0  0.45124919625E+03 -0.26414461203E+03  0.85601301679E+03  0.10030735258E+04  0.00000000000E+00 0.  1.
        -11    1    3    3    0    0  0.39356413579E+02 -0.58849131251E+02  0.13766294374E+03  0.15480062538E+03  0.00000000000E+00 0. -1.
          2    1    6    6  502    0 -0.27335830102E+03 -0.87635524543E+02  0.26926446331E+01  0.28707489655E+03  0.00000000000E+00 0. -1.
          3    1    5    5  503    0  0.12716831377E+02  0.22405333708E+03  0.63863541976E+01  0.22450479099E+03  0.00000000000E+00 0. -1.
         -4    1    5    5    0  503 -0.21181685347E+02  0.30636697529E+03 -0.77925079144E+02  0.31683072026E+03  0.00000000000E+00 0.  1.
         -1    1    6    6    0  502 -0.20878245484E+03 -0.11979104454E+03  0.53702071054E+02  0.24662506003E+03  0.00000000000E+00 0.  1.
<mgrwt>
<rscale>  0 0.20070776E+04</rscale>
<asrwt>0</asrwt>
<pdfrwt beam="1">  1        2 0.96490590E-01 0.20070776E+04</pdfrwt>
<pdfrwt beam="2">  1       -2 0.24703397E+00 0.20070776E+04</pdfrwt>
<totfact> 0.29234871E+00</totfact>
</mgrwt>
</event>
<event>
12    1  0.2588309E-007  0.1277109E+04  0.7818608E-02  0.9047918E-01
         -2   -1    0    0    0  501 -0.00000000000E+00  0.00000000000E+00  0.44602732758E+03  0.44602732758E+03  0.00000000000E+00 0. -1.
          2   -1    0    0  501    0  0.00000000000E+00 -0.00000000000E+00 -0.91418560919E+03  0.91418560919E+03  0.00000000000E+00 0.  1.
         23    2    1    2    0    0  0.12628825248E+03 -0.27187632877E+03 -0.21183396137E+03  0.37786412544E+03  0.89678365521E+02 0.  0.
        254    2    1    2    0    0 -0.12628825248E+03  0.27187632877E+03 -0.25632432024E+03  0.98234881134E+03  0.89968970714E+03 0.  0.
        -24    2    4    4    0    0  0.10714842315E+03 -0.17468330107E+03 -0.39658045589E+03  0.45364590380E+03  0.80768234976E+02 0.  0.
         24    2    4    4    0    0 -0.23343667563E+03  0.44655962984E+03  0.14025613565E+03  0.52870290754E+03  0.77115473921E+02 0.  0.
         13    1    3    3    0    0  0.28339086737E+02 -0.14959139629E+03 -0.74429064440E+02  0.16947086863E+03  0.00000000000E+00 0. -1.
        -13    1    3    3    0    0  0.97949165744E+02 -0.12228493248E+03 -0.13740489693E+03  0.20839325680E+03  0.00000000000E+00 0.  1.
          4    1    6    6  502    0 -0.97703919447E+02  0.11672315245E+03  0.56181297832E+02  0.16225501046E+03  0.00000000000E+00 0. -1.
          1    1    5    5  503    0  0.13152406633E+02 -0.63478556356E+01 -0.92141667316E+02  0.93291842768E+02  0.00000000000E+00 0. -1.
         -2    1    5    5    0  503  0.93996016517E+02 -0.16833544544E+03 -0.30443878857E+03  0.36035406103E+03  0.00000000000E+00 0.  1.
         -3    1    6    6    0  502 -0.13573275618E+03  0.32983647739E+03  0.84074837816E+02  0.36644789708E+03  0.00000000000E+00 0.  1.
<mgrwt>
<rscale>  0 0.12771089E+04</rscale>
<asrwt>0</asrwt>
<pdfrwt beam="1">  1        2 0.14064394E+00 0.12771089E+04</pdfrwt>
<pdfrwt beam="2">  1       -2 0.68619590E-01 0.12771089E+04</pdfrwt>
<totfact> 0.54684356E+01</totfact>
</mgrwt>
</event>
<event>
12    1  0.2588309E-007  0.3031557E+04  0.7818608E-02  0.8234776E-01
         -2   -1    0    0    0  501 -0.00000000000E+00  0.00000000000E+00  0.95780751380E+03  0.95780751380E+03  0.00000000000E+00 0.  1.
          2   -1    0    0  501    0  0.00000000000E+00 -0.00000000000E+00 -0.23987963140E+04  0.23987963140E+04  0.00000000000E+00 0. -1.
         23    2    1    2    0    0 -0.11838180115E+04 -0.44192892675E+03 -0.12750803394E+04  0.17974881113E+04  0.91691753676E+02 0.  0.
        254    2    1    2    0    0  0.11838180115E+04  0.44192892675E+03 -0.16590846079E+03  0.15591157165E+04  0.89810352379E+03 0.  0.
        -24    2    4    4    0    0 -0.10185456086E+03 -0.15680871724E+01 -0.14837464101E+03  0.19614512182E+03  0.77981178822E+02 0.  0.
         24    2    4    4    0    0  0.12856725724E+04  0.44349701392E+03 -0.17533819773E+02  0.13629705947E+04  0.87965007133E+02 0.  0.
         11    1    3    3    0    0 -0.69092886871E+03 -0.21082852410E+03 -0.71201759161E+03  0.10142979932E+04  0.00000000000E+00 0. -1.
        -11    1    3    3    0    0 -0.49288914279E+03 -0.23110040265E+03 -0.56306274780E+03  0.78319011813E+03  0.00000000000E+00 0.  1.
          2    1    6    6  502    0  0.10309932026E+04  0.38390789010E+03 -0.36211794073E+02  0.11007468128E+04  0.00000000000E+00 0. -1.
          3    1    5    5  503    0 -0.11490478392E+03  0.13420200474E+01 -0.13342784012E+03  0.17609059857E+03  0.00000000000E+00 0. -1.
         -4    1    5    5    0  503  0.13050223054E+02 -0.29101072198E+01 -0.14946800893E+02  0.20054523248E+02  0.00000000000E+00 0.  1.
         -1    1    6    6    0  502  0.25467936972E+03  0.59589123825E+02  0.18677974301E+02  0.26222378184E+03  0.00000000000E+00 0.  1.
<mgrwt>
<rscale>  0 0.30315574E+04</rscale>
<asrwt>0</asrwt>
<pdfrwt beam="1">  1        2 0.36904558E+00 0.30315574E+04</pdfrwt>
<pdfrwt beam="2">  1       -2 0.14735500E+00 0.30315574E+04</pdfrwt>
<totfact> 0.10675714E+00</totfact>
</mgrwt>
</event>
<event>
12    1  0.2588309E-007  0.1599946E+04  0.7818608E-02  0.8820581E-01
         -2   -1    0    0    0  501 -0.00000000000E+00  0.00000000000E+00  0.49027461572E+03  0.49027461572E+03  0.00000000000E+00 0.  1.
          2   -1    0    0  501    0  0.00000000000E+00 -0.00000000000E+00 -0.13053032908E+04  0.13053032908E+04  0.00000000000E+00 0. -1.
         23    2    1    2    0    0  0.71909750835E+02 -0.48955231789E+03 -0.52838011334E+03  0.72963191597E+03  0.91349353665E+02 0.  0.
        254    2    1    2    0    0 -0.71909750835E+02  0.48955231789E+03 -0.28664856175E+03  0.10659459906E+04  0.89957821928E+03 0.  0.
        -24    2    4    4    0    0  0.35232512574E+03  0.47231589613E+03 -0.14670003666E+03  0.61179743326E+03  0.74564727743E+02 0.  0.
         24    2    4    4    0    0 -0.42423487658E+03  0.17236421754E+02 -0.13994852510E+03  0.45414855729E+03  0.79956223496E+02 0.  0.
         13    1    3    3    0    0  0.98502156448E+01 -0.33066027360E+03 -0.37707171003E+03  0.50161371372E+03  0.00000000000E+00 0.  1.
        -13    1    3    3    0    0  0.62059535190E+02 -0.15889204429E+03 -0.15130840331E+03  0.22801820225E+03  0.00000000000E+00 0. -1.
          2    1    6    6  502    0 -0.29895408749E+03  0.48473346099E+02 -0.10193331522E+03  0.31955220616E+03  0.00000000000E+00 0. -1.
          1    1    5    5  503    0  0.21211987377E+03  0.33081270372E+03 -0.74899036412E+02  0.40005218591E+03  0.00000000000E+00 0. -1.
         -2    1    5    5    0  503  0.14020525197E+03  0.14150319241E+03 -0.71801000246E+02  0.21174524736E+03  0.00000000000E+00 0.  1.
         -1    1    6    6    0  502 -0.12528078908E+03 -0.31236924345E+02 -0.38015209875E+02  0.13459635113E+03  0.00000000000E+00 0.  1.
<mgrwt>
<rscale>  0 0.15999463E+04</rscale>
<asrwt>0</asrwt>
<pdfrwt beam="1">  1        2 0.20081589E+00 0.15999463E+04</pdfrwt>
<pdfrwt beam="2">  1       -2 0.75426864E-01 0.15999463E+04</pdfrwt>
<totfact> 0.24820260E+01</totfact>
</mgrwt>
</event>
<event>
12    1  0.3060166E-007  0.2380924E+04  0.7818608E-02  0.8446680E-01
          1   -1    0    0  501    0  0.00000000000E+00  0.00000000000E+00  0.27967944817E+04  0.27967944817E+04  0.00000000000E+00 0. -1.
         -1   -1    0    0    0  501 -0.00000000000E+00 -0.00000000000E+00 -0.50672275902E+03  0.50672275902E+03  0.00000000000E+00 0.  1.
         23    2    1    2    0    0  0.28247327856E+03 -0.96014746584E+03  0.72297543151E+03  0.12380349131E+04  0.91447592283E+02 0.  0.
        254    2    1    2    0    0 -0.28247327856E+03  0.96014746584E+03  0.15670962911E+04  0.20654823276E+04  0.89930648324E+03 0.  0.
        -24    2    4    4    0    0 -0.12814133850E+03  0.53679978377E+02  0.93113363614E+03  0.94465793626E+03  0.77891113028E+02 0.  0.
         24    2    4    4    0    0 -0.15433194006E+03  0.90646748747E+03  0.63596265501E+03  0.11208243914E+04  0.79354673362E+02 0.  0.
         11    1    3    3    0    0  0.10220983596E+03 -0.46208250365E+03  0.30156813789E+03  0.56116880930E+03  0.00000000000E+00 0.  1.
        -11    1    3    3    0    0  0.18026344260E+03 -0.49806496220E+03  0.42140729363E+03  0.67686610377E+03  0.00000000000E+00 0. -1.
          4    1    6    6  502    0 -0.16006652913E+03  0.88034037875E+03  0.60608255277E+03  0.10807203787E+04  0.00000000000E+00 0. -1.
          1    1    5    5  503    0 -0.12248449680E+03  0.60292885096E+02  0.92196188599E+03  0.93201470115E+03  0.00000000000E+00 0. -1.
         -2    1    5    5    0  503 -0.56568416982E+01 -0.66129067192E+01  0.91717501493E+01  0.12643235111E+02  0.00000000000E+00 0.  1.
         -3    1    6    6    0  502  0.57345890613E+01  0.26127108717E+02  0.29880102243E+02  0.40104012663E+02  0.00000000000E+00 0.  1.
<mgrwt>
<rscale>  0 0.23809237E+04</rscale>
<asrwt>0</asrwt>
<pdfrwt beam="1">  1        1 0.43027606E+00 0.23809237E+04</pdfrwt>
<pdfrwt beam="2">  1       -1 0.77957350E-01 0.23809237E+04</pdfrwt>
<totfact> 0.12393597E+00</totfact>
</mgrwt>
</event>
<event>
12    1  0.2588309E-007  0.1535122E+04  0.7818608E-02  0.8861427E-01
          1   -1    0    0  501    0  0.00000000000E+00  0.00000000000E+00  0.11093876925E+04  0.11093876925E+04  0.00000000000E+00 0. -1.
         -1   -1    0    0    0  501 -0.00000000000E+00 -0.00000000000E+00 -0.53105868343E+03  0.53105868343E+03  0.00000000000E+00 0.  1.
         23    2    1    2    0    0 -0.12229378087E+03 -0.39198560347E+03  0.49117434122E+03  0.64639126626E+03  0.89224175325E+02 0.  0.
        254    2    1    2    0    0  0.12229378087E+03  0.39198560347E+03  0.87154667845E+02  0.99405510967E+03  0.90107776732E+03 0.  0.
        -24    2    4    4    0    0 -0.26085216747E+02  0.58418568040E+01  0.43800346553E+03  0.44579682229E+03  0.78569746914E+02 0.  0.
         24    2    4    4    0    0  0.14837899762E+03  0.38614374666E+03 -0.35084879768E+03  0.54825828737E+03  0.79805706678E+02 0.  0.
         11    1    3    3    0    0  0.19363523082E+01 -0.13163090300E+03  0.15985974061E+03  0.20708834046E+03  0.00000000000E+00 0. -1.
        -11    1    3    3    0    0 -0.12423013318E+03 -0.26035470046E+03  0.33131460061E+03  0.43930292580E+03  0.00000000000E+00 0.  1.
          4    1    6    6  502    0  0.60387359265E+02  0.10085343572E+03 -0.62227444376E+02  0.13300490025E+03  0.00000000000E+00 0. -1.
          3    1    5    5  503    0  0.10888391745E+02 -0.18913646602E+02  0.42286167814E+02  0.47585744619E+02  0.00000000000E+00 0. -1.
         -4    1    5    5    0  503 -0.36973608491E+02  0.24755503406E+02  0.39571729771E+03  0.39821107767E+03  0.00000000000E+00 0.  1.
         -3    1    6    6    0  502  0.87991638350E+02  0.28529031094E+03 -0.28862135330E+03  0.41525338713E+03  0.00000000000E+00 0.  1.
<mgrwt>
<rscale>  0 0.15351221E+04</rscale>
<asrwt>0</asrwt>
<pdfrwt beam="1">  1        1 0.17067503E+00 0.15351221E+04</pdfrwt>
<pdfrwt beam="2">  1       -1 0.81701336E-01 0.15351221E+04</pdfrwt>
<totfact> 0.17945948E+01</totfact>
</mgrwt>
</event>
<event>
12    1  0.2588309E-007  0.1644696E+04  0.7818608E-02  0.8793550E-01
          2   -1    0    0  501    0  0.00000000000E+00  0.00000000000E+00  0.88336142343E+03  0.88336142343E+03  0.00000000000E+00 0. -1.
         -2   -1    0    0    0  501 -0.00000000000E+00 -0.00000000000E+00 -0.76554892762E+03  0.76554892762E+03  0.00000000000E+00 0.  1.
         23    2    1    2    0    0  0.42883584944E+03  0.35781586737E+03 -0.72234781195E+02  0.57065534958E+03  0.92180712096E+02 0.  0.
        254    2    1    2    0    0 -0.42883584944E+03 -0.35781586737E+03  0.19004727700E+03  0.10782550015E+04  0.90254279676E+03 0.  0.
        -24    2    4    4    0    0  0.31089899265E+02  0.17075773601E+03 -0.19655470942E+03  0.27402666515E+03  0.79574324867E+02 0.  0.
         24    2    4    4    0    0 -0.45992574870E+03 -0.52857360338E+03  0.38660198642E+03  0.80422833631E+03  0.80002328172E+02 0.  0.
         13    1    3    3    0    0  0.38033471786E+03  0.30075709565E+03 -0.32722259510E+02  0.48598361542E+03  0.00000000000E+00 0. -1.
        -13    1    3    3    0    0  0.48501131576E+02  0.57058771725E+02 -0.39512521685E+02  0.84671734155E+02  0.00000000000E+00 0.  1.
          2    1    6    6  502    0 -0.38962692337E+03 -0.48332003863E+03  0.32802934793E+03  0.70214717279E+03  0.00000000000E+00 0. -1.
          1    1    5    5  503    0  0.25505711793E+02  0.15439188234E+03 -0.20234141936E+03  0.25579179943E+03  0.00000000000E+00 0. -1.
         -2    1    5    5    0  503  0.55841874723E+01  0.16365853661E+02  0.57867099448E+01  0.18234865719E+02  0.00000000000E+00 0.  1.
         -1    1    6    6    0  502 -0.70298825336E+02 -0.45253564750E+02  0.58572638495E+02  0.10208116352E+03  0.00000000000E+00 0.  1.
<mgrwt>
<rscale>  0 0.16446962E+04</rscale>
<asrwt>0</asrwt>
<pdfrwt beam="1">  1        2 0.13590176E+00 0.16446962E+04</pdfrwt>
<pdfrwt beam="2">  1       -2 0.11777676E+00 0.16446962E+04</pdfrwt>
<totfact> 0.15996805E+01</totfact>
</mgrwt>
</event>
<event>
12    1  0.2588309E-007  0.2487929E+04  0.7818608E-02  0.8407299E-01
          1   -1    0    0  501    0  0.00000000000E+00  0.00000000000E+00  0.33560587907E+04  0.33560587907E+04  0.00000000000E+00 0. -1.
         -1   -1    0    0    0  501 -0.00000000000E+00 -0.00000000000E+00 -0.46109073625E+03  0.46109073625E+03  0.00000000000E+00 0.  1.
         23    2    1    2    0    0 -0.43075824817E+03  0.79820989433E+03  0.21938895639E+04  0.23759331927E+04  0.95996948459E+02 0.  0.
        254    2    1    2    0    0  0.43075824817E+03 -0.79820989433E+03  0.70107849059E+03  0.14412163342E+04  0.87344248138E+03 0.  0.
        -24    2    4    4    0    0  0.54159940780E+03 -0.21374005750E+03  0.58577571452E+03  0.82998101467E+03  0.81979060077E+02 0.  0.
         24    2    4    4    0    0 -0.11084115963E+03 -0.58446983684E+03  0.11530277607E+03  0.61123531955E+03  0.80144449909E+02 0.  0.
         13    1    3    3    0    0 -0.23699170994E+03  0.53596785810E+03  0.14115991836E+04  0.15284105701E+04  0.00000000000E+00 0.  1.
        -13    1    3    3    0    0 -0.19376653823E+03  0.26224203624E+03  0.78229038026E+03  0.84752262268E+03  0.00000000000E+00 0. -1.
          4    1    6    6  502    0 -0.67434985558E+02 -0.17354374457E+03  0.51053516779E+02  0.19305794502E+03  0.00000000000E+00 0. -1.
          3    1    5    5  503    0  0.77407046779E+02 -0.59876167592E+02  0.79445570331E+02  0.12605000984E+03  0.00000000000E+00 0. -1.
         -2    1    5    5    0  503  0.46419236102E+03 -0.15386388990E+03  0.50633014419E+03  0.70393100483E+03  0.00000000000E+00 0.  1.
         -3    1    6    6    0  502 -0.43406174067E+02 -0.41092609226E+03  0.64249259290E+02  0.41817737453E+03  0.00000000000E+00 0.  1.
<mgrwt>
<rscale>  0 0.24879290E+04</rscale>
<asrwt>0</asrwt>
<pdfrwt beam="1">  1        1 0.51631672E+00 0.24879290E+04</pdfrwt>
<pdfrwt beam="2">  1       -1 0.70937038E-01 0.24879290E+04</pdfrwt>
<totfact> 0.57792674E-01</totfact>
</mgrwt>
</event>
<event>
12    1  0.2588309E-007  0.2606042E+04  0.7818608E-02  0.8366152E-01
          2   -1    0    0  501    0  0.00000000000E+00  0.00000000000E+00  0.16756567332E+04  0.16756567332E+04  0.00000000000E+00 0. -1.
         -2   -1    0    0    0  501 -0.00000000000E+00 -0.00000000000E+00 -0.10132525303E+04  0.10132525303E+04  0.00000000000E+00 0.  1.
         23    2    1    2    0    0  0.63137049857E+03 -0.95599425965E+03  0.30901124820E+03  0.11901483298E+04  0.91713490751E+02 0.  0.
        254    2    1    2    0    0 -0.63137049857E+03  0.95599425965E+03  0.35339295464E+03  0.14987609338E+04  0.89935756248E+03 0.  0.
        -24    2    4    4    0    0 -0.42562529189E+03  0.31853511305E+02  0.33542675183E+03  0.54855398049E+03  0.78922926898E+02 0.  0.
         24    2    4    4    0    0 -0.20574520669E+03  0.92414074835E+03  0.17966202810E+02  0.95020695327E+03  0.78760756460E+02 0.  0.
         11    1    3    3    0    0  0.23342224187E+03 -0.43582661709E+03  0.13271542232E+03  0.51190249705E+03  0.00000000000E+00 0.  1.
        -11    1    3    3    0    0  0.39794825670E+03 -0.52016764256E+03  0.17629582588E+03  0.67824583272E+03  0.00000000000E+00 0. -1.
          2    1    6    6  502    0 -0.18302300063E+03  0.84169902513E+03  0.38617098670E+02  0.86223311696E+03  0.00000000000E+00 0. -1.
          3    1    5    5  503    0 -0.35413274623E+03 -0.70309271788E+00  0.25709079562E+03  0.43761418337E+03  0.00000000000E+00 0. -1.
         -2    1    5    5    0  503 -0.71492545656E+02  0.32556604022E+02  0.78335956207E+02  0.11093979712E+03  0.00000000000E+00 0.  1.
         -1    1    6    6    0  502 -0.22722206059E+02  0.82441723215E+02 -0.20650895860E+02  0.87973836307E+02  0.00000000000E+00 0.  1.
<mgrwt>
<rscale>  0 0.26060418E+04</rscale>
<asrwt>0</asrwt>
<pdfrwt beam="1">  1        2 0.25779334E+00 0.26060418E+04</pdfrwt>
<pdfrwt beam="2">  1       -2 0.15588501E+00 0.26060418E+04</pdfrwt>
<totfact> 0.24187398E+00</totfact>
</mgrwt>
</event>
<event>
12    1  0.2588309E-007  0.1879461E+04  0.7818608E-02  0.8665148E-01
         -2   -1    0    0    0  501 -0.00000000000E+00  0.00000000000E+00  0.68165237045E+03  0.68165237045E+03  0.00000000000E+00 0. -1.
          2   -1    0    0  501    0  0.00000000000E+00 -0.00000000000E+00 -0.12955188540E+04  0.12955188540E+04  0.00000000000E+00 0.  1.
         23    2    1    2    0    0 -0.20124840145E+02  0.67813171764E+03 -0.49172296066E+03  0.84381520317E+03  0.99824803544E+02 0.  0.
        254    2    1    2    0    0  0.20124840145E+02 -0.67813171764E+03 -0.12214352286E+03  0.11333560212E+04  0.89961613761E+03 0.  0.
        -24    2    4    4    0    0  0.43224697380E+03 -0.31403175159E+03  0.72430132375E+02  0.54493886627E+03  0.79112935303E+02 0.  0.
         24    2    4    4    0    0 -0.41212213366E+03 -0.36409996605E+03 -0.19457365523E+03  0.58841715497E+03  0.77216595502E+02 0.  0.
         13    1    3    3    0    0 -0.43390094866E+02  0.24259653047E+03 -0.21686435388E+03  0.32827720743E+03  0.00000000000E+00 0.  1.
        -13    1    3    3    0    0  0.23265254722E+02  0.43553518717E+03 -0.27485860677E+03  0.51553799575E+03  0.00000000000E+00 0. -1.
          4    1    6    6  502    0 -0.35347474100E+03 -0.27510664006E+03 -0.16960900547E+03  0.47895226345E+03  0.00000000000E+00 0. -1.
          3    1    5    5  503    0  0.15086531880E+03 -0.15685070565E+03  0.35867299595E+02  0.22056507307E+03  0.00000000000E+00 0. -1.
         -4    1    5    5    0  503  0.28138165500E+03 -0.15718104594E+03  0.36562832780E+02  0.32437379320E+03  0.00000000000E+00 0.  1.
         -3    1    6    6    0  502 -0.58647392659E+02 -0.88993325998E+02 -0.24964649769E+02  0.10946489152E+03  0.00000000000E+00 0.  1.
<mgrwt>
<rscale>  0 0.18794611E+04</rscale>
<asrwt>0</asrwt>
<pdfrwt beam="1">  1        2 0.19931059E+00 0.18794611E+04</pdfrwt>
<pdfrwt beam="2">  1       -2 0.10486960E+00 0.18794611E+04</pdfrwt>
<totfact> 0.11504969E+01</totfact>
</mgrwt>
</event>
<event>
12    1  0.2588309E-007  0.1182445E+04  0.7818608E-02  0.9128363E-01
          2   -1    0    0  501    0  0.00000000000E+00  0.00000000000E+00  0.15295083301E+04  0.15295083301E+04  0.00000000000E+00 0. -1.
         -2   -1    0    0    0  501 -0.00000000000E+00 -0.00000000000E+00 -0.22853361548E+03  0.22853361548E+03  0.00000000000E+00 0.  1.
         23    2    1    2    0    0 -0.21926690293E+03  0.73487868833E+02  0.21416516932E+03  0.32787615838E+03  0.90319510092E+02 0.  0.
        254    2    1    2    0    0  0.21926690293E+03 -0.73487868833E+02  0.10868095453E+04  0.14301657872E+04  0.90041143347E+03 0.  0.
        -24    2    4    4    0    0 -0.12635818843E+03 -0.14077610682E+03  0.10460492572E+04  0.10665902901E+04  0.87243878290E+02 0.  0.
         24    2    4    4    0    0  0.34562509136E+03  0.67288237984E+02  0.40760288102E+02  0.36357549714E+03  0.80878490871E+02 0.  0.
         11    1    3    3    0    0 -0.14338587554E+02 -0.33053736242E+01  0.55891053972E+02  0.57795592409E+02  0.00000000000E+00 0. -1.
        -11    1    3    3    0    0 -0.20492831537E+03  0.76793242457E+02  0.15827411534E+03  0.27008056597E+03  0.00000000000E+00 0.  1.
          2    1    6    6  502    0  0.30596599508E+03  0.72734272641E+02  0.58333864544E+02  0.31985669341E+03  0.00000000000E+00 0. -1.
          3    1    5    5  503    0 -0.10678153056E+03 -0.15171742140E+03  0.91225492748E+03  0.93092938719E+03  0.00000000000E+00 0. -1.
         -4    1    5    5    0  503 -0.19576657872E+02  0.10941314583E+02  0.13379432975E+03  0.13566090288E+03  0.00000000000E+00 0.  1.
         -1    1    6    6    0  502  0.39659096280E+02 -0.54460346572E+01 -0.17573576441E+02  0.43718803736E+02  0.00000000000E+00 0.  1.
<mgrwt>
<rscale>  0 0.11824450E+04</rscale>
<asrwt>0</asrwt>
<pdfrwt beam="1">  1        2 0.23530897E+00 0.11824450E+04</pdfrwt>
<pdfrwt beam="2">  1       -2 0.35159019E-01 0.11824450E+04</pdfrwt>
<totfact> 0.91598688E+01</totfact>
</mgrwt>
</event>
<event>
12    1  0.2588309E-007  0.1275486E+04  0.7818608E-02  0.9049234E-01
          1   -1    0    0  501    0  0.00000000000E+00  0.00000000000E+00  0.13346553668E+04  0.13346553668E+04  0.00000000000E+00 0. -1.
         -1   -1    0    0    0  501 -0.00000000000E+00 -0.00000000000E+00 -0.30473483468E+03  0.30473483468E+03  0.00000000000E+00 0.  1.
         23    2    1    2    0    0 -0.22194786318E+03  0.14525501898E+03  0.54531394786E+02  0.28611897530E+03  0.92360816911E+02 0.  0.
        254    2    1    2    0    0  0.22194786318E+03 -0.14525501898E+03  0.97538913736E+03  0.13532712262E+04  0.89977728795E+03 0.  0.
        -24    2    4    4    0    0  0.51778203397E+03 -0.24189591456E+03  0.80255003502E+03  0.98855796306E+03  0.80922304992E+02 0.  0.
         24    2    4    4    0    0 -0.29583417080E+03  0.96640895583E+02  0.17283910235E+03  0.36471326315E+03  0.79278557671E+02 0.  0.
         13    1    3    3    0    0 -0.22017185178E+03  0.12338634985E+03  0.66668469944E+02  0.26104505459E+03  0.00000000000E+00 0. -1.
        -13    1    3    3    0    0 -0.17760114004E+01  0.21868669131E+02 -0.12137075158E+02  0.25073920703E+02  0.00000000000E+00 0.  1.
          2    1    6    6  502    0 -0.99593455233E+01  0.18202450672E+02 -0.15077611635E+01  0.20803632314E+02  0.00000000000E+00 0. -1.
          3    1    5    5  503    0  0.15013206863E+03 -0.53896474812E+02  0.28345570953E+03  0.32525621791E+03  0.00000000000E+00 0. -1.
         -4    1    5    5    0  503  0.36764996535E+03 -0.18799943975E+03  0.51909432549E+03  0.66330174515E+03  0.00000000000E+00 0.  1.
         -1    1    6    6    0  502 -0.28587482527E+03  0.78438444911E+02  0.17434686351E+03  0.34390963084E+03  0.00000000000E+00 0.  1.
<mgrwt>
<rscale>  0 0.12754858E+04</rscale>
<asrwt>0</asrwt>
<pdfrwt beam="1">  1        1 0.20533159E+00 0.12754858E+04</pdfrwt>
<pdfrwt beam="2">  1       -1 0.46882283E-01 0.12754858E+04</pdfrwt>
<totfact> 0.38132897E+01</totfact>
</mgrwt>
</event>
<event>
12    1  0.2588309E-007  0.3743636E+04  0.7818608E-02  0.8058360E-01
          1   -1    0    0  501    0  0.00000000000E+00  0.00000000000E+00  0.23958446729E+04  0.23958446729E+04  0.00000000000E+00 0. -1.
         -1   -1    0    0    0  501 -0.00000000000E+00 -0.00000000000E+00 -0.14624083604E+04  0.14624083604E+04  0.00000000000E+00 0.  1.
         23    2    1    2    0    0 -0.68616680306E+03 -0.15360478447E+04  0.98175735560E+03  0.19499799213E+04  0.91139043516E+02 0.  0.
        254    2    1    2    0    0  0.68616680306E+03  0.15360478447E+04 -0.48321043129E+02  0.19082731120E+04  0.89939061815E+03 0.  0.
        -24    2    4    4    0    0 -0.18513468265E+03  0.17658128207E+03  0.97347692270E+02  0.28476983078E+03  0.78495117245E+02 0.  0.
         24    2    4    4    0    0  0.87130148571E+03  0.13594665626E+04 -0.14566873540E+03  0.16235032813E+04  0.85017114855E+02 0.  0.
         11    1    3    3    0    0 -0.24899762808E+03 -0.50790692653E+03  0.37437614296E+03  0.67832644150E+03  0.00000000000E+00 0. -1.
        -11    1    3    3    0    0 -0.43716917497E+03 -0.10281409182E+04  0.60738121264E+03  0.12716534798E+04  0.00000000000E+00 0.  1.
          2    1    6    6  502    0  0.71179159914E+03  0.10468542696E+04 -0.10737583836E+03  0.12704647626E+04  0.00000000000E+00 0. -1.
          1    1    5    5  503    0 -0.10205372506E+03  0.99204289477E+02  0.95176883062E+02  0.17121650890E+03  0.00000000000E+00 0. -1.
         -2    1    5    5    0  503 -0.83080957591E+02  0.77376992596E+02  0.21708092079E+01  0.11355332188E+03  0.00000000000E+00 0.  1.
         -1    1    6    6    0  502  0.15950988656E+03  0.31261229307E+03 -0.38292897040E+02  0.35303851866E+03  0.00000000000E+00 0.  1.
<mgrwt>
<rscale>  0 0.37436363E+04</rscale>
<asrwt>0</asrwt>
<pdfrwt beam="1">  1        1 0.36859149E+00 0.37436363E+04</pdfrwt>
<pdfrwt beam="2">  1       -1 0.22498590E+00 0.37436363E+04</pdfrwt>
<totfact> 0.13030177E-01</totfact>
</mgrwt>
</event>
<event>
12    1  0.2588309E-007  0.2392027E+04  0.7818608E-02  0.8442495E-01
          1   -1    0    0  501    0  0.00000000000E+00  0.00000000000E+00  0.56106123230E+03  0.56106123230E+03  0.00000000000E+00 0. -1.
         -1   -1    0    0    0  501 -0.00000000000E+00 -0.00000000000E+00 -0.25495394947E+04  0.25495394947E+04  0.00000000000E+00 0.  1.
         23    2    1    2    0    0 -0.40731689764E+02  0.77309415938E+03  0.18516807656E+02  0.77907907997E+03  0.85367973267E+02 0.  0.
        254    2    1    2    0    0  0.40731689764E+02 -0.77309415938E+03 -0.20069950701E+04  0.23315216471E+04  0.89923875005E+03 0.  0.
        -24    2    4    4    0    0 -0.20768064816E+03 -0.28312729853E+03 -0.14289839332E+03  0.38653935838E+03  0.75501032890E+02 0.  0.
         24    2    4    4    0    0  0.24841233793E+03 -0.48996686085E+03 -0.18640966768E+04  0.19449822887E+04  0.79520240293E+02 0.  0.
         11    1    3    3    0    0  0.15158627110E+01  0.55232598180E+03  0.36866845162E+02  0.55355709036E+03  0.00000000000E+00 0. -1.
        -11    1    3    3    0    0 -0.42247552475E+02  0.22076817757E+03 -0.18350037506E+02  0.22552198961E+03  0.00000000000E+00 0.  1.
          2    1    6    6  502    0  0.37780132625E+02 -0.50317342298E+02 -0.30593495521E+03  0.31233855057E+03  0.00000000000E+00 0. -1.
          1    1    5    5  503    0 -0.14644589939E+03 -0.22446909332E+03 -0.13835649915E+03  0.30162111358E+03  0.00000000000E+00 0. -1.
         -2    1    5    5    0  503 -0.61234748775E+02 -0.58658205212E+02 -0.45418941693E+01  0.84918244794E+02  0.00000000000E+00 0.  1.
         -1    1    6    6    0  502  0.21063220530E+03 -0.43964951855E+03 -0.15581617216E+04  0.16326437381E+04  0.00000000000E+00 0.  1.
<mgrwt>
<rscale>  0 0.23920266E+04</rscale>
<asrwt>0</asrwt>
<pdfrwt beam="1">  1        1 0.86317113E-01 0.23920266E+04</pdfrwt>
<pdfrwt beam="2">  1       -1 0.39223684E+00 0.23920266E+04</pdfrwt>
<totfact> 0.27340701E-01</totfact>
</mgrwt>
</event>
<event>
12    1  0.2588309E-007  0.3988667E+04  0.7818608E-02  0.8006837E-01
         -2   -1    0    0    0  501 -0.00000000000E+00  0.00000000000E+00  0.17136908286E+04  0.17136908286E+04  0.00000000000E+00 0. -1.
          2   -1    0    0  501    0  0.00000000000E+00 -0.00000000000E+00 -0.23209351718E+04  0.23209351718E+04  0.00000000000E+00 0.  1.
         23    2    1    2    0    0  0.10556283583E+04  0.91690082304E+03  0.10006371679E+04  0.17218081943E+04  0.91051447907E+02 0.  0.
        254    2    1    2    0    0 -0.10556283583E+04 -0.91690082304E+03 -0.16078815111E+04  0.23128178060E+04  0.89932469114E+03 0.  0.
        -24    2    4    4    0    0 -0.44685525462E+03 -0.71233020127E+03 -0.38272517235E+03  0.92733142658E+03  0.79819063949E+02 0.  0.
         24    2    4    4    0    0 -0.60877310366E+03 -0.20457062177E+03 -0.12251563387E+04  0.13854863794E+04  0.78170469052E+02 0.  0.
         13    1    3    3    0    0  0.78658037165E+03  0.66657966975E+03  0.69000630111E+03  0.12406231631E+04  0.00000000000E+00 0.  1.
        -13    1    3    3    0    0  0.26904798662E+03  0.25032115329E+03  0.31063086681E+03  0.48118503126E+03  0.00000000000E+00 0. -1.
          4    1    6    6  502    0 -0.45802952021E+03 -0.14871260079E+03 -0.98606688132E+03  0.10973761313E+04  0.00000000000E+00 0. -1.
          3    1    5    5  503    0 -0.35143472751E+03 -0.53450705064E+03 -0.32451682058E+03  0.71729723387E+03  0.00000000000E+00 0. -1.
         -4    1    5    5    0  503 -0.95420527110E+02 -0.17782315063E+03 -0.58208351761E+02  0.21003419271E+03  0.00000000000E+00 0.  1.
         -3    1    6    6    0  502 -0.15074358345E+03 -0.55858020986E+02 -0.23908945742E+03  0.28811024819E+03  0.00000000000E+00 0.  1.
<mgrwt>
<rscale>  0 0.39886666E+04</rscale>
<asrwt>0</asrwt>
<pdfrwt beam="1">  1        2 0.35706695E+00 0.39886666E+04</pdfrwt>
<pdfrwt beam="2">  1       -2 0.26364474E+00 0.39886666E+04</pdfrwt>
<totfact> 0.18461574E-01</totfact>
</mgrwt>
</event>
<event>
12    1  0.2588309E-007  0.4065776E+04  0.7818608E-02  0.7991407E-01
          2   -1    0    0  501    0  0.00000000000E+00  0.00000000000E+00  0.21029762835E+04  0.21029762835E+04  0.00000000000E+00 0.  1.
         -2   -1    0    0    0  501 -0.00000000000E+00 -0.00000000000E+00 -0.19651358133E+04  0.19651358133E+04  0.00000000000E+00 0. -1.
         23    2    1    2    0    0  0.91447262759E+03 -0.74756762003E+03  0.15956086505E+04  0.19874121652E+04  0.93394943426E+02 0.  0.
        254    2    1    2    0    0 -0.91447262759E+03  0.74756762003E+03 -0.14577681804E+04  0.20806999317E+04  0.89950353243E+03 0.  0.
        -24    2    4    4    0    0 -0.66530491117E+03  0.20789336096E+03 -0.12717108850E+04  0.14523893609E+04  0.79599034137E+02 0.  0.
         24    2    4    4    0    0 -0.24916771642E+03  0.53967425906E+03 -0.18605729538E+03  0.62831057079E+03  0.82607502109E+02 0.  0.
         11    1    3    3    0    0  0.35797860980E+03 -0.23487215014E+03  0.57091979098E+03  0.71362666690E+03  0.00000000000E+00 0. -1.
        -11    1    3    3    0    0  0.55649401779E+03 -0.51269546989E+03  0.10246888595E+04  0.12737854983E+04  0.00000000000E+00 0.  1.
          2    1    6    6  502    0 -0.17293114263E+03  0.36768181105E+03 -0.16670129071E+03  0.43918608196E+03  0.00000000000E+00 0. -1.
          1    1    5    5  503    0 -0.41462573889E+03  0.89722054016E+02 -0.78613826764E+03  0.89329610218E+03  0.00000000000E+00 0. -1.
         -2    1    5    5    0  503 -0.25067917228E+03  0.11817130695E+03 -0.48557261736E+03  0.55909325870E+03  0.00000000000E+00 0.  1.
         -1    1    6    6    0  502 -0.76236573793E+02  0.17199244802E+03 -0.19356004666E+02  0.18912448883E+03  0.00000000000E+00 0.  1.
<mgrwt>
<rscale>  0 0.40657762E+04</rscale>
<asrwt>0</asrwt>
<pdfrwt beam="1">  1        2 0.32353481E+00 0.40657762E+04</pdfrwt>
<pdfrwt beam="2">  1       -2 0.30232858E+00 0.40657762E+04</pdfrwt>
<totfact> 0.14127600E-01</totfact>
</mgrwt>
</event>
<event>
12    1  0.2588309E-007  0.1987734E+04  0.7818608E-02  0.8612377E-01
          1   -1    0    0  501    0  0.00000000000E+00  0.00000000000E+00  0.28803474945E+04  0.28803474945E+04  0.00000000000E+00 0. -1.
         -1   -1    0    0    0  501 -0.00000000000E+00 -0.00000000000E+00 -0.34293490582E+03  0.34293490582E+03  0.00000000000E+00 0.  1.
         23    2    1    2    0    0 -0.22438158792E+03  0.63142408782E+03  0.16783593084E+04  0.18095461719E+04  0.92324992898E+02 0.  0.
        254    2    1    2    0    0  0.22438158792E+03 -0.63142408782E+03  0.85905328024E+03  0.14137362284E+04  0.90090738127E+03 0.  0.
        -24    2    4    4    0    0  0.32640086968E+03 -0.48700654601E+03  0.63884644369E+02  0.59519589446E+03  0.80399013755E+02 0.  0.
         24    2    4    4    0    0 -0.10201928176E+03 -0.14441754181E+03  0.79516863587E+03  0.81854033398E+03  0.80316614949E+02 0.  0.
         11    1    3    3    0    0 -0.11696964663E+03  0.41036908041E+03  0.11564687364E+04  0.12326818806E+04  0.00000000000E+00 0.  1.
        -11    1    3    3    0    0 -0.10741194128E+03  0.22105500741E+03  0.52189057201E+03  0.57686429131E+03  0.00000000000E+00 0. -1.
          2    1    6    6  502    0 -0.10681759566E+02 -0.15072805223E+02  0.25429676285E+03  0.25496692538E+03  0.00000000000E+00 0. -1.
          1    1    5    5  503    0  0.22424949671E+03 -0.38501001755E+03  0.27928810830E+02  0.44643092283E+03  0.00000000000E+00 0. -1.
         -2    1    5    5    0  503  0.10215137297E+03 -0.10199652846E+03  0.35955833539E+02  0.14876497162E+03  0.00000000000E+00 0.  1.
         -1    1    6    6    0  502 -0.91337522194E+02 -0.12934473658E+03  0.54087187303E+03  0.56357340859E+03  0.00000000000E+00 0.  1.
<mgrwt>
<rscale>  0 0.19877341E+04</rscale>
<asrwt>0</asrwt>
<pdfrwt beam="1">  1        1 0.44313037E+00 0.19877341E+04</pdfrwt>
<pdfrwt beam="2">  1       -1 0.52759218E-01 0.19877341E+04</pdfrwt>
<totfact> 0.24581981E+00</totfact>
</mgrwt>
</event>
<event>
12    1  0.2588309E-007  0.1829030E+04  0.7818608E-02  0.8691012E-01
         -2   -1    0    0    0  501 -0.00000000000E+00  0.00000000000E+00  0.61080326451E+03  0.61080326451E+03  0.00000000000E+00 0. -1.
          2   -1    0    0  501    0  0.00000000000E+00 -0.00000000000E+00 -0.13692428402E+04  0.13692428402E+04  0.00000000000E+00 0.  1.
         23    2    1    2    0    0 -0.48883452935E+03  0.46775443174E+03 -0.43333103668E+03  0.80857236906E+03  0.90884999669E+02 0.  0.
        254    2    1    2    0    0  0.48883452935E+03 -0.46775443174E+03 -0.32510853904E+03  0.11714737357E+04  0.89938965180E+03 0.  0.
        -24    2    4    4    0    0  0.61735818394E+03 -0.64248198659E+03 -0.25224781653E+03  0.92938528459E+03  0.78827760982E+02 0.  0.
         24    2    4    4    0    0 -0.12852365459E+03  0.17472755485E+03 -0.72860722516E+02  0.24208845110E+03  0.79057479435E+02 0.  0.
         11    1    3    3    0    0 -0.74636651258E+02  0.33870865597E+02 -0.65589066835E+02  0.10497519200E+03  0.00000000000E+00 0.  1.
        -11    1    3    3    0    0 -0.41419787809E+03  0.43388356614E+03 -0.36774196985E+03  0.70359717706E+03  0.00000000000E+00 0. -1.
          4    1    6    6  502    0 -0.44149935402E+02  0.12560645529E+02 -0.17319089203E+01  0.45934585234E+02  0.00000000000E+00 0. -1.
          1    1    5    5  503    0  0.44863288347E+03 -0.46517302825E+03 -0.21908903807E+03  0.68239095608E+03  0.00000000000E+00 0. -1.
         -2    1    5    5    0  503  0.16872530047E+03 -0.17730895834E+03 -0.33158778459E+02  0.24699432851E+03  0.00000000000E+00 0.  1.
         -3    1    6    6    0  502 -0.84373719189E+02  0.16216690933E+03 -0.71128813595E+02  0.19615386586E+03  0.00000000000E+00 0.  1.
<mgrwt>
<rscale>  0 0.18290303E+04</rscale>
<asrwt>0</asrwt>
<pdfrwt beam="1">  1        2 0.21065274E+00 0.18290303E+04</pdfrwt>
<pdfrwt beam="2">  1       -2 0.93969733E-01 0.18290303E+04</pdfrwt>
<totfact> 0.13573398E+01</totfact>
</mgrwt>
</event>
<event>
12    1  0.2588309E-007  0.2702984E+04  0.7818608E-02  0.8334037E-01
          2   -1    0    0  501    0  0.00000000000E+00  0.00000000000E+00  0.16546253886E+04  0.16546253886E+04  0.00000000000E+00 0.  1.
         -2   -1    0    0    0  501 -0.00000000000E+00 -0.00000000000E+00 -0.11038937048E+04  0.11038937048E+04  0.00000000000E+00 0. -1.
         23    2    1    2    0    0  0.89901508756E+03  0.49085410394E+03  0.88429133488E+03  0.13561399129E+04  0.89321997666E+02 0.  0.
        254    2    1    2    0    0 -0.89901508756E+03 -0.49085410394E+03 -0.33355965108E+03  0.14023791806E+04  0.89790837296E+03 0.  0.
        -24    2    4    4    0    0 -0.92401441660E+03 -0.61976726642E+03 -0.45588666143E+03  0.12049634194E+04  0.78677109143E+02 0.  0.
         24    2    4    4    0    0  0.24999329037E+02  0.12891316248E+03  0.12232701035E+03  0.19741576113E+03  0.82252752959E+02 0.  0.
         13    1    3    3    0    0  0.61905492550E+03  0.37830627565E+03  0.59775495617E+03  0.94002958816E+03  0.00000000000E+00 0. -1.
        -13    1    3    3    0    0  0.27996016206E+03  0.11254782829E+03  0.28653637871E+03  0.41611032470E+03  0.00000000000E+00 0.  1.
          2    1    6    6  502    0  0.46850634116E+02  0.48704851625E+02  0.78000882273E+02  0.10320504893E+03  0.00000000000E+00 0. -1.
          1    1    5    5  503    0 -0.90523331111E+03 -0.61877892030E+03 -0.44999195547E+03  0.11852541752E+04  0.00000000000E+00 0. -1.
         -2    1    5    5    0  503 -0.18781105484E+02 -0.98834611341E+00 -0.58947059551E+01  0.19709244266E+02  0.00000000000E+00 0.  1.
         -1    1    6    6    0  502 -0.21851305078E+02  0.80208310851E+02  0.44326128074E+02  0.94210712200E+02  0.00000000000E+00 0.  1.
<mgrwt>
<rscale>  0 0.27029839E+04</rscale>
<asrwt>0</asrwt>
<pdfrwt beam="1">  1        2 0.25455775E+00 0.27029839E+04</pdfrwt>
<pdfrwt beam="2">  1       -2 0.16982980E+00 0.27029839E+04</pdfrwt>
<totfact> 0.19489257E+00</totfact>
</mgrwt>
</event>
<event>
12    1  0.2588309E-007  0.1505876E+04  0.7818608E-02  0.8880555E-01
         -2   -1    0    0    0  501 -0.00000000000E+00  0.00000000000E+00  0.67154390057E+03  0.67154390057E+03  0.00000000000E+00 0.  1.
          2   -1    0    0  501    0  0.00000000000E+00 -0.00000000000E+00 -0.84419769299E+03  0.84419769299E+03  0.00000000000E+00 0. -1.
         23    2    1    2    0    0  0.46810504404E+02  0.30258550705E+03 -0.42946133857E+03  0.53530775064E+03  0.91477506393E+02 0.  0.
        254    2    1    2    0    0 -0.46810504404E+02 -0.30258550705E+03  0.25680754615E+03  0.98043384292E+03  0.89529391385E+03 0.  0.
        -24    2    4    4    0    0 -0.21304585167E+03 -0.16841914135E+03  0.54422239436E+03  0.61343879308E+03  0.79847330825E+02 0.  0.
         24    2    4    4    0    0  0.16623534726E+03 -0.13416636570E+03 -0.28741484821E+03  0.36699504984E+03  0.80269964923E+02 0.  0.
         11    1    3    3    0    0  0.60347540797E+02  0.13233710161E+03 -0.23627013074E+03  0.27745001139E+03  0.00000000000E+00 0.  1.
        -11    1    3    3    0    0 -0.13537036393E+02  0.17024840544E+03 -0.19319120783E+03  0.25785773925E+03  0.00000000000E+00 0. -1.
          2    1    6    6  502    0  0.66846063237E+02 -0.41768186722E+02 -0.17063564267E+03  0.18796143259E+03  0.00000000000E+00 0. -1.
          1    1    5    5  503    0 -0.85789897305E+02 -0.10241235985E+03  0.32631739287E+03  0.35260635108E+03  0.00000000000E+00 0. -1.
         -2    1    5    5    0  503 -0.12725595436E+03 -0.66006781498E+02  0.21790500149E+03  0.26083244200E+03  0.00000000000E+00 0.  1.
         -1    1    6    6    0  502  0.99389284024E+02 -0.92398178977E+02 -0.11677920554E+03  0.17903361724E+03  0.00000000000E+00 0.  1.
<mgrwt>
<rscale>  0 0.15058762E+04</rscale>
<asrwt>0</asrwt>
<pdfrwt beam="1">  1        2 0.12987657E+00 0.15058762E+04</pdfrwt>
<pdfrwt beam="2">  1       -2 0.10331445E+00 0.15058762E+04</pdfrwt>
<totfact> 0.23648330E+01</totfact>
</mgrwt>
</event>
<event>
12    1  0.2588309E-007  0.1807587E+04  0.7818608E-02  0.8702275E-01
         -2   -1    0    0    0  501 -0.00000000000E+00  0.00000000000E+00  0.36773388978E+03  0.36773388978E+03  0.00000000000E+00 0.  1.
          2   -1    0    0  501    0  0.00000000000E+00 -0.00000000000E+00 -0.22212873384E+04  0.22212873384E+04  0.00000000000E+00 0. -1.
         23    2    1    2    0    0  0.56531938255E+03  0.36597973077E+03 -0.79758569689E+03  0.10477021380E+04  0.89496695275E+02 0.  0.
        254    2    1    2    0    0 -0.56531938255E+03 -0.36597973077E+03 -0.10559677518E+04  0.15413190902E+04  0.89837045671E+03 0.  0.
        -24    2    4    4    0    0 -0.44304726834E+03 -0.64493085878E+03 -0.87990635377E+03  0.11802090385E+04  0.80196562478E+02 0.  0.
         24    2    4    4    0    0 -0.12227211421E+03  0.27895112801E+03 -0.17606139799E+03  0.36111005169E+03  0.81477922356E+02 0.  0.
         13    1    3    3    0    0  0.30471507072E+03  0.23691749233E+03 -0.40935374867E+03  0.56262924208E+03  0.00000000000E+00 0.  1.
        -13    1    3    3    0    0  0.26060431183E+03  0.12906223844E+03 -0.38823194822E+03  0.48507289591E+03  0.00000000000E+00 0. -1.
          2    1    6    6  502    0 -0.12404188894E+02  0.31743041098E+02  0.65725224000E+01  0.34708538013E+02  0.00000000000E+00 0. -1.
          3    1    5    5  503    0 -0.34542323751E+03 -0.48574505243E+03 -0.71707822899E+03  0.93245195880E+03  0.00000000000E+00 0. -1.
         -4    1    5    5    0  503 -0.97624030825E+02 -0.15918580635E+03 -0.16282812478E+03  0.24775707973E+03  0.00000000000E+00 0.  1.
         -1    1    6    6    0  502 -0.10986792531E+03  0.24720808692E+03 -0.18263392039E+03  0.32640151367E+03  0.00000000000E+00 0.  1.
<mgrwt>
<rscale>  0 0.18075869E+04</rscale>
<asrwt>0</asrwt>
<pdfrwt beam="1">  1        2 0.34173651E+00 0.18075869E+04</pdfrwt>
<pdfrwt beam="2">  1       -2 0.56574445E-01 0.18075869E+04</pdfrwt>
<totfact> 0.13895918E+01</totfact>
</mgrwt>
</event>
<event>
12    1  0.2588309E-007  0.4774616E+04  0.7818608E-02  0.7864248E-01
         -1   -1    0    0    0  501 -0.00000000000E+00  0.00000000000E+00  0.19634482736E+04  0.19634482736E+04  0.00000000000E+00 0.  1.
          1   -1    0    0  501    0  0.00000000000E+00 -0.00000000000E+00 -0.29026682782E+04  0.29026682782E+04  0.00000000000E+00 0. -1.
         23    2    1    2    0    0  0.10334970363E+04  0.70638648631E+03 -0.24216452697E+04  0.27276289410E+04  0.92172857447E+02 0.  0.
        254    2    1    2    0    0 -0.10334970363E+04 -0.70638648631E+03  0.14824252651E+04  0.21384876108E+04  0.89913658734E+03 0.  0.
        -24    2    4    4    0    0  0.69918251671E+02  0.34190453802E+02 -0.35775819378E+02  0.11939065340E+03  0.83166518618E+02 0.  0.
         24    2    4    4    0    0 -0.11034152880E+04 -0.74057694011E+03  0.15182010845E+04  0.20190969574E+04  0.76410001677E+02 0.  0.
         11    1    3    3    0    0  0.48892635237E+03  0.37485234231E+03 -0.12587111134E+04  0.14013982031E+04  0.00000000000E+00 0. -1.
        -11    1    3    3    0    0  0.54457068397E+03  0.33153414400E+03 -0.11629341563E+04  0.13262307380E+04  0.00000000000E+00 0.  1.
          2    1    6    6  502    0 -0.61839813631E+03 -0.38980144807E+03  0.88264078204E+03  0.11460437051E+04  0.00000000000E+00 0. -1.
          1    1    5    5  503    0  0.68682674349E+02  0.90621545096E+01 -0.54403791952E+02  0.88086349560E+02  0.00000000000E+00 0. -1.
         -2    1    5    5    0  503  0.12355773223E+01  0.25128299292E+02  0.18627972574E+02  0.31304303839E+02  0.00000000000E+00 0.  1.
         -1    1    6    6    0  502 -0.48501715170E+03 -0.35077549204E+03  0.63556030243E+03  0.87305325226E+03  0.00000000000E+00 0.  1.
<mgrwt>
<rscale>  0 0.47746158E+04</rscale>
<asrwt>0</asrwt>
<pdfrwt beam="1">  1        1 0.44656435E+00 0.47746158E+04</pdfrwt>
<pdfrwt beam="2">  1       -1 0.30206897E+00 0.47746158E+04</pdfrwt>
<totfact> 0.16551788E-02</totfact>
</mgrwt>
</event>
<event>
12    1  0.2588309E-007  0.1443558E+04  0.7818608E-02  0.8922879E-01
         -1   -1    0    0    0  501 -0.00000000000E+00  0.00000000000E+00  0.37347039438E+03  0.37347039438E+03  0.00000000000E+00 0.  1.
          1   -1    0    0  501    0  0.00000000000E+00 -0.00000000000E+00 -0.13949304410E+04  0.13949304410E+04  0.00000000000E+00 0. -1.
         23    2    1    2    0    0  0.37213433579E+03  0.20953880983E+03 -0.40579390918E+03  0.59632325740E+03  0.92424314396E+02 0.  0.
        254    2    1    2    0    0 -0.37213433579E+03 -0.20953880983E+03 -0.61566613740E+03  0.11720775779E+04  0.90129383627E+03 0.  0.
        -24    2    4    4    0    0  0.89296154044E+02  0.10579666507E+03  0.15053105989E+03  0.22022776956E+03  0.81694143171E+02 0.  0.
         24    2    4    4    0    0 -0.46143048983E+03 -0.31533547490E+03 -0.76619719729E+03  0.95184980839E+03  0.81273328449E+02 0.  0.
         13    1    3    3    0    0  0.46016795238E+02  0.54928836900E+02 -0.10153455274E+03  0.12427384265E+03  0.00000000000E+00 0. -1.
        -13    1    3    3    0    0  0.32611754055E+03  0.15460997293E+03 -0.30425935644E+03  0.47204941475E+03  0.00000000000E+00 0.  1.
          2    1    6    6  502    0 -0.40989697599E+03 -0.30438327608E+03 -0.71332424259E+03  0.87720931638E+03  0.00000000000E+00 0. -1.
          3    1    5    5  503    0  0.35091456747E+02  0.50283898114E+02  0.12381986926E+03  0.13817105619E+03  0.00000000000E+00 0. -1.
         -4    1    5    5    0  503  0.54204697297E+02  0.55512766953E+02  0.26711190628E+02  0.82056713367E+02  0.00000000000E+00 0.  1.
         -3    1    6    6    0  502 -0.51533513846E+02 -0.10952198818E+02 -0.52872954698E+02  0.74640492005E+02  0.00000000000E+00 0.  1.
<mgrwt>
<rscale>  0 0.14435584E+04</rscale>
<asrwt>0</asrwt>
<pdfrwt beam="1">  1        1 0.21460468E+00 0.14435584E+04</pdfrwt>
<pdfrwt beam="2">  1       -1 0.57456984E-01 0.14435584E+04</pdfrwt>
<totfact> 0.23090048E+01</totfact>
</mgrwt>
</event>
<event>
12    1  0.2588309E-007  0.1734425E+04  0.7818608E-02  0.8741970E-01
          2   -1    0    0  501    0  0.00000000000E+00  0.00000000000E+00  0.10893486420E+04  0.10893486420E+04  0.00000000000E+00 0.  1.
         -2   -1    0    0    0  501 -0.00000000000E+00 -0.00000000000E+00 -0.69037355352E+03  0.69037355352E+03  0.00000000000E+00 0. -1.
         23    2    1    2    0    0 -0.11987411381E+03 -0.61424871431E+03  0.74712089310E+02  0.63689089139E+03  0.91524996827E+02 0.  0.
        254    2    1    2    0    0  0.11987411381E+03  0.61424871431E+03  0.32426299920E+03  0.11428313042E+04  0.89958079734E+03 0.  0.
        -24    2    4    4    0    0  0.10727563138E+03  0.77451261890E+03  0.14575681258E+02  0.78614861120E+03  0.80245439041E+02 0.  0.
         24    2    4    4    0    0  0.12598482437E+02 -0.16026390458E+03  0.30968731795E+03  0.35668269298E+03  0.73980184529E+02 0.  0.
         13    1    3    3    0    0 -0.66917267577E+02 -0.50238438006E+03  0.40254176419E+02  0.50841752994E+03  0.00000000000E+00 0.  1.
        -13    1    3    3    0    0 -0.52956846236E+02 -0.11186433425E+03  0.34457912892E+02  0.12847336145E+03  0.00000000000E+00 0. -1.
          2    1    6    6  502    0  0.25083673768E+02 -0.45083479111E+02  0.47878147521E+02  0.70384854823E+02  0.00000000000E+00 0. -1.
          3    1    5    5  503    0 -0.11710766735E+02  0.10062633757E+03 -0.65011967455E+01  0.10151387802E+03  0.00000000000E+00 0. -1.
         -4    1    5    5    0  503  0.11898639811E+03  0.67388628132E+03  0.21076878004E+02  0.68463473318E+03  0.00000000000E+00 0.  1.
         -1    1    6    6    0  502 -0.12485191331E+02 -0.11518042547E+03  0.26180917042E+03  0.28629783816E+03  0.00000000000E+00 0.  1.
<mgrwt>
<rscale>  0 0.17344250E+04</rscale>
<asrwt>0</asrwt>
<pdfrwt beam="1">  1        2 0.16759210E+00 0.17344250E+04</pdfrwt>
<pdfrwt beam="2">  1       -2 0.10621132E+00 0.17344250E+04</pdfrwt>
<totfact> 0.15012820E+01</totfact>
</mgrwt>
</event>
<event>
12    1  0.2588309E-007  0.1262091E+04  0.7818608E-02  0.9060180E-01
         -1   -1    0    0    0  501 -0.00000000000E+00  0.00000000000E+00  0.22874350168E+03  0.22874350168E+03  0.00000000000E+00 0.  1.
          1   -1    0    0  501    0  0.00000000000E+00 -0.00000000000E+00 -0.17408949881E+04  0.17408949881E+04  0.00000000000E+00 0. -1.
         23    2    1    2    0    0  0.16284331428E+03  0.19993385337E+03 -0.13719012931E+03  0.30639046079E+03  0.92533735223E+02 0.  0.
        254    2    1    2    0    0 -0.16284331428E+03 -0.19993385337E+03 -0.13749613571E+04  0.16632480289E+04  0.89965759134E+03 0.  0.
        -24    2    4    4    0    0  0.10597798912E+03 -0.48551529422E+03 -0.97634059939E+03  0.10984237933E+04  0.79607968183E+02 0.  0.
         24    2    4    4    0    0 -0.26882130341E+03  0.28558144085E+03 -0.39862075766E+03  0.56482423563E+03  0.79411939832E+02 0.  0.
         13    1    3    3    0    0  0.59785530560E+02  0.11264446200E+03 -0.11045918199E+03  0.16871370830E+03  0.00000000000E+00 0. -1.
        -13    1    3    3    0    0  0.10305778372E+03  0.87289391375E+02 -0.26730947324E+02  0.13767675250E+03  0.00000000000E+00 0.  1.
          4    1    6    6  502    0 -0.26713006054E+03  0.25513558854E+03 -0.37353177015E+03  0.52533667404E+03  0.00000000000E+00 0. -1.
          1    1    5    5  503    0  0.74481026977E+02 -0.36264402166E+03 -0.79669053438E+03  0.87850664050E+03  0.00000000000E+00 0. -1.
         -2    1    5    5    0  503  0.31496962148E+02 -0.12287127256E+03 -0.17965006501E+03  0.21991715282E+03  0.00000000000E+00 0.  1.
         -3    1    6    6    0  502 -0.16912428655E+01  0.30445852309E+02 -0.25088987515E+02  0.39487561583E+02  0.00000000000E+00 0.  1.
<mgrwt>
<rscale>  0 0.12620910E+04</rscale>
<asrwt>0</asrwt>
<pdfrwt beam="1">  1        1 0.26782998E+00 0.12620910E+04</pdfrwt>
<pdfrwt beam="2">  1       -1 0.35191310E-01 0.12620910E+04</pdfrwt>
<totfact> 0.33850828E+01</totfact>
</mgrwt>
</event>
<event>
12    1  0.2588309E-007  0.5048507E+04  0.7818608E-02  0.7821068E-01
         -2   -1    0    0    0  501 -0.00000000000E+00  0.00000000000E+00  0.23319732832E+04  0.23319732832E+04  0.00000000000E+00 0.  1.
          2   -1    0    0  501    0  0.00000000000E+00 -0.00000000000E+00 -0.27323876877E+04  0.27323876877E+04  0.00000000000E+00 0. -1.
         23    2    1    2    0    0 -0.61425138044E+03  0.17702921105E+04 -0.17670986575E+04  0.25768227284E+04  0.78350451781E+02 0.  0.
        254    2    1    2    0    0  0.61425138044E+03 -0.17702921105E+04  0.13666842530E+04  0.24875382425E+04  0.89932293741E+03 0.  0.
        -24    2    4    4    0    0  0.34163096296E+03 -0.94260941232E+02  0.36291736607E+03  0.51342341984E+03  0.79358386787E+02 0.  0.
         24    2    4    4    0    0  0.27262041749E+03 -0.16760311693E+04  0.10037668870E+04  0.19741148227E+04  0.78606599399E+02 0.  0.
         11    1    3    3    0    0 -0.30457970229E+03  0.98686562597E+03 -0.95190870966E+03  0.14045649683E+04  0.00000000000E+00 0.  1.
        -11    1    3    3    0    0 -0.30967167816E+03  0.78342648451E+03 -0.81518994784E+03  0.11722577600E+04  0.00000000000E+00 0. -1.
          4    1    6    6  502    0  0.20579298579E+03 -0.11861712699E+04  0.67239096218E+03  0.13789353286E+04  0.00000000000E+00 0. -1.
          3    1    5    5  503    0  0.92084184180E+02 -0.54890786763E+01  0.13773461831E+03  0.16577228973E+03  0.00000000000E+00 0. -1.
         -4    1    5    5    0  503  0.24954677878E+03 -0.88771862556E+02  0.22518274776E+03  0.34765113011E+03  0.00000000000E+00 0.  1.
         -3    1    6    6    0  502  0.66827431695E+02 -0.48985989940E+03  0.33137592479E+03  0.59517949410E+03  0.00000000000E+00 0.  1.
<mgrwt>
<rscale>  0 0.50485067E+04</rscale>
<asrwt>0</asrwt>
<pdfrwt beam="1">  1        2 0.42036734E+00 0.50485067E+04</pdfrwt>
<pdfrwt beam="2">  1       -2 0.35876512E+00 0.50485067E+04</pdfrwt>
<totfact> 0.25221677E-02</totfact>
</mgrwt>
</event>
<event>
12    1  0.2588309E-007  0.3053813E+04  0.7818608E-02  0.8228529E-01
          2   -1    0    0  501    0  0.00000000000E+00  0.00000000000E+00  0.30323431545E+04  0.30323431545E+04  0.00000000000E+00 0. -1.
         -2   -1    0    0    0  501 -0.00000000000E+00 -0.00000000000E+00 -0.76885885190E+03  0.76885885190E+03  0.00000000000E+00 0.  1.
         23    2    1    2    0    0  0.79270959815E+03 -0.11397764564E+04  0.89905588716E+03  0.16564941883E+04  0.90513149176E+02 0.  0.
        254    2    1    2    0    0 -0.79270959815E+03  0.11397764564E+04  0.13644284154E+04  0.21447078180E+04  0.90034873597E+03 0.  0.
        -24    2    4    4    0    0 -0.61667532751E+03  0.11529016116E+04  0.14311538311E+04  0.19401133863E+04  0.79800238189E+02 0.  0.
         24    2    4    4    0    0 -0.17603427064E+03 -0.13125155182E+02 -0.66725415657E+02  0.20459443172E+03  0.79033323709E+02 0.  0.
         13    1    3    3    0    0  0.27622103740E+03 -0.36119264959E+03  0.33909020287E+03  0.56722161216E+03  0.00000000000E+00 0. -1.
        -13    1    3    3    0    0  0.51648856075E+03 -0.77858380681E+03  0.55996568429E+03  0.10892725762E+04  0.00000000000E+00 0.  1.
          2    1    6    6  502    0 -0.18255493472E+03 -0.18634510922E+02 -0.58155511129E+02  0.19249834457E+03  0.00000000000E+00 0. -1.
          3    1    5    5  503    0 -0.57292878440E+03  0.10288746477E+04  0.12670215113E+04  0.17297901441E+04  0.00000000000E+00 0. -1.
         -2    1    5    5    0  503 -0.43746543109E+02  0.12402696391E+03  0.16413231978E+03  0.21032324219E+03  0.00000000000E+00 0.  1.
         -1    1    6    6    0  502  0.65206640767E+01  0.55093557404E+01 -0.85699045288E+01  0.12096087149E+02  0.00000000000E+00 0.  1.
<mgrwt>
<rscale>  0 0.30538133E+04</rscale>
<asrwt>0</asrwt>
<pdfrwt beam="1">  1        2 0.46651433E+00 0.30538133E+04</pdfrwt>
<pdfrwt beam="2">  1       -2 0.11828598E+00 0.30538133E+04</pdfrwt>
<totfact> 0.77870033E-01</totfact>
</mgrwt>
</event>
<event>
12    1  0.2588309E-007  0.1799421E+04  0.7818608E-02  0.8706607E-01
         -1   -1    0    0    0  501 -0.00000000000E+00  0.00000000000E+00  0.90972928268E+03  0.90972928268E+03  0.00000000000E+00 0.  1.
          1   -1    0    0  501    0  0.00000000000E+00 -0.00000000000E+00 -0.88980229381E+03  0.88980229381E+03  0.00000000000E+00 0. -1.
         23    2    1    2    0    0 -0.22998183766E+03  0.61095997805E+03  0.15829386358E+03  0.67777301294E+03  0.90308191155E+02 0.  0.
        254    2    1    2    0    0  0.22998183766E+03 -0.61095997805E+03 -0.13836687470E+03  0.11217585636E+04  0.90168350459E+03 0.  0.
        -24    2    4    4    0    0  0.16980893486E+03 -0.75456437391E+03 -0.34426441492E+03  0.85048468400E+03  0.81263408798E+02 0.  0.
         24    2    4    4    0    0  0.60172902803E+02  0.14360439586E+03  0.20589754022E+03  0.27127387955E+03  0.83382971357E+02 0.  0.
         11    1    3    3    0    0 -0.63467139127E+02  0.91452302258E+02  0.47841029731E+02  0.12116255801E+03  0.00000000000E+00 0. -1.
        -11    1    3    3    0    0 -0.16651469854E+03  0.51950767579E+03  0.11045283385E+03  0.55661045493E+03  0.00000000000E+00 0.  1.
          4    1    6    6  502    0  0.51388771983E+02  0.13420459232E+03  0.21271896646E+03  0.25671197319E+03  0.00000000000E+00 0. -1.
          1    1    5    5  503    0  0.88180520007E+02 -0.23300135227E+03 -0.12672403197E+03  0.27950744989E+03  0.00000000000E+00 0. -1.
         -2    1    5    5    0  503  0.81628414854E+02 -0.52156302165E+03 -0.21754038295E+03  0.57097723411E+03  0.00000000000E+00 0.  1.
         -3    1    6    6    0  502  0.87841308199E+01  0.93998035424E+01 -0.68214262388E+01  0.14561906360E+02  0.00000000000E+00 0.  1.
<mgrwt>
<rscale>  0 0.17994212E+04</rscale>
<asrwt>0</asrwt>
<pdfrwt beam="1">  1        1 0.13689266E+00 0.17994212E+04</pdfrwt>
<pdfrwt beam="2">  1       -1 0.13995835E+00 0.17994212E+04</pdfrwt>
<totfact> 0.73447825E+00</totfact>
</mgrwt>
</event>
<event>
12    1  0.2588309E-007  0.1895352E+04  0.7818608E-02  0.8657174E-01
          2   -1    0    0  501    0  0.00000000000E+00  0.00000000000E+00  0.21684297334E+04  0.21684297334E+04  0.00000000000E+00 0. -1.
         -2   -1    0    0    0  501 -0.00000000000E+00 -0.00000000000E+00 -0.41416579029E+03  0.41416579029E+03  0.00000000000E+00 0.  1.
         23    2    1    2    0    0  0.44149635716E+03 -0.48038941304E+03  0.23544652541E+03  0.70012660277E+03  0.95127136134E+02 0.  0.
        254    2    1    2    0    0 -0.44149635716E+03  0.48038941304E+03  0.15188174177E+04  0.18824689209E+04  0.90066079540E+03 0.  0.
        -24    2    4    4    0    0  0.10967446951E+03 -0.24028920257E+02  0.89615721636E+03  0.90658619013E+03  0.78707594457E+02 0.  0.
         24    2    4    4    0    0 -0.55117082667E+03  0.50441833330E+03  0.62266020133E+03  0.97588273078E+03  0.80088967896E+02 0.  0.
         11    1    3    3    0    0  0.22871263536E+03 -0.28175208531E+03  0.86146773518E+02  0.37298119756E+03  0.00000000000E+00 0. -1.
        -11    1    3    3    0    0  0.21278372180E+03 -0.19863732773E+03  0.14929975189E+03  0.32714540521E+03  0.00000000000E+00 0.  1.
          4    1    6    6  502    0 -0.25812798179E+02  0.47785813299E+02  0.59179681662E+02  0.80324462177E+02  0.00000000000E+00 0. -1.
          3    1    5    5  503    0  0.31765037241E+02 -0.10920238423E+02  0.82119008954E+02  0.88723169633E+02  0.00000000000E+00 0. -1.
         -4    1    5    5    0  503  0.77909432268E+02 -0.13108681834E+02  0.81403820741E+03  0.81786302049E+03  0.00000000000E+00 0.  1.
         -3    1    6    6    0  502 -0.52535802849E+03  0.45663252000E+03  0.56348051967E+03  0.89555826861E+03  0.00000000000E+00 0.  1.
<mgrwt>
<rscale>  0 0.18953516E+04</rscale>
<asrwt>0</asrwt>
<pdfrwt beam="1">  1        2 0.33360457E+00 0.18953516E+04</pdfrwt>
<pdfrwt beam="2">  1       -2 0.63717815E-01 0.18953516E+04</pdfrwt>
<totfact> 0.11485064E+01</totfact>
</mgrwt>
</event>
<event>
12    1  0.2588309E-007  0.1403430E+04  0.7818608E-02  0.8951340E-01
         -2   -1    0    0    0  501 -0.00000000000E+00  0.00000000000E+00  0.31971903803E+03  0.31971903803E+03  0.00000000000E+00 0.  1.
          2   -1    0    0  501    0  0.00000000000E+00 -0.00000000000E+00 -0.15401144297E+04  0.15401144297E+04  0.00000000000E+00 0. -1.
         23    2    1    2    0    0  0.16065344775E+03 -0.13765782529E+03 -0.82220422775E+03  0.85433605737E+03  0.95452080405E+02 0.  0.
        254    2    1    2    0    0 -0.16065344775E+03  0.13765782529E+03 -0.39819116388E+03  0.10054974103E+04  0.89872667260E+03 0.  0.
        -24    2    4    4    0    0  0.31923423857E+03  0.13019794714E+03  0.34618091389E+02  0.35391114600E+03  0.72060269874E+02 0.  0.
         24    2    4    4    0    0 -0.47988768632E+03  0.74598781486E+01 -0.43280925527E+03  0.65158626433E+03  0.83023895093E+02 0.  0.
         13    1    3    3    0    0  0.68356689380E+02 -0.64370286163E+02 -0.19840255836E+03  0.21949885168E+03  0.00000000000E+00 0.  1.
        -13    1    3    3    0    0  0.92296758370E+02 -0.73287539123E+02 -0.62380166940E+03  0.63483720570E+03  0.00000000000E+00 0. -1.
          2    1    6    6  502    0 -0.21922347545E+03 -0.10302473448E+02 -0.25027296819E+03  0.33286879060E+03  0.00000000000E+00 0. -1.
          3    1    5    5  503    0  0.13611721494E+03  0.58250576849E+02  0.50732411313E+02  0.15650815782E+03  0.00000000000E+00 0. -1.
         -4    1    5    5    0  503  0.18311702363E+03  0.71947370289E+02 -0.16114319923E+02  0.19740298818E+03  0.00000000000E+00 0.  1.
         -1    1    6    6    0  502 -0.26066421087E+03  0.17762351596E+02 -0.18253628708E+03  0.31871747373E+03  0.00000000000E+00 0.  1.
<mgrwt>
<rscale>  0 0.14034299E+04</rscale>
<asrwt>0</asrwt>
<pdfrwt beam="1">  1        2 0.23694068E+00 0.14034299E+04</pdfrwt>
<pdfrwt beam="2">  1       -2 0.49187545E-01 0.14034299E+04</pdfrwt>
<totfact> 0.45867565E+01</totfact>
</mgrwt>
</event>
<event>
12    1  0.2588309E-007  0.1892696E+04  0.7818608E-02  0.8658501E-01
          1   -1    0    0  501    0  0.00000000000E+00  0.00000000000E+00  0.86507754903E+03  0.86507754903E+03  0.00000000000E+00 0. -1.
         -1   -1    0    0    0  501 -0.00000000000E+00 -0.00000000000E+00 -0.10352535627E+04  0.10352535627E+04  0.00000000000E+00 0.  1.
         23    2    1    2    0    0  0.23341058004E+03  0.62773478259E+03  0.22266587584E+03  0.71177183266E+03  0.92236616123E+02 0.  0.
        254    2    1    2    0    0 -0.23341058004E+03 -0.62773478259E+03 -0.39284188948E+03  0.11885592790E+04  0.89989830176E+03 0.  0.
        -24    2    4    4    0    0  0.14577874155E+02 -0.54788470409E+03 -0.62270054067E+03  0.83333642088E+03  0.79394355124E+02 0.  0.
         24    2    4    4    0    0 -0.24798845420E+03 -0.79850078503E+02  0.22985865119E+03  0.35522285816E+03  0.73986289157E+02 0.  0.
         13    1    3    3    0    0  0.12848169888E+03  0.25377042350E+03  0.60124405450E+02  0.29072653632E+03  0.00000000000E+00 0.  1.
        -13    1    3    3    0    0  0.10492888116E+03  0.37396435909E+03  0.16254147039E+03  0.42104529634E+03  0.00000000000E+00 0. -1.
          2    1    6    6  502    0 -0.16572722932E+03 -0.67767429904E+02  0.11271373190E+03  0.21157108605E+03  0.00000000000E+00 0. -1.
          1    1    5    5  503    0  0.37178692185E+02 -0.13577357533E+03 -0.14664931298E+03  0.20327995451E+03  0.00000000000E+00 0. -1.
         -2    1    5    5    0  503 -0.22600818030E+02 -0.41211112876E+03 -0.47605122769E+03  0.63005646637E+03  0.00000000000E+00 0.  1.
         -1    1    6    6    0  502 -0.82261224874E+02 -0.12082648600E+02  0.11714491929E+03  0.14365177211E+03  0.00000000000E+00 0.  1.
<mgrwt>
<rscale>  0 0.18926961E+04</rscale>
<asrwt>0</asrwt>
<pdfrwt beam="1">  1        1 0.13308885E+00 0.18926961E+04</pdfrwt>
<pdfrwt beam="2">  1       -1 0.15926978E+00 0.18926961E+04</pdfrwt>
<totfact> 0.53903690E+00</totfact>
</mgrwt>
</event>
<event>
12    1  0.2588309E-007  0.1549547E+04  0.7818608E-02  0.8852157E-01
         -2   -1    0    0    0  501 -0.00000000000E+00  0.00000000000E+00  0.14740059290E+04  0.14740059290E+04  0.00000000000E+00 0.  1.
          2   -1    0    0  501    0  0.00000000000E+00 -0.00000000000E+00 -0.40724006670E+03  0.40724006670E+03  0.00000000000E+00 0. -1.
         23    2    1    2    0    0  0.32614894980E+03 -0.13074872430E+03 -0.94981184772E+02  0.37296242673E+03  0.81309162656E+02 0.  0.
        254    2    1    2    0    0 -0.32614894980E+03  0.13074872430E+03  0.11617470471E+04  0.15082835690E+04  0.89542992841E+03 0.  0.
        -24    2    4    4    0    0 -0.35457054948E+03  0.44806803401E+03  0.96690411954E+03  0.11260171074E+04  0.80781880453E+02 0.  0.
         24    2    4    4    0    0  0.28421599684E+02 -0.31731930971E+03  0.19484292754E+03  0.38226646153E+03  0.81636692465E+02 0.  0.
         13    1    3    3    0    0  0.27241696206E+03 -0.12864834933E+03 -0.10343658232E+03  0.31852868877E+03  0.00000000000E+00 0. -1.
        -13    1    3    3    0    0  0.53731987734E+02 -0.21003749694E+01  0.84553975508E+01  0.54433737962E+02  0.00000000000E+00 0.  1.
          4    1    6    6  502    0  0.21738171184E+02 -0.10066958507E+03  0.10664431679E+03  0.14825627726E+03  0.00000000000E+00 0. -1.
          3    1    5    5  503    0 -0.24993834885E+03  0.35406579579E+03  0.67785467215E+03  0.80456119875E+03  0.00000000000E+00 0. -1.
         -4    1    5    5    0  503 -0.10463220063E+03  0.94002238224E+02  0.28904944738E+03  0.32145590869E+03  0.00000000000E+00 0.  1.
         -3    1    6    6    0  502  0.66834285002E+01 -0.21664972464E+03  0.88198610749E+02  0.23401018427E+03  0.00000000000E+00 0.  1.
<mgrwt>
<rscale>  0 0.15495474E+04</rscale>
<asrwt>0</asrwt>
<pdfrwt beam="1">  1        2 0.62652319E-01 0.15495474E+04</pdfrwt>
<pdfrwt beam="2">  1       -2 0.22677014E+00 0.15495474E+04</pdfrwt>
<totfact> 0.67161244E+00</totfact>
</mgrwt>
</event>
<event>
12    1  0.2588309E-007  0.1127401E+04  0.7818608E-02  0.9178889E-01
          1   -1    0    0  501    0  0.00000000000E+00  0.00000000000E+00  0.79517960507E+03  0.79517960507E+03  0.00000000000E+00 0. -1.
         -1   -1    0    0    0  501 -0.00000000000E+00 -0.00000000000E+00 -0.39960566977E+03  0.39960566977E+03  0.00000000000E+00 0.  1.
         23    2    1    2    0    0 -0.51963512109E+02  0.17248706977E+03  0.15216766155E+02  0.20093612908E+03  0.87702805945E+02 0.  0.
        254    2    1    2    0    0  0.51963512109E+02 -0.17248706977E+03  0.38035716914E+03  0.99384914576E+03  0.90034024268E+03 0.  0.
        -24    2    4    4    0    0  0.39653029806E+03 -0.33856711187E+03  0.21253465201E+03  0.56860822560E+03  0.79248781604E+02 0.  0.
         24    2    4    4    0    0 -0.34456678595E+03  0.16608004210E+03  0.16782251712E+03  0.42524092016E+03  0.79728241924E+02 0.  0.
         11    1    3    3    0    0 -0.58747634092E+02  0.11636392496E+03  0.43896700622E+02  0.13754551199E+03  0.00000000000E+00 0. -1.
        -11    1    3    3    0    0  0.67841219829E+01  0.56123144809E+02 -0.28679934466E+02  0.63390617092E+02  0.00000000000E+00 0.  1.
          4    1    6    6  502    0 -0.11359026918E+03  0.77588042215E+02  0.25605735205E+02  0.13992250434E+03  0.00000000000E+00 0. -1.
          1    1    5    5  503    0  0.14316471618E+03 -0.17231671037E+03  0.10021395414E+03  0.24542212866E+03  0.00000000000E+00 0. -1.
         -2    1    5    5    0  503  0.25336558188E+03 -0.16625040150E+03  0.11232069788E+03  0.32318609694E+03  0.00000000000E+00 0.  1.
         -3    1    6    6    0  502 -0.23097651678E+03  0.88491999888E+02  0.14221678192E+03  0.28531841582E+03  0.00000000000E+00 0.  1.
<mgrwt>
<rscale>  0 0.11274010E+04</rscale>
<asrwt>0</asrwt>
<pdfrwt beam="1">  1        1 0.12233532E+00 0.11274010E+04</pdfrwt>
<pdfrwt beam="2">  1       -1 0.61477795E-01 0.11274010E+04</pdfrwt>
<totfact> 0.59599140E+01</totfact>
</mgrwt>
</event>
<event>
12    1  0.2588309E-007  0.1114002E+04  0.7818608E-02  0.9191651E-01
          1   -1    0    0  501    0  0.00000000000E+00  0.00000000000E+00  0.41796837390E+03  0.41796837390E+03  0.00000000000E+00 0. -1.
         -1   -1    0    0    0  501 -0.00000000000E+00 -0.00000000000E+00 -0.74228159257E+03  0.74228159257E+03  0.00000000000E+00 0.  1.
         23    2    1    2    0    0  0.12812982048E+03 -0.80570093043E+02  0.32455261730E+02  0.18115247950E+03  0.94096153078E+02 0.  0.
        254    2    1    2    0    0 -0.12812982048E+03  0.80570093043E+02 -0.35676848039E+03  0.97909748698E+03  0.89913255397E+03 0.  0.
        -24    2    4    4    0    0  0.12184148194E+03  0.22072355937E+02  0.26406405972E+03  0.30249515691E+03  0.80255571123E+02 0.  0.
         24    2    4    4    0    0 -0.24997130243E+03  0.58497737107E+02 -0.62083254012E+03  0.67660233007E+03  0.80312096883E+02 0.  0.
         13    1    3    3    0    0  0.11323353957E+03 -0.77510987667E+02  0.59939573905E+02  0.14974157810E+03  0.00000000000E+00 0. -1.
        -13    1    3    3    0    0  0.14896280913E+02 -0.30591053759E+01 -0.27484312174E+02  0.31410901395E+02  0.00000000000E+00 0.  1.
          2    1    6    6  502    0 -0.71148531575E+02  0.51969600293E+02 -0.16813541177E+03  0.18982220521E+03  0.00000000000E+00 0. -1.
          3    1    5    5  503    0  0.11419982589E+02 -0.89705430451E+01 -0.79614779797E-01  0.14522154915E+02  0.00000000000E+00 0. -1.
         -4    1    5    5    0  503  0.11042149936E+03  0.31042898982E+02  0.26414367450E+03  0.28797300199E+03  0.00000000000E+00 0.  1.
         -1    1    6    6    0  502 -0.17882277085E+03  0.65281368133E+01 -0.45269712835E+03  0.48678012486E+03  0.00000000000E+00 0.  1.
<mgrwt>
<rscale>  0 0.11140022E+04</rscale>
<asrwt>0</asrwt>
<pdfrwt beam="1">  1        1 0.64302827E-01 0.11140022E+04</pdfrwt>
<pdfrwt beam="2">  1       -1 0.11419717E+00 0.11140022E+04</pdfrwt>
<totfact> 0.39330648E+01</totfact>
</mgrwt>
</event>
<event>
12    1  0.2588309E-007  0.2535217E+04  0.7818608E-02  0.8390546E-01
          1   -1    0    0  501    0  0.00000000000E+00  0.00000000000E+00  0.22957184370E+04  0.22957184370E+04  0.00000000000E+00 0. -1.
         -1   -1    0    0    0  501 -0.00000000000E+00 -0.00000000000E+00 -0.69992514479E+03  0.69992514479E+03  0.00000000000E+00 0.  1.
         23    2    1    2    0    0  0.97648966572E+03  0.43433187231E+02  0.13102169705E+04  0.16372615244E+04  0.92402815556E+02 0.  0.
        254    2    1    2    0    0 -0.97648966572E+03 -0.43433187231E+02  0.28557632171E+03  0.13583820574E+04  0.89901583383E+03 0.  0.
        -24    2    4    4    0    0 -0.10491900778E+04  0.15992772937E+03  0.11193437089E+03  0.10701104553E+04  0.78932789325E+02 0.  0.
         24    2    4    4    0    0  0.72700412084E+02 -0.20336091660E+03  0.17364195081E+03  0.28827160212E+03  0.79422775012E+02 0.  0.
         13    1    3    3    0    0  0.80366513641E+03  0.32542344010E+02  0.11331623486E+04  0.13896019444E+04  0.00000000000E+00 0. -1.
        -13    1    3    3    0    0  0.17282452930E+03  0.10890843221E+02  0.17705462187E+03  0.24765957991E+03  0.00000000000E+00 0.  1.
          2    1    6    6  502    0  0.75330000554E+02 -0.20606496929E+03  0.17798644031E+03  0.28251823567E+03  0.00000000000E+00 0. -1.
          3    1    5    5  503    0 -0.38805814851E+03  0.90715255396E+02  0.64149386846E+02  0.40365025457E+03  0.00000000000E+00 0. -1.
         -4    1    5    5    0  503 -0.66113192929E+03  0.69212473974E+02  0.47784984048E+02  0.66646020075E+03  0.00000000000E+00 0.  1.
         -1    1    6    6    0  502 -0.26295884702E+01  0.27040526906E+01 -0.43444895011E+01  0.57533664494E+01  0.00000000000E+00 0.  1.
<mgrwt>
<rscale>  0 0.25352168E+04</rscale>
<asrwt>0</asrwt>
<pdfrwt beam="1">  1        1 0.35318745E+00 0.25352168E+04</pdfrwt>
<pdfrwt beam="2">  1       -1 0.10768079E+00 0.25352168E+04</pdfrwt>
<totfact> 0.13314812E+00</totfact>
</mgrwt>
</event>
<event>
12    1  0.2588309E-007  0.2660841E+04  0.7818608E-02  0.8347824E-01
         -2   -1    0    0    0  501 -0.00000000000E+00  0.00000000000E+00  0.29124835338E+04  0.29124835338E+04  0.00000000000E+00 0.  1.
          2   -1    0    0  501    0  0.00000000000E+00 -0.00000000000E+00 -0.60773533345E+03  0.60773533345E+03  0.00000000000E+00 0. -1.
         23    2    1    2    0    0 -0.13002144254E+03  0.69440045794E+03 -0.22200494931E+03  0.74609320996E+03  0.90946736768E+02 0.  0.
        254    2    1    2    0    0  0.13002144254E+03 -0.69440045794E+03  0.25267531497E+04  0.27741256573E+04  0.90121812654E+03 0.  0.
        -24    2    4    4    0    0 -0.14209654319E+03 -0.60594996853E+03  0.23394790615E+04  0.24221367409E+04  0.78849985918E+02 0.  0.
         24    2    4    4    0    0  0.27211798573E+03 -0.88450489400E+02  0.18727408817E+03  0.35198891644E+03  0.83384206900E+02 0.  0.
         11    1    3    3    0    0 -0.62978060312E+02  0.41056620692E+03 -0.17481025101E+03  0.45065449094E+03  0.00000000000E+00 0. -1.
        -11    1    3    3    0    0 -0.67043382228E+02  0.28383425101E+03 -0.47194698309E+02  0.29543871902E+03  0.00000000000E+00 0.  1.
          2    1    6    6  502    0  0.12501246404E+03 -0.82343298038E+02  0.10956584643E+03  0.18550797719E+03  0.00000000000E+00 0. -1.
          1    1    5    5  503    0 -0.14267739014E+03 -0.48759539552E+03  0.19478357171E+04  0.20130002703E+04  0.00000000000E+00 0. -1.
         -2    1    5    5    0  503  0.58084694622E+00 -0.11835457302E+03  0.39164334444E+03  0.40913647061E+03  0.00000000000E+00 0.  1.
         -1    1    6    6    0  502  0.14710552169E+03 -0.61071913620E+01  0.77708241745E+02  0.16648093925E+03  0.00000000000E+00 0.  1.
<mgrwt>
<rscale>  0 0.26608413E+04</rscale>
<asrwt>0</asrwt>
<pdfrwt beam="1">  1        2 0.93497745E-01 0.26608413E+04</pdfrwt>
<pdfrwt beam="2">  1       -2 0.44807438E+00 0.26608413E+04</pdfrwt>
<totfact> 0.15342619E-01</totfact>
</mgrwt>
</event>
<event>
12    1  0.2588309E-007  0.3562621E+04  0.7818608E-02  0.8099108E-01
         -2   -1    0    0    0  501 -0.00000000000E+00  0.00000000000E+00  0.17213006096E+04  0.17213006096E+04  0.00000000000E+00 0.  1.
          2   -1    0    0  501    0  0.00000000000E+00 -0.00000000000E+00 -0.18434120394E+04  0.18434120394E+04  0.00000000000E+00 0. -1.
         23    2    1    2    0    0 -0.72347815147E+03  0.22055220039E+03  0.14283693588E+04  0.16188993936E+04  0.92370518648E+02 0.  0.
        254    2    1    2    0    0  0.72347815147E+03 -0.22055220039E+03 -0.15504807886E+04  0.19458132555E+04  0.90007479738E+03 0.  0.
        -24    2    4    4    0    0  0.78381203765E+03 -0.39113636612E+03 -0.15036538787E+04  0.17421114216E+04  0.81414071761E+02 0.  0.
         24    2    4    4    0    0 -0.60333886179E+02  0.17058416573E+03 -0.46826909849E+02  0.20370183390E+03  0.81009519376E+02 0.  0.
         13    1    3    3    0    0 -0.10784504663E+03  0.36340882707E+02  0.15187280882E+03  0.18978030430E+03  0.00000000000E+00 0. -1.
        -13    1    3    3    0    0 -0.61563310484E+03  0.18421131769E+03  0.12764965499E+04  0.14291190893E+04  0.00000000000E+00 0.  1.
          4    1    6    6  502    0 -0.44959182207E+02  0.10277293972E+03 -0.67801359628E+02  0.13107490061E+03  0.00000000000E+00 0. -1.
          1    1    5    5  503    0  0.78186255569E+03 -0.39407401441E+03 -0.15009911041E+04  0.17376932064E+04  0.00000000000E+00 0. -1.
         -2    1    5    5    0  503  0.19494819666E+01  0.29376482888E+01 -0.26627745888E+01  0.44182152412E+01  0.00000000000E+00 0.  1.
         -3    1    6    6    0  502 -0.15374703972E+02  0.67811226010E+02  0.20974449780E+02  0.72626933287E+02  0.00000000000E+00 0.  1.
<mgrwt>
<rscale>  0 0.35626205E+04</rscale>
<asrwt>0</asrwt>
<pdfrwt beam="1">  1        2 0.28360185E+00 0.35626205E+04</pdfrwt>
<pdfrwt beam="2">  1       -2 0.26481548E+00 0.35626205E+04</pdfrwt>
<totfact> 0.34793776E-01</totfact>
</mgrwt>
</event>
<event>
12    1  0.2588309E-007  0.2544058E+04  0.7818608E-02  0.8387456E-01
          2   -1    0    0  501    0  0.00000000000E+00  0.00000000000E+00  0.31207571079E+04  0.31207571079E+04  0.00000000000E+00 0.  1.
         -2   -1    0    0    0  501 -0.00000000000E+00 -0.00000000000E+00 -0.51848235676E+03  0.51848235676E+03  0.00000000000E+00 0. -1.
         23    2    1    2    0    0 -0.49691121342E+03 -0.82942005760E+03  0.19195881558E+04  0.21517693124E+04  0.10214744391E+03 0.  0.
        254    2    1    2    0    0  0.49691121342E+03  0.82942005760E+03  0.68268659538E+03  0.14874701522E+04  0.90091513487E+03 0.  0.
        -24    2    4    4    0    0  0.66046245193E+02  0.50036644307E+03 -0.11084196899E+03  0.52309718904E+03  0.81339063427E+02 0.  0.
         24    2    4    4    0    0  0.43086496823E+03  0.32905361453E+03  0.79352856437E+03  0.96437296317E+03  0.80042036058E+02 0.  0.
         11    1    3    3    0    0 -0.20548813071E+03 -0.31505143480E+03  0.85413521027E+03  0.93328973843E+03  0.00000000000E+00 0.  1.
        -11    1    3    3    0    0 -0.29142308270E+03 -0.51436862279E+03  0.10654529455E+04  0.12184795740E+04  0.00000000000E+00 0. -1.
          2    1    6    6  502    0  0.11212899769E+03  0.74536211409E+02  0.25994677786E+03  0.29274713706E+03  0.00000000000E+00 0. -1.
          1    1    5    5  503    0  0.27088674867E+02  0.22281648303E+03 -0.81484943676E+01  0.22460494067E+03  0.00000000000E+00 0. -1.
         -2    1    5    5    0  503  0.38957570326E+02  0.27754996004E+03 -0.10269347462E+03  0.29849224837E+03  0.00000000000E+00 0.  1.
         -1    1    6    6    0  502  0.31873597053E+03  0.25451740312E+03  0.53358178651E+03  0.67162582611E+03  0.00000000000E+00 0.  1.
<mgrwt>
<rscale>  0 0.25440578E+04</rscale>
<asrwt>0</asrwt>
<pdfrwt beam="1">  1        2 0.48011647E+00 0.25440578E+04</pdfrwt>
<pdfrwt beam="2">  1       -2 0.79766518E-01 0.25440578E+04</pdfrwt>
<totfact> 0.18049669E+00</totfact>
</mgrwt>
</event>
<event>
12    1  0.2588309E-007  0.1663174E+04  0.7818608E-02  0.8782651E-01
         -2   -1    0    0    0  501 -0.00000000000E+00  0.00000000000E+00  0.40760186085E+03  0.40760186085E+03  0.00000000000E+00 0.  1.
          2   -1    0    0  501    0  0.00000000000E+00 -0.00000000000E+00 -0.16965995616E+04  0.16965995616E+04  0.00000000000E+00 0. -1.
         23    2    1    2    0    0 -0.56712141163E+03 -0.10438729434E+03 -0.35198344945E+03  0.68190955006E+03  0.92654643828E+02 0.  0.
        254    2    1    2    0    0  0.56712141163E+03  0.10438729434E+03 -0.93701425134E+03  0.14222918724E+04  0.90132960700E+03 0.  0.
        -24    2    4    4    0    0  0.18455207005E+03  0.23179919102E+03  0.86961861261E+02  0.31891363037E+03  0.79707005969E+02 0.  0.
         24    2    4    4    0    0  0.38256934158E+03 -0.12741189668E+03 -0.10239761126E+04  0.11033782421E+04  0.79519641421E+02 0.  0.
         13    1    3    3    0    0 -0.17915930187E+03 -0.10638767129E+01 -0.14334471528E+03  0.22944911130E+03  0.00000000000E+00 0. -1.
        -13    1    3    3    0    0 -0.38796210976E+03 -0.10332341763E+03 -0.20863873418E+03  0.45246043876E+03  0.00000000000E+00 0.  1.
          2    1    6    6  502    0  0.22534292112E+03 -0.95125310302E+02 -0.70633113041E+03  0.74748372727E+03  0.00000000000E+00 0. -1.
          3    1    5    5  503    0  0.92158244389E+02  0.17539247991E+03  0.64421388838E+02  0.20834053700E+03  0.00000000000E+00 0. -1.
         -4    1    5    5    0  503  0.92393825664E+02  0.56406711109E+02  0.22540472423E+02  0.11057309336E+03  0.00000000000E+00 0.  1.
         -3    1    6    6    0  502  0.15722642046E+03 -0.32286586381E+02 -0.31764498219E+03  0.35589451480E+03  0.00000000000E+00 0.  1.
<mgrwt>
<rscale>  0 0.16631742E+04</rscale>
<asrwt>0</asrwt>
<pdfrwt beam="1">  1        2 0.26101531E+00 0.16631742E+04</pdfrwt>
<pdfrwt beam="2">  1       -2 0.62707979E-01 0.16631742E+04</pdfrwt>
<totfact> 0.22159995E+01</totfact>
</mgrwt>
</event>
<event>
12    1  0.2588309E-007  0.1648201E+04  0.7818608E-02  0.8791471E-01
         -2   -1    0    0    0  501 -0.00000000000E+00  0.00000000000E+00  0.56844837060E+03  0.56844837060E+03  0.00000000000E+00 0.  1.
          2   -1    0    0  501    0  0.00000000000E+00 -0.00000000000E+00 -0.11947294175E+04  0.11947294175E+04  0.00000000000E+00 0. -1.
         23    2    1    2    0    0 -0.45883324877E+03  0.33489242285E+03 -0.14138264518E+03  0.59264135930E+03  0.92486990034E+02 0.  0.
        254    2    1    2    0    0  0.45883324877E+03 -0.33489242285E+03 -0.48489840171E+03  0.11705364288E+04  0.90130360374E+03 0.  0.
        -24    2    4    4    0    0  0.48358387900E+03 -0.56101586386E+03 -0.54273346639E+03  0.92169254144E+03  0.79783192872E+02 0.  0.
         24    2    4    4    0    0 -0.24750630230E+02  0.22612344101E+03  0.57835064673E+02  0.24884388737E+03  0.82667897655E+02 0.  0.
         13    1    3    3    0    0 -0.26374873626E+03  0.19271932505E+03 -0.33935162277E+02  0.32841396037E+03  0.00000000000E+00 0.  1.
        -13    1    3    3    0    0 -0.19508451251E+03  0.14217309781E+03 -0.10744748290E+03  0.26422739893E+03  0.00000000000E+00 0. -1.
          2    1    6    6  502    0  0.11223908107E+02  0.13616989374E+02 -0.13059797905E+02  0.21953515302E+02  0.00000000000E+00 0. -1.
          1    1    5    5  503    0  0.12828351361E+03 -0.12173002767E+03 -0.94603701733E+02  0.20056101287E+03  0.00000000000E+00 0. -1.
         -2    1    5    5    0  503  0.35530036540E+03 -0.43928583619E+03 -0.44812976465E+03  0.72113152857E+03  0.00000000000E+00 0.  1.
         -1    1    6    6    0  502 -0.35974538337E+02  0.21250645164E+03  0.70894862578E+02  0.22689037206E+03  0.00000000000E+00 0.  1.
<mgrwt>
<rscale>  0 0.16482014E+04</rscale>
<asrwt>0</asrwt>
<pdfrwt beam="1">  1        2 0.18380452E+00 0.16482014E+04</pdfrwt>
<pdfrwt beam="2">  1       -2 0.87453597E-01 0.16482014E+04</pdfrwt>
<totfact> 0.20582325E+01</totfact>
</mgrwt>
</event>
<event>
12    1  0.2588309E-007  0.2038887E+04  0.7818608E-02  0.8588652E-01
          1   -1    0    0  501    0  0.00000000000E+00  0.00000000000E+00  0.71567741435E+03  0.71567741435E+03  0.00000000000E+00 0. -1.
         -1   -1    0    0    0  501 -0.00000000000E+00 -0.00000000000E+00 -0.14521422990E+04  0.14521422990E+04  0.00000000000E+00 0.  1.
         23    2    1    2    0    0  0.28798794295E+03  0.63152020064E+03 -0.75625913412E+03  0.10305304564E+04  0.91160981506E+02 0.  0.
        254    2    1    2    0    0 -0.28798794295E+03 -0.63152020064E+03  0.19794249510E+02  0.11372892569E+04  0.90071095388E+03 0.  0.
        -24    2    4    4    0    0 -0.54435738381E+03 -0.63867364507E+03 -0.88635536402E+02  0.84760950732E+03  0.79728491662E+02 0.  0.
         24    2    4    4    0    0  0.25636944085E+03  0.71534444320E+01  0.10842978591E+03  0.28967974957E+03  0.79880391012E+02 0.  0.
         11    1    3    3    0    0  0.15802638927E+03  0.43932527127E+03 -0.53264253353E+03  0.70829873797E+03  0.00000000000E+00 0.  1.
        -11    1    3    3    0    0  0.12996155368E+03  0.19219492937E+03 -0.22361660059E+03  0.32223171844E+03  0.00000000000E+00 0. -1.
          2    1    6    6  502    0  0.85361869890E+02 -0.22053223575E+02  0.68531366491E+02  0.11166710211E+03  0.00000000000E+00 0. -1.
          3    1    5    5  503    0 -0.25891825384E+03 -0.26480711507E+03 -0.69698060128E+02  0.37685446786E+03  0.00000000000E+00 0. -1.
         -4    1    5    5    0  503 -0.28543912997E+03 -0.37386653000E+03 -0.18937476274E+02  0.47075503946E+03  0.00000000000E+00 0.  1.
         -1    1    6    6    0  502  0.17100757096E+03  0.29206668007E+02  0.39898419421E+02  0.17801264746E+03  0.00000000000E+00 0.  1.
<mgrwt>
<rscale>  0 0.20388874E+04</rscale>
<asrwt>0</asrwt>
<pdfrwt beam="1">  1        1 0.11010422E+00 0.20388874E+04</pdfrwt>
<pdfrwt beam="2">  1       -1 0.22340651E+00 0.20388874E+04</pdfrwt>
<totfact> 0.25423436E+00</totfact>
</mgrwt>
</event>
<event>
12    1  0.2588309E-007  0.1500456E+04  0.7818608E-02  0.8884150E-01
         -2   -1    0    0    0  501 -0.00000000000E+00  0.00000000000E+00  0.36705435730E+03  0.36705435730E+03  0.00000000000E+00 0. -1.
          2   -1    0    0  501    0  0.00000000000E+00 -0.00000000000E+00 -0.15334027925E+04  0.15334027925E+04  0.00000000000E+00 0.  1.
         23    2    1    2    0    0 -0.32941666321E+03 -0.34107054797E+03 -0.33792533974E+03  0.58861646474E+03  0.86205281902E+02 0.  0.
        254    2    1    2    0    0  0.32941666321E+03  0.34107054797E+03 -0.82842309547E+03  0.13118406851E+04  0.89988704913E+03 0.  0.
        -24    2    4    4    0    0  0.27021394639E+03  0.64083628840E+03 -0.57622984666E+03  0.90682037522E+03  0.81213492576E+02 0.  0.
         24    2    4    4    0    0  0.59202716823E+02 -0.29976574042E+03 -0.25219324881E+03  0.40502030985E+03  0.84116323240E+02 0.  0.
         13    1    3    3    0    0 -0.10759118619E+03 -0.90313296177E+02 -0.14648852061E+03  0.20295625509E+03  0.00000000000E+00 0. -1.
        -13    1    3    3    0    0 -0.22182547702E+03 -0.25075725180E+03 -0.19143681913E+03  0.38566020965E+03  0.00000000000E+00 0.  1.
          4    1    6    6  502    0 -0.11500742239E+02 -0.22441372937E+02 -0.27319732249E+01  0.25364265593E+02  0.00000000000E+00 0. -1.
          1    1    5    5  503    0  0.21024064133E+03  0.40883851069E+03 -0.39976433552E+03  0.60923031691E+03  0.00000000000E+00 0. -1.
         -2    1    5    5    0  503  0.59973305063E+02  0.23199777771E+03 -0.17646551114E+03  0.29759005831E+03  0.00000000000E+00 0.  1.
         -3    1    6    6    0  502  0.70703459062E+02 -0.27732436749E+03 -0.24946127559E+03  0.37965604426E+03  0.00000000000E+00 0.  1.
<mgrwt>
<rscale>  0 0.15004562E+04</rscale>
<asrwt>0</asrwt>
<pdfrwt beam="1">  1        2 0.23590812E+00 0.15004562E+04</pdfrwt>
<pdfrwt beam="2">  1       -2 0.56469901E-01 0.15004562E+04</pdfrwt>
<totfact> 0.34549065E+01</totfact>
</mgrwt>
</event>
<event>
12    1  0.2588309E-007  0.3264922E+04  0.7818608E-02  0.8171879E-01
          2   -1    0    0  501    0  0.00000000000E+00  0.00000000000E+00  0.21204330592E+04  0.21204330592E+04  0.00000000000E+00 0. -1.
         -2   -1    0    0    0  501 -0.00000000000E+00 -0.00000000000E+00 -0.12567848386E+04  0.12567848386E+04  0.00000000000E+00 0.  1.
         23    2    1    2    0    0 -0.11791452270E+04  0.85000046870E+03 -0.10663654757E+02  0.14564631135E+04  0.91031996423E+02 0.  0.
        254    2    1    2    0    0  0.11791452270E+04 -0.85000046870E+03  0.87431187539E+03  0.19207547842E+04  0.90110677644E+03 0.  0.
        -24    2    4    4    0    0  0.10439104184E+03 -0.33591998283E+03 -0.10565169921E+03  0.37604684973E+03  0.80679781649E+02 0.  0.
         24    2    4    4    0    0  0.10747541851E+04 -0.51408048587E+03  0.97996357460E+03  0.15447079345E+04  0.80116732973E+02 0.  0.
         13    1    3    3    0    0 -0.25961896206E+03  0.22371559862E+03  0.22216735698E+02  0.34343013536E+03  0.00000000000E+00 0. -1.
        -13    1    3    3    0    0 -0.91952626492E+03  0.62628487008E+03 -0.32880390455E+02  0.11130329781E+04  0.00000000000E+00 0.  1.
          2    1    6    6  502    0  0.53893903388E+03 -0.21368471422E+03  0.46996834296E+03  0.74631540431E+03  0.00000000000E+00 0. -1.
          3    1    5    5  503    0  0.12468621517E+02 -0.91204621401E+02  0.49854483130E+01  0.92187874378E+02  0.00000000000E+00 0. -1.
         -4    1    5    5    0  503  0.91922420324E+02 -0.24471536143E+03 -0.11063714752E+03  0.28385897535E+03  0.00000000000E+00 0.  1.
         -1    1    6    6    0  502  0.53581515126E+03 -0.30039577165E+03  0.50999523164E+03  0.79839253018E+03  0.00000000000E+00 0.  1.
<mgrwt>
<rscale>  0 0.32649215E+04</rscale>
<asrwt>0</asrwt>
<pdfrwt beam="1">  1        2 0.32622047E+00 0.32649215E+04</pdfrwt>
<pdfrwt beam="2">  1       -2 0.19335151E+00 0.32649215E+04</pdfrwt>
<totfact> 0.70564092E-01</totfact>
</mgrwt>
</event>
<event>
12    1  0.2588309E-007  0.1111312E+04  0.7818608E-02  0.9194236E-01
          1   -1    0    0  501    0  0.00000000000E+00  0.00000000000E+00  0.32901409352E+03  0.32901409352E+03  0.00000000000E+00 0. -1.
         -1   -1    0    0    0  501 -0.00000000000E+00 -0.00000000000E+00 -0.93842127547E+03  0.93842127547E+03  0.00000000000E+00 0.  1.
         23    2    1    2    0    0  0.24430096769E+02 -0.13353024338E+03 -0.22894646113E+03  0.28094128021E+03  0.89913098812E+02 0.  0.
        254    2    1    2    0    0 -0.24430096769E+02  0.13353024338E+03 -0.38046072082E+03  0.98649408879E+03  0.89999615088E+03 0.  0.
        -24    2    4    4    0    0  0.33738618964E+03  0.18789196689E+03 -0.45742744754E+03  0.60390010333E+03  0.79514985119E+02 0.  0.
         24    2    4    4    0    0 -0.36181628641E+03 -0.54361723512E+02  0.76966726718E+02  0.38259398546E+03  0.81166856491E+02 0.  0.
         13    1    3    3    0    0  0.36666722498E+02 -0.98778722150E+01 -0.43873296858E+02  0.58024883244E+02  0.00000000000E+00 0. -1.
        -13    1    3    3    0    0 -0.12236625729E+02 -0.12365237116E+03 -0.18507316427E+03  0.22291639697E+03  0.00000000000E+00 0.  1.
          2    1    6    6  502    0 -0.15348127061E+03 -0.42806451777E+02 -0.23919743140E+01  0.15935687712E+03  0.00000000000E+00 0. -1.
          3    1    5    5  503    0  0.75052229202E+02  0.84863215663E+01 -0.10489235265E+03  0.12925656814E+03  0.00000000000E+00 0. -1.
         -4    1    5    5    0  503  0.26233396044E+03  0.17940564532E+03 -0.35253509489E+03  0.47464353519E+03  0.00000000000E+00 0.  1.
         -1    1    6    6    0  502 -0.20833501579E+03 -0.11555271735E+02  0.79358701032E+02  0.22323710834E+03  0.00000000000E+00 0.  1.
<mgrwt>
<rscale>  0 0.11113124E+04</rscale>
<asrwt>0</asrwt>
<pdfrwt beam="1">  1        1 0.50617552E-01 0.11113124E+04</pdfrwt>
<pdfrwt beam="2">  1       -1 0.14437250E+00 0.11113124E+04</pdfrwt>
<totfact> 0.29903902E+01</totfact>
</mgrwt>
</event>
<event>
12    1  0.2588309E-007  0.2140187E+04  0.7818608E-02  0.8543744E-01
          2   -1    0    0  501    0  0.00000000000E+00  0.00000000000E+00  0.75112748951E+03  0.75112748951E+03  0.00000000000E+00 0. -1.
         -2   -1    0    0    0  501 -0.00000000000E+00 -0.00000000000E+00 -0.15245089889E+04  0.15245089889E+04  0.00000000000E+00 0.  1.
         23    2    1    2    0    0 -0.65166053696E+02  0.86933472158E+03 -0.43414544972E+03  0.97803621372E+03  0.89906012847E+02 0.  0.
        254    2    1    2    0    0  0.65166053696E+02 -0.86933472158E+03 -0.33923604962E+03  0.12976002646E+04  0.89927519522E+03 0.  0.
        -24    2    4    4    0    0  0.58803501583E+02 -0.10436191263E+04 -0.21774048467E+03  0.10706292649E+04  0.78977032269E+02 0.  0.
         24    2    4    4    0    0  0.63625521138E+01  0.17428440468E+03 -0.12149556496E+03  0.22697099978E+03  0.79618632563E+02 0.  0.
         11    1    3    3    0    0  0.12609315993E+02  0.20651577623E+03 -0.74302267120E+02  0.21983763914E+03  0.00000000000E+00 0. -1.
        -11    1    3    3    0    0 -0.77775369689E+02  0.66281894535E+03 -0.35984318260E+03  0.75819857459E+03  0.00000000000E+00 0.  1.
          4    1    6    6  502    0  0.30489589853E+02  0.14838810628E+03 -0.76456063747E+02  0.16968846413E+03  0.00000000000E+00 0. -1.
          3    1    5    5  503    0  0.66707785850E+02 -0.53626981291E+03 -0.96792611448E+02  0.54900277828E+03  0.00000000000E+00 0. -1.
         -4    1    5    5    0  503 -0.79042842676E+01 -0.50734931335E+03 -0.12094787322E+03  0.52162648658E+03  0.00000000000E+00 0.  1.
         -1    1    6    6    0  502 -0.24127037739E+02  0.25896298399E+02 -0.45039501209E+02  0.57282535645E+02  0.00000000000E+00 0.  1.
<mgrwt>
<rscale>  0 0.21401875E+04</rscale>
<asrwt>0</asrwt>
<pdfrwt beam="1">  1        2 0.11555808E+00 0.21401875E+04</pdfrwt>
<pdfrwt beam="2">  1       -2 0.23453984E+00 0.21401875E+04</pdfrwt>
<totfact> 0.27524797E+00</totfact>
</mgrwt>
</event>
<event>
12    1  0.2588309E-007  0.2777327E+04  0.7818608E-02  0.8310342E-01
          2   -1    0    0  501    0  0.00000000000E+00  0.00000000000E+00  0.44715927548E+04  0.44715927548E+04  0.00000000000E+00 0. -1.
         -2   -1    0    0    0  501 -0.00000000000E+00 -0.00000000000E+00 -0.43125265824E+03  0.43125265824E+03  0.00000000000E+00 0.  1.
         23    2    1    2    0    0 -0.93540204690E+03 -0.47397161876E+03  0.63764502874E+03  0.12306819769E+04  0.91437743701E+02 0.  0.
        254    2    1    2    0    0  0.93540204690E+03  0.47397161876E+03  0.34026950678E+04  0.36721634361E+04  0.89823409648E+03 0.  0.
        -24    2    4    4    0    0  0.16637454172E+03  0.12268308742E+03  0.21339652077E+04  0.21454728824E+04  0.80714021389E+02 0.  0.
         24    2    4    4    0    0  0.76902750518E+03  0.35128853134E+03  0.12687298601E+04  0.15266905537E+04  0.79382950763E+02 0.  0.
         13    1    3    3    0    0 -0.10402517492E+03 -0.75191460130E+02  0.52888879880E+02  0.13882444420E+03  0.00000000000E+00 0. -1.
        -13    1    3    3    0    0 -0.83137687198E+03 -0.39878015863E+03  0.58475614886E+03  0.10918575327E+04  0.00000000000E+00 0.  1.
          4    1    6    6  502    0  0.60908738851E+03  0.29510500521E+03  0.96196154508E+03  0.11761991435E+04  0.00000000000E+00 0. -1.
          1    1    5    5  503    0  0.88417328860E+02  0.76433774073E+02  0.15623414990E+04  0.15667069622E+04  0.00000000000E+00 0. -1.
         -2    1    5    5    0  503  0.77957212860E+02  0.46249313346E+02  0.57162370870E+03  0.57876592018E+03  0.00000000000E+00 0.  1.
         -3    1    6    6    0  502  0.15994011667E+03  0.56183526134E+02  0.30676831500E+03  0.35049141019E+03  0.00000000000E+00 0.  1.
<mgrwt>
<rscale>  0 0.27773270E+04</rscale>
<asrwt>0</asrwt>
<pdfrwt beam="1">  1        2 0.68793731E+00 0.27773270E+04</pdfrwt>
<pdfrwt beam="2">  1       -2 0.66346566E-01 0.27773270E+04</pdfrwt>
<totfact> 0.23924670E-01</totfact>
</mgrwt>
</event>
<event>
12    1  0.2588309E-007  0.1277312E+04  0.7818608E-02  0.9047753E-01
         -1   -1    0    0    0  501 -0.00000000000E+00  0.00000000000E+00  0.50436424747E+03  0.50436424747E+03  0.00000000000E+00 0.  1.
          1   -1    0    0  501    0  0.00000000000E+00 -0.00000000000E+00 -0.80870425984E+03  0.80870425984E+03  0.00000000000E+00 0. -1.
         23    2    1    2    0    0  0.25356062835E+03  0.18066985534E+03 -0.83346660182E+02  0.33434128887E+03  0.88897934739E+02 0.  0.
        254    2    1    2    0    0 -0.25356062835E+03 -0.18066985534E+03 -0.22099335218E+03  0.97872721844E+03  0.90118495190E+03 0.  0.
        -24    2    4    4    0    0  0.66068085242E+02  0.15940016823E+03  0.24758618784E+03  0.31228278539E+03  0.80300760414E+02 0.  0.
         24    2    4    4    0    0 -0.31962871359E+03 -0.34007002356E+03 -0.46857954002E+03  0.66644443305E+03  0.82287675525E+02 0.  0.
         13    1    3    3    0    0  0.17826558739E+03  0.87874729977E+02 -0.21847438013E+02  0.19994473827E+03  0.00000000000E+00 0.  1.
        -13    1    3    3    0    0  0.75295040961E+02  0.92795125358E+02 -0.61499222169E+02  0.13439655059E+03  0.00000000000E+00 0. -1.
          2    1    6    6  502    0 -0.31483803762E+03 -0.30545295897E+03 -0.42764334840E+03  0.61262005641E+03  0.00000000000E+00 0. -1.
          1    1    5    5  503    0  0.46453992030E+02  0.10717425689E+03  0.22211194135E+03  0.25095419742E+03  0.00000000000E+00 0. -1.
         -2    1    5    5    0  503  0.19614093212E+02  0.52225911335E+02  0.25474246490E+02  0.61328587963E+02  0.00000000000E+00 0.  1.
         -1    1    6    6    0  502 -0.47906759679E+01 -0.34617064591E+02 -0.40936191619E+02  0.53824376646E+02  0.00000000000E+00 0.  1.
<mgrwt>
<rscale>  0 0.12773120E+04</rscale>
<asrwt>0</asrwt>
<pdfrwt beam="1">  1        1 0.12441604E+00 0.12773120E+04</pdfrwt>
<pdfrwt beam="2">  1       -1 0.77594500E-01 0.12773120E+04</pdfrwt>
<totfact> 0.35603836E+01</totfact>
</mgrwt>
</event>
<event>
12    1  0.2588309E-007  0.3727633E+04  0.7818608E-02  0.8061866E-01
         -2   -1    0    0    0  501 -0.00000000000E+00  0.00000000000E+00  0.24492431663E+04  0.24492431663E+04  0.00000000000E+00 0.  1.
          2   -1    0    0  501    0  0.00000000000E+00 -0.00000000000E+00 -0.14183202765E+04  0.14183202765E+04  0.00000000000E+00 0. -1.
         23    2    1    2    0    0  0.99626586820E+03 -0.14291830268E+04  0.27447946034E+03  0.17661451434E+04  0.93914265442E+02 0.  0.
        254    2    1    2    0    0 -0.99626586820E+03  0.14291830268E+04  0.75644342940E+03  0.21014182994E+04  0.89924546330E+03 0.  0.
        -24    2    4    4    0    0 -0.11204323866E+04  0.14046214967E+04  0.75864726084E+03  0.19519244079E+04  0.78313126344E+02 0.  0.
         24    2    4    4    0    0  0.12416651836E+03  0.24561530026E+02 -0.22038314336E+01  0.14949389158E+03  0.79517128391E+02 0.  0.
         13    1    3    3    0    0  0.19800471914E+03 -0.25505968439E+03  0.83985132250E+02  0.33363874751E+03  0.00000000000E+00 0.  1.
        -13    1    3    3    0    0  0.79826114906E+03 -0.11741233424E+04  0.19049432809E+03  0.14325063959E+04  0.00000000000E+00 0. -1.
          2    1    6    6  502    0 -0.10040199522E+02  0.89492248738E+00  0.79512495287E+01  0.12838569303E+02  0.00000000000E+00 0. -1.
          3    1    5    5  503    0 -0.63994476030E+03  0.86114141239E+03  0.46487360852E+03  0.11692738346E+04  0.00000000000E+00 0. -1.
         -4    1    5    5    0  503 -0.48048762626E+03  0.54348008434E+03  0.29377365232E+03  0.78265057328E+03  0.00000000000E+00 0.  1.
         -1    1    6    6    0  502  0.13420671788E+03  0.23666607539E+02 -0.10155080962E+02  0.13665532227E+03  0.00000000000E+00 0.  1.
<mgrwt>
<rscale>  0 0.37276326E+04</rscale>
<asrwt>0</asrwt>
<pdfrwt beam="1">  1        2 0.21820312E+00 0.37276326E+04</pdfrwt>
<pdfrwt beam="2">  1       -2 0.37680664E+00 0.37276326E+04</pdfrwt>
<totfact> 0.11954045E-01</totfact>
</mgrwt>
</event>
<event>
12    1  0.2588309E-007  0.2072662E+04  0.7818608E-02  0.8573382E-01
          2   -1    0    0  501    0  0.00000000000E+00  0.00000000000E+00  0.14168243206E+04  0.14168243206E+04  0.00000000000E+00 0. -1.
         -2   -1    0    0    0  501 -0.00000000000E+00 -0.00000000000E+00 -0.75802087514E+03  0.75802087514E+03  0.00000000000E+00 0.  1.
         23    2    1    2    0    0  0.10219090618E+03 -0.34000630302E+03  0.10647755743E+04  0.11261715756E+04  0.92022424145E+02 0.  0.
        254    2    1    2    0    0 -0.10219090618E+03  0.34000630302E+03 -0.40597212889E+03  0.10486736202E+04  0.89936406686E+03 0.  0.
        -24    2    4    4    0    0  0.20820284855E+03  0.25205640692E+03  0.17501780420E+03  0.37933662097E+03  0.79901075131E+02 0.  0.
         24    2    4    4    0    0 -0.31039375474E+03  0.87949896105E+02 -0.58098993309E+03  0.66933699918E+03  0.79895237071E+02 0.  0.
         13    1    3    3    0    0  0.14902147737E+02 -0.87498352446E+02  0.16235837723E+03  0.18503588394E+03  0.00000000000E+00 0.  1.
        -13    1    3    3    0    0  0.87288758445E+02 -0.25250795058E+03  0.90241719709E+03  0.94113569163E+03  0.00000000000E+00 0. -1.
          4    1    6    6  502    0 -0.17260061035E+03  0.78376390737E+02 -0.39006320231E+03  0.43368552099E+03  0.00000000000E+00 0. -1.
          3    1    5    5  503    0  0.59269307180E+02  0.11852129178E+03  0.98731639463E+02  0.16525157793E+03  0.00000000000E+00 0. -1.
         -4    1    5    5    0  503  0.14893354137E+03  0.13353511514E+03  0.76286164741E+02  0.21408504304E+03  0.00000000000E+00 0.  1.
         -3    1    6    6    0  502 -0.13779314438E+03  0.95735053673E+01 -0.19092673078E+03  0.23565147818E+03  0.00000000000E+00 0.  1.
<mgrwt>
<rscale>  0 0.20726625E+04</rscale>
<asrwt>0</asrwt>
<pdfrwt beam="1">  1        2 0.21797297E+00 0.20726625E+04</pdfrwt>
<pdfrwt beam="2">  1       -2 0.11661860E+00 0.20726625E+04</pdfrwt>
<totfact> 0.74500334E+00</totfact>
</mgrwt>
</event>
<event>
12    1  0.2620655E-007  0.3631063E+04  0.7818608E-02  0.8083413E-01
          2   -1    0    0  501    0  0.00000000000E+00  0.00000000000E+00  0.34939239453E+04  0.34939239453E+04  0.00000000000E+00 0. -1.
         -2   -1    0    0    0  501 -0.00000000000E+00 -0.00000000000E+00 -0.94339606016E+03  0.94339606016E+03  0.00000000000E+00 0.  1.
         23    2    1    2    0    0 -0.30524782328E+03 -0.11187927143E+04  0.27203153360E+04  0.29586144191E+04  0.91708138018E+02 0.  0.
        254    2    1    2    0    0  0.30524782328E+03  0.11187927143E+04 -0.16978745081E+03  0.14787055864E+04  0.90159251424E+03 0.  0.
        -24    2    4    4    0    0 -0.12750117326E+03  0.91683951518E+03 -0.30177504801E+03  0.97688685780E+03  0.79928139914E+02 0.  0.
         24    2    4    4    0    0  0.43274899654E+03  0.20195319907E+03  0.13198759720E+03  0.50181872861E+03  0.79652507468E+02 0.  0.
         13    1    3    3    0    0 -0.22748837620E+03 -0.66374836432E+03  0.16485373779E+04  0.17916440324E+04  0.00000000000E+00 0.  1.
        -13    1    3    3    0    0 -0.77759447083E+02 -0.45504434993E+03  0.10717779581E+04  0.11669703867E+04  0.00000000000E+00 0. -1.
          4    1    6    6  502    0  0.42575044347E+03  0.18220500804E+03  0.12830616016E+03  0.48054612245E+03  0.00000000000E+00 0. -1.
          3    1    5    5  503    0 -0.13197016674E+03  0.86488909696E+03 -0.29932773144E+03  0.92468717184E+03  0.00000000000E+00 0. -1.
         -4    1    5    5    0  503  0.44689934720E+01  0.51950418218E+02 -0.24473165745E+01  0.52199685958E+02  0.00000000000E+00 0.  1.
         -3    1    6    6    0  502  0.69985530730E+01  0.19748191029E+02  0.36814370427E+01  0.21272606158E+02  0.00000000000E+00 0.  1.
<mgrwt>
<rscale>  0 0.36310627E+04</rscale>
<asrwt>0</asrwt>
<pdfrwt beam="1">  1        2 0.53752675E+00 0.36310627E+04</pdfrwt>
<pdfrwt beam="2">  1       -2 0.14513786E+00 0.36310627E+04</pdfrwt>
<totfact> 0.21778923E-01</totfact>
</mgrwt>
</event>
<event>
12    1  0.2588309E-007  0.2350778E+04  0.7818608E-02  0.8458165E-01
          1   -1    0    0  501    0  0.00000000000E+00  0.00000000000E+00  0.10276692066E+04  0.10276692066E+04  0.00000000000E+00 0. -1.
         -1   -1    0    0    0  501 -0.00000000000E+00 -0.00000000000E+00 -0.13443418667E+04  0.13443418667E+04  0.00000000000E+00 0.  1.
         23    2    1    2    0    0  0.41590010336E+03 -0.85797365489E+03  0.17133875485E+03  0.97311649015E+03  0.92233649162E+02 0.  0.
        254    2    1    2    0    0 -0.41590010336E+03  0.85797365489E+03 -0.48801141494E+03  0.13988945831E+04  0.89981066062E+03 0.  0.
        -24    2    4    4    0    0 -0.40929051551E+03  0.10196778193E+04 -0.30853165929E+03  0.11440798348E+04  0.80407104040E+02 0.  0.
         24    2    4    4    0    0 -0.66095878467E+01 -0.16170416441E+03 -0.17947975565E+03  0.25481474825E+03  0.80781494174E+02 0.  0.
         13    1    3    3    0    0  0.35759282781E+03 -0.78001862375E+03  0.13224273193E+03  0.86821070257E+03  0.00000000000E+00 0. -1.
        -13    1    3    3    0    0  0.58307275544E+02 -0.77955031141E+02  0.39096022921E+02  0.10490578759E+03  0.00000000000E+00 0.  1.
          4    1    6    6  502    0 -0.32206900578E+02 -0.24245246884E+02 -0.50222405548E+02  0.64400360716E+02  0.00000000000E+00 0. -1.
          1    1    5    5  503    0 -0.20449265280E+03  0.52237814347E+03 -0.19894104110E+03  0.59520896133E+03  0.00000000000E+00 0. -1.
         -2    1    5    5    0  503 -0.20479786272E+03  0.49729967583E+03 -0.10959061819E+03  0.54887087348E+03  0.00000000000E+00 0.  1.
         -3    1    6    6    0  502  0.25597312731E+02 -0.13745891752E+03 -0.12925735010E+03  0.19041438754E+03  0.00000000000E+00 0.  1.
<mgrwt>
<rscale>  0 0.23507775E+04</rscale>
<asrwt>0</asrwt>
<pdfrwt beam="1">  1        1 0.15810296E+00 0.23507775E+04</pdfrwt>
<pdfrwt beam="2">  1       -1 0.20682182E+00 0.23507775E+04</pdfrwt>
<totfact> 0.17508941E+00</totfact>
</mgrwt>
</event>
<event>
12    1  0.2588309E-007  0.1509981E+04  0.7818608E-02  0.8877843E-01
         -2   -1    0    0    0  501 -0.00000000000E+00  0.00000000000E+00  0.30890916672E+04  0.30890916672E+04  0.00000000000E+00 0.  1.
          2   -1    0    0  501    0  0.00000000000E+00 -0.00000000000E+00 -0.18452366960E+03  0.18452366960E+03  0.00000000000E+00 0. -1.
         23    2    1    2    0    0  0.23926977312E+03  0.10352212543E+02  0.18444725809E+04  0.18621371900E+04  0.90103387108E+02 0.  0.
        254    2    1    2    0    0 -0.23926977312E+03 -0.10352212543E+02  0.10600954167E+04  0.14114781467E+04  0.90061705155E+03 0.  0.
        -24    2    4    4    0    0 -0.42924112694E+03  0.31950148080E+03  0.66218589288E+03  0.85495952310E+03  0.78335739707E+02 0.  0.
         24    2    4    4    0    0  0.18997135383E+03 -0.32985369335E+03  0.39790952383E+03  0.55651862363E+03  0.80550698369E+02 0.  0.
         11    1    3    3    0    0  0.87034552097E+02 -0.39498844957E+02  0.71645290063E+03  0.72280006283E+03  0.00000000000E+00 0. -1.
        -11    1    3    3    0    0  0.15223522102E+03  0.49851057500E+02  0.11280196802E+04  0.11393371272E+04  0.00000000000E+00 0.  1.
          2    1    6    6  502    0  0.59305723337E+02 -0.14242243232E+03  0.21065310940E+03  0.26110543952E+03  0.00000000000E+00 0. -1.
          3    1    5    5  503    0 -0.22864272100E+03  0.20000001896E+03  0.32546751560E+03  0.44520400398E+03  0.00000000000E+00 0. -1.
         -4    1    5    5    0  503 -0.20059840594E+03  0.11950146184E+03  0.33671837728E+03  0.40975551912E+03  0.00000000000E+00 0.  1.
         -1    1    6    6    0  502  0.13066563049E+03 -0.18743126103E+03  0.18725641443E+03  0.29541318411E+03  0.00000000000E+00 0.  1.
<mgrwt>
<rscale>  0 0.15099808E+04</rscale>
<asrwt>0</asrwt>
<pdfrwt beam="1">  1        2 0.28388259E-01 0.15099808E+04</pdfrwt>
<pdfrwt beam="2">  1       -2 0.47524483E+00 0.15099808E+04</pdfrwt>
<totfact> 0.43670040E-01</totfact>
</mgrwt>
</event>
<event>
12    1  0.2588309E-007  0.2463890E+04  0.7818608E-02  0.8415964E-01
          2   -1    0    0  501    0  0.00000000000E+00  0.00000000000E+00  0.18850404781E+04  0.18850404781E+04  0.00000000000E+00 0. -1.
         -2   -1    0    0    0  501 -0.00000000000E+00 -0.00000000000E+00 -0.80512268100E+03  0.80512268100E+03  0.00000000000E+00 0.  1.
         23    2    1    2    0    0 -0.42364358401E+03  0.70991499748E+03 -0.25889069423E+03  0.87111449123E+03  0.91448758076E+02 0.  0.
        254    2    1    2    0    0  0.42364358401E+03 -0.70991499748E+03  0.13388084913E+04  0.18190486678E+04  0.91273034884E+03 0.  0.
        -24    2    4    4    0    0  0.54077567471E+03 -0.86269262365E+03  0.11499467612E+04  0.15379961558E+04  0.79860680810E+02 0.  0.
         24    2    4    4    0    0 -0.11713209070E+03  0.15277762617E+03  0.18886173007E+03  0.28105251204E+03  0.79125417597E+02 0.  0.
         13    1    3    3    0    0 -0.62931345536E+02  0.12263000867E+03 -0.94830733531E+01  0.13816078299E+03  0.00000000000E+00 0. -1.
        -13    1    3    3    0    0 -0.36071223847E+03  0.58728498881E+03 -0.24940762088E+03  0.73295370824E+03  0.00000000000E+00 0.  1.
          2    1    6    6  502    0 -0.52339311974E+01  0.66455110597E+02  0.55555309005E+02  0.86775965099E+02  0.00000000000E+00 0. -1.
          3    1    5    5  503    0  0.34035360604E+03 -0.60676614253E+03  0.80661256422E+03  0.10651899162E+04  0.00000000000E+00 0. -1.
         -4    1    5    5    0  503  0.20042206867E+03 -0.25592648112E+03  0.34333419701E+03  0.47280623958E+03  0.00000000000E+00 0.  1.
         -3    1    6    6    0  502 -0.11189815950E+03  0.86322515576E+02  0.13330642106E+03  0.19427654694E+03  0.00000000000E+00 0.  1.
<mgrwt>
<rscale>  0 0.24638903E+04</rscale>
<asrwt>0</asrwt>
<pdfrwt beam="1">  1        2 0.29000623E+00 0.24638903E+04</pdfrwt>
<pdfrwt beam="2">  1       -2 0.12386503E+00 0.24638903E+04</pdfrwt>
<totfact> 0.33968624E+00</totfact>
</mgrwt>
</event>
<event>
12    1  0.2588309E-007  0.1716426E+04  0.7818608E-02  0.8752051E-01
          2   -1    0    0  501    0  0.00000000000E+00  0.00000000000E+00  0.23195471605E+04  0.23195471605E+04  0.00000000000E+00 0. -1.
         -2   -1    0    0    0  501 -0.00000000000E+00 -0.00000000000E+00 -0.31753166397E+03  0.31753166397E+03  0.00000000000E+00 0.  1.
         23    2    1    2    0    0  0.48130670639E+03 -0.16954045166E+03  0.19020223433E+03  0.55142041656E+03  0.86530199839E+02 0.  0.
        254    2    1    2    0    0 -0.48130670639E+03  0.16954045166E+03  0.18118132622E+04  0.20856584079E+04  0.89827812342E+03 0.  0.
        -24    2    4    4    0    0 -0.51695661220E+03 -0.24307650246E+03  0.13028340123E+04  0.14248583747E+04  0.80713068357E+02 0.  0.
         24    2    4    4    0    0  0.35649905812E+02  0.41261695412E+03  0.50897924990E+03  0.66080003320E+03  0.77930356354E+02 0.  0.
         13    1    3    3    0    0  0.11430885059E+03 -0.56239395355E+02  0.85123544634E+02  0.15321684230E+03  0.00000000000E+00 0. -1.
        -13    1    3    3    0    0  0.36699785580E+03 -0.11330105631E+03  0.10507868969E+03  0.39820357425E+03  0.00000000000E+00 0.  1.
          2    1    6    6  502    0  0.53776557762E-01  0.26321276833E+03  0.27283784957E+03  0.37910612823E+03  0.00000000000E+00 0. -1.
          1    1    5    5  503    0 -0.22791263012E+03 -0.13605311016E+03  0.67894720966E+03  0.72898829157E+03  0.00000000000E+00 0. -1.
         -2    1    5    5    0  503 -0.28904398209E+03 -0.10702339230E+03  0.62388680262E+03  0.69587008311E+03  0.00000000000E+00 0.  1.
         -1    1    6    6    0  502  0.35596129254E+02  0.14940418579E+03  0.23614140033E+03  0.28169390497E+03  0.00000000000E+00 0.  1.
<mgrwt>
<rscale>  0 0.17164261E+04</rscale>
<asrwt>0</asrwt>
<pdfrwt beam="1">  1        2 0.35685340E+00 0.17164261E+04</pdfrwt>
<pdfrwt beam="2">  1       -2 0.48851027E-01 0.17164261E+04</pdfrwt>
<totfact> 0.16677633E+01</totfact>
</mgrwt>
</event>
<event>
12    1  0.2588309E-007  0.1905028E+04  0.7818608E-02  0.8652358E-01
         -2   -1    0    0    0  501 -0.00000000000E+00  0.00000000000E+00  0.20522125283E+04  0.20522125283E+04  0.00000000000E+00 0.  1.
          2   -1    0    0  501    0  0.00000000000E+00 -0.00000000000E+00 -0.44210003517E+03  0.44210003517E+03  0.00000000000E+00 0. -1.
         23    2    1    2    0    0  0.47661696411E+03  0.50983302779E+03  0.31967976575E+03  0.77305739628E+03  0.91264114574E+02 0.  0.
        254    2    1    2    0    0 -0.47661696411E+03 -0.50983302779E+03  0.12904327273E+04  0.17212551671E+04  0.90022734902E+03 0.  0.
        -24    2    4    4    0    0  0.16607236743E+03 -0.31175897612E+03  0.81991810010E+03  0.89646075707E+03  0.81255816233E+02 0.  0.
         24    2    4    4    0    0 -0.64268933153E+03 -0.19807405167E+03  0.47051462724E+03  0.82479441008E+03  0.81356607826E+02 0.  0.
         13    1    3    3    0    0  0.12383347694E+03  0.11052402479E+03  0.11659038624E+03  0.20283887259E+03  0.00000000000E+00 0.  1.
        -13    1    3    3    0    0  0.35278348717E+03  0.39930900300E+03  0.20308937950E+03  0.57021852369E+03  0.00000000000E+00 0. -1.
          2    1    6    6  502    0 -0.53007327404E+03 -0.14629670193E+03  0.34945921788E+03  0.65153829190E+03  0.00000000000E+00 0. -1.
          1    1    5    5  503    0  0.16021532089E+03 -0.31500533799E+03  0.81442995886E+03  0.88780260751E+03  0.00000000000E+00 0. -1.
         -2    1    5    5    0  503  0.58570465353E+01  0.32463618666E+01  0.54881412393E+01  0.86581495568E+01  0.00000000000E+00 0.  1.
         -1    1    6    6    0  502 -0.11261605749E+03 -0.51777349741E+02  0.12105540936E+03  0.17325611818E+03  0.00000000000E+00 0.  1.
<mgrwt>
<rscale>  0 0.19050283E+04</rscale>
<asrwt>0</asrwt>
<pdfrwt beam="1">  1        2 0.68015391E-01 0.19050283E+04</pdfrwt>
<pdfrwt beam="2">  1       -2 0.31572500E+00 0.19050283E+04</pdfrwt>
<totfact> 0.16937135E+00</totfact>
</mgrwt>
</event>
<event>
12    1  0.2588309E-007  0.1511776E+04  0.7818608E-02  0.8876660E-01
         -2   -1    0    0    0  501 -0.00000000000E+00  0.00000000000E+00  0.76869920825E+03  0.76869920825E+03  0.00000000000E+00 0.  1.
          2   -1    0    0  501    0  0.00000000000E+00 -0.00000000000E+00 -0.74329017397E+03  0.74329017397E+03  0.00000000000E+00 0. -1.
         23    2    1    2    0    0  0.41323166978E+03  0.21209248055E+03  0.10775769680E+03  0.49273793802E+03  0.12423896784E+03 0.  0.
        254    2    1    2    0    0 -0.41323166978E+03 -0.21209248055E+03 -0.82348662520E+02  0.10192514442E+04  0.90352009997E+03 0.  0.
        -24    2    4    4    0    0 -0.59106580144E+03 -0.39724850428E+03  0.52911690304E+02  0.71856543467E+03  0.79821558192E+02 0.  0.
         24    2    4    4    0    0  0.17783413165E+03  0.18515602373E+03 -0.13526035282E+03  0.30068600953E+03  0.78797092426E+02 0.  0.
         11    1    3    3    0    0 -0.79193950847E+01  0.12125426292E+02  0.14276125901E+01  0.14552692499E+02  0.00000000000E+00 0. -1.
        -11    1    3    3    0    0  0.42115106487E+03  0.19996705425E+03  0.10633008421E+03  0.47818524552E+03  0.00000000000E+00 0.  1.
          4    1    6    6  502    0  0.20142090876E+00  0.30972608593E+02 -0.37392683260E+01  0.31198159899E+02  0.00000000000E+00 0. -1.
          1    1    5    5  503    0 -0.52508036380E+03 -0.36519263644E+03  0.69496406961E+02  0.64335433530E+03  0.00000000000E+00 0. -1.
         -2    1    5    5    0  503 -0.65985437631E+02 -0.32055867832E+02 -0.16584716657E+02  0.75211099369E+02  0.00000000000E+00 0.  1.
         -3    1    6    6    0  502  0.17763271074E+03  0.15418341514E+03 -0.13152108450E+03  0.26948784963E+03  0.00000000000E+00 0.  1.
<mgrwt>
<rscale>  0 0.15117759E+04</rscale>
<asrwt>0</asrwt>
<pdfrwt beam="1">  1        2 0.11435234E+00 0.15117759E+04</pdfrwt>
<pdfrwt beam="2">  1       -2 0.11826142E+00 0.15117759E+04</pdfrwt>
<totfact> 0.20163864E+01</totfact>
</mgrwt>
</event>
<event>
12    1  0.2588309E-007  0.2620731E+04  0.7818608E-02  0.8361193E-01
         -1   -1    0    0    0  501 -0.00000000000E+00  0.00000000000E+00  0.53650042494E+03  0.53650042494E+03  0.00000000000E+00 0.  1.
          1   -1    0    0  501    0  0.00000000000E+00 -0.00000000000E+00 -0.32004785732E+04  0.32004785732E+04  0.00000000000E+00 0. -1.
         23    2    1    2    0    0 -0.86841190832E+03  0.13769533615E+03 -0.11198184409E+03  0.89097906181E+03  0.90578734044E+02 0.  0.
        254    2    1    2    0    0  0.86841190832E+03 -0.13769533615E+03 -0.25519963041E+04  0.28459999363E+04  0.90218138582E+03 0.  0.
        -24    2    4    4    0    0  0.13871011313E+03  0.21245063376E+03 -0.14058396718E+03  0.30113762534E+03  0.80896540702E+02 0.  0.
         24    2    4    4    0    0  0.72970179519E+03 -0.35014596991E+03 -0.24114123370E+04  0.25448623109E+04  0.79673161829E+02 0.  0.
         11    1    3    3    0    0 -0.39101773583E+03  0.10750590338E+03 -0.55538654330E+02  0.40931275465E+03  0.00000000000E+00 0. -1.
        -11    1    3    3    0    0 -0.47739417249E+03  0.30189432774E+02 -0.56443189760E+02  0.48166630716E+03  0.00000000000E+00 0.  1.
          4    1    6    6  502    0  0.67374121430E+03 -0.33599917454E+03 -0.22864433621E+04  0.24072070781E+04  0.00000000000E+00 0. -1.
          1    1    5    5  503    0  0.14185118791E+03  0.16112051132E+03 -0.10855617252E+03  0.24055357256E+03  0.00000000000E+00 0. -1.
         -2    1    5    5    0  503 -0.31410747783E+01  0.51330122440E+02 -0.32027794653E+02  0.60584052776E+02  0.00000000000E+00 0.  1.
         -3    1    6    6    0  502  0.55960580897E+02 -0.14146795367E+02 -0.12496897489E+03  0.13765523280E+03  0.00000000000E+00 0.  1.
<mgrwt>
<rscale>  0 0.26207313E+04</rscale>
<asrwt>0</asrwt>
<pdfrwt beam="1">  1        1 0.49238132E+00 0.26207313E+04</pdfrwt>
<pdfrwt beam="2">  1       -1 0.82538527E-01 0.26207313E+04</pdfrwt>
<totfact> 0.54468913E-01</totfact>
</mgrwt>
</event>
<event>
12    1  0.2588309E-007  0.1172633E+04  0.7818608E-02  0.9137154E-01
         -2   -1    0    0    0  501 -0.00000000000E+00  0.00000000000E+00  0.29758620275E+03  0.29758620275E+03  0.00000000000E+00 0.  1.
          2   -1    0    0  501    0  0.00000000000E+00 -0.00000000000E+00 -0.11551854505E+04  0.11551854505E+04  0.00000000000E+00 0. -1.
         23    2    1    2    0    0  0.88392579201E+02  0.15720331472E+03 -0.76783093889E+01  0.20203730247E+03  0.90741307792E+02 0.  0.
        254    2    1    2    0    0 -0.88392579201E+02 -0.15720331472E+03 -0.84992093838E+03  0.12507343508E+04  0.89969143852E+03 0.  0.
        -24    2    4    4    0    0 -0.18859129817E+03 -0.47870068249E+03 -0.29999123201E+03  0.60065964142E+03  0.77950268678E+02 0.  0.
         24    2    4    4    0    0  0.10019871897E+03  0.32149736777E+03 -0.54992970637E+03  0.65007470937E+03  0.82304951563E+02 0.  0.
         13    1    3    3    0    0  0.45580961975E+02  0.31538872646E+02  0.31327302292E+02  0.63668865634E+02  0.00000000000E+00 0.  1.
        -13    1    3    3    0    0  0.42811617227E+02  0.12566444207E+03 -0.39005611681E+02  0.13836843684E+03  0.00000000000E+00 0. -1.
          2    1    6    6  502    0  0.39117342317E+02  0.16048728934E+03 -0.19489874936E+03  0.25548357875E+03  0.00000000000E+00 0. -1.
          3    1    5    5  503    0 -0.12912252206E+03 -0.33967142158E+03 -0.25123916525E+03  0.44178096212E+03  0.00000000000E+00 0. -1.
         -4    1    5    5    0  503 -0.59468776116E+02 -0.13902926091E+03 -0.48752066765E+02  0.15887867930E+03  0.00000000000E+00 0.  1.
         -1    1    6    6    0  502  0.61081376657E+02  0.16101007843E+03 -0.35503095701E+03  0.39459113062E+03  0.00000000000E+00 0.  1.
<mgrwt>
<rscale>  0 0.11726334E+04</rscale>
<asrwt>0</asrwt>
<pdfrwt beam="1">  1        2 0.17772084E+00 0.11726334E+04</pdfrwt>
<pdfrwt beam="2">  1       -2 0.45782493E-01 0.11726334E+04</pdfrwt>
<totfact> 0.90093311E+01</totfact>
</mgrwt>
</event>
<event>
12    1  0.2588309E-007  0.4082935E+04  0.7818608E-02  0.7988022E-01
         -1   -1    0    0    0  501 -0.00000000000E+00  0.00000000000E+00  0.16772762985E+04  0.16772762985E+04  0.00000000000E+00 0.  1.
          1   -1    0    0  501    0  0.00000000000E+00 -0.00000000000E+00 -0.24847364493E+04  0.24847364493E+04  0.00000000000E+00 0. -1.
         23    2    1    2    0    0 -0.25265300926E+03 -0.11070620508E+04  0.12207003749E+04  0.16694238203E+04  0.86293448280E+02 0.  0.
        254    2    1    2    0    0  0.25265300926E+03  0.11070620508E+04 -0.20281605257E+04  0.24925889274E+04  0.90008028282E+03 0.  0.
        -24    2    4    4    0    0  0.54444634700E+02  0.11948310210E+04 -0.18371426254E+04  0.21933406337E+04  0.71166860731E+02 0.  0.
         24    2    4    4    0    0  0.19820837456E+03 -0.87768970204E+02 -0.19101790027E+03  0.29924829374E+03  0.77921442532E+02 0.  0.
         13    1    3    3    0    0 -0.23575762032E+03 -0.94773075363E+03  0.10812913074E+04  0.14570401945E+04  0.00000000000E+00 0.  1.
        -13    1    3    3    0    0 -0.16895388938E+02 -0.15933129714E+03  0.13940906750E+03  0.21238362582E+03  0.00000000000E+00 0. -1.
          2    1    6    6  502    0  0.10141818036E+03 -0.60925894728E+02 -0.14927865016E+03  0.19047762953E+03  0.00000000000E+00 0. -1.
          1    1    5    5  503    0  0.58030140677E+02  0.11774840297E+04 -0.17938387635E+04  0.21465539003E+04  0.00000000000E+00 0. -1.
         -2    1    5    5    0  503 -0.35855059764E+01  0.17346991310E+02 -0.43303861969E+02  0.46786733398E+02  0.00000000000E+00 0.  1.
         -1    1    6    6    0  502  0.96790194193E+02 -0.26843075476E+02 -0.41739250107E+02  0.10877066421E+03  0.00000000000E+00 0.  1.
<mgrwt>
<rscale>  0 0.40829350E+04</rscale>
<asrwt>0</asrwt>
<pdfrwt beam="1">  1        1 0.38226714E+00 0.40829350E+04</pdfrwt>
<pdfrwt beam="2">  1       -1 0.25804251E+00 0.40829350E+04</pdfrwt>
<totfact> 0.66678229E-02</totfact>
</mgrwt>
</event>
<event>
12    1  0.2588309E-007  0.2915178E+04  0.7818608E-02  0.8268376E-01
         -2   -1    0    0    0  501 -0.00000000000E+00  0.00000000000E+00  0.93170788724E+03  0.93170788724E+03  0.00000000000E+00 0.  1.
          2   -1    0    0  501    0  0.00000000000E+00 -0.00000000000E+00 -0.22802909188E+04  0.22802909188E+04  0.00000000000E+00 0. -1.
         23    2    1    2    0    0  0.82093883784E+03  0.23293494883E+03  0.49461975079E+03  0.99050980639E+03  0.90893964643E+02 0.  0.
        254    2    1    2    0    0 -0.82093883784E+03 -0.23293494883E+03 -0.18432027823E+04  0.22214889996E+04  0.89967639337E+03 0.  0.
        -24    2    4    4    0    0 -0.59492376504E+03 -0.74518214413E+02 -0.34595671736E+03  0.69687409244E+03  0.80375369019E+02 0.  0.
         24    2    4    4    0    0 -0.22601507280E+03 -0.15841673442E+03 -0.14972460650E+04  0.15246149072E+04  0.80784659637E+02 0.  0.
         11    1    3    3    0    0  0.17440464268E+03  0.23807686704E+02  0.71248184110E+02  0.18989494220E+03  0.00000000000E+00 0. -1.
        -11    1    3    3    0    0  0.64653419516E+03  0.20912726212E+03  0.42337156668E+03  0.80061486418E+03  0.00000000000E+00 0.  1.
          4    1    6    6  502    0 -0.34054760536E+01  0.45656539037E+01 -0.11292504865E+03  0.11306860340E+03  0.00000000000E+00 0. -1.
          1    1    5    5  503    0 -0.24273498675E+03  0.52810746276E+01 -0.15910790144E+03  0.29028173873E+03  0.00000000000E+00 0. -1.
         -2    1    5    5    0  503 -0.35218877829E+03 -0.79799289041E+02 -0.18684881592E+03  0.40659235371E+03  0.00000000000E+00 0.  1.
         -3    1    6    6    0  502 -0.22260959675E+03 -0.16298238832E+03 -0.13843210163E+04  0.14115463038E+04  0.00000000000E+00 0.  1.
<mgrwt>
<rscale>  0 0.29151775E+04</rscale>
<asrwt>0</asrwt>
<pdfrwt beam="1">  1        2 0.35081399E+00 0.29151775E+04</pdfrwt>
<pdfrwt beam="2">  1       -2 0.14333967E+00 0.29151775E+04</pdfrwt>
<totfact> 0.13541239E+00</totfact>
</mgrwt>
</event>
<event>
12    1  0.2588309E-007  0.4504852E+04  0.7818608E-02  0.7909788E-01
          2   -1    0    0  501    0  0.00000000000E+00  0.00000000000E+00  0.40231221060E+04  0.40231221060E+04  0.00000000000E+00 0.  1.
         -2   -1    0    0    0  501 -0.00000000000E+00 -0.00000000000E+00 -0.12610662458E+04  0.12610662458E+04  0.00000000000E+00 0. -1.
         23    2    1    2    0    0  0.79708016999E+03 -0.18485410499E+04  0.22502058396E+04  0.30203693730E+04  0.82243650493E+02 0.  0.
        254    2    1    2    0    0 -0.79708016999E+03  0.18485410499E+04  0.51185002053E+03  0.22638189787E+04  0.90024725175E+03 0.  0.
        -24    2    4    4    0    0  0.40858462346E+02  0.43180900860E+03 -0.18048714824E+03  0.47630637727E+03  0.78509365649E+02 0.  0.
         24    2    4    4    0    0 -0.83793863233E+03  0.14167320413E+04  0.69233716877E+03  0.17875126015E+04  0.81238640034E+02 0.  0.
         13    1    3    3    0    0  0.62266761506E+03 -0.14608055017E+04  0.17245897375E+04  0.23443287814E+04  0.00000000000E+00 0. -1.
        -13    1    3    3    0    0  0.17441255493E+03 -0.38773554825E+03  0.52561610214E+03  0.67604059162E+03  0.00000000000E+00 0.  1.
          4    1    6    6  502    0 -0.54687075072E+03  0.94529946353E+03  0.49910616065E+03  0.12007354635E+04  0.00000000000E+00 0. -1.
          3    1    5    5  503    0 -0.18427713515E+02  0.41393569514E+02 -0.26235488263E+02  0.52357512038E+02  0.00000000000E+00 0. -1.
         -4    1    5    5    0  503  0.59286175861E+02  0.39041543908E+03 -0.15425165998E+03  0.42394886523E+03  0.00000000000E+00 0.  1.
         -3    1    6    6    0  502 -0.29106788161E+03  0.47143257780E+03  0.19323100812E+03  0.58677713794E+03  0.00000000000E+00 0.  1.
<mgrwt>
<rscale>  0 0.45048523E+04</rscale>
<asrwt>0</asrwt>
<pdfrwt beam="1">  1        2 0.61894186E+00 0.45048523E+04</pdfrwt>
<pdfrwt beam="2">  1       -2 0.19401019E+00 0.45048523E+04</pdfrwt>
<totfact> 0.36000092E-02</totfact>
</mgrwt>
</event>
<event>
12    1  0.2588309E-007  0.2523900E+04  0.7818608E-02  0.8394520E-01
         -2   -1    0    0    0  501 -0.00000000000E+00  0.00000000000E+00  0.10396082712E+04  0.10396082712E+04  0.00000000000E+00 0.  1.
          2   -1    0    0  501    0  0.00000000000E+00 -0.00000000000E+00 -0.15318437449E+04  0.15318437449E+04  0.00000000000E+00 0. -1.
         23    2    1    2    0    0 -0.56193402636E+03  0.59079598620E+03 -0.96693584630E+03  0.12682564221E+04  0.93272042632E+02 0.  0.
        254    2    1    2    0    0  0.56193402636E+03 -0.59079598620E+03  0.47470037262E+03  0.13031955940E+04  0.89898196043E+03 0.  0.
        -24    2    4    4    0    0 -0.88757474111E+02 -0.11506901830E+03 -0.19219042415E+03  0.25377424316E+03  0.79658264944E+02 0.  0.
         24    2    4    4    0    0  0.65069150047E+03 -0.47572696790E+03  0.66689079677E+03  0.10494213508E+04  0.82621183836E+02 0.  0.
         13    1    3    3    0    0 -0.25079676665E+03  0.22540265994E+03 -0.45784992875E+03  0.56862284032E+03  0.00000000000E+00 0. -1.
        -13    1    3    3    0    0 -0.31113725971E+03  0.36539332625E+03 -0.50908591754E+03  0.69963358173E+03  0.00000000000E+00 0.  1.
          2    1    6    6  502    0  0.60666910462E+03 -0.46614039094E+03  0.63428140701E+03  0.99380439215E+03  0.00000000000E+00 0. -1.
          3    1    5    5  503    0 -0.89946544769E+02 -0.69970804834E+02 -0.16678483356E+03  0.20199870086E+03  0.00000000000E+00 0. -1.
         -4    1    5    5    0  503  0.11890706580E+01 -0.45098213466E+02 -0.25405590587E+02  0.51775542295E+02  0.00000000000E+00 0.  1.
         -1    1    6    6    0  502  0.44022395850E+02 -0.95865769515E+01  0.32609389759E+02  0.55616958695E+02  0.00000000000E+00 0.  1.
<mgrwt>
<rscale>  0 0.25238997E+04</rscale>
<asrwt>0</asrwt>
<pdfrwt beam="1">  1        2 0.23566827E+00 0.25238997E+04</pdfrwt>
<pdfrwt beam="2">  1       -2 0.15993973E+00 0.25238997E+04</pdfrwt>
<totfact> 0.27340534E+00</totfact>
</mgrwt>
</event>
<event>
12    1  0.2588309E-007  0.2587055E+04  0.7818608E-02  0.8372612E-01
          1   -1    0    0  501    0  0.00000000000E+00  0.00000000000E+00  0.10824952507E+04  0.10824952507E+04  0.00000000000E+00 0. -1.
         -1   -1    0    0    0  501 -0.00000000000E+00 -0.00000000000E+00 -0.15457008920E+04  0.15457008920E+04  0.00000000000E+00 0.  1.
         23    2    1    2    0    0 -0.95781120393E+03  0.24322242811E+03 -0.77140479938E+03  0.12567802213E+04  0.88722648321E+02 0.  0.
        254    2    1    2    0    0  0.95781120393E+03 -0.24322242811E+03  0.30819915810E+03  0.13714159213E+04  0.89957515323E+03 0.  0.
        -24    2    4    4    0    0  0.10252791514E+03 -0.19428366645E+03  0.44280002410E+03  0.50054420665E+03  0.78832258878E+02 0.  0.
         24    2    4    4    0    0  0.85528328880E+03 -0.48938761667E+02 -0.13460086600E+03  0.87087171468E+03  0.79972769170E+02 0.  0.
         11    1    3    3    0    0 -0.24497634126E+03  0.97148094594E+02 -0.23041277929E+03  0.35005886494E+03  0.00000000000E+00 0.  1.
        -11    1    3    3    0    0 -0.71283486267E+03  0.14607433352E+03 -0.54099202009E+03  0.90672135640E+03  0.00000000000E+00 0. -1.
          2    1    6    6  502    0  0.26000551400E+03 -0.43670861499E+02 -0.18019225056E+02  0.26426256626E+03  0.00000000000E+00 0. -1.
          1    1    5    5  503    0 -0.81581790034E+01  0.16021074882E+01  0.18438314140E+02  0.20226073801E+02  0.00000000000E+00 0. -1.
         -2    1    5    5    0  503  0.11068609414E+03 -0.19588577393E+03  0.42436170996E+03  0.48031813285E+03  0.00000000000E+00 0.  1.
         -1    1    6    6    0  502  0.59527777480E+03 -0.52679001683E+01 -0.11658164094E+03  0.60660914842E+03  0.00000000000E+00 0.  1.
<mgrwt>
<rscale>  0 0.25870554E+04</rscale>
<asrwt>0</asrwt>
<pdfrwt beam="1">  1        1 0.16653773E+00 0.25870554E+04</pdfrwt>
<pdfrwt beam="2">  1       -1 0.23780014E+00 0.25870554E+04</pdfrwt>
<totfact> 0.96604032E-01</totfact>
</mgrwt>
</event>
<event>
12    1  0.2588309E-007  0.1266086E+04  0.7818608E-02  0.9056900E-01
         -1   -1    0    0    0  501 -0.00000000000E+00  0.00000000000E+00  0.28398421040E+03  0.28398421040E+03  0.00000000000E+00 0.  1.
          1   -1    0    0  501    0  0.00000000000E+00 -0.00000000000E+00 -0.14111466727E+04  0.14111466727E+04  0.00000000000E+00 0. -1.
         23    2    1    2    0    0  0.81851099072E+02  0.25282390348E+03 -0.48523817445E+03  0.55866756722E+03  0.77677771134E+02 0.  0.
        254    2    1    2    0    0 -0.81851099072E+02 -0.25282390348E+03 -0.64192428783E+03  0.11364633159E+04  0.89936786044E+03 0.  0.
        -24    2    4    4    0    0  0.22180074055E+03  0.21272961915E+03 -0.51631578436E+02  0.32173398848E+03  0.79984248967E+02 0.  0.
         24    2    4    4    0    0 -0.30365183962E+03 -0.46555352263E+03 -0.59029270939E+03  0.81472932738E+03  0.79961690731E+02 0.  0.
         13    1    3    3    0    0  0.14515191235E+02  0.29936783931E+02 -0.12797592525E+03  0.13222987276E+03  0.00000000000E+00 0. -1.
        -13    1    3    3    0    0  0.67335907837E+02  0.22288711955E+03 -0.35726224920E+03  0.42643769446E+03  0.00000000000E+00 0.  1.
          2    1    6    6  502    0 -0.17933415237E+03 -0.26871434372E+03 -0.28506306520E+03  0.43084694251E+03  0.00000000000E+00 0. -1.
          3    1    5    5  503    0  0.14786658140E+03  0.15132645314E+03 -0.72001980394E+02  0.22349162511E+03  0.00000000000E+00 0. -1.
         -4    1    5    5    0  503  0.73934159147E+02  0.61403166009E+02  0.20370401958E+02  0.98242363371E+02  0.00000000000E+00 0.  1.
         -1    1    6    6    0  502 -0.12431768725E+03 -0.19683917891E+03 -0.30522964419E+03  0.38388238487E+03  0.00000000000E+00 0.  1.
<mgrwt>
<rscale>  0 0.12660859E+04</rscale>
<asrwt>0</asrwt>
<pdfrwt beam="1">  1        1 0.21709949E+00 0.12660859E+04</pdfrwt>
<pdfrwt beam="2">  1       -1 0.43689878E-01 0.12660859E+04</pdfrwt>
<totfact> 0.38451737E+01</totfact>
</mgrwt>
</event>
<event>
12    1  0.2588309E-007  0.1801137E+04  0.7818608E-02  0.8705695E-01
          2   -1    0    0  501    0  0.00000000000E+00  0.00000000000E+00  0.15575341276E+04  0.15575341276E+04  0.00000000000E+00 0. -1.
         -2   -1    0    0    0  501 -0.00000000000E+00 -0.00000000000E+00 -0.52071018011E+03  0.52071018011E+03  0.00000000000E+00 0.  1.
         23    2    1    2    0    0 -0.57947554804E+03 -0.14122866511E+03  0.35283468749E+02  0.60526857315E+03  0.96786754533E+02 0.  0.
        254    2    1    2    0    0  0.57947554804E+03  0.14122866511E+03  0.10015404787E+04  0.14729757345E+04  0.90046473410E+03 0.  0.
        -24    2    4    4    0    0 -0.15828834708E+03  0.10966897330E+03  0.58509944189E+03  0.62126298820E+03  0.80894122717E+02 0.  0.
         24    2    4    4    0    0  0.73776389512E+03  0.31559691813E+02  0.41644103681E+03  0.85171274630E+03  0.81852831294E+02 0.  0.
         11    1    3    3    0    0 -0.18672761578E+02 -0.23121162751E+02  0.10866054814E+02  0.31643819920E+02  0.00000000000E+00 0. -1.
        -11    1    3    3    0    0 -0.56080278646E+03 -0.11810750236E+03  0.24417413935E+02  0.57362475323E+03  0.00000000000E+00 0.  1.
          2    1    6    6  502    0  0.12203369431E+03  0.33355923171E+02  0.57155588202E+02  0.13882219354E+03  0.00000000000E+00 0. -1.
          3    1    5    5  503    0 -0.26641467198E+02  0.63435982041E+02  0.21468340058E+03  0.22543924698E+03  0.00000000000E+00 0. -1.
         -4    1    5    5    0  503 -0.13164687988E+03  0.46232991259E+02  0.37041604131E+03  0.39582374123E+03  0.00000000000E+00 0.  1.
         -1    1    6    6    0  502  0.61573020081E+03 -0.17962313581E+01  0.35928544861E+03  0.71289055276E+03  0.00000000000E+00 0.  1.
<mgrwt>
<rscale>  0 0.18011373E+04</rscale>
<asrwt>0</asrwt>
<pdfrwt beam="1">  1        2 0.23962063E+00 0.18011373E+04</pdfrwt>
<pdfrwt beam="2">  1       -2 0.80109259E-01 0.18011373E+04</pdfrwt>
<totfact> 0.15324549E+01</totfact>
</mgrwt>
</event>
<event>
12    1  0.2588309E-007  0.1204748E+04  0.7818608E-02  0.9108711E-01
         -2   -1    0    0    0  501 -0.00000000000E+00  0.00000000000E+00  0.16082155822E+03  0.16082155822E+03  0.00000000000E+00 0.  1.
          2   -1    0    0  501    0  0.00000000000E+00 -0.00000000000E+00 -0.22562552845E+04  0.22562552845E+04  0.00000000000E+00 0. -1.
         23    2    1    2    0    0  0.21173031177E+03  0.14169989384E+03 -0.41095723181E+03  0.49077441565E+03  0.84054124488E+02 0.  0.
        254    2    1    2    0    0 -0.21173031177E+03 -0.14169989384E+03 -0.16844764944E+04  0.19263024270E+04  0.89903915112E+03 0.  0.
        -24    2    4    4    0    0 -0.15882787805E+03  0.33639317859E+03 -0.11035099871E+04  0.11679397756E+04  0.89232070114E+02 0.  0.
         24    2    4    4    0    0 -0.52902433726E+02 -0.47809307243E+03 -0.58096650734E+03  0.75836265144E+03  0.78868086406E+02 0.  0.
         11    1    3    3    0    0  0.98232287990E+02  0.11581919396E+03 -0.23307875009E+03  0.27818945314E+03  0.00000000000E+00 0.  1.
        -11    1    3    3    0    0  0.11349802379E+03  0.25880699888E+02 -0.17787848172E+03  0.21258496252E+03  0.00000000000E+00 0. -1.
          4    1    6    6  502    0 -0.19763566674E+02 -0.24604222676E+03 -0.35803380868E+03  0.43487421638E+03  0.00000000000E+00 0. -1.
          3    1    5    5  503    0 -0.51166071233E+02  0.18431016635E+03 -0.46524600632E+03  0.50303285246E+03  0.00000000000E+00 0. -1.
         -4    1    5    5    0  503 -0.10766180682E+03  0.15208301224E+03 -0.63826398078E+03  0.66490692313E+03  0.00000000000E+00 0.  1.
         -3    1    6    6    0  502 -0.33138867052E+02 -0.23205084567E+03 -0.22293269866E+03  0.32348843506E+03  0.00000000000E+00 0.  1.
<mgrwt>
<rscale>  0 0.12047481E+04</rscale>
<asrwt>0</asrwt>
<pdfrwt beam="1">  1        2 0.34711618E+00 0.12047481E+04</pdfrwt>
<pdfrwt beam="2">  1       -2 0.24741779E-01 0.12047481E+04</pdfrwt>
<totfact> 0.69459282E+01</totfact>
</mgrwt>
</event>
<event>
12    1  0.2588309E-007  0.2032787E+04  0.7818608E-02  0.8591443E-01
         -2   -1    0    0    0  501 -0.00000000000E+00  0.00000000000E+00  0.37375423230E+03  0.37375423230E+03  0.00000000000E+00 0.  1.
          2   -1    0    0  501    0  0.00000000000E+00 -0.00000000000E+00 -0.27639963604E+04  0.27639963604E+04  0.00000000000E+00 0. -1.
         23    2    1    2    0    0  0.68496884617E+03 -0.22533020091E+03 -0.38257126711E+03  0.82115135681E+03  0.89290294541E+02 0.  0.
        254    2    1    2    0    0 -0.68496884617E+03  0.22533020091E+03 -0.20076708610E+04  0.23165992359E+04  0.90329049258E+03 0.  0.
        -24    2    4    4    0    0 -0.34364804125E+03  0.22375854615E+03 -0.19076001967E+04  0.19528078481E+04  0.79737806201E+02 0.  0.
         24    2    4    4    0    0 -0.34132080492E+03  0.15716547645E+01 -0.10007066424E+03  0.36379138779E+03  0.76339203678E+02 0.  0.
         13    1    3    3    0    0  0.36624584194E+02 -0.35409550053E+02 -0.29436987898E+02  0.58836490878E+02  0.00000000000E+00 0. -1.
        -13    1    3    3    0    0  0.64834426198E+03 -0.18992065086E+03 -0.35313427921E+03  0.76231486593E+03  0.00000000000E+00 0.  1.
          2    1    6    6  502    0 -0.38036035092E+01 -0.26909751912E+01  0.80948335094E+01  0.93399719850E+01  0.00000000000E+00 0. -1.
          3    1    5    5  503    0 -0.65037270542E+02  0.80172294684E+02 -0.41430546643E+03  0.42697360915E+03  0.00000000000E+00 0. -1.
         -4    1    5    5    0  503 -0.27861077071E+03  0.14358625146E+03 -0.14932947303E+04  0.15258342389E+04  0.00000000000E+00 0.  1.
         -1    1    6    6    0  502 -0.33751720141E+03  0.42626299558E+01 -0.10816549774E+03  0.35445141580E+03  0.00000000000E+00 0.  1.
<mgrwt>
<rscale>  0 0.20327866E+04</rscale>
<asrwt>0</asrwt>
<pdfrwt beam="1">  1        2 0.42523022E+00 0.20327866E+04</pdfrwt>
<pdfrwt beam="2">  1       -2 0.57500649E-01 0.20327866E+04</pdfrwt>
<totfact> 0.63896000E+00</totfact>
</mgrwt>
</event>
<event>
12    1  0.2588309E-007  0.1639705E+04  0.7818608E-02  0.8796520E-01
         -1   -1    0    0    0  501 -0.00000000000E+00  0.00000000000E+00  0.13938211720E+04  0.13938211720E+04  0.00000000000E+00 0.  1.
          1   -1    0    0  501    0  0.00000000000E+00 -0.00000000000E+00 -0.48224107755E+03  0.48224107755E+03  0.00000000000E+00 0. -1.
         23    2    1    2    0    0  0.17385868629E+03  0.54110694029E+03  0.39580545013E+03  0.69723101896E+03  0.80284343582E+02 0.  0.
        254    2    1    2    0    0 -0.17385868629E+03 -0.54110694029E+03  0.51577464432E+03  0.11788312306E+04  0.89476031588E+03 0.  0.
        -24    2    4    4    0    0 -0.30679080550E+03 -0.22762057438E+03 -0.15671272413E+03  0.42037564465E+03  0.78899179272E+02 0.  0.
         24    2    4    4    0    0  0.13293211921E+03 -0.31348636590E+03  0.67248736846E+03  0.75845558595E+03  0.84089031368E+02 0.  0.
         13    1    3    3    0    0  0.75583991917E+02  0.36080919271E+03  0.25210369396E+03  0.44660103659E+03  0.00000000000E+00 0. -1.
        -13    1    3    3    0    0  0.98274694376E+02  0.18029774758E+03  0.14370175617E+03  0.25062998237E+03  0.00000000000E+00 0.  1.
          2    1    6    6  502    0 -0.76490920703E+01 -0.19415463477E+02  0.74943110101E+02  0.77794206617E+02  0.00000000000E+00 0. -1.
          1    1    5    5  503    0 -0.46923169229E+02 -0.18514064885E+02 -0.47797491428E+02  0.69492118948E+02  0.00000000000E+00 0. -1.
         -2    1    5    5    0  503 -0.25986763627E+03 -0.20910650950E+03 -0.10891523271E+03  0.35088352570E+03  0.00000000000E+00 0.  1.
         -1    1    6    6    0  502  0.14058121128E+03 -0.29407090242E+03  0.59754425835E+03  0.68066137933E+03  0.00000000000E+00 0.  1.
<mgrwt>
<rscale>  0 0.16397046E+04</rscale>
<asrwt>0</asrwt>
<pdfrwt beam="1">  1        1 0.74190936E-01 0.16397046E+04</pdfrwt>
<pdfrwt beam="2">  1       -1 0.21443402E+00 0.16397046E+04</pdfrwt>
<totfact> 0.53444997E+00</totfact>
</mgrwt>
</event>
<event>
12    1  0.2588309E-007  0.2707861E+04  0.7818608E-02  0.8332459E-01
         -2   -1    0    0    0  501 -0.00000000000E+00  0.00000000000E+00  0.13744589903E+04  0.13744589903E+04  0.00000000000E+00 0.  1.
          2   -1    0    0  501    0  0.00000000000E+00 -0.00000000000E+00 -0.13337090347E+04  0.13337090347E+04  0.00000000000E+00 0. -1.
         23    2    1    2    0    0  0.11177054707E+04  0.21715060567E+02  0.46203052721E+03  0.12130209067E+04  0.90611528032E+02 0.  0.
        254    2    1    2    0    0 -0.11177054707E+04 -0.21715060567E+02 -0.42128057158E+03  0.14951471183E+04  0.89902754254E+03 0.  0.
        -24    2    4    4    0    0 -0.46635537948E+03  0.19180508046E+03  0.21755152376E+03  0.55475346848E+03  0.78397808882E+02 0.  0.
         24    2    4    4    0    0 -0.65135009119E+03 -0.21352014103E+03 -0.63883209535E+03  0.94039364979E+03  0.79912318227E+02 0.  0.
         11    1    3    3    0    0  0.65359259568E+03 -0.23808067173E+02  0.24179024319E+03  0.69728948572E+03  0.00000000000E+00 0. -1.
        -11    1    3    3    0    0  0.46411287499E+03  0.45523127740E+02  0.22024028401E+03  0.51573142098E+03  0.00000000000E+00 0.  1.
          4    1    6    6  502    0 -0.65275592814E+03 -0.21540676683E+03 -0.63816719491E+03  0.93794869026E+03  0.00000000000E+00 0. -1.
          3    1    5    5  503    0 -0.26691017111E+03  0.74121663138E+02  0.14114822793E+03  0.31089850858E+03  0.00000000000E+00 0. -1.
         -4    1    5    5    0  503 -0.19944520837E+03  0.11768341732E+03  0.76403295835E+02  0.24385495990E+03  0.00000000000E+00 0.  1.
         -3    1    6    6    0  502  0.14058369502E+01  0.18866258087E+01 -0.66490044053E+00  0.24449595229E+01  0.00000000000E+00 0.  1.
<mgrwt>
<rscale>  0 0.27078614E+04</rscale>
<asrwt>0</asrwt>
<pdfrwt beam="1">  1        2 0.20518600E+00 0.27078614E+04</pdfrwt>
<pdfrwt beam="2">  1       -2 0.21145523E+00 0.27078614E+04</pdfrwt>
<totfact> 0.15525818E+00</totfact>
</mgrwt>
</event>
<event>
12    1  0.2588309E-007  0.2142843E+04  0.7818608E-02  0.8542602E-01
          2   -1    0    0  501    0  0.00000000000E+00  0.00000000000E+00  0.17413215533E+04  0.17413215533E+04  0.00000000000E+00 0. -1.
         -2   -1    0    0    0  501 -0.00000000000E+00 -0.00000000000E+00 -0.65923720065E+03  0.65923720065E+03  0.00000000000E+00 0.  1.
         23    2    1    2    0    0  0.13246585663E+03 -0.81062345149E+03  0.80219056616E+03  0.11516595141E+04  0.90290357622E+02 0.  0.
        254    2    1    2    0    0 -0.13246585663E+03  0.81062345149E+03  0.27989378651E+03  0.12488992399E+04  0.89819329566E+03 0.  0.
        -24    2    4    4    0    0 -0.69264864566E+02  0.97211237978E+03  0.36033553227E+03  0.10419852022E+04  0.78047200007E+02 0.  0.
         24    2    4    4    0    0 -0.63200992063E+02 -0.16148892828E+03 -0.80441745759E+02  0.20691403768E+03  0.79180206943E+02 0.  0.
         11    1    3    3    0    0  0.27775886772E+02 -0.24870063201E+03  0.30115557764E+03  0.39155866252E+03  0.00000000000E+00 0. -1.
        -11    1    3    3    0    0  0.10468996986E+03 -0.56192281948E+03  0.50103498852E+03  0.76010085157E+03  0.00000000000E+00 0.  1.
          2    1    6    6  502    0 -0.71420723972E+02 -0.11724302834E+03 -0.85337312254E+02  0.16164561352E+03  0.00000000000E+00 0. -1.
          1    1    5    5  503    0 -0.61143518201E+02  0.95138066541E+03  0.36176127209E+03  0.10196739274E+04  0.00000000000E+00 0. -1.
         -2    1    5    5    0  503 -0.81213463655E+01  0.20731714369E+02 -0.14257398234E+01  0.22311274762E+02  0.00000000000E+00 0.  1.
         -1    1    6    6    0  502  0.82197319094E+01 -0.44245899947E+02  0.48955664957E+01  0.45268424161E+02  0.00000000000E+00 0.  1.
<mgrwt>
<rscale>  0 0.21428429E+04</rscale>
<asrwt>0</asrwt>
<pdfrwt beam="1">  1        2 0.26789562E+00 0.21428429E+04</pdfrwt>
<pdfrwt beam="2">  1       -2 0.10142111E+00 0.21428429E+04</pdfrwt>
<totfact> 0.68226789E+00</totfact>
</mgrwt>
</event>
<event>
12    1  0.2588309E-007  0.2779952E+04  0.7818608E-02  0.8309520E-01
         -1   -1    0    0    0  501 -0.00000000000E+00  0.00000000000E+00  0.25546480749E+04  0.25546480749E+04  0.00000000000E+00 0.  1.
          1   -1    0    0  501    0  0.00000000000E+00 -0.00000000000E+00 -0.75628162492E+03  0.75628162492E+03  0.00000000000E+00 0. -1.
         23    2    1    2    0    0 -0.77683668002E+03 -0.44073918575E+03 -0.22225474206E+03  0.92489526929E+03  0.91147306668E+02 0.  0.
        254    2    1    2    0    0  0.77683668002E+03  0.44073918575E+03  0.20206211920E+04  0.23860344305E+04  0.90140115635E+03 0.  0.
        -24    2    4    4    0    0  0.12245936141E+03  0.33825496691E+03  0.14627627207E+03  0.39649906378E+03  0.80012761329E+02 0.  0.
         24    2    4    4    0    0  0.65437731860E+03  0.10248421884E+03  0.18743449200E+04  0.19895353668E+04  0.79808560328E+02 0.  0.
         11    1    3    3    0    0 -0.18262957590E+03 -0.11519058497E+03 -0.15360338055E+02  0.21646794877E+03  0.00000000000E+00 0.  1.
        -11    1    3    3    0    0 -0.59420710411E+03 -0.32554860078E+03 -0.20689440400E+03  0.70842732051E+03  0.00000000000E+00 0. -1.
          2    1    6    6  502    0  0.59421636256E+03  0.83398785925E+02  0.16224422151E+04  0.17298460001E+04  0.00000000000E+00 0. -1.
          1    1    5    5  503    0  0.77207617590E+02  0.10441472574E+03  0.41874415861E+02  0.13644382679E+03  0.00000000000E+00 0. -1.
         -2    1    5    5    0  503  0.45251743824E+02  0.23384024117E+03  0.10440185621E+03  0.26005523699E+03  0.00000000000E+00 0.  1.
         -1    1    6    6    0  502  0.60160956045E+02  0.19085432920E+02  0.25190270492E+03  0.25968936661E+03  0.00000000000E+00 0.  1.
<mgrwt>
<rscale>  0 0.27799521E+04</rscale>
<asrwt>0</asrwt>
<pdfrwt beam="1">  1        1 0.11635102E+00 0.27799521E+04</pdfrwt>
<pdfrwt beam="2">  1       -1 0.39302278E+00 0.27799521E+04</pdfrwt>
<totfact> 0.16729172E-01</totfact>
</mgrwt>
</event>
<event>
12    1  0.2588309E-007  0.3901465E+04  0.7818608E-02  0.8024725E-01
          2   -1    0    0  501    0  0.00000000000E+00  0.00000000000E+00  0.34553228315E+04  0.34553228315E+04  0.00000000000E+00 0. -1.
         -2   -1    0    0    0  501 -0.00000000000E+00 -0.00000000000E+00 -0.11013029976E+04  0.11013029976E+04  0.00000000000E+00 0.  1.
         23    2    1    2    0    0 -0.56584130141E+03 -0.16315696147E+04  0.18784504034E+04  0.25523522332E+04  0.61075512362E+02 0.  0.
        254    2    1    2    0    0  0.56584130141E+03  0.16315696147E+04  0.47556943056E+03  0.20042735959E+04  0.89930560877E+03 0.  0.
        -24    2    4    4    0    0  0.48034653885E+03  0.31246648890E+03  0.34526057101E+03  0.67358271149E+03  0.78362639368E+02 0.  0.
         24    2    4    4    0    0  0.85494762561E+02  0.13191031258E+04  0.13030885955E+03  0.13306908844E+04  0.80096317494E+02 0.  0.
         13    1    3    3    0    0 -0.21574382932E+03 -0.54026362438E+03  0.61672454038E+03  0.84780855293E+03  0.00000000000E+00 0. -1.
        -13    1    3    3    0    0 -0.35009747209E+03 -0.10913059903E+04  0.12617258630E+04  0.17045436802E+04  0.00000000000E+00 0.  1.
          2    1    6    6  502    0  0.35344496448E+02  0.10214729971E+04  0.11404666521E+03  0.10284274204E+04  0.00000000000E+00 0. -1.
          1    1    5    5  503    0  0.11513514967E+03  0.94562500421E+02  0.55586277253E+02  0.15902202173E+03  0.00000000000E+00 0. -1.
         -2    1    5    5    0  503  0.36521138918E+03  0.21790398848E+03  0.28967429376E+03  0.51456068976E+03  0.00000000000E+00 0.  1.
         -1    1    6    6    0  502  0.50150266113E+02  0.29763012870E+03  0.16262194335E+02  0.30226346399E+03  0.00000000000E+00 0.  1.
<mgrwt>
<rscale>  0 0.39014651E+04</rscale>
<asrwt>0</asrwt>
<pdfrwt beam="1">  1        2 0.53158812E+00 0.39014651E+04</pdfrwt>
<pdfrwt beam="2">  1       -2 0.16943123E+00 0.39014651E+04</pdfrwt>
<totfact> 0.14915748E-01</totfact>
</mgrwt>
</event>
<event>
12    1  0.2588309E-007  0.2037892E+04  0.7818608E-02  0.8589107E-01
          2   -1    0    0  501    0  0.00000000000E+00  0.00000000000E+00  0.84834346903E+03  0.84834346903E+03  0.00000000000E+00 0. -1.
         -2   -1    0    0    0  501 -0.00000000000E+00 -0.00000000000E+00 -0.12238565440E+04  0.12238565440E+04  0.00000000000E+00 0.  1.
         23    2    1    2    0    0 -0.73232676592E+03 -0.18702822036E+03  0.16175829457E+03  0.77887196688E+03  0.95884032276E+02 0.  0.
        254    2    1    2    0    0  0.73232676592E+03  0.18702822036E+03 -0.53727136955E+03  0.12933280462E+04  0.90152918042E+03 0.  0.
        -24    2    4    4    0    0  0.50967299370E+03 -0.21704284800E+03  0.24776467086E+02  0.56175123246E+03  0.89868879359E+02 0.  0.
         24    2    4    4    0    0  0.22265377222E+03  0.40407106836E+03 -0.56204783663E+03  0.73157681369E+03  0.80366243505E+02 0.  0.
         11    1    3    3    0    0 -0.28930899726E+03 -0.44818445656E+02  0.10072550750E+03  0.30960299874E+03  0.00000000000E+00 0. -1.
        -11    1    3    3    0    0 -0.44301776866E+03 -0.14220977470E+03  0.61032787070E+02  0.46926896815E+03  0.00000000000E+00 0.  1.
          2    1    6    6  502    0  0.17001442996E+02  0.97807340144E+02 -0.11238587763E+03  0.14995302711E+03  0.00000000000E+00 0. -1.
          3    1    5    5  503    0  0.98857539558E+02 -0.54502236999E+01  0.82560301172E+01  0.99351296414E+02  0.00000000000E+00 0. -1.
         -4    1    5    5    0  503  0.41081545414E+03 -0.21159262430E+03  0.16520436968E+02  0.46239993605E+03  0.00000000000E+00 0.  1.
         -1    1    6    6    0  502  0.20565232922E+03  0.30626372822E+03 -0.44966195901E+03  0.58162378658E+03  0.00000000000E+00 0.  1.
<mgrwt>
<rscale>  0 0.20378918E+04</rscale>
<asrwt>0</asrwt>
<pdfrwt beam="1">  1        2 0.13051438E+00 0.20378918E+04</pdfrwt>
<pdfrwt beam="2">  1       -2 0.18828562E+00 0.20378918E+04</pdfrwt>
<totfact> 0.46896679E+00</totfact>
</mgrwt>
</event>
<event>
12    1  0.2588309E-007  0.3931544E+04  0.7818608E-02  0.8018500E-01
          1   -1    0    0  501    0  0.00000000000E+00  0.00000000000E+00  0.24588704210E+04  0.24588704210E+04  0.00000000000E+00 0. -1.
         -1   -1    0    0    0  501 -0.00000000000E+00 -0.00000000000E+00 -0.15715589209E+04  0.15715589209E+04  0.00000000000E+00 0.  1.
         23    2    1    2    0    0 -0.29101315477E+02  0.16891613935E+04 -0.38066625149E+03  0.17342077481E+04  0.91959875463E+02 0.  0.
        254    2    1    2    0    0  0.29101315477E+02 -0.16891613935E+04  0.12679777516E+04  0.22962215937E+04  0.90041819675E+03 0.  0.
        -24    2    4    4    0    0  0.17042866420E+03 -0.39553918935E+02  0.35450683846E+03  0.40342748002E+03  0.80425064738E+02 0.  0.
         24    2    4    4    0    0 -0.14132734872E+03 -0.16496074746E+04  0.91347091312E+03  0.18927941137E+04  0.84036944326E+02 0.  0.
         11    1    3    3    0    0  0.91918766589E+01  0.13341377638E+04 -0.31999075575E+03  0.13720066134E+04  0.00000000000E+00 0. -1.
        -11    1    3    3    0    0 -0.38293192136E+02  0.35502362974E+03 -0.60675495743E+02  0.36220113476E+03  0.00000000000E+00 0.  1.
          4    1    6    6  502    0 -0.14264465297E+02 -0.45570412202E+02  0.37707056229E+02  0.60843730391E+02  0.00000000000E+00 0. -1.
          3    1    5    5  503    0  0.68239543329E+02 -0.37257990706E+02  0.85031899416E+02  0.11521812819E+03  0.00000000000E+00 0. -1.
         -4    1    5    5    0  503  0.10218912087E+03 -0.22959282284E+01  0.26947493905E+03  0.28820935183E+03  0.00000000000E+00 0.  1.
         -3    1    6    6    0  502 -0.12706288342E+03 -0.16040370624E+04  0.87576385689E+03  0.18319503833E+04  0.00000000000E+00 0.  1.
<mgrwt>
<rscale>  0 0.39315441E+04</rscale>
<asrwt>0</asrwt>
<pdfrwt beam="1">  1        1 0.37828776E+00 0.39315441E+04</pdfrwt>
<pdfrwt beam="2">  1       -1 0.24177830E+00 0.39315441E+04</pdfrwt>
<totfact> 0.89860572E-02</totfact>
</mgrwt>
</event>
<event>
12    1  0.2588309E-007  0.1598878E+04  0.7818608E-02  0.8821238E-01
          1   -1    0    0  501    0  0.00000000000E+00  0.00000000000E+00  0.42861933806E+04  0.42861933806E+04  0.00000000000E+00 0. -1.
         -1   -1    0    0    0  501 -0.00000000000E+00 -0.00000000000E+00 -0.14910731222E+03  0.14910731222E+03  0.00000000000E+00 0.  1.
         23    2    1    2    0    0 -0.49413835500E+03  0.19189225016E+03  0.10989989091E+04  0.12229434814E+04  0.82442749901E+02 0.  0.
        254    2    1    2    0    0  0.49413835500E+03 -0.19189225016E+03  0.30380871594E+04  0.32123572115E+04  0.89903832881E+03 0.  0.
        -24    2    4    4    0    0  0.47616869994E+03 -0.41871153636E+03  0.28058973158E+04  0.28778897883E+04  0.84462447124E+02 0.  0.
         24    2    4    4    0    0  0.17969655068E+02  0.22681928620E+03  0.23218984353E+03  0.33446742320E+03  0.78653904222E+02 0.  0.
         11    1    3    3    0    0 -0.10339182076E+03  0.17526462188E+02  0.27823495188E+03  0.29734110702E+03  0.00000000000E+00 0. -1.
        -11    1    3    3    0    0 -0.39074653424E+03  0.17436578797E+03  0.82076395718E+03  0.92560237437E+03  0.00000000000E+00 0.  1.
          4    1    6    6  502    0  0.36988850757E+01  0.13944927450E+03  0.19179133943E+03  0.23715754214E+03  0.00000000000E+00 0. -1.
          3    1    5    5  503    0  0.17177368012E+03 -0.17010791333E+03  0.90074582443E+03  0.93262314982E+03  0.00000000000E+00 0. -1.
         -4    1    5    5    0  503  0.30439501982E+03 -0.24860362303E+03  0.19051514914E+04  0.19452666385E+04  0.00000000000E+00 0.  1.
         -3    1    6    6    0  502  0.14270769993E+02  0.87370011694E+02  0.40398504098E+02  0.97309881065E+02  0.00000000000E+00 0.  1.
<mgrwt>
<rscale>  0 0.15988781E+04</rscale>
<asrwt>0</asrwt>
<pdfrwt beam="1">  1        1 0.65941427E+00 0.15988781E+04</pdfrwt>
<pdfrwt beam="2">  1       -1 0.22939590E-01 0.15988781E+04</pdfrwt>
<totfact> 0.83434844E-01</totfact>
</mgrwt>
</event>
<event>
12    1  0.2588309E-007  0.1039946E+04  0.7818608E-02  0.9265786E-01
          1   -1    0    0  501    0  0.00000000000E+00  0.00000000000E+00  0.26279800037E+03  0.26279800037E+03  0.00000000000E+00 0. -1.
         -1   -1    0    0    0  501 -0.00000000000E+00 -0.00000000000E+00 -0.10288211523E+04  0.10288211523E+04  0.00000000000E+00 0.  1.
         23    2    1    2    0    0 -0.17324329507E+02 -0.97998504083E+02 -0.88295383821E+02  0.16091356409E+03  0.90516634432E+02 0.  0.
        254    2    1    2    0    0  0.17324329507E+02  0.97998504083E+02 -0.67772776807E+03  0.11307055885E+04  0.89959788858E+03 0.  0.
        -24    2    4    4    0    0  0.43931368883E+03 -0.43401869168E+02 -0.39455911229E+03  0.59743453169E+03  0.79817837070E+02 0.  0.
         24    2    4    4    0    0 -0.42198935933E+03  0.14140037325E+03 -0.28316865577E+03  0.53327105685E+03  0.78258849496E+02 0.  0.
         11    1    3    3    0    0  0.29442834253E+02 -0.67248606786E+02 -0.27804114539E+02  0.78500473812E+02  0.00000000000E+00 0. -1.
        -11    1    3    3    0    0 -0.46767163760E+02 -0.30749897298E+02 -0.60491269282E+02  0.82413090279E+02  0.00000000000E+00 0.  1.
          2    1    6    6  502    0 -0.41056701574E+03  0.12087638392E+03 -0.26322403451E+03  0.50245722898E+03  0.00000000000E+00 0. -1.
          3    1    5    5  503    0  0.42226860305E+03 -0.52772465999E+02 -0.39049037819E+03  0.57756250029E+03  0.00000000000E+00 0. -1.
         -4    1    5    5    0  503  0.17045085785E+02  0.93705968318E+01 -0.40687341017E+01  0.19872031391E+02  0.00000000000E+00 0.  1.
         -1    1    6    6    0  502 -0.11422343581E+02  0.20523989336E+02 -0.19944621260E+02  0.30813827875E+02  0.00000000000E+00 0.  1.
<mgrwt>
<rscale>  0 0.10399464E+04</rscale>
<asrwt>0</asrwt>
<pdfrwt beam="1">  1        1 0.40430462E-01 0.10399464E+04</pdfrwt>
<pdfrwt beam="2">  1       -1 0.15828017E+00 0.10399464E+04</pdfrwt>
<totfact> 0.31399616E+01</totfact>
</mgrwt>
</event>
<event>
12    1  0.2588309E-007  0.2435567E+04  0.7818608E-02  0.8426307E-01
         -1   -1    0    0    0  501 -0.00000000000E+00  0.00000000000E+00  0.43939704906E+03  0.43939704906E+03  0.00000000000E+00 0.  1.
          1   -1    0    0  501    0  0.00000000000E+00 -0.00000000000E+00 -0.33750710727E+04  0.33750710727E+04  0.00000000000E+00 0. -1.
         23    2    1    2    0    0  0.31411305520E+02 -0.10477519465E+04 -0.13379917070E+04  0.17021429271E+04  0.91092944588E+02 0.  0.
        254    2    1    2    0    0 -0.31411305520E+02  0.10477519465E+04 -0.15976823166E+04  0.21123251947E+04  0.90031001975E+03 0.  0.
        -24    2    4    4    0    0  0.41093130953E+02  0.38373996754E+02 -0.83910368890E+03  0.84490174657E+03  0.81257317130E+02 0.  0.
         24    2    4    4    0    0 -0.72504436473E+02  0.10093779498E+04 -0.75857862769E+03  0.12674234481E+04  0.82582828491E+02 0.  0.
         13    1    3    3    0    0  0.37258538049E+01 -0.64161032370E+03 -0.75032209211E+03  0.98724917390E+03  0.00000000000E+00 0.  1.
        -13    1    3    3    0    0  0.27685451715E+02 -0.40614162284E+03 -0.58766961491E+03  0.71489375318E+03  0.00000000000E+00 0. -1.
          4    1    6    6  502    0 -0.89409261620E+02  0.91680593712E+03 -0.69295623798E+03  0.11526992193E+04  0.00000000000E+00 0. -1.
          3    1    5    5  503    0  0.54534049702E+02 -0.16753283295E+01 -0.38669904746E+03  0.39052902915E+03  0.00000000000E+00 0. -1.
         -4    1    5    5    0  503 -0.13440918749E+02  0.40049325083E+02 -0.45240464144E+03  0.45437271742E+03  0.00000000000E+00 0.  1.
         -3    1    6    6    0  502  0.16904825147E+02  0.92572012665E+02 -0.65622389707E+02  0.11472422880E+03  0.00000000000E+00 0.  1.
<mgrwt>
<rscale>  0 0.24355667E+04</rscale>
<asrwt>0</asrwt>
<pdfrwt beam="1">  1        1 0.51924172E+00 0.24355667E+04</pdfrwt>
<pdfrwt beam="2">  1       -1 0.67599543E-01 0.24355667E+04</pdfrwt>
<totfact> 0.61980655E-01</totfact>
</mgrwt>
</event>
<event>
12    1  0.2588309E-007  0.1622068E+04  0.7818608E-02  0.8807104E-01
         -2   -1    0    0    0  501 -0.00000000000E+00  0.00000000000E+00  0.45568666038E+03  0.45568666038E+03  0.00000000000E+00 0.  1.
          2   -1    0    0  501    0  0.00000000000E+00 -0.00000000000E+00 -0.14434839250E+04  0.14434839250E+04  0.00000000000E+00 0. -1.
         23    2    1    2    0    0 -0.22039820258E+02 -0.39415182356E+02 -0.99386304048E+03  0.99943045563E+03  0.95174482504E+02 0.  0.
        254    2    1    2    0    0  0.22039820258E+02  0.39415182356E+02  0.60657758860E+01  0.89974012974E+03  0.89858566489E+03 0.  0.
        -24    2    4    4    0    0  0.35603982110E+03  0.27030837669E+03 -0.11584255337E+03  0.46862541037E+03  0.79745252836E+02 0.  0.
         24    2    4    4    0    0 -0.33400000084E+03 -0.23089319434E+03  0.12190832926E+03  0.43111471937E+03  0.78298101890E+02 0.  0.
         11    1    3    3    0    0 -0.28428429019E+02  0.24434647923E+01 -0.86593675793E+02  0.91173520191E+02  0.00000000000E+00 0.  1.
        -11    1    3    3    0    0  0.63886087609E+01 -0.41858647148E+02 -0.90726936469E+03  0.90825693543E+03  0.00000000000E+00 0. -1.
          4    1    6    6  502    0 -0.15318994317E+03 -0.60603258771E+02  0.39345969750E+02  0.16937537896E+03  0.00000000000E+00 0. -1.
          3    1    5    5  503    0  0.10645231469E+03  0.39230221671E+02 -0.19541012642E+02  0.11512148701E+03  0.00000000000E+00 0. -1.
         -4    1    5    5    0  503  0.24958750641E+03  0.23107815502E+03 -0.96301540730E+02  0.35350392336E+03  0.00000000000E+00 0.  1.
         -3    1    6    6    0  502 -0.18081005768E+03 -0.17028993557E+03  0.82562359508E+02  0.26173934041E+03  0.00000000000E+00 0.  1.
<mgrwt>
<rscale>  0 0.16220683E+04</rscale>
<asrwt>0</asrwt>
<pdfrwt beam="1">  1        2 0.22207445E+00 0.16220683E+04</pdfrwt>
<pdfrwt beam="2">  1       -2 0.70105639E-01 0.16220683E+04</pdfrwt>
<totfact> 0.24238938E+01</totfact>
</mgrwt>
</event>
<event>
12    1  0.2588309E-007  0.1172491E+04  0.7818608E-02  0.9137282E-01
         -2   -1    0    0    0  501 -0.00000000000E+00  0.00000000000E+00  0.24420837465E+03  0.24420837465E+03  0.00000000000E+00 0.  1.
          2   -1    0    0  501    0  0.00000000000E+00 -0.00000000000E+00 -0.14073372819E+04  0.14073372819E+04  0.00000000000E+00 0. -1.
         23    2    1    2    0    0 -0.22707873774E+03 -0.10907186992E+00 -0.24450170950E+03  0.34577046344E+03  0.90616568075E+02 0.  0.
        254    2    1    2    0    0  0.22707873774E+03  0.10907186992E+00 -0.91862719774E+03  0.13057751931E+04  0.89978228559E+03 0.  0.
        -24    2    4    4    0    0 -0.21337394020E+03 -0.12949123282E+03 -0.77640674892E+03  0.81928035003E+03  0.78207636743E+02 0.  0.
         24    2    4    4    0    0  0.44045267794E+03  0.12960030469E+03 -0.14222044882E+03  0.48649484307E+03  0.75204892074E+02 0.  0.
         13    1    3    3    0    0 -0.16590148293E+03  0.31009916576E+02 -0.20855171730E+03  0.26828853079E+03  0.00000000000E+00 0. -1.
        -13    1    3    3    0    0 -0.61177254820E+02 -0.31118988445E+02 -0.35949992197E+02  0.77481932656E+02  0.00000000000E+00 0.  1.
          4    1    6    6  502    0  0.15451940947E+03  0.62285588428E+02 -0.18038043722E+02  0.16757420282E+03  0.00000000000E+00 0. -1.
          3    1    5    5  503    0 -0.89211745291E+02 -0.41104430531E+02 -0.42575120949E+03  0.43693523787E+03  0.00000000000E+00 0. -1.
         -4    1    5    5    0  503 -0.12416219491E+03 -0.88386802286E+02 -0.35065553942E+03  0.38234511216E+03  0.00000000000E+00 0.  1.
         -3    1    6    6    0  502  0.28593326847E+03  0.67314716259E+02 -0.12418240510E+03  0.31892064025E+03  0.00000000000E+00 0.  1.
<mgrwt>
<rscale>  0 0.11724906E+04</rscale>
<asrwt>0</asrwt>
<pdfrwt beam="1">  1        2 0.21651343E+00 0.11724906E+04</pdfrwt>
<pdfrwt beam="2">  1       -2 0.37570519E-01 0.11724906E+04</pdfrwt>
<totfact> 0.94603738E+01</totfact>
</mgrwt>
</event>
<event>
12    1  0.2588309E-007  0.1315722E+04  0.7818608E-02  0.9017189E-01
         -2   -1    0    0    0  501 -0.00000000000E+00  0.00000000000E+00  0.51731440122E+03  0.51731440122E+03  0.00000000000E+00 0.  1.
          2   -1    0    0  501    0  0.00000000000E+00 -0.00000000000E+00 -0.83659231754E+03  0.83659231754E+03  0.00000000000E+00 0. -1.
         23    2    1    2    0    0  0.36085330849E+02  0.29556604515E+03  0.80787456263E+02  0.32378289391E+03  0.98220726688E+02 0.  0.
        254    2    1    2    0    0 -0.36085330849E+02 -0.29556604515E+03 -0.40006537258E+03  0.10301238248E+04  0.90135528735E+03 0.  0.
        -24    2    4    4    0    0 -0.36436171874E+03 -0.27987925022E+03  0.47869291598E+02  0.46881898410E+03  0.80049447075E+02 0.  0.
         24    2    4    4    0    0  0.32827638790E+03 -0.15686794923E+02 -0.44793466418E+03  0.56130484075E+03  0.80038731214E+02 0.  0.
         13    1    3    3    0    0  0.43327792762E+02  0.59934503898E+02  0.41453632398E+02  0.84781165491E+02  0.00000000000E+00 0.  1.
        -13    1    3    3    0    0 -0.72424619123E+01  0.23563154125E+03  0.39333823866E+02  0.23900172842E+03  0.00000000000E+00 0. -1.
          2    1    6    6  502    0  0.29750843342E+03 -0.26024911815E+02 -0.43191457669E+03  0.52510833696E+03  0.00000000000E+00 0. -1.
          1    1    5    5  503    0 -0.87478807657E+02 -0.37854455506E+02  0.32647547491E+02  0.10075397733E+03  0.00000000000E+00 0. -1.
         -2    1    5    5    0  503 -0.27688291109E+03 -0.24202479472E+03  0.15221744107E+02  0.36806500676E+03  0.00000000000E+00 0.  1.
         -1    1    6    6    0  502  0.30767954473E+02  0.10338116892E+02 -0.16020087490E+02  0.36196503789E+02  0.00000000000E+00 0.  1.
<mgrwt>
<rscale>  0 0.13157222E+04</rscale>
<asrwt>0</asrwt>
<pdfrwt beam="1">  1        2 0.12870651E+00 0.13157222E+04</pdfrwt>
<pdfrwt beam="2">  1       -2 0.79586832E-01 0.13157222E+04</pdfrwt>
<totfact> 0.44429004E+01</totfact>
</mgrwt>
</event>
<event>
12    1  0.2588309E-007  0.1201254E+04  0.7818608E-02  0.9111760E-01
         -2   -1    0    0    0  501 -0.00000000000E+00  0.00000000000E+00  0.12511583597E+03  0.12511583597E+03  0.00000000000E+00 0.  1.
          2   -1    0    0  501    0  0.00000000000E+00 -0.00000000000E+00 -0.28833486716E+04  0.28833486716E+04  0.00000000000E+00 0. -1.
         23    2    1    2    0    0 -0.24583644971E+03  0.53601697578E+02 -0.64926644926E+03  0.70248632450E+03  0.92905392684E+02 0.  0.
        254    2    1    2    0    0  0.24583644971E+03 -0.53601697578E+02 -0.21089663864E+04  0.23059781831E+04  0.89804646873E+03 0.  0.
        -24    2    4    4    0    0 -0.32407192809E+03 -0.11396331210E+02 -0.10246329895E+04  0.10775909138E+04  0.78593405881E+02 0.  0.
         24    2    4    4    0    0  0.56990837779E+03 -0.42205366369E+02 -0.10843333969E+04  0.12283872693E+04  0.81114213698E+02 0.  0.
         13    1    3    3    0    0 -0.12108805208E+03  0.27476669892E+02 -0.44252363981E+03  0.45961337615E+03  0.00000000000E+00 0. -1.
        -13    1    3    3    0    0 -0.12474839763E+03  0.26125027687E+02 -0.20674280945E+03  0.24287294836E+03  0.00000000000E+00 0.  1.
          2    1    6    6  502    0  0.10417520716E+03 -0.39549683561E+02 -0.20475274694E+03  0.23311014272E+03  0.00000000000E+00 0. -1.
          3    1    5    5  503    0 -0.75125577685E+02  0.22694503098E+02 -0.17974036156E+03  0.19612621055E+03  0.00000000000E+00 0. -1.
         -2    1    5    5    0  503 -0.24894635040E+03 -0.34090834308E+02 -0.84489262791E+03  0.88146470324E+03  0.00000000000E+00 0.  1.
         -1    1    6    6    0  502  0.46573317063E+03 -0.26556828082E+01 -0.87958064996E+03  0.99527712656E+03  0.00000000000E+00 0.  1.
<mgrwt>
<rscale>  0 0.12012536E+04</rscale>
<asrwt>0</asrwt>
<pdfrwt beam="1">  1        2 0.44359208E+00 0.12012536E+04</pdfrwt>
<pdfrwt beam="2">  1       -2 0.19248591E-01 0.12012536E+04</pdfrwt>
<totfact> 0.46973022E+01</totfact>
</mgrwt>
</event>
<event>
12    1  0.2588309E-007  0.1636898E+04  0.7818608E-02  0.8798195E-01
          1   -1    0    0  501    0  0.00000000000E+00  0.00000000000E+00  0.25640396946E+04  0.25640396946E+04  0.00000000000E+00 0. -1.
         -1   -1    0    0    0  501 -0.00000000000E+00 -0.00000000000E+00 -0.26125136380E+03  0.26125136380E+03  0.00000000000E+00 0.  1.
         23    2    1    2    0    0  0.54504448088E+03 -0.13592321862E+03  0.68843626551E+03  0.89340167636E+03  0.93131391889E+02 0.  0.
        254    2    1    2    0    0 -0.54504448088E+03  0.13592321862E+03  0.16143520653E+04  0.19318893821E+04  0.90028628018E+03 0.  0.
        -24    2    4    4    0    0 -0.53296053279E+03  0.39529378995E+03  0.65864128787E+03  0.93845025529E+03  0.81095164320E+02 0.  0.
         24    2    4    4    0    0 -0.12083948093E+02 -0.25937057133E+03  0.95571077746E+03  0.99343912680E+03  0.78224634410E+02 0.  0.
         13    1    3    3    0    0  0.18043605436E+03 -0.49579256259E+01  0.24949565250E+03  0.30794452643E+03  0.00000000000E+00 0. -1.
        -13    1    3    3    0    0  0.36460842652E+03 -0.13096529299E+03  0.43894061301E+03  0.58545714994E+03  0.00000000000E+00 0.  1.
          2    1    6    6  502    0 -0.42013391249E+02 -0.15337315875E+03  0.62278792768E+03  0.64276998509E+03  0.00000000000E+00 0. -1.
          1    1    5    5  503    0  0.27943924017E+01  0.58266762894E+00  0.15411162071E+01  0.32439435297E+01  0.00000000000E+00 0. -1.
         -2    1    5    5    0  503 -0.53575492519E+03  0.39471112232E+03  0.65710017166E+03  0.93520631176E+03  0.00000000000E+00 0.  1.
         -1    1    6    6    0  502  0.29929443156E+02 -0.10599741258E+03  0.33292284978E+03  0.35066914171E+03  0.00000000000E+00 0.  1.
<mgrwt>
<rscale>  0 0.16368981E+04</rscale>
<asrwt>0</asrwt>
<pdfrwt beam="1">  1        1 0.39446763E+00 0.16368981E+04</pdfrwt>
<pdfrwt beam="2">  1       -1 0.40192519E-01 0.16368981E+04</pdfrwt>
<totfact> 0.70761466E+00</totfact>
</mgrwt>
</event>
<event>
12    1  0.2588309E-007  0.1511872E+04  0.7818608E-02  0.8876596E-01
          2   -1    0    0  501    0  0.00000000000E+00  0.00000000000E+00  0.21402625767E+04  0.21402625767E+04  0.00000000000E+00 0. -1.
         -2   -1    0    0    0  501 -0.00000000000E+00 -0.00000000000E+00 -0.26699506574E+03  0.26699506574E+03  0.00000000000E+00 0.  1.
         23    2    1    2    0    0 -0.47389499903E+03 -0.80962789055E+02  0.60421810358E+03  0.77753465003E+03  0.91373803586E+02 0.  0.
        254    2    1    2    0    0  0.47389499903E+03  0.80962789055E+02  0.12690494074E+04  0.16297229924E+04  0.90242960407E+03 0.  0.
        -24    2    4    4    0    0  0.10928129245E+03 -0.95156325144E+02  0.12000237603E+04  0.12114204000E+04  0.80530944956E+02 0.  0.
         24    2    4    4    0    0  0.36461370658E+03  0.17611911420E+03  0.69025647099E+02  0.41830259245E+03  0.79065931243E+02 0.  0.
         11    1    3    3    0    0 -0.76969601594E+02 -0.47123642829E+02  0.95439781819E+02  0.13135337543E+03  0.00000000000E+00 0.  1.
        -11    1    3    3    0    0 -0.39692539744E+03 -0.33839146226E+02  0.50877832176E+03  0.64618127460E+03  0.00000000000E+00 0. -1.
          4    1    6    6  502    0  0.19094619351E+02 -0.78846614582E+01 -0.75329278880E+00  0.20672199315E+02  0.00000000000E+00 0. -1.
          3    1    5    5  503    0  0.33076759129E+02  0.73775523704E+01  0.15792256053E+03  0.16151791045E+03  0.00000000000E+00 0. -1.
         -4    1    5    5    0  503  0.76204533323E+02 -0.10253387751E+03  0.10421011998E+04  0.10499024895E+04  0.00000000000E+00 0.  1.
         -3    1    6    6    0  502  0.34551908723E+03  0.18400377566E+03  0.69778939887E+02  0.39763039314E+03  0.00000000000E+00 0.  1.
<mgrwt>
<rscale>  0 0.15118724E+04</rscale>
<asrwt>0</asrwt>
<pdfrwt beam="1">  1        2 0.32927115E+00 0.15118724E+04</pdfrwt>
<pdfrwt beam="2">  1       -2 0.41076165E-01 0.15118724E+04</pdfrwt>
<totfact> 0.30254950E+01</totfact>
</mgrwt>
</event>
<event>
12    1  0.2588309E-007  0.2071682E+04  0.7818608E-02  0.8573821E-01
         -2   -1    0    0    0  501 -0.00000000000E+00  0.00000000000E+00  0.47450470624E+03  0.47450470624E+03  0.00000000000E+00 0. -1.
          2   -1    0    0  501    0  0.00000000000E+00 -0.00000000000E+00 -0.22612351626E+04  0.22612351626E+04  0.00000000000E+00 0.  1.
         23    2    1    2    0    0 -0.20826587420E+03 -0.78481365381E+03 -0.46004957486E+03  0.93764597074E+03  0.90703966582E+02 0.  0.
        254    2    1    2    0    0  0.20826587420E+03  0.78481365381E+03 -0.13266808815E+04  0.17980938981E+04  0.90208223544E+03 0.  0.
        -24    2    4    4    0    0 -0.24951584336E+03  0.62318205820E+01 -0.11857090385E+03  0.28753631438E+03  0.79505227324E+02 0.  0.
         24    2    4    4    0    0  0.45778171757E+03  0.77858183323E+03 -0.12081099777E+04  0.15105575837E+04  0.80627065426E+02 0.  0.
         11    1    3    3    0    0 -0.83220050870E+02 -0.33974025565E+03 -0.24951079223E+03  0.42965643673E+03  0.00000000000E+00 0. -1.
        -11    1    3    3    0    0 -0.12504582333E+03 -0.44507339816E+03 -0.21053878263E+03  0.50798953402E+03  0.00000000000E+00 0.  1.
          2    1    6    6  502    0  0.30189876781E+03  0.55844993228E+03 -0.79836041178E+03  0.10199943823E+04  0.00000000000E+00 0. -1.
          3    1    5    5  503    0 -0.22893771632E+03  0.19240642497E+02 -0.12607080213E+03  0.26206206789E+03  0.00000000000E+00 0. -1.
         -4    1    5    5    0  503 -0.20578127039E+02 -0.13008821915E+02  0.74998982767E+01  0.25474246489E+02  0.00000000000E+00 0.  1.
         -1    1    6    6    0  502  0.15588294976E+03  0.22013190095E+03 -0.40974956589E+03  0.49056320142E+03  0.00000000000E+00 0.  1.
<mgrwt>
<rscale>  0 0.20716821E+04</rscale>
<asrwt>0</asrwt>
<pdfrwt beam="1">  1        2 0.34788234E+00 0.20716821E+04</pdfrwt>
<pdfrwt beam="2">  1       -2 0.73000722E-01 0.20716821E+04</pdfrwt>
<totfact> 0.74672392E+00</totfact>
</mgrwt>
</event>
<event>
12    1  0.2588309E-007  0.3287651E+04  0.7818608E-02  0.8166045E-01
          2   -1    0    0  501    0  0.00000000000E+00  0.00000000000E+00  0.36437441343E+04  0.36437441343E+04  0.00000000000E+00 0. -1.
         -2   -1    0    0    0  501 -0.00000000000E+00 -0.00000000000E+00 -0.74158928962E+03  0.74158928962E+03  0.00000000000E+00 0.  1.
         23    2    1    2    0    0 -0.96783815585E+02 -0.74269696057E+03 -0.41875170961E+03  0.86382301935E+03  0.99354578468E+02 0.  0.
        254    2    1    2    0    0  0.96783815585E+02  0.74269696057E+03  0.33209065542E+04  0.35215104045E+04  0.90091581460E+03 0.  0.
        -24    2    4    4    0    0 -0.14336746038E+03 -0.15998137092E+03  0.78857422055E+03  0.82119685562E+03  0.79791645123E+02 0.  0.
         24    2    4    4    0    0  0.24015127597E+03  0.90267833149E+03  0.25323323337E+04  0.27003135489E+04  0.80532034977E+02 0.  0.
         13    1    3    3    0    0 -0.29128735849E+02 -0.48691863319E+02 -0.17776784418E+02  0.59459186589E+02  0.00000000000E+00 0. -1.
        -13    1    3    3    0    0 -0.67655079736E+02 -0.69400509725E+03 -0.40097492519E+03  0.80436383276E+03  0.00000000000E+00 0.  1.
          2    1    6    6  502    0  0.98844341122E+02  0.43652154633E+03  0.11075368040E+04  0.11945539069E+04  0.00000000000E+00 0. -1.
          3    1    5    5  503    0  0.54744938106E+01 -0.16256009208E+02  0.26768806162E+02  0.31793032274E+02  0.00000000000E+00 0. -1.
         -4    1    5    5    0  503 -0.14884195419E+03 -0.14372536171E+03  0.76180541438E+03  0.78940382334E+03  0.00000000000E+00 0.  1.
         -1    1    6    6    0  502  0.14130693484E+03  0.46615678516E+03  0.14247955297E+04  0.15057596420E+04  0.00000000000E+00 0.  1.
<mgrwt>
<rscale>  0 0.32876506E+04</rscale>
<asrwt>0</asrwt>
<pdfrwt beam="1">  1        2 0.56057601E+00 0.32876506E+04</pdfrwt>
<pdfrwt beam="2">  1       -2 0.11409066E+00 0.32876506E+04</pdfrwt>
<totfact> 0.32210776E-01</totfact>
</mgrwt>
</event>
<event>
12    1  0.2588309E-007  0.3664121E+04  0.7818608E-02  0.8075960E-01
         -2   -1    0    0    0  501 -0.00000000000E+00  0.00000000000E+00  0.20727653786E+04  0.20727653786E+04  0.00000000000E+00 0.  1.
          2   -1    0    0  501    0  0.00000000000E+00 -0.00000000000E+00 -0.16193082938E+04  0.16193082938E+04  0.00000000000E+00 0. -1.
         23    2    1    2    0    0  0.15126922164E+04 -0.53425912053E+02 -0.61059157970E+03  0.16347187200E+04  0.91603202154E+02 0.  0.
        254    2    1    2    0    0 -0.15126922164E+04  0.53425912053E+02  0.10640486645E+04  0.20573549524E+04  0.89967648074E+03 0.  0.
        -24    2    4    4    0    0 -0.11956051941E+04 -0.34293325630E+03  0.77918314930E+03  0.14699422719E+04  0.80801635119E+02 0.  0.
         24    2    4    4    0    0 -0.31708702232E+03  0.39635916835E+03  0.28486551516E+03  0.58741268043E+03  0.79123481585E+02 0.  0.
         11    1    3    3    0    0  0.11114739348E+04 -0.40570911139E+02 -0.49172913443E+03  0.12160665476E+04  0.00000000000E+00 0. -1.
        -11    1    3    3    0    0  0.40121828168E+03 -0.12855000913E+02 -0.11886244527E+03  0.41865217245E+03  0.00000000000E+00 0.  1.
          4    1    6    6  502    0 -0.63485646578E+02  0.62231184028E+02  0.19379386398E+02  0.90987406844E+02  0.00000000000E+00 0. -1.
          1    1    5    5  503    0  0.62621946406E+00 -0.11035371302E+01  0.37448545969E+01  0.39539702789E+01  0.00000000000E+00 0. -1.
         -2    1    5    5    0  503 -0.11962314136E+04 -0.34182971917E+03  0.77543829470E+03  0.14659883017E+04  0.00000000000E+00 0.  1.
         -3    1    6    6    0  502 -0.25360137574E+03  0.33412798433E+03  0.26548612876E+03  0.49642527358E+03  0.00000000000E+00 0.  1.
<mgrwt>
<rscale>  0 0.36641213E+04</rscale>
<asrwt>0</asrwt>
<pdfrwt beam="1">  1        2 0.24912435E+00 0.36641213E+04</pdfrwt>
<pdfrwt beam="2">  1       -2 0.31888698E+00 0.36641213E+04</pdfrwt>
<totfact> 0.21450999E-01</totfact>
</mgrwt>
</event>
<event>
12    1  0.2588309E-007  0.2045051E+04  0.7818608E-02  0.8585843E-01
          1   -1    0    0  501    0  0.00000000000E+00  0.00000000000E+00  0.10254141582E+04  0.10254141582E+04  0.00000000000E+00 0. -1.
         -1   -1    0    0    0  501 -0.00000000000E+00 -0.00000000000E+00 -0.10196447195E+04  0.10196447195E+04  0.00000000000E+00 0.  1.
         23    2    1    2    0    0 -0.50946674798E+03  0.61055893963E+03  0.21001290208E+03  0.82748990696E+03  0.91079860688E+02 0.  0.
        254    2    1    2    0    0  0.50946674798E+03 -0.61055893963E+03 -0.20424346344E+03  0.12175689707E+04  0.89912191615E+03 0.  0.
        -24    2    4    4    0    0  0.47879838258E+03 -0.78110162872E+03 -0.34381394298E+03  0.98173638463E+03  0.78934504237E+02 0.  0.
         24    2    4    4    0    0  0.30668365403E+02  0.17054268909E+03  0.13957047954E+03  0.23583258612E+03  0.78177570176E+02 0.  0.
         13    1    3    3    0    0 -0.25891725203E+03  0.32606404123E+03  0.15572097379E+03  0.44452775398E+03  0.00000000000E+00 0. -1.
        -13    1    3    3    0    0 -0.25054949596E+03  0.28449489840E+03  0.54291928287E+02  0.38296215298E+03  0.00000000000E+00 0.  1.
          4    1    6    6  502    0  0.26196636284E+02  0.13668968261E+03  0.14530645736E+03  0.20120710632E+03  0.00000000000E+00 0. -1.
          3    1    5    5  503    0  0.24988867441E+03 -0.34246804054E+03 -0.17969443110E+03  0.46045498907E+03  0.00000000000E+00 0. -1.
         -4    1    5    5    0  503  0.22890970817E+03 -0.43863358818E+03 -0.16411951188E+03  0.52128139556E+03  0.00000000000E+00 0.  1.
         -3    1    6    6    0  502  0.44717291193E+01  0.33853006487E+02 -0.57359778270E+01  0.34625479797E+02  0.00000000000E+00 0.  1.
<mgrwt>
<rscale>  0 0.20450507E+04</rscale>
<asrwt>0</asrwt>
<pdfrwt beam="1">  1        1 0.15775602E+00 0.20450507E+04</pdfrwt>
<pdfrwt beam="2">  1       -1 0.15686842E+00 0.20450507E+04</pdfrwt>
<totfact> 0.41248625E+00</totfact>
</mgrwt>
</event>
<event>
12    1  0.2588309E-007  0.1028589E+04  0.7818608E-02  0.9277733E-01
         -2   -1    0    0    0  501 -0.00000000000E+00  0.00000000000E+00  0.13629261048E+03  0.13629261048E+03  0.00000000000E+00 0.  1.
          2   -1    0    0  501    0  0.00000000000E+00 -0.00000000000E+00 -0.19406693080E+04  0.19406693080E+04  0.00000000000E+00 0. -1.
         23    2    1    2    0    0 -0.35617381777E+02 -0.32114897244E+02 -0.34962448926E+03  0.36529876195E+03  0.94371274684E+02 0.  0.
        254    2    1    2    0    0  0.35617381777E+02  0.32114897244E+02 -0.14547522082E+04  0.17116631565E+04  0.90065909724E+03 0.  0.
        -24    2    4    4    0    0  0.19675778004E+03 -0.35685733959E+02 -0.14989773520E+04  0.15143517652E+04  0.79630844422E+02 0.  0.
         24    2    4    4    0    0 -0.16114039826E+03  0.67800631203E+02  0.44225143789E+02  0.19731139126E+03  0.80079761706E+02 0.  0.
         13    1    3    3    0    0 -0.41603060086E+01  0.26053162205E+02 -0.35169279095E+02  0.43965368178E+02  0.00000000000E+00 0.  1.
        -13    1    3    3    0    0 -0.31457075768E+02 -0.58168059449E+02 -0.31445521016E+03  0.32133339378E+03  0.00000000000E+00 0. -1.
          4    1    6    6  502    0 -0.26555660213E+02  0.14147319351E+02 -0.22724050564E+02  0.37705864374E+02  0.00000000000E+00 0. -1.
          1    1    5    5  503    0  0.13015351068E+03 -0.44476706133E+02 -0.76160318168E+03  0.77392345879E+03  0.00000000000E+00 0. -1.
         -2    1    5    5    0  503  0.66604269361E+02  0.87909721744E+01 -0.73737417036E+03  0.74042830645E+03  0.00000000000E+00 0.  1.
         -3    1    6    6    0  502 -0.13458473805E+03  0.53653311853E+02  0.66949194353E+02  0.15960552689E+03  0.00000000000E+00 0.  1.
<mgrwt>
<rscale>  0 0.10285891E+04</rscale>
<asrwt>0</asrwt>
<pdfrwt beam="1">  1        2 0.29856447E+00 0.10285891E+04</pdfrwt>
<pdfrwt beam="2">  1       -2 0.20968096E-01 0.10285891E+04</pdfrwt>
<totfact> 0.14165675E+02</totfact>
</mgrwt>
</event>
<event>
12    1  0.2588309E-007  0.2544628E+04  0.7818608E-02  0.8387257E-01
          2   -1    0    0  501    0  0.00000000000E+00  0.00000000000E+00  0.29005985658E+04  0.29005985658E+04  0.00000000000E+00 0. -1.
         -2   -1    0    0    0  501 -0.00000000000E+00 -0.00000000000E+00 -0.55808580432E+03  0.55808580432E+03  0.00000000000E+00 0.  1.
         23    2    1    2    0    0 -0.66413593183E+03  0.39622790494E+03  0.21156720354E+04  0.22543776329E+04  0.89873589262E+02 0.  0.
        254    2    1    2    0    0  0.66413593183E+03 -0.39622790494E+03  0.22684072608E+03  0.12043067372E+04  0.89488821289E+03 0.  0.
        -24    2    4    4    0    0 -0.12601651388E+03 -0.33637266441E+03 -0.26060766275E+02  0.36863651320E+03  0.78657384875E+02 0.  0.
         24    2    4    4    0    0  0.79015244571E+03 -0.59855240530E+02  0.25290149235E+03  0.83567022396E+03  0.80386697279E+02 0.  0.
         11    1    3    3    0    0 -0.42624108295E+03  0.24341752021E+03  0.14612153777E+04  0.15414551339E+04  0.00000000000E+00 0. -1.
        -11    1    3    3    0    0 -0.23789484888E+03  0.15281038473E+03  0.65445665773E+03  0.71292249905E+03  0.00000000000E+00 0.  1.
          4    1    6    6  502    0  0.28786365938E+03 -0.16530857349E+02  0.52143211019E+02  0.29301479501E+03  0.00000000000E+00 0. -1.
          1    1    5    5  503    0 -0.35159299010E+02 -0.17743839170E+03  0.13317804651E+02  0.18137784616E+03  0.00000000000E+00 0. -1.
         -2    1    5    5    0  503 -0.90857214868E+02 -0.15893427271E+03 -0.39378570926E+02  0.18725866704E+03  0.00000000000E+00 0.  1.
         -3    1    6    6    0  502  0.50228878633E+03 -0.43324383181E+02  0.20075828133E+03  0.54265542895E+03  0.00000000000E+00 0.  1.
<mgrwt>
<rscale>  0 0.25446280E+04</rscale>
<asrwt>0</asrwt>
<pdfrwt beam="1">  1        2 0.44624592E+00 0.25446280E+04</pdfrwt>
<pdfrwt beam="2">  1       -2 0.85859356E-01 0.25446280E+04</pdfrwt>
<totfact> 0.21003858E+00</totfact>
</mgrwt>
</event>
<event>
12    1  0.2588309E-007  0.3502672E+04  0.7818608E-02  0.8113157E-01
          2   -1    0    0  501    0  0.00000000000E+00  0.00000000000E+00  0.19869316116E+04  0.19869316116E+04  0.00000000000E+00 0.  1.
         -2   -1    0    0    0  501 -0.00000000000E+00 -0.00000000000E+00 -0.15436753886E+04  0.15436753886E+04  0.00000000000E+00 0. -1.
         23    2    1    2    0    0  0.91075539381E+03  0.11100671951E+04  0.98607902106E+03  0.17442192904E+04  0.90689206246E+02 0.  0.
        254    2    1    2    0    0 -0.91075539381E+03 -0.11100671951E+04 -0.54282279808E+03  0.17863877099E+04  0.91367384493E+03 0.  0.
        -24    2    4    4    0    0 -0.10427984185E+04 -0.76630160073E+03 -0.55253864506E+03  0.14093768770E+04  0.79984637412E+02 0.  0.
         24    2    4    4    0    0  0.13204302465E+03 -0.34376559436E+03  0.97158469836E+01  0.37701083291E+03  0.80203654671E+02 0.  0.
         11    1    3    3    0    0  0.85226668527E+03  0.10218538200E+04  0.88638954336E+03  0.15988214894E+04  0.00000000000E+00 0. -1.
        -11    1    3    3    0    0  0.58488708536E+02  0.88213375096E+02  0.99689477700E+02  0.14539780100E+03  0.00000000000E+00 0.  1.
          2    1    6    6  502    0  0.81187802068E+02 -0.29659567630E+03  0.92556095371E+01  0.30764609654E+03  0.00000000000E+00 0. -1.
          1    1    5    5  503    0 -0.86505365658E+03 -0.62548943725E+03 -0.48696002889E+03  0.11733221785E+04  0.00000000000E+00 0. -1.
         -4    1    5    5    0  503 -0.17774476188E+03 -0.14081216348E+03 -0.65578616171E+02  0.23605469845E+03  0.00000000000E+00 0.  1.
         -1    1    6    6    0  502  0.50855222580E+02 -0.47169918056E+02  0.46023744645E+00  0.69364736369E+02  0.00000000000E+00 0.  1.
<mgrwt>
<rscale>  0 0.35026718E+04</rscale>
<asrwt>0</asrwt>
<pdfrwt beam="1">  1        2 0.30568179E+00 0.35026718E+04</pdfrwt>
<pdfrwt beam="2">  1       -2 0.23748852E+00 0.35026718E+04</pdfrwt>
<totfact> 0.42858459E-01</totfact>
</mgrwt>
</event>
<event>
12    1  0.2588309E-007  0.3674115E+04  0.7818608E-02  0.8073722E-01
          2   -1    0    0  501    0  0.00000000000E+00  0.00000000000E+00  0.20800512837E+04  0.20800512837E+04  0.00000000000E+00 0.  1.
         -2   -1    0    0    0  501 -0.00000000000E+00 -0.00000000000E+00 -0.16224509358E+04  0.16224509358E+04  0.00000000000E+00 0. -1.
         23    2    1    2    0    0 -0.53858287608E+03 -0.11726190971E+04  0.13705122176E+04  0.18846735067E+04  0.92646784545E+02 0.  0.
        254    2    1    2    0    0  0.53858287608E+03  0.11726190971E+04 -0.91291186974E+03  0.18178287129E+04  0.89776727834E+03 0.  0.
        -24    2    4    4    0    0  0.47755061458E+03  0.81084828881E+03 -0.10554735447E+04  0.14163232005E+04  0.80109099645E+02 0.  0.
         24    2    4    4    0    0  0.61032261504E+02  0.36177080833E+03  0.14256167498E+03  0.40150551233E+03  0.79245129520E+02 0.  0.
         11    1    3    3    0    0 -0.39590793334E+03 -0.94179602308E+03  0.11081499628E+04  0.15072223395E+04  0.00000000000E+00 0. -1.
        -11    1    3    3    0    0 -0.14267494274E+03 -0.23082307406E+03  0.26236225484E+03  0.37745116713E+03  0.00000000000E+00 0.  1.
          2    1    6    6  502    0  0.72457918346E+02  0.19386086038E+03  0.74346258434E+02  0.21990804729E+03  0.00000000000E+00 0. -1.
          3    1    5    5  503    0  0.36434476053E+02  0.78668969397E+02 -0.67378869807E+02  0.10980068255E+03  0.00000000000E+00 0. -1.
         -4    1    5    5    0  503  0.44111613852E+03  0.73217931941E+03 -0.98809467492E+03  0.13065225180E+04  0.00000000000E+00 0.  1.
         -1    1    6    6    0  502 -0.11425656842E+02  0.16790994795E+03  0.68215416551E+02  0.18159746504E+03  0.00000000000E+00 0.  1.
<mgrwt>
<rscale>  0 0.36741155E+04</rscale>
<asrwt>0</asrwt>
<pdfrwt beam="1">  1        2 0.32000789E+00 0.36741155E+04</pdfrwt>
<pdfrwt beam="2">  1       -2 0.24960784E+00 0.36741155E+04</pdfrwt>
<totfact> 0.31561884E-01</totfact>
</mgrwt>
</event>
<event>
12    1  0.2588309E-007  0.2565027E+04  0.7818608E-02  0.8380179E-01
          2   -1    0    0  501    0  0.00000000000E+00  0.00000000000E+00  0.98514536921E+03  0.98514536921E+03  0.00000000000E+00 0. -1.
         -2   -1    0    0    0  501 -0.00000000000E+00 -0.00000000000E+00 -0.16696423373E+04  0.16696423373E+04  0.00000000000E+00 0.  1.
         23    2    1    2    0    0 -0.26209563339E+02 -0.11047714844E+04 -0.50026242264E+03  0.12165382166E+04  0.92172484163E+02 0.  0.
        254    2    1    2    0    0  0.26209563339E+02  0.11047714844E+04 -0.18423454547E+03  0.14382494900E+04  0.90189370416E+03 0.  0.
        -24    2    4    4    0    0 -0.11816680980E+03  0.71579988101E+03 -0.52214517826E+03  0.89739092756E+03  0.79636832505E+02 0.  0.
         24    2    4    4    0    0  0.14437637314E+03  0.38897160343E+03  0.33791063279E+03  0.54085856241E+03  0.78746069047E+02 0.  0.
         13    1    3    3    0    0 -0.32038689788E+01 -0.14044374660E+03 -0.31054637765E+02  0.14387182234E+03  0.00000000000E+00 0. -1.
        -13    1    3    3    0    0 -0.23005694360E+02 -0.96432773784E+03 -0.46920778487E+03  0.10726663942E+04  0.00000000000E+00 0.  1.
          4    1    6    6  502    0  0.91950286520E+02  0.27875969662E+03  0.28041146991E+03  0.40594632171E+03  0.00000000000E+00 0. -1.
          3    1    5    5  503    0 -0.30558401455E+02  0.41905207222E+03 -0.28858922400E+03  0.50972756973E+03  0.00000000000E+00 0. -1.
         -4    1    5    5    0  503 -0.87608408342E+02  0.29674780879E+03 -0.23355595426E+03  0.38766335783E+03  0.00000000000E+00 0.  1.
         -1    1    6    6    0  502  0.52426086617E+02  0.11021190680E+03  0.57499162873E+02  0.13491224070E+03  0.00000000000E+00 0.  1.
<mgrwt>
<rscale>  0 0.25650266E+04</rscale>
<asrwt>0</asrwt>
<pdfrwt beam="1">  1        2 0.15156083E+00 0.25650266E+04</pdfrwt>
<pdfrwt beam="2">  1       -2 0.25686805E+00 0.25650266E+04</pdfrwt>
<totfact> 0.13319940E+00</totfact>
</mgrwt>
</event>
<event>
12    1  0.2588309E-007  0.1575073E+04  0.7818608E-02  0.8836010E-01
          2   -1    0    0  501    0  0.00000000000E+00  0.00000000000E+00  0.12429265569E+04  0.12429265569E+04  0.00000000000E+00 0. -1.
         -2   -1    0    0    0  501 -0.00000000000E+00 -0.00000000000E+00 -0.49899449512E+03  0.49899449512E+03  0.00000000000E+00 0.  1.
         23    2    1    2    0    0  0.48198498986E+02  0.38309977813E+03 -0.14215285131E+03  0.42143239779E+03  0.91155347951E+02 0.  0.
        254    2    1    2    0    0 -0.48198498986E+02 -0.38309977813E+03  0.88608491313E+03  0.13204886543E+04  0.89969732547E+03 0.  0.
        -24    2    4    4    0    0  0.21622502878E+03  0.21722953007E+03  0.29574442581E+03  0.43418936103E+03  0.84342776943E+02 0.  0.
         24    2    4    4    0    0 -0.26442352777E+03 -0.60032930821E+03  0.59034048731E+03  0.88629929323E+03  0.81911329476E+02 0.  0.
         13    1    3    3    0    0 -0.15467648769E+02  0.15495894803E+03 -0.26948099072E+02  0.15804342371E+03  0.00000000000E+00 0. -1.
        -13    1    3    3    0    0  0.63666147756E+02  0.22814083010E+03 -0.11520475224E+03  0.26338897408E+03  0.00000000000E+00 0.  1.
          4    1    6    6  502    0 -0.16337402085E+03 -0.37343962397E+03  0.41899678284E+03  0.58455669312E+03  0.00000000000E+00 0. -1.
          3    1    5    5  503    0  0.20824499524E+03  0.21175319504E+03  0.25233996444E+03  0.38971893886E+03  0.00000000000E+00 0. -1.
         -4    1    5    5    0  503  0.79800335405E+01  0.54763350354E+01  0.43404461375E+02  0.44470422170E+02  0.00000000000E+00 0.  1.
         -3    1    6    6    0  502 -0.10104950692E+03 -0.22688968424E+03  0.17134370447E+03  0.30174260011E+03  0.00000000000E+00 0.  1.
<mgrwt>
<rscale>  0 0.15750727E+04</rscale>
<asrwt>0</asrwt>
<pdfrwt beam="1">  1        2 0.19121947E+00 0.15750727E+04</pdfrwt>
<pdfrwt beam="2">  1       -2 0.76768384E-01 0.15750727E+04</pdfrwt>
<totfact> 0.26015828E+01</totfact>
</mgrwt>
</event>
<event>
12    1  0.2588309E-007  0.1832545E+04  0.7818608E-02  0.8689182E-01
         -1   -1    0    0    0  501 -0.00000000000E+00  0.00000000000E+00  0.71917841539E+03  0.71917841539E+03  0.00000000000E+00 0.  1.
          1   -1    0    0  501    0  0.00000000000E+00 -0.00000000000E+00 -0.11673807426E+04  0.11673807426E+04  0.00000000000E+00 0. -1.
         23    2    1    2    0    0  0.40959010910E+03  0.16232976327E+03  0.37832122689E+03  0.58756890743E+03  0.89416221958E+02 0.  0.
        254    2    1    2    0    0 -0.40959010910E+03 -0.16232976327E+03 -0.82652355412E+03  0.12989902506E+04  0.90006637314E+03 0.  0.
        -24    2    4    4    0    0  0.13195671727E+03 -0.23714665289E+03  0.24736803562E+02  0.28422454549E+03  0.80750062532E+02 0.  0.
         24    2    4    4    0    0 -0.54154682637E+03  0.74816889616E+02 -0.85126035769E+03  0.10147657051E+04  0.78960164251E+02 0.  0.
         11    1    3    3    0    0  0.30165999174E+03  0.15529470358E+03  0.31040146836E+03  0.45985244061E+03  0.00000000000E+00 0.  1.
        -11    1    3    3    0    0  0.10793011736E+03  0.70350596930E+01  0.67919758527E+02  0.12771646682E+03  0.00000000000E+00 0. -1.
          4    1    6    6  502    0 -0.42707775035E+03  0.42225391885E+02 -0.71438714864E+03  0.83338309721E+03  0.00000000000E+00 0. -1.
          1    1    5    5  503    0  0.65682866641E+02 -0.72455587998E+02  0.40817022014E+02  0.10597207410E+03  0.00000000000E+00 0. -1.
         -2    1    5    5    0  503  0.66273850630E+02 -0.16469106489E+03 -0.16080218452E+02  0.17825247139E+03  0.00000000000E+00 0.  1.
         -3    1    6    6    0  502 -0.11446907602E+03  0.32591497730E+02 -0.13687320904E+03  0.18138260788E+03  0.00000000000E+00 0.  1.
<mgrwt>
<rscale>  0 0.18325447E+04</rscale>
<asrwt>0</asrwt>
<pdfrwt beam="1">  1        1 0.17959704E+00 0.18325447E+04</pdfrwt>
<pdfrwt beam="2">  1       -1 0.11064283E+00 0.18325447E+04</pdfrwt>
<totfact> 0.79994542E+00</totfact>
</mgrwt>
</event>
<event>
12    1  0.2588309E-007  0.1259200E+04  0.7818608E-02  0.9062561E-01
         -1   -1    0    0    0  501 -0.00000000000E+00  0.00000000000E+00  0.26230174758E+03  0.26230174758E+03  0.00000000000E+00 0.  1.
          1   -1    0    0  501    0  0.00000000000E+00 -0.00000000000E+00 -0.15112209818E+04  0.15112209818E+04  0.00000000000E+00 0. -1.
         23    2    1    2    0    0  0.22741406305E+03 -0.79910701921E+02 -0.55591372834E+03  0.61255397722E+03  0.89885623401E+02 0.  0.
        254    2    1    2    0    0 -0.22741406305E+03  0.79910701921E+02 -0.69300550586E+03  0.11609687521E+04  0.89971603072E+03 0.  0.
        -24    2    4    4    0    0  0.30229999117E+03  0.42926255983E+02 -0.49910586478E+03  0.59037579882E+03  0.78797027002E+02 0.  0.
         24    2    4    4    0    0 -0.52971405422E+03  0.36984445938E+02 -0.19389964108E+03  0.57059295331E+03  0.77552685812E+02 0.  0.
         11    1    3    3    0    0  0.15349648639E+03 -0.96606136742E+02 -0.40025961757E+03  0.43943336065E+03  0.00000000000E+00 0.  1.
        -11    1    3    3    0    0  0.73917576657E+02  0.16695434821E+02 -0.15565411077E+03  0.17312061658E+03  0.00000000000E+00 0. -1.
          4    1    6    6  502    0 -0.22302367472E+03  0.30914384978E+02 -0.44980695686E+02  0.22960514294E+03  0.00000000000E+00 0. -1.
          3    1    5    5  503    0  0.28068438607E+02  0.51486625139E+01 -0.13864968095E+02  0.31726697146E+02  0.00000000000E+00 0. -1.
         -4    1    5    5    0  503  0.27423155256E+03  0.37777593469E+02 -0.48524089668E+03  0.55864910167E+03  0.00000000000E+00 0.  1.
         -3    1    6    6    0  502 -0.30669037951E+03  0.60700609595E+01 -0.14891894539E+03  0.34098781037E+03  0.00000000000E+00 0.  1.
<mgrwt>
<rscale>  0 0.12591996E+04</rscale>
<asrwt>0</asrwt>
<pdfrwt beam="1">  1        1 0.23249553E+00 0.12591996E+04</pdfrwt>
<pdfrwt beam="2">  1       -1 0.40354116E-01 0.12591996E+04</pdfrwt>
<totfact> 0.37944036E+01</totfact>
</mgrwt>
</event>
<event>
12    1  0.2588309E-007  0.1332713E+04  0.7818608E-02  0.9004018E-01
          2   -1    0    0  501    0  0.00000000000E+00  0.00000000000E+00  0.15612367293E+04  0.15612367293E+04  0.00000000000E+00 0. -1.
         -2   -1    0    0    0  501 -0.00000000000E+00 -0.00000000000E+00 -0.28440990831E+03  0.28440990831E+03  0.00000000000E+00 0.  1.
         23    2    1    2    0    0  0.28197861119E+03  0.19175527587E+02  0.49268400045E+02  0.29767542079E+03  0.79395483932E+02 0.  0.
        254    2    1    2    0    0 -0.28197861119E+03 -0.19175527587E+02  0.12275584209E+04  0.15479712168E+04  0.89968637493E+03 0.  0.
        -24    2    4    4    0    0  0.28603664540E+03 -0.17900153278E+03  0.40801468946E+03  0.53482399117E+03  0.75512935753E+02 0.  0.
         24    2    4    4    0    0 -0.56801525660E+03  0.15982600519E+03  0.81954373145E+03  0.10131472256E+04  0.81422904380E+02 0.  0.
         13    1    3    3    0    0  0.51796905749E+02 -0.89647853545E+01  0.39177777991E+02  0.65560545376E+02  0.00000000000E+00 0. -1.
        -13    1    3    3    0    0  0.23018170545E+03  0.28140312942E+02  0.10090622054E+02  0.23211487541E+03  0.00000000000E+00 0.  1.
          4    1    6    6  502    0 -0.20365754504E+03  0.97611347317E+02  0.29843381265E+03  0.37425540919E+03  0.00000000000E+00 0. -1.
          3    1    5    5  503    0  0.20833351262E+03 -0.16644804133E+03  0.30391527280E+03  0.40431707357E+03  0.00000000000E+00 0. -1.
         -4    1    5    5    0  503  0.77703132786E+02 -0.12553491456E+02  0.10409941666E+03  0.13050691760E+03  0.00000000000E+00 0.  1.
         -3    1    6    6    0  502 -0.36435771156E+03  0.62214657878E+02  0.52110991879E+03  0.63889181642E+03  0.00000000000E+00 0.  1.
<mgrwt>
<rscale>  0 0.13327133E+04</rscale>
<asrwt>0</asrwt>
<pdfrwt beam="1">  1        2 0.24019026E+00 0.13327133E+04</pdfrwt>
<pdfrwt beam="2">  1       -2 0.43755372E-01 0.13327133E+04</pdfrwt>
<totfact> 0.56774838E+01</totfact>
</mgrwt>
</event>
<event>
12    1  0.2588309E-007  0.3438600E+04  0.7818608E-02  0.8128497E-01
         -2   -1    0    0    0  501 -0.00000000000E+00  0.00000000000E+00  0.14257122737E+04  0.14257122737E+04  0.00000000000E+00 0.  1.
          2   -1    0    0  501    0  0.00000000000E+00 -0.00000000000E+00 -0.20733442167E+04  0.20733442167E+04  0.00000000000E+00 0. -1.
         23    2    1    2    0    0 -0.68505669481E+03  0.67877606647E+03  0.99739799995E+03  0.13905190325E+04  0.93278003026E+02 0.  0.
        254    2    1    2    0    0  0.68505669481E+03 -0.67877606647E+03 -0.16450299430E+04  0.21085374579E+04  0.89987058771E+03 0.  0.
        -24    2    4    4    0    0  0.41374562317E+02 -0.32561645221E+03 -0.37751444825E+02  0.33988507818E+03  0.79741873750E+02 0.  0.
         24    2    4    4    0    0  0.64368213249E+03 -0.35315961426E+03 -0.16072784981E+04  0.17686523797E+04  0.75754002427E+02 0.  0.
         11    1    3    3    0    0 -0.24510151311E+03  0.27181802093E+03  0.32119198069E+03  0.48695387532E+03  0.00000000000E+00 0.  1.
        -11    1    3    3    0    0 -0.43995518169E+03  0.40695804554E+03  0.67620601927E+03  0.90356515715E+03  0.00000000000E+00 0. -1.
          2    1    6    6  502    0  0.57116827205E+03 -0.32710445102E+03 -0.14817514104E+04  0.16213629326E+04  0.00000000000E+00 0. -1.
          1    1    5    5  503    0  0.54836129913E+02 -0.31581350698E+03 -0.40212922103E+02  0.32305146872E+03  0.00000000000E+00 0. -1.
         -2    1    5    5    0  503 -0.13461567596E+02 -0.98029452260E+01  0.24614772783E+01  0.16833609465E+02  0.00000000000E+00 0.  1.
         -1    1    6    6    0  502  0.72513860434E+02 -0.26055163236E+02 -0.12552708772E+03  0.14728944714E+03  0.00000000000E+00 0.  1.
<mgrwt>
<rscale>  0 0.34385999E+04</rscale>
<asrwt>0</asrwt>
<pdfrwt beam="1">  1        2 0.31897603E+00 0.34385999E+04</pdfrwt>
<pdfrwt beam="2">  1       -2 0.21934035E+00 0.34385999E+04</pdfrwt>
<totfact> 0.50116727E-01</totfact>
</mgrwt>
</event>
<event>
12    1  0.2588309E-007  0.1249293E+04  0.7818608E-02  0.9070772E-01
          2   -1    0    0  501    0  0.00000000000E+00  0.00000000000E+00  0.11040312045E+04  0.11040312045E+04  0.00000000000E+00 0. -1.
         -2   -1    0    0    0  501 -0.00000000000E+00 -0.00000000000E+00 -0.35341672726E+03  0.35341672726E+03  0.00000000000E+00 0.  1.
         23    2    1    2    0    0  0.26128774668E+03 -0.10987699475E+03  0.11304525980E+03  0.31905743155E+03  0.93135242107E+02 0.  0.
        254    2    1    2    0    0 -0.26128774668E+03  0.10987699475E+03  0.63756921740E+03  0.11383905002E+04  0.89949662778E+03 0.  0.
        -24    2    4    4    0    0 -0.85393001283E+02 -0.35285331886E+03  0.65885548900E+02  0.37777670404E+03  0.81098108861E+02 0.  0.
         24    2    4    4    0    0 -0.17589474539E+03  0.46273031361E+03  0.57168366850E+03  0.76061379614E+03  0.81564854323E+02 0.  0.
         13    1    3    3    0    0  0.62420079764E+02 -0.60683821443E+02  0.64978267922E+02  0.10863225969E+03  0.00000000000E+00 0. -1.
        -13    1    3    3    0    0  0.19886766691E+03 -0.49193173307E+02  0.48066991879E+02  0.21042517186E+03  0.00000000000E+00 0.  1.
          2    1    6    6  502    0 -0.31730662842E+02  0.16657456249E+03  0.23303935088E+03  0.28820350257E+03  0.00000000000E+00 0. -1.
          1    1    5    5  503    0 -0.87714976775E+02 -0.19705598656E+03  0.47665814520E+02  0.22090045012E+03  0.00000000000E+00 0. -1.
         -2    1    5    5    0  503  0.23219754925E+01 -0.15579733230E+03  0.18219734380E+02  0.15687625391E+03  0.00000000000E+00 0.  1.
         -1    1    6    6    0  502 -0.14416408255E+03  0.29615575112E+03  0.33864431762E+03  0.47241029357E+03  0.00000000000E+00 0.  1.
<mgrwt>
<rscale>  0 0.12492928E+04</rscale>
<asrwt>0</asrwt>
<pdfrwt beam="1">  1        2 0.16985095E+00 0.12492928E+04</pdfrwt>
<pdfrwt beam="2">  1       -2 0.54371805E-01 0.12492928E+04</pdfrwt>
<totfact> 0.67832716E+01</totfact>
</mgrwt>
</event>
<event>
12    1  0.2588309E-007  0.2270345E+04  0.7818608E-02  0.8489706E-01
          2   -1    0    0  501    0  0.00000000000E+00  0.00000000000E+00  0.76631058883E+03  0.76631058883E+03  0.00000000000E+00 0. -1.
         -2   -1    0    0    0  501 -0.00000000000E+00 -0.00000000000E+00 -0.16815849296E+04  0.16815849296E+04  0.00000000000E+00 0.  1.
         23    2    1    2    0    0 -0.80290990031E+03 -0.48356397287E+03 -0.19294433867E+03  0.96135213085E+03  0.92043347405E+02 0.  0.
        254    2    1    2    0    0  0.80290990031E+03  0.48356397287E+03 -0.72233000212E+03  0.14865433876E+04  0.89975118084E+03 0.  0.
        -24    2    4    4    0    0  0.50491093771E+03  0.41372415289E+03 -0.90733664919E+03  0.11201678569E+04  0.73576510241E+02 0.  0.
         24    2    4    4    0    0  0.29799896260E+03  0.69839819974E+02  0.18500664708E+03  0.36637553075E+03  0.79514702471E+02 0.  0.
         11    1    3    3    0    0 -0.72962323178E+03 -0.44654404624E+03 -0.14926310617E+03  0.86834965334E+03  0.00000000000E+00 0. -1.
        -11    1    3    3    0    0 -0.73286668524E+02 -0.37019926625E+02 -0.43681232499E+02  0.93002477512E+02  0.00000000000E+00 0.  1.
          4    1    6    6  502    0  0.43638771799E+02  0.40996620252E+02  0.28275378925E+02  0.66216027740E+02  0.00000000000E+00 0. -1.
          1    1    5    5  503    0  0.24606211965E+03  0.16966177859E+03 -0.36838369380E+03  0.47438194706E+03  0.00000000000E+00 0. -1.
         -2    1    5    5    0  503  0.25884881806E+03  0.24406237431E+03 -0.53895295540E+03  0.64578590980E+03  0.00000000000E+00 0.  1.
         -3    1    6    6    0  502  0.25436019080E+03  0.28843199722E+02  0.15673126815E+03  0.30015950301E+03  0.00000000000E+00 0.  1.
<mgrwt>
<rscale>  0 0.22703448E+04</rscale>
<asrwt>0</asrwt>
<pdfrwt beam="1">  1        2 0.11789394E+00 0.22703448E+04</pdfrwt>
<pdfrwt beam="2">  1       -2 0.25870537E+00 0.22703448E+04</pdfrwt>
<totfact> 0.18826425E+00</totfact>
</mgrwt>
</event>
<event>
12    1  0.2588309E-007  0.1916288E+04  0.7818608E-02  0.8646791E-01
         -2   -1    0    0    0  501 -0.00000000000E+00  0.00000000000E+00  0.95789700217E+03  0.95789700217E+03  0.00000000000E+00 0.  1.
          2   -1    0    0  501    0  0.00000000000E+00 -0.00000000000E+00 -0.95839070027E+03  0.95839070027E+03  0.00000000000E+00 0. -1.
         23    2    1    2    0    0  0.53785797096E+03 -0.49652499293E+03  0.12945171110E+03  0.74901038366E+03  0.91817992750E+02 0.  0.
        254    2    1    2    0    0 -0.53785797096E+03  0.49652499293E+03 -0.12994540920E+03  0.11672773188E+04  0.89990125238E+03 0.  0.
        -24    2    4    4    0    0 -0.14738471626E+03  0.59173229365E+03  0.19465086147E+03  0.64506977202E+03  0.79728859012E+02 0.  0.
         24    2    4    4    0    0 -0.39047325470E+03 -0.95207300725E+02 -0.32459627067E+03  0.52220754676E+03  0.76185236216E+02 0.  0.
         13    1    3    3    0    0  0.26094002128E+03 -0.19858990914E+03  0.23898240397E+02  0.32878377790E+03  0.00000000000E+00 0. -1.
        -13    1    3    3    0    0  0.27691794969E+03 -0.29793508379E+03  0.10555347071E+03  0.42022660576E+03  0.00000000000E+00 0.  1.
          4    1    6    6  502    0 -0.36813035332E+03 -0.10729165735E+03 -0.30012203894E+03  0.48693397400E+03  0.00000000000E+00 0. -1.
          1    1    5    5  503    0 -0.93919349710E+02  0.34627940151E+03  0.73790628774E+02  0.36629950185E+03  0.00000000000E+00 0. -1.
         -2    1    5    5    0  503 -0.53465366555E+02  0.24545289214E+03  0.12086023270E+03  0.27877027017E+03  0.00000000000E+00 0.  1.
         -3    1    6    6    0  502 -0.22342901379E+02  0.12084356627E+02 -0.24474231724E+02  0.35273572765E+02  0.00000000000E+00 0.  1.
<mgrwt>
<rscale>  0 0.19162876E+04</rscale>
<asrwt>0</asrwt>
<pdfrwt beam="1">  1        2 0.14744472E+00 0.19162876E+04</pdfrwt>
<pdfrwt beam="2">  1       -2 0.14736877E+00 0.19162876E+04</pdfrwt>
<totfact> 0.78716815E+00</totfact>
</mgrwt>
</event>
<event>
12    1  0.2588309E-007  0.1678731E+04  0.7818608E-02  0.8773589E-01
         -2   -1    0    0    0  501 -0.00000000000E+00  0.00000000000E+00  0.56571828734E+03  0.56571828734E+03  0.00000000000E+00 0.  1.
          2   -1    0    0  501    0  0.00000000000E+00 -0.00000000000E+00 -0.12453803465E+04  0.12453803465E+04  0.00000000000E+00 0. -1.
         23    2    1    2    0    0  0.17362819186E+03 -0.42568790694E+03 -0.64889920372E+03  0.80060920252E+03  0.92455261930E+02 0.  0.
        254    2    1    2    0    0 -0.17362819186E+03  0.42568790694E+03 -0.30762855427E+02  0.10104894313E+04  0.89932507715E+03 0.  0.
        -24    2    4    4    0    0 -0.37690126139E+03  0.12763575837E+03  0.30855611841E+03  0.50967472739E+03  0.78841625323E+02 0.  0.
         24    2    4    4    0    0  0.20327306953E+03  0.29805214857E+03 -0.33931897384E+03  0.50081470392E+03  0.74316738259E+02 0.  0.
         13    1    3    3    0    0  0.10512977903E+03 -0.14617744973E+03 -0.27679713505E+03  0.33020716410E+03  0.00000000000E+00 0. -1.
        -13    1    3    3    0    0  0.68498412822E+02 -0.27951045721E+03 -0.37210206867E+03  0.47040203843E+03  0.00000000000E+00 0.  1.
          2    1    6    6  502    0  0.11252392655E+03  0.22002279398E+03 -0.20668716395E+03  0.32216649059E+03  0.00000000000E+00 0. -1.
          1    1    5    5  503    0 -0.36676267852E+03  0.12768726992E+03  0.27832956452E+03  0.47779310139E+03  0.00000000000E+00 0. -1.
         -2    1    5    5    0  503 -0.10138582868E+02 -0.51511554364E-01  0.30226553893E+02  0.31881625998E+02  0.00000000000E+00 0.  1.
         -1    1    6    6    0  502  0.90749142984E+02  0.78029354590E+02 -0.13263180988E+03  0.17864821332E+03  0.00000000000E+00 0.  1.
<mgrwt>
<rscale>  0 0.16787310E+04</rscale>
<asrwt>0</asrwt>
<pdfrwt beam="1">  1        2 0.19159697E+00 0.16787310E+04</pdfrwt>
<pdfrwt beam="2">  1       -2 0.87033584E-01 0.16787310E+04</pdfrwt>
<totfact> 0.19368526E+01</totfact>
</mgrwt>
</event>
<event>
12    1  0.2588309E-007  0.3353393E+04  0.7818608E-02  0.8149441E-01
          2   -1    0    0  501    0  0.00000000000E+00  0.00000000000E+00  0.22629903248E+04  0.22629903248E+04  0.00000000000E+00 0. -1.
         -2   -1    0    0    0  501 -0.00000000000E+00 -0.00000000000E+00 -0.12422990909E+04  0.12422990909E+04  0.00000000000E+00 0.  1.
         23    2    1    2    0    0  0.48985179353E+03 -0.14518982317E+04  0.74578468552E+03  0.17062324641E+04  0.84090246728E+02 0.  0.
        254    2    1    2    0    0 -0.48985179353E+03  0.14518982317E+04  0.27490654834E+03  0.17990569516E+04  0.90170341572E+03 0.  0.
        -24    2    4    4    0    0  0.82107533133E+02 -0.14713170840E+02 -0.12745834450E+03  0.17227472335E+03  0.80466305566E+02 0.  0.
         24    2    4    4    0    0 -0.57195932666E+03  0.14666114026E+04  0.40236489283E+03  0.16267822283E+04  0.80227387571E+02 0.  0.
         13    1    3    3    0    0  0.12405936448E+03 -0.40429513704E+03  0.16652257645E+03  0.45450528294E+03  0.00000000000E+00 0.  1.
        -13    1    3    3    0    0  0.36579242905E+03 -0.10476030947E+04  0.57926210907E+03  0.12517271812E+04  0.00000000000E+00 0. -1.
          2    1    6    6  502    0  0.20333019766E+01  0.16687186553E+02  0.51407770835E+01  0.17579081347E+02  0.00000000000E+00 0. -1.
          1    1    5    5  503    0  0.15988553015E+02  0.30833628106E+02 -0.48609921944E+02  0.59743375876E+02  0.00000000000E+00 0. -1.
         -2    1    5    5    0  503  0.66118980117E+02 -0.45546798946E+02 -0.78848422551E+02  0.11253134748E+03  0.00000000000E+00 0.  1.
         -1    1    6    6    0  502 -0.57399262864E+03  0.14499242160E+04  0.39722411575E+03  0.16092031469E+04  0.00000000000E+00 0.  1.
<mgrwt>
<rscale>  0 0.33533928E+04</rscale>
<asrwt>0</asrwt>
<pdfrwt beam="1">  1        2 0.34815236E+00 0.33533928E+04</pdfrwt>
<pdfrwt beam="2">  1       -2 0.19112294E+00 0.33533928E+04</pdfrwt>
<totfact> 0.60273697E-01</totfact>
</mgrwt>
</event>
<event>
12    1  0.2588309E-007  0.1775905E+04  0.7818608E-02  0.8719219E-01
          2   -1    0    0  501    0  0.00000000000E+00  0.00000000000E+00  0.22879252229E+04  0.22879252229E+04  0.00000000000E+00 0. -1.
         -2   -1    0    0    0  501 -0.00000000000E+00 -0.00000000000E+00 -0.34461774204E+03  0.34461774204E+03  0.00000000000E+00 0.  1.
         23    2    1    2    0    0 -0.39766792688E+03  0.28407294442E+03  0.13332790122E+04  0.14233935987E+04  0.97873359773E+02 0.  0.
        254    2    1    2    0    0  0.39766792688E+03 -0.28407294442E+03  0.61002846866E+03  0.12091493663E+04  0.92253468203E+03 0.  0.
        -24    2    4    4    0    0  0.40257414777E+02  0.31563080457E+03  0.10569525405E+03  0.34476373336E+03  0.80293716299E+02 0.  0.
         24    2    4    4    0    0  0.35741051211E+03 -0.59970374899E+03  0.50433321461E+03  0.86438563291E+03  0.73645572188E+02 0.  0.
         11    1    3    3    0    0 -0.37652626244E+03  0.27924565040E+03  0.13110579775E+04  0.13923444904E+04  0.00000000000E+00 0. -1.
        -11    1    3    3    0    0 -0.21141664438E+02  0.48272940168E+01  0.22221034785E+02  0.31049108355E+02  0.00000000000E+00 0.  1.
          4    1    6    6  502    0  0.16251602958E+03 -0.20966970192E+03  0.17205752478E+03  0.31619082151E+03  0.00000000000E+00 0. -1.
          1    1    5    5  503    0 -0.43126045633E+01  0.31705150500E+02 -0.12030795013E+02  0.34184136013E+02  0.00000000000E+00 0. -1.
         -2    1    5    5    0  503  0.44570019340E+02  0.28392565407E+03  0.11772604906E+03  0.31057959735E+03  0.00000000000E+00 0.  1.
         -3    1    6    6    0  502  0.19489448253E+03 -0.39003404707E+03  0.33227568983E+03  0.54819481140E+03  0.00000000000E+00 0.  1.
<mgrwt>
<rscale>  0 0.17759050E+04</rscale>
<asrwt>0</asrwt>
<pdfrwt beam="1">  1        2 0.35198849E+00 0.17759050E+04</pdfrwt>
<pdfrwt beam="2">  1       -2 0.53018115E-01 0.17759050E+04</pdfrwt>
<totfact> 0.14623480E+01</totfact>
</mgrwt>
</event>
<event>
12    1  0.2588309E-007  0.2811943E+04  0.7818608E-02  0.8299570E-01
          1   -1    0    0  501    0  0.00000000000E+00  0.00000000000E+00  0.16350181613E+04  0.16350181613E+04  0.00000000000E+00 0. -1.
         -1   -1    0    0    0  501 -0.00000000000E+00 -0.00000000000E+00 -0.12090116674E+04  0.12090116674E+04  0.00000000000E+00 0.  1.
         23    2    1    2    0    0  0.11068185697E+04 -0.38865440641E+03  0.65641073988E+03  0.13473083326E+04  0.90912538169E+02 0.  0.
        254    2    1    2    0    0 -0.11068185697E+04  0.38865440641E+03 -0.23040424601E+03  0.14967214961E+04  0.90054956913E+03 0.  0.
        -24    2    4    4    0    0 -0.11670398769E+04  0.38104940124E+03 -0.40431106802E+03  0.12949882497E+04  0.79664337272E+02 0.  0.
         24    2    4    4    0    0  0.60221307192E+02  0.76050051635E+01  0.17390682201E+03  0.20173324642E+03  0.82269544952E+02 0.  0.
         13    1    3    3    0    0  0.54207244380E+03 -0.20187461053E+03  0.37418094280E+03  0.68891746288E+03  0.00000000000E+00 0. -1.
        -13    1    3    3    0    0  0.56474612594E+03 -0.18677979588E+03  0.28222979708E+03  0.65839086968E+03  0.00000000000E+00 0.  1.
          4    1    6    6  502    0  0.39409025927E+02 -0.36343665278E+02  0.91810035924E+02  0.10631564338E+03  0.00000000000E+00 0. -1.
          1    1    5    5  503    0 -0.35254259852E+03  0.10896509421E+03 -0.83877713062E+02  0.37841134534E+03  0.00000000000E+00 0. -1.
         -2    1    5    5    0  503 -0.81449727841E+03  0.27208430703E+03 -0.32043335496E+03  0.91657690438E+03  0.00000000000E+00 0.  1.
         -3    1    6    6    0  502  0.20812281266E+02  0.43948670441E+02  0.82096786083E+02  0.95417603041E+02  0.00000000000E+00 0.  1.
<mgrwt>
<rscale>  0 0.28119431E+04</rscale>
<asrwt>0</asrwt>
<pdfrwt beam="1">  1        1 0.25154126E+00 0.28119431E+04</pdfrwt>
<pdfrwt beam="2">  1       -1 0.18600179E+00 0.28119431E+04</pdfrwt>
<totfact> 0.86102349E-01</totfact>
</mgrwt>
</event>
<event>
12    1  0.2588309E-007  0.2003402E+04  0.7818608E-02  0.8605032E-01
          2   -1    0    0  501    0  0.00000000000E+00  0.00000000000E+00  0.11153521348E+04  0.11153521348E+04  0.00000000000E+00 0. -1.
         -2   -1    0    0    0  501 -0.00000000000E+00 -0.00000000000E+00 -0.89963081244E+03  0.89963081244E+03  0.00000000000E+00 0.  1.
         23    2    1    2    0    0 -0.56676385341E+03  0.31846646340E+03 -0.38078232851E+03  0.75705475041E+03  0.74125296444E+02 0.  0.
        254    2    1    2    0    0  0.56676385341E+03 -0.31846646340E+03  0.59650365091E+03  0.12579281969E+04  0.89661841889E+03 0.  0.
        -24    2    4    4    0    0  0.42343699601E+02 -0.40149654753E+03 -0.54512379152E+02  0.41417641642E+03  0.74686262920E+02 0.  0.
         24    2    4    4    0    0  0.52442015381E+03  0.83030084129E+02  0.65101603006E+03  0.84375178045E+03  0.78642882812E+02 0.  0.
         13    1    3    3    0    0 -0.16855656353E+02  0.22027767687E+02 -0.54885827111E+01  0.28274727948E+02  0.00000000000E+00 0. -1.
        -13    1    3    3    0    0 -0.54990819706E+03  0.29643869571E+03 -0.37529374580E+03  0.72878002247E+03  0.00000000000E+00 0.  1.
          4    1    6    6  502    0  0.17517469905E+03  0.87293375729E+01  0.26631387211E+03  0.31888156893E+03  0.00000000000E+00 0. -1.
          1    1    5    5  503    0 -0.12005417811E+02 -0.11791731512E+02 -0.52528639214E+01  0.17628600859E+02  0.00000000000E+00 0. -1.
         -2    1    5    5    0  503  0.54349117412E+02 -0.38970481601E+03 -0.49259515231E+02  0.39654781556E+03  0.00000000000E+00 0.  1.
         -3    1    6    6    0  502  0.34924545477E+03  0.74300746556E+02  0.38470215795E+03  0.52487021152E+03  0.00000000000E+00 0.  1.
<mgrwt>
<rscale>  0 0.20034023E+04</rscale>
<asrwt>0</asrwt>
<pdfrwt beam="1">  1        2 0.17159264E+00 0.20034023E+04</pdfrwt>
<pdfrwt beam="2">  1       -2 0.13840474E+00 0.20034023E+04</pdfrwt>
<totfact> 0.73262539E+00</totfact>
</mgrwt>
</event>
<event>
12    1  0.2588309E-007  0.3202405E+04  0.7818608E-02  0.8188182E-01
         -2   -1    0    0    0  501 -0.00000000000E+00  0.00000000000E+00  0.12371397446E+04  0.12371397446E+04  0.00000000000E+00 0.  1.
          2   -1    0    0  501    0  0.00000000000E+00 -0.00000000000E+00 -0.20724008130E+04  0.20724008130E+04  0.00000000000E+00 0. -1.
         23    2    1    2    0    0  0.12681627716E+04  0.73852569237E+03 -0.26045275865E+03  0.14932463181E+04  0.91059944477E+02 0.  0.
        254    2    1    2    0    0 -0.12681627716E+04 -0.73852569237E+03 -0.57480830979E+03  0.18162942395E+04  0.90269771112E+03 0.  0.
        -24    2    4    4    0    0 -0.98807911550E+03 -0.80200659013E+02 -0.42011585181E+03  0.10796793934E+04  0.80484652942E+02 0.  0.
         24    2    4    4    0    0 -0.28008365613E+03 -0.65832503336E+03 -0.15469245798E+03  0.73661484608E+03  0.82661786419E+02 0.  0.
         11    1    3    3    0    0  0.71765884674E+03  0.46944585431E+03 -0.14599626399E+03  0.86990145393E+03  0.00000000000E+00 0.  1.
        -11    1    3    3    0    0  0.55050392489E+03  0.26907983806E+03 -0.11445649466E+03  0.62334486421E+03  0.00000000000E+00 0. -1.
          4    1    6    6  502    0 -0.71556062504E+02 -0.20379882302E+03 -0.83138346759E+02  0.23144376217E+03  0.00000000000E+00 0. -1.
          3    1    5    5  503    0 -0.95697190296E+02 -0.22242393629E+01 -0.16368377009E+02  0.97112425761E+02  0.00000000000E+00 0. -1.
         -4    1    5    5    0  503 -0.89238192520E+03 -0.77976419650E+02 -0.40374747480E+03  0.98256696762E+03  0.00000000000E+00 0.  1.
         -3    1    6    6    0  502 -0.20852759363E+03 -0.45452621033E+03 -0.71554111222E+02  0.50517108391E+03  0.00000000000E+00 0.  1.
<mgrwt>
<rscale>  0 0.32024050E+04</rscale>
<asrwt>0</asrwt>
<pdfrwt beam="1">  1        2 0.31883089E+00 0.32024050E+04</pdfrwt>
<pdfrwt beam="2">  1       -2 0.19032919E+00 0.32024050E+04</pdfrwt>
<totfact> 0.79049839E-01</totfact>
</mgrwt>
</event>
<event>
12    1  0.2588309E-007  0.2484313E+04  0.7818608E-02  0.8408595E-01
         -2   -1    0    0    0  501 -0.00000000000E+00  0.00000000000E+00  0.84551738694E+03  0.84551738694E+03  0.00000000000E+00 0.  1.
          2   -1    0    0  501    0  0.00000000000E+00 -0.00000000000E+00 -0.18248628317E+04  0.18248628317E+04  0.00000000000E+00 0. -1.
         23    2    1    2    0    0  0.47886507447E+03  0.60445614706E+03  0.38215195480E+03  0.86531690301E+03  0.89745377654E+02 0.  0.
        254    2    1    2    0    0 -0.47886507447E+03 -0.60445614706E+03 -0.13614973996E+04  0.18050633157E+04  0.89994411560E+03 0.  0.
        -24    2    4    4    0    0 -0.24761172512E+03  0.18679971448E+01  0.36905178986E+02  0.26132554776E+03  0.74926589721E+02 0.  0.
         24    2    4    4    0    0 -0.23125334936E+03 -0.60632414420E+03 -0.13984025786E+04  0.15437377679E+04  0.80557090611E+02 0.  0.
         11    1    3    3    0    0  0.39709852664E+03  0.49672350183E+03  0.35157881748E+03  0.72665613741E+03  0.00000000000E+00 0.  1.
        -11    1    3    3    0    0  0.81766547834E+02  0.10773264522E+03  0.30573137324E+02  0.13866076560E+03  0.00000000000E+00 0. -1.
          2    1    6    6  502    0 -0.85843415796E+02 -0.18728378535E+03 -0.52957888056E+03  0.56824123313E+03  0.00000000000E+00 0. -1.
          1    1    5    5  503    0 -0.26555092262E+02 -0.24345343964E+02  0.73295818077E+01  0.36763996889E+02  0.00000000000E+00 0. -1.
         -2    1    5    5    0  503 -0.22105663286E+03  0.26213341108E+02  0.29575597178E+02  0.22456155087E+03  0.00000000000E+00 0.  1.
         -1    1    6    6    0  502 -0.14540993356E+03 -0.41904035885E+03 -0.86882369804E+03  0.97549653479E+03  0.00000000000E+00 0.  1.
<mgrwt>
<rscale>  0 0.24843134E+04</rscale>
<asrwt>0</asrwt>
<pdfrwt beam="1">  1        2 0.28074813E+00 0.24843134E+04</pdfrwt>
<pdfrwt beam="2">  1       -2 0.13007960E+00 0.24843134E+04</pdfrwt>
<totfact> 0.32372303E+00</totfact>
</mgrwt>
</event>
<event>
12    1  0.2588309E-007  0.1531702E+04  0.7818608E-02  0.8863641E-01
         -2   -1    0    0    0  501 -0.00000000000E+00  0.00000000000E+00  0.37290341980E+03  0.37290341980E+03  0.00000000000E+00 0.  1.
          2   -1    0    0  501    0  0.00000000000E+00 -0.00000000000E+00 -0.15728686832E+04  0.15728686832E+04  0.00000000000E+00 0. -1.
         23    2    1    2    0    0 -0.27689203554E+03  0.40852568540E+03 -0.45146740760E+03  0.67516654379E+03  0.92003297454E+02 0.  0.
        254    2    1    2    0    0  0.27689203554E+03 -0.40852568540E+03 -0.74849785577E+03  0.12706055592E+04  0.90034827260E+03 0.  0.
        -24    2    4    4    0    0  0.28903166701E+03  0.12471148425E+03 -0.64474312611E+03  0.72178902969E+03  0.78698448940E+02 0.  0.
         24    2    4    4    0    0 -0.12139631473E+02 -0.53323716965E+03 -0.10375472966E+03  0.54881652950E+03  0.77105702624E+02 0.  0.
         13    1    3    3    0    0 -0.78653235145E+02  0.15127860679E+03 -0.20980630510E+03  0.27035205554E+03  0.00000000000E+00 0.  1.
        -13    1    3    3    0    0 -0.19823880040E+03  0.25724707861E+03 -0.24166110250E+03  0.40481448825E+03  0.00000000000E+00 0. -1.
          4    1    6    6  502    0  0.14075970224E+02 -0.61532528622E+02  0.71948289041E+01  0.63530705799E+02  0.00000000000E+00 0. -1.
          1    1    5    5  503    0  0.11046598534E+03  0.85210233781E+02 -0.23909547156E+03  0.27682153525E+03  0.00000000000E+00 0. -1.
         -2    1    5    5    0  503  0.17856568168E+03  0.39501250471E+02 -0.40564765456E+03  0.44496749444E+03  0.00000000000E+00 0.  1.
         -3    1    6    6    0  502 -0.26215601697E+02 -0.47170464103E+03 -0.11094955857E+03  0.48528582371E+03  0.00000000000E+00 0.  1.
<mgrwt>
<rscale>  0 0.15317025E+04</rscale>
<asrwt>0</asrwt>
<pdfrwt beam="1">  1        2 0.24197980E+00 0.15317025E+04</pdfrwt>
<pdfrwt beam="2">  1       -2 0.57369757E-01 0.15317025E+04</pdfrwt>
<totfact> 0.31684294E+01</totfact>
</mgrwt>
</event>
<event>
12    1  0.2588309E-007  0.2850914E+04  0.7818608E-02  0.8287634E-01
         -2   -1    0    0    0  501 -0.00000000000E+00  0.00000000000E+00  0.13634727298E+04  0.13634727298E+04  0.00000000000E+00 0.  1.
          2   -1    0    0  501    0  0.00000000000E+00 -0.00000000000E+00 -0.14902592592E+04  0.14902592592E+04  0.00000000000E+00 0. -1.
         23    2    1    2    0    0  0.44800199669E+03 -0.85006796027E+03  0.79340646709E+03  0.12493678642E+04  0.90027284262E+02 0.  0.
        254    2    1    2    0    0 -0.44800199669E+03  0.85006796027E+03 -0.92019299651E+03  0.16043641248E+04  0.89660903864E+03 0.  0.
        -24    2    4    4    0    0 -0.35478327144E+03  0.35754067044E+03 -0.96836830582E+03  0.10945260145E+04  0.80892027045E+02 0.  0.
         24    2    4    4    0    0 -0.93218725247E+02  0.49252728983E+03  0.48175309310E+02  0.50983811033E+03  0.79631503519E+02 0.  0.
         11    1    3    3    0    0 -0.43191803448E+01 -0.71424025335E+01  0.50006571068E+01  0.97301492436E+01  0.00000000000E+00 0. -1.
        -11    1    3    3    0    0  0.45232117703E+03 -0.84292555774E+03  0.78840580998E+03  0.12396377149E+04  0.00000000000E+00 0.  1.
          4    1    6    6  502    0 -0.18424130282E+02  0.94617125019E+02  0.41384619224E+02  0.10490250536E+03  0.00000000000E+00 0. -1.
          3    1    5    5  503    0 -0.14944306622E+03  0.18540662541E+03 -0.38728246112E+03  0.45463892429E+03  0.00000000000E+00 0. -1.
         -4    1    5    5    0  503 -0.20534020522E+03  0.17213404503E+03 -0.58108584470E+03  0.63988709023E+03  0.00000000000E+00 0.  1.
         -3    1    6    6    0  502 -0.74794594965E+02  0.39791016481E+03  0.67906900864E+01  0.40493560496E+03  0.00000000000E+00 0.  1.
<mgrwt>
<rscale>  0 0.28509141E+04</rscale>
<asrwt>0</asrwt>
<pdfrwt beam="1">  1        2 0.22927066E+00 0.28509141E+04</pdfrwt>
<pdfrwt beam="2">  1       -2 0.20976503E+00 0.28509141E+04</pdfrwt>
<totfact> 0.12802097E+00</totfact>
</mgrwt>
</event>
<event>
12    1  0.2588309E-007  0.4291953E+04  0.7818608E-02  0.7948108E-01
         -2   -1    0    0    0  501 -0.00000000000E+00  0.00000000000E+00  0.12879088935E+04  0.12879088935E+04  0.00000000000E+00 0.  1.
          2   -1    0    0  501    0  0.00000000000E+00 -0.00000000000E+00 -0.35757305106E+04  0.35757305106E+04  0.00000000000E+00 0. -1.
         23    2    1    2    0    0 -0.15836289359E+04  0.73994222411E+03  0.12056952295E+03  0.17545772849E+04  0.92786512715E+02 0.  0.
        254    2    1    2    0    0  0.15836289359E+04 -0.73994222411E+03 -0.24083911401E+04  0.31090621192E+04  0.90029121733E+03 0.  0.
        -24    2    4    4    0    0  0.31085026290E+03  0.19822568711E+03 -0.37450826340E+03  0.53161801078E+03  0.80249367904E+02 0.  0.
         24    2    4    4    0    0  0.12727786730E+04 -0.93816791122E+03 -0.20338828767E+04  0.25774441085E+04  0.80087427895E+02 0.  0.
         13    1    3    3    0    0 -0.13175129511E+04  0.58258480897E+03  0.80306954300E+02  0.14428079023E+04  0.00000000000E+00 0. -1.
        -13    1    3    3    0    0 -0.26611598482E+03  0.15735741514E+03  0.40262568653E+02  0.31176938257E+03  0.00000000000E+00 0.  1.
          4    1    6    6  502    0  0.12649343154E+04 -0.93238941696E+03 -0.20294905457E+04  0.25667568491E+04  0.00000000000E+00 0. -1.
          1    1    5    5  503    0  0.21368166263E+03  0.17425653024E+03 -0.25312242019E+03  0.37429420363E+03  0.00000000000E+00 0. -1.
         -2    1    5    5    0  503  0.97168600276E+02  0.23969156873E+02 -0.12138584321E+03  0.15732380714E+03  0.00000000000E+00 0.  1.
         -3    1    6    6    0  502  0.78443575824E+01 -0.57784942587E+01 -0.43923309785E+01  0.10687259387E+02  0.00000000000E+00 0.  1.
<mgrwt>
<rscale>  0 0.42919530E+04</rscale>
<asrwt>0</asrwt>
<pdfrwt beam="1">  1        2 0.55011238E+00 0.42919530E+04</pdfrwt>
<pdfrwt beam="2">  1       -2 0.19813983E+00 0.42919530E+04</pdfrwt>
<totfact> 0.75589750E-02</totfact>
</mgrwt>
</event>
<event>
12    1  0.2588309E-007  0.1255560E+04  0.7818608E-02  0.9065569E-01
          2   -1    0    0  501    0  0.00000000000E+00  0.00000000000E+00  0.13410071141E+04  0.13410071141E+04  0.00000000000E+00 0. -1.
         -2   -1    0    0    0  501 -0.00000000000E+00 -0.00000000000E+00 -0.29388925973E+03  0.29388925973E+03  0.00000000000E+00 0.  1.
         23    2    1    2    0    0  0.27524031888E+03  0.74894294768E+02  0.15262870168E+03  0.33540636850E+03  0.88518489187E+02 0.  0.
        254    2    1    2    0    0 -0.27524031888E+03 -0.74894294768E+02  0.89448915271E+03  0.12994900053E+04  0.89844145115E+03 0.  0.
        -24    2    4    4    0    0  0.26703560425E+02  0.22744334933E+03 -0.59893885425E+02  0.25073438258E+03  0.82685523546E+02 0.  0.
         24    2    4    4    0    0 -0.30194387931E+03 -0.30233764410E+03  0.95438303814E+03  0.10487556228E+04  0.80394126082E+02 0.  0.
         11    1    3    3    0    0  0.24460049208E+02  0.26598786455E+02  0.46387440261E+02  0.58801225005E+02  0.00000000000E+00 0. -1.
        -11    1    3    3    0    0  0.25078026967E+03  0.48295508312E+02  0.10624126142E+03  0.27660514350E+03  0.00000000000E+00 0.  1.
          4    1    6    6  502    0 -0.22623835227E+03 -0.18164594813E+03  0.58909209857E+03  0.65666471133E+03  0.00000000000E+00 0. -1.
          3    1    5    5  503    0 -0.67527772293E+01  0.12954735906E+02  0.15150683228E+02  0.21046814129E+02  0.00000000000E+00 0. -1.
         -4    1    5    5    0  503  0.33456337655E+02  0.21448861342E+03 -0.75044568653E+02  0.22968756845E+03  0.00000000000E+00 0.  1.
         -3    1    6    6    0  502 -0.75705527037E+02 -0.12069169596E+03  0.36529093957E+03  0.39209091144E+03  0.00000000000E+00 0.  1.
<mgrwt>
<rscale>  0 0.12555598E+04</rscale>
<asrwt>0</asrwt>
<pdfrwt beam="1">  1        2 0.20630878E+00 0.12555598E+04</pdfrwt>
<pdfrwt beam="2">  1       -2 0.45213733E-01 0.12555598E+04</pdfrwt>
<totfact> 0.71336414E+01</totfact>
</mgrwt>
</event>
<event>
12    1  0.2588309E-007  0.3156101E+04  0.7818608E-02  0.8200508E-01
          2   -1    0    0  501    0  0.00000000000E+00  0.00000000000E+00  0.19969601220E+04  0.19969601220E+04  0.00000000000E+00 0. -1.
         -2   -1    0    0    0  501 -0.00000000000E+00 -0.00000000000E+00 -0.12470167780E+04  0.12470167780E+04  0.00000000000E+00 0.  1.
         23    2    1    2    0    0 -0.12339254715E+04  0.59632950589E+03 -0.13636371988E+03  0.13804316899E+04  0.93891626302E+02 0.  0.
        254    2    1    2    0    0  0.12339254715E+04 -0.59632950589E+03  0.88630706390E+03  0.18635452102E+04  0.89948851578E+03 0.  0.
        -24    2    4    4    0    0  0.32745896124E+03  0.23141172222E+03  0.20551412581E+03  0.45755894591E+03  0.79645317491E+02 0.  0.
         24    2    4    4    0    0  0.90646651027E+03 -0.82774122811E+03  0.68079293809E+03  0.14059862643E+04  0.80506371184E+02 0.  0.
         11    1    3    3    0    0 -0.81967708822E+03  0.43271727808E+03 -0.12130896430E+03  0.93478908665E+03  0.00000000000E+00 0. -1.
        -11    1    3    3    0    0 -0.41424838329E+03  0.16361222781E+03 -0.15054755580E+02  0.44564260323E+03  0.00000000000E+00 0.  1.
          2    1    6    6  502    0  0.50204207796E+03 -0.50800889863E+03  0.37771993340E+03  0.80795521981E+03  0.00000000000E+00 0. -1.
          1    1    5    5  503    0  0.29984631824E+03  0.23313981485E+03  0.18164517319E+03  0.42101895061E+03  0.00000000000E+00 0. -1.
         -2    1    5    5    0  503  0.27612642996E+02 -0.17280926246E+01  0.23868952619E+02  0.36539995299E+02  0.00000000000E+00 0.  1.
         -1    1    6    6    0  502  0.40442443231E+03 -0.31973232948E+03  0.30307300469E+03  0.59803104445E+03  0.00000000000E+00 0.  1.
<mgrwt>
<rscale>  0 0.31561006E+04</rscale>
<asrwt>0</asrwt>
<pdfrwt beam="1">  1        2 0.30722463E+00 0.31561006E+04</pdfrwt>
<pdfrwt beam="2">  1       -2 0.19184873E+00 0.31561006E+04</pdfrwt>
<totfact> 0.85396994E-01</totfact>
</mgrwt>
</event>
<event>
12    1  0.2588309E-007  0.1942642E+04  0.7818608E-02  0.8633917E-01
          1   -1    0    0  501    0  0.00000000000E+00  0.00000000000E+00  0.20616961598E+04  0.20616961598E+04  0.00000000000E+00 0. -1.
         -1   -1    0    0    0  501 -0.00000000000E+00 -0.00000000000E+00 -0.45761580846E+03  0.45761580846E+03  0.00000000000E+00 0.  1.
         23    2    1    2    0    0 -0.22807737139E+03 -0.56309594569E+03  0.12221937933E+04  0.13678974361E+04  0.91046119413E+02 0.  0.
        254    2    1    2    0    0  0.22807737139E+03  0.56309594569E+03  0.38188655803E+03  0.11514145322E+04  0.90045641221E+03 0.  0.
        -24    2    4    4    0    0 -0.14921513326E+03  0.59437688672E+03  0.15761889246E+02  0.61865347464E+03  0.83274516385E+02 0.  0.
         24    2    4    4    0    0  0.37729250465E+03 -0.31280941025E+02  0.36612466878E+03  0.53276105753E+03  0.80367530694E+02 0.  0.
         11    1    3    3    0    0 -0.18006460203E+03 -0.32645536045E+03  0.74867885466E+03  0.83637096476E+03  0.00000000000E+00 0.  1.
        -11    1    3    3    0    0 -0.48012769365E+02 -0.23664058524E+03  0.47351493866E+03  0.53152647135E+03  0.00000000000E+00 0. -1.
          2    1    6    6  502    0  0.36267331112E+03 -0.46555180263E+02  0.35011223604E+03  0.50623896851E+03  0.00000000000E+00 0. -1.
          3    1    5    5  503    0 -0.10601912271E+03  0.51284928543E+03 -0.65336787219E+01  0.52373383784E+03  0.00000000000E+00 0. -1.
         -4    1    5    5    0  503 -0.43196010550E+02  0.81527601288E+02  0.22295567968E+02  0.94919636800E+02  0.00000000000E+00 0.  1.
         -1    1    6    6    0  502  0.14619193526E+02  0.15274239238E+02  0.16012432748E+02  0.26522089023E+02  0.00000000000E+00 0.  1.
<mgrwt>
<rscale>  0 0.19426423E+04</rscale>
<asrwt>0</asrwt>
<pdfrwt beam="1">  1        1 0.31718402E+00 0.19426423E+04</pdfrwt>
<pdfrwt beam="2">  1       -1 0.70402433E-01 0.19426423E+04</pdfrwt>
<totfact> 0.51435274E+00</totfact>
</mgrwt>
</event>
<event>
12    1  0.2588309E-007  0.2871002E+04  0.7818608E-02  0.8281558E-01
         -1   -1    0    0    0  501 -0.00000000000E+00  0.00000000000E+00  0.90889061304E+03  0.90889061304E+03  0.00000000000E+00 0.  1.
          1   -1    0    0  501    0  0.00000000000E+00 -0.00000000000E+00 -0.22672295055E+04  0.22672295055E+04  0.00000000000E+00 0. -1.
         23    2    1    2    0    0  0.41786791058E+03  0.98686666812E+03  0.18629892942E+03  0.10916292741E+04  0.91802884254E+02 0.  0.
        254    2    1    2    0    0 -0.41786791058E+03 -0.98686666812E+03 -0.15446378219E+04  0.20844908445E+04  0.90037584851E+03 0.  0.
        -24    2    4    4    0    0 -0.14077146912E+03 -0.10834905038E+04 -0.12023906712E+04  0.16265809565E+04  0.79082257004E+02 0.  0.
         24    2    4    4    0    0 -0.27709644147E+03  0.96623835727E+02 -0.34224715066E+03  0.45790988798E+03  0.80185721094E+02 0.  0.
         13    1    3    3    0    0  0.23418925658E+03  0.51295680007E+03  0.54221867333E+02  0.56648856787E+03  0.00000000000E+00 0. -1.
        -13    1    3    3    0    0  0.18367865401E+03  0.47390986805E+03  0.13207706209E+03  0.52514070620E+03  0.00000000000E+00 0.  1.
          2    1    6    6  502    0 -0.68087412110E+02  0.24678909345E+02 -0.37838156890E+02  0.81710895058E+02  0.00000000000E+00 0. -1.
          1    1    5    5  503    0 -0.11242899792E+03 -0.69610917549E+03 -0.82064536692E+03  0.10819736975E+04  0.00000000000E+00 0. -1.
         -2    1    5    5    0  503 -0.28342471192E+02 -0.38738132836E+03 -0.38174530433E+03  0.54460725905E+03  0.00000000000E+00 0.  1.
         -1    1    6    6    0  502 -0.20900902936E+03  0.71944926382E+02 -0.30440899377E+03  0.37619899292E+03  0.00000000000E+00 0.  1.
<mgrwt>
<rscale>  0 0.28710023E+04</rscale>
<asrwt>0</asrwt>
<pdfrwt beam="1">  1        1 0.34880453E+00 0.28710023E+04</pdfrwt>
<pdfrwt beam="2">  1       -1 0.13982933E+00 0.28710023E+04</pdfrwt>
<totfact> 0.70897487E-01</totfact>
</mgrwt>
</event>
<event>
12    1  0.2588309E-007  0.1414562E+04  0.7818608E-02  0.8943345E-01
          1   -1    0    0  501    0  0.00000000000E+00  0.00000000000E+00  0.73112652277E+03  0.73112652277E+03  0.00000000000E+00 0. -1.
         -1   -1    0    0    0  501 -0.00000000000E+00 -0.00000000000E+00 -0.68421282415E+03  0.68421282415E+03  0.00000000000E+00 0.  1.
         23    2    1    2    0    0 -0.10188455525E+03  0.47517547725E+02  0.41141634077E+03  0.43616619879E+03  0.91319042746E+02 0.  0.
        254    2    1    2    0    0  0.10188455525E+03 -0.47517547725E+02 -0.36450264215E+03  0.97917314812E+03  0.90182010286E+03 0.  0.
        -24    2    4    4    0    0 -0.26800961299E+03  0.13008775688E+03 -0.45698677286E+03  0.55125584186E+03  0.79335461638E+02 0.  0.
         24    2    4    4    0    0  0.36989416824E+03 -0.17760530461E+03  0.92484130701E+02  0.42791730627E+03  0.78705569336E+02 0.  0.
         11    1    3    3    0    0 -0.11194911420E+02 -0.25021401681E+02  0.10381032092E+03  0.10736842791E+03  0.00000000000E+00 0. -1.
        -11    1    3    3    0    0 -0.90689643834E+02  0.72538949406E+02  0.30760601986E+03  0.32879777088E+03  0.00000000000E+00 0.  1.
          2    1    6    6  502    0  0.10623923902E+03 -0.50505244870E+02 -0.93801739362E+01  0.11800653935E+03  0.00000000000E+00 0. -1.
          1    1    5    5  503    0 -0.72852596072E+02  0.90701631123E+01 -0.71029199245E+02  0.10215143542E+03  0.00000000000E+00 0. -1.
         -2    1    5    5    0  503 -0.19515701692E+03  0.12101759377E+03 -0.38595757361E+03  0.44910440644E+03  0.00000000000E+00 0.  1.
         -1    1    6    6    0  502  0.26365492922E+03 -0.12710005974E+03  0.10186430464E+03  0.30991076691E+03  0.00000000000E+00 0.  1.
<mgrwt>
<rscale>  0 0.14145616E+04</rscale>
<asrwt>0</asrwt>
<pdfrwt beam="1">  1        1 0.11248100E+00 0.14145616E+04</pdfrwt>
<pdfrwt beam="2">  1       -1 0.10526351E+00 0.14145616E+04</pdfrwt>
<totfact> 0.21016008E+01</totfact>
</mgrwt>
</event>
<event>
12    1  0.2602974E-007  0.3648853E+04  0.7818608E-02  0.8079392E-01
          1   -1    0    0  501    0  0.00000000000E+00  0.00000000000E+00  0.14881695383E+04  0.14881695383E+04  0.00000000000E+00 0. -1.
         -1   -1    0    0    0  501 -0.00000000000E+00 -0.00000000000E+00 -0.22366621137E+04  0.22366621137E+04  0.00000000000E+00 0.  1.
         23    2    1    2    0    0 -0.13464694828E+04  0.90427840126E+03 -0.91060192193E+03  0.18624517987E+04  0.93975247329E+02 0.  0.
        254    2    1    2    0    0  0.13464694828E+04 -0.90427840126E+03  0.16210934649E+03  0.18623798533E+04  0.90082172620E+03 0.  0.
        -24    2    4    4    0    0  0.13121961118E+04 -0.50952735024E+03 -0.41134240290E+02  0.14105207742E+04  0.80000450234E+02 0.  0.
         24    2    4    4    0    0  0.34273370990E+02 -0.39475105102E+03  0.20324358678E+03  0.45185907909E+03  0.76587306700E+02 0.  0.
         11    1    3    3    0    0 -0.43499392384E+03  0.34579292727E+03 -0.31336796758E+03  0.63795920358E+03  0.00000000000E+00 0. -1.
        -11    1    3    3    0    0 -0.91147555900E+03  0.55848547399E+03 -0.59723395435E+03  0.12244925951E+04  0.00000000000E+00 0.  1.
          4    1    6    6  502    0  0.10910323363E+02 -0.34329687121E+03  0.15209607553E+03  0.37563944565E+03  0.00000000000E+00 0. -1.
          3    1    5    5  503    0  0.80910899757E+03 -0.28093528767E+03 -0.12128487402E+01  0.85649487845E+03  0.00000000000E+00 0. -1.
         -4    1    5    5    0  503  0.50308711428E+03 -0.22859206256E+03 -0.39921391550E+02  0.55402589571E+03  0.00000000000E+00 0.  1.
         -3    1    6    6    0  502  0.23363047626E+02 -0.51454179817E+02  0.51147511251E+02  0.76219633443E+02  0.00000000000E+00 0.  1.
<mgrwt>
<rscale>  0 0.36488532E+04</rscale>
<asrwt>0</asrwt>
<pdfrwt beam="1">  1        1 0.22894916E+00 0.36488532E+04</pdfrwt>
<pdfrwt beam="2">  1       -1 0.34410186E+00 0.36488532E+04</pdfrwt>
<totfact> 0.91280286E-02</totfact>
</mgrwt>
</event>
<event>
12    1  0.2588309E-007  0.2199421E+04  0.7818608E-02  0.8518669E-01
         -2   -1    0    0    0  501 -0.00000000000E+00  0.00000000000E+00  0.15147527295E+04  0.15147527295E+04  0.00000000000E+00 0.  1.
          2   -1    0    0  501    0  0.00000000000E+00 -0.00000000000E+00 -0.79838985399E+03  0.79838985399E+03  0.00000000000E+00 0. -1.
         23    2    1    2    0    0  0.43493651078E+03 -0.80165310687E+03  0.32544345804E+03  0.97217411533E+03  0.85974379777E+02 0.  0.
        254    2    1    2    0    0 -0.43493651078E+03  0.80165310687E+03  0.39091941751E+03  0.13409684682E+04  0.90197614689E+03 0.  0.
        -24    2    4    4    0    0 -0.48260536443E+03  0.75875316398E+03  0.61666900000E+03  0.10933762379E+04  0.81096487960E+02 0.  0.
         24    2    4    4    0    0  0.47668853645E+02  0.42899942884E+02 -0.22574958250E+03  0.24759223032E+03  0.78906994677E+02 0.  0.
         13    1    3    3    0    0  0.39720575984E+03 -0.66791029678E+03  0.27866878708E+03  0.82555004275E+03  0.00000000000E+00 0. -1.
        -13    1    3    3    0    0  0.37730750944E+02 -0.13374281008E+03  0.46774670965E+02  0.14662407258E+03  0.00000000000E+00 0.  1.
          2    1    6    6  502    0 -0.12155473483E+02  0.25186916212E+02 -0.25495626816E+02  0.37843933075E+02  0.00000000000E+00 0. -1.
          1    1    5    5  503    0 -0.84279736827E+02  0.18532603145E+03  0.11715849834E+03  0.23489343479E+03  0.00000000000E+00 0. -1.
         -2    1    5    5    0  503 -0.39832562760E+03  0.57342713253E+03  0.49951050167E+03  0.85848280309E+03  0.00000000000E+00 0.  1.
         -1    1    6    6    0  502  0.59824327129E+02  0.17713026672E+02 -0.20025395568E+03  0.20974829724E+03  0.00000000000E+00 0.  1.
<mgrwt>
<rscale>  0 0.21994210E+04</rscale>
<asrwt>0</asrwt>
<pdfrwt beam="1">  1        2 0.12282921E+00 0.21994210E+04</pdfrwt>
<pdfrwt beam="2">  1       -2 0.23303888E+00 0.21994210E+04</pdfrwt>
<totfact> 0.25829240E+00</totfact>
</mgrwt>
</event>
<event>
12    1  0.2588309E-007  0.1088310E+04  0.7818608E-02  0.9216661E-01
          2   -1    0    0  501    0  0.00000000000E+00  0.00000000000E+00  0.37134460056E+04  0.37134460056E+04  0.00000000000E+00 0. -1.
         -2   -1    0    0    0  501 -0.00000000000E+00 -0.00000000000E+00 -0.79738578290E+02  0.79738578290E+02  0.00000000000E+00 0.  1.
         23    2    1    2    0    0  0.11730088086E+03 -0.11319336783E+03  0.54995211651E+03  0.57627575113E+03  0.55445249745E+02 0.  0.
        254    2    1    2    0    0 -0.11730088086E+03  0.11319336783E+03  0.30837553109E+04  0.32169088328E+04  0.90132313086E+03 0.  0.
        -24    2    4    4    0    0 -0.33835821799E+03  0.37974848355E+03  0.22894901447E+04  0.23466440316E+04  0.79233161303E+02 0.  0.
         24    2    4    4    0    0  0.22105733713E+03 -0.26655511572E+03  0.79426516613E+03  0.87026480121E+03  0.81152289384E+02 0.  0.
         11    1    3    3    0    0  0.69778213184E+02 -0.64055726670E+02  0.40620165331E+03  0.41709941058E+03  0.00000000000E+00 0. -1.
        -11    1    3    3    0    0  0.47522667674E+02 -0.49137641159E+02  0.14375046319E+03  0.15917634055E+03  0.00000000000E+00 0.  1.
          2    1    6    6  502    0  0.12204884678E+03 -0.88172783325E+02  0.30398524876E+03  0.33923058851E+03  0.00000000000E+00 0. -1.
          1    1    5    5  503    0 -0.20250251218E+03  0.17109888801E+03  0.12402391315E+04  0.12682567565E+04  0.00000000000E+00 0. -1.
         -2    1    5    5    0  503 -0.13585570581E+03  0.20864959554E+03  0.10492510132E+04  0.10783872752E+04  0.00000000000E+00 0.  1.
         -1    1    6    6    0  502  0.99008490353E+02 -0.17838233240E+03  0.49027991738E+03  0.53103421270E+03  0.00000000000E+00 0.  1.
<mgrwt>
<rscale>  0 0.10883104E+04</rscale>
<asrwt>0</asrwt>
<pdfrwt beam="1">  1        2 0.57129925E+00 0.10883104E+04</pdfrwt>
<pdfrwt beam="2">  1       -2 0.12267476E-01 0.10883104E+04</pdfrwt>
<totfact> 0.28993881E+01</totfact>
</mgrwt>
</event>
<event>
12    1  0.2588309E-007  0.1312938E+04  0.7818608E-02  0.9019368E-01
         -2   -1    0    0    0  501 -0.00000000000E+00  0.00000000000E+00  0.36852116090E+03  0.36852116090E+03  0.00000000000E+00 0.  1.
          2   -1    0    0  501    0  0.00000000000E+00 -0.00000000000E+00 -0.11694070213E+04  0.11694070213E+04  0.00000000000E+00 0. -1.
         23    2    1    2    0    0  0.61954915907E+02  0.97101480368E+02 -0.58597163681E+03  0.60390594836E+03  0.89847238252E+02 0.  0.
        254    2    1    2    0    0 -0.61954915907E+02 -0.97101480368E+02 -0.21491422355E+03  0.93402223379E+03  0.90163312974E+03 0.  0.
        -24    2    4    4    0    0 -0.43179308927E+03  0.12017455307E+03 -0.18418869035E+02  0.45553123597E+03  0.79260690514E+02 0.  0.
         24    2    4    4    0    0  0.36983817336E+03 -0.21727603344E+03 -0.19649535451E+03  0.47849099782E+03  0.79712367129E+02 0.  0.
         13    1    3    3    0    0  0.41904032382E+02  0.11298165327E+03 -0.48254224059E+03  0.49736085075E+03  0.00000000000E+00 0.  1.
        -13    1    3    3    0    0  0.20050883526E+02 -0.15880172905E+02 -0.10342939622E+03  0.10654509761E+03  0.00000000000E+00 0. -1.
          4    1    6    6  502    0  0.11035062198E+03 -0.78623336039E+02 -0.24486232937E+02  0.13768973943E+03  0.00000000000E+00 0. -1.
          3    1    5    5  503    0 -0.25574122001E+03  0.60584911502E+02 -0.48477369114E+02  0.26725298583E+03  0.00000000000E+00 0. -1.
         -4    1    5    5    0  503 -0.17605186925E+03  0.59589641568E+02  0.30058500079E+02  0.18827825014E+03  0.00000000000E+00 0.  1.
         -3    1    6    6    0  502  0.25948755138E+03 -0.13865269740E+03 -0.17200912158E+03  0.34080125840E+03  0.00000000000E+00 0.  1.
<mgrwt>
<rscale>  0 0.13129375E+04</rscale>
<asrwt>0</asrwt>
<pdfrwt beam="1">  1        2 0.17990877E+00 0.13129375E+04</pdfrwt>
<pdfrwt beam="2">  1       -2 0.56695564E-01 0.13129375E+04</pdfrwt>
<totfact> 0.56463472E+01</totfact>
</mgrwt>
</event>
<event>
12    1  0.2588309E-007  0.2699039E+04  0.7818608E-02  0.8335317E-01
          2   -1    0    0  501    0  0.00000000000E+00  0.00000000000E+00  0.25867801782E+04  0.25867801782E+04  0.00000000000E+00 0. -1.
         -2   -1    0    0    0  501 -0.00000000000E+00 -0.00000000000E+00 -0.70404240561E+03  0.70404240561E+03  0.00000000000E+00 0.  1.
         23    2    1    2    0    0  0.49237869921E+03 -0.49329687433E+03  0.20252403315E+04  0.21437496131E+04  0.91024246146E+02 0.  0.
        254    2    1    2    0    0 -0.49237869921E+03  0.49329687433E+03 -0.14250255898E+03  0.11470729707E+04  0.89982822313E+03 0.  0.
        -24    2    4    4    0    0 -0.21625943300E+03  0.68263690129E+03 -0.28518483971E+03  0.77483927106E+03  0.79273083827E+02 0.  0.
         24    2    4    4    0    0 -0.27611926621E+03 -0.18934002696E+03  0.14268228073E+03  0.37223369964E+03  0.78154967416E+02 0.  0.
         11    1    3    3    0    0  0.13460363232E+03 -0.16539495852E+03  0.73281791308E+03  0.76321407473E+03  0.00000000000E+00 0. -1.
        -11    1    3    3    0    0  0.35777506689E+03 -0.32790191581E+03  0.12924224185E+04  0.13805355383E+04  0.00000000000E+00 0.  1.
          4    1    6    6  502    0 -0.21765746206E+02 -0.48229518898E+02  0.20751912430E+02  0.56837277122E+02  0.00000000000E+00 0. -1.
          3    1    5    5  503    0 -0.19511393516E+03  0.50685090877E+03 -0.20561303831E+03  0.58072714155E+03  0.00000000000E+00 0. -1.
         -2    1    5    5    0  503 -0.21145497840E+02  0.17578599252E+03 -0.79571801398E+02  0.19411212951E+03  0.00000000000E+00 0.  1.
         -3    1    6    6    0  502 -0.25435352000E+03 -0.14111050806E+03  0.12193036830E+03  0.31539642251E+03  0.00000000000E+00 0.  1.
<mgrwt>
<rscale>  0 0.26990390E+04</rscale>
<asrwt>0</asrwt>
<pdfrwt beam="1">  1        2 0.39796618E+00 0.26990390E+04</pdfrwt>
<pdfrwt beam="2">  1       -2 0.10831422E+00 0.26990390E+04</pdfrwt>
<totfact> 0.18534033E+00</totfact>
</mgrwt>
</event>
<event>
12    1  0.2588309E-007  0.1418227E+04  0.7818608E-02  0.8940730E-01
          1   -1    0    0  501    0  0.00000000000E+00  0.00000000000E+00  0.28376777052E+04  0.28376777052E+04  0.00000000000E+00 0. -1.
         -1   -1    0    0    0  501 -0.00000000000E+00 -0.00000000000E+00 -0.17720192050E+03  0.17720192050E+03  0.00000000000E+00 0.  1.
         23    2    1    2    0    0  0.21748295259E+03  0.35010818259E+03  0.69656932903E+03  0.81435257489E+03  0.89926146937E+02 0.  0.
        254    2    1    2    0    0 -0.21748295259E+03 -0.35010818259E+03  0.19639064557E+04  0.22005270508E+04  0.90305933389E+03 0.  0.
        -24    2    4    4    0    0 -0.48993580515E+02 -0.59376515778E+03  0.16713904068E+04  0.17761448919E+04  0.78659720490E+02 0.  0.
         24    2    4    4    0    0 -0.16848937208E+03  0.24365697519E+03  0.29251604889E+03  0.42438215890E+03  0.82323677473E+02 0.  0.
         13    1    3    3    0    0  0.13533622912E+03  0.14607969956E+03  0.37777694357E+03  0.42704870054E+03  0.00000000000E+00 0. -1.
        -13    1    3    3    0    0  0.82146723475E+02  0.20402848302E+03  0.31879238545E+03  0.38730387435E+03  0.00000000000E+00 0.  1.
          4    1    6    6  502    0 -0.13785017843E+03  0.23866665502E+03  0.25299342906E+03  0.37412580646E+03  0.00000000000E+00 0. -1.
          3    1    5    5  503    0 -0.29713903594E+02 -0.54306425797E+03  0.15633219049E+04  0.16552271997E+04  0.00000000000E+00 0. -1.
         -4    1    5    5    0  503 -0.19279676922E+02 -0.50700899814E+02  0.10806850186E+03  0.12091769216E+03  0.00000000000E+00 0.  1.
         -3    1    6    6    0  502 -0.30639193647E+02  0.49903201764E+01  0.39522619825E+02  0.50256352441E+02  0.00000000000E+00 0.  1.
<mgrwt>
<rscale>  0 0.14182270E+04</rscale>
<asrwt>0</asrwt>
<pdfrwt beam="1">  1        1 0.43656577E+00 0.14182270E+04</pdfrwt>
<pdfrwt beam="2">  1       -1 0.27261836E-01 0.14182270E+04</pdfrwt>
<totfact> 0.92538415E+00</totfact>
</mgrwt>
</event>
<event>
12    1  0.2588309E-007  0.1097551E+04  0.7818608E-02  0.9207582E-01
          2   -1    0    0  501    0  0.00000000000E+00  0.00000000000E+00  0.64758839609E+03  0.64758839609E+03  0.00000000000E+00 0. -1.
         -2   -1    0    0    0  501 -0.00000000000E+00 -0.00000000000E+00 -0.46504017968E+03  0.46504017968E+03  0.00000000000E+00 0.  1.
         23    2    1    2    0    0 -0.11710824880E+03 -0.72220283674E+02 -0.37729194195E+02  0.17530609697E+03  0.10187553302E+03 0.  0.
        254    2    1    2    0    0  0.11710824880E+03  0.72220283674E+02  0.22027741060E+03  0.93732247880E+03  0.90062266256E+03 0.  0.
        -24    2    4    4    0    0 -0.15992782185E+02  0.77240367713E+02  0.55602753469E+03  0.56748734252E+03  0.81568505565E+02 0.  0.
         24    2    4    4    0    0  0.13310103099E+03 -0.50200840398E+01 -0.33575012409E+03  0.36983513627E+03  0.79427932778E+02 0.  0.
         11    1    3    3    0    0 -0.17346672571E+02 -0.48035008603E+02  0.23026909937E+02  0.56022385544E+02  0.00000000000E+00 0. -1.
        -11    1    3    3    0    0 -0.99761576229E+02 -0.24185275071E+02 -0.60756104132E+02  0.11928371142E+03  0.00000000000E+00 0.  1.
          2    1    6    6  502    0  0.46950303219E+02  0.19135843299E+01 -0.22230787802E+03  0.22721968534E+03  0.00000000000E+00 0. -1.
          1    1    5    5  503    0 -0.44196754339E+01  0.83599718893E+02  0.30998082808E+03  0.32108653087E+03  0.00000000000E+00 0. -1.
         -2    1    5    5    0  503 -0.11573106751E+02 -0.63593511795E+01  0.24604670661E+03  0.24640081165E+03  0.00000000000E+00 0.  1.
         -1    1    6    6    0  502  0.86150727766E+02 -0.69336683697E+01 -0.11344224607E+03  0.14261545093E+03  0.00000000000E+00 0.  1.
<mgrwt>
<rscale>  0 0.10975511E+04</rscale>
<asrwt>0</asrwt>
<pdfrwt beam="1">  1        2 0.99628984E-01 0.10975511E+04</pdfrwt>
<pdfrwt beam="2">  1       -2 0.71544643E-01 0.10975511E+04</pdfrwt>
<totfact> 0.79535970E+01</totfact>
</mgrwt>
</event>
<event>
12    1  0.3076472E-007  0.1812236E+04  0.7818608E-02  0.8699820E-01
         -1   -1    0    0    0  501 -0.00000000000E+00  0.00000000000E+00  0.60050544976E+03  0.60050544976E+03  0.00000000000E+00 0.  1.
          1   -1    0    0  501    0  0.00000000000E+00 -0.00000000000E+00 -0.13672639273E+04  0.13672639273E+04  0.00000000000E+00 0. -1.
         23    2    1    2    0    0  0.52100361396E+03  0.24760727459E+03  0.98023644675E+02  0.59208442068E+03  0.90560466565E+02 0.  0.
        254    2    1    2    0    0 -0.52100361396E+03 -0.24760727459E+03 -0.86478212221E+03  0.13756849564E+04  0.90105873955E+03 0.  0.
        -24    2    4    4    0    0  0.16486753169E+03 -0.95377288002E+02  0.56535479122E+02  0.21419677731E+03  0.80036672458E+02 0.  0.
         24    2    4    4    0    0 -0.68587114566E+03 -0.15222998659E+03 -0.92131760133E+03  0.11614881791E+04  0.81458396323E+02 0.  0.
         11    1    3    3    0    0  0.24822123880E+03  0.13027223520E+03  0.92122995694E+02  0.29507843871E+03  0.00000000000E+00 0. -1.
        -11    1    3    3    0    0  0.27278237516E+03  0.11733503939E+03  0.59006489810E+01  0.29700598197E+03  0.00000000000E+00 0.  1.
          2    1    6    6  502    0 -0.67201032644E+03 -0.15988946516E+03 -0.89233287566E+03  0.11284593395E+04  0.00000000000E+00 0. -1.
          3    1    5    5  503    0  0.13891120712E+03 -0.92746800749E+02  0.74119672122E+02  0.18273483058E+03  0.00000000000E+00 0. -1.
         -4    1    5    5    0  503  0.25956324578E+02 -0.26304872530E+01 -0.17584193000E+02  0.31461946733E+02  0.00000000000E+00 0.  1.
         -1    1    6    6    0  502 -0.13860819214E+02  0.76594785691E+01 -0.28984725666E+02  0.33028839567E+02  0.00000000000E+00 0.  1.
<mgrwt>
<rscale>  0 0.18122356E+04</rscale>
<asrwt>0</asrwt>
<pdfrwt beam="1">  1        1 0.21034829E+00 0.18122356E+04</pdfrwt>
<pdfrwt beam="2">  1       -1 0.92385455E-01 0.18122356E+04</pdfrwt>
<totfact> 0.87051798E+00</totfact>
</mgrwt>
</event>
<event>
12    1  0.2588309E-007  0.1511719E+04  0.7818608E-02  0.8876697E-01
          2   -1    0    0  501    0  0.00000000000E+00  0.00000000000E+00  0.10467555257E+04  0.10467555257E+04  0.00000000000E+00 0. -1.
         -2   -1    0    0    0  501 -0.00000000000E+00 -0.00000000000E+00 -0.54580402567E+03  0.54580402567E+03  0.00000000000E+00 0.  1.
         23    2    1    2    0    0 -0.26052184391E+03  0.33497395361E+02 -0.26358477807E+03  0.38321533244E+03  0.91560630935E+02 0.  0.
        254    2    1    2    0    0  0.26052184391E+03 -0.33497395361E+02  0.76453627807E+03  0.12093442189E+04  0.89944650348E+03 0.  0.
        -24    2    4    4    0    0  0.24692582717E+02  0.47877544253E+01  0.91320391491E+03  0.91717573775E+03  0.81469610750E+02 0.  0.
         24    2    4    4    0    0  0.23582926119E+03 -0.38285149787E+02 -0.14866763684E+03  0.29216848114E+03  0.78607645957E+02 0.  0.
         13    1    3    3    0    0 -0.50198314471E+01 -0.16866591237E+02 -0.13729250986E+02  0.22319788089E+02  0.00000000000E+00 0. -1.
        -13    1    3    3    0    0 -0.25550201246E+03  0.50363986598E+02 -0.24985552709E+03  0.36089554435E+03  0.00000000000E+00 0.  1.
          2    1    6    6  502    0  0.19513677470E+03 -0.58641174876E+02 -0.10550381677E+03  0.22945196356E+03  0.00000000000E+00 0. -1.
          3    1    5    5  503    0  0.17696976889E+02  0.41458984854E+02  0.61385027970E+03  0.61550320576E+03  0.00000000000E+00 0. -1.
         -4    1    5    5    0  503  0.69956058275E+01 -0.36671230429E+02  0.29935363521E+03  0.30167253199E+03  0.00000000000E+00 0.  1.
         -1    1    6    6    0  502  0.40692486494E+02  0.20356025090E+02 -0.43163820069E+02  0.62716517581E+02  0.00000000000E+00 0.  1.
<mgrwt>
<rscale>  0 0.15117187E+04</rscale>
<asrwt>0</asrwt>
<pdfrwt beam="1">  1        2 0.16103931E+00 0.15117187E+04</pdfrwt>
<pdfrwt beam="2">  1       -2 0.83969850E-01 0.15117187E+04</pdfrwt>
<totfact> 0.28132317E+01</totfact>
</mgrwt>
</event>
<event>
12    1  0.2588309E-007  0.2414404E+04  0.7818608E-02  0.8434131E-01
         -4   -1    0    0    0  501 -0.00000000000E+00  0.00000000000E+00  0.22634607781E+04  0.22634607781E+04  0.00000000000E+00 0.  1.
          4   -1    0    0  501    0  0.00000000000E+00 -0.00000000000E+00 -0.64385323547E+03  0.64385323547E+03  0.00000000000E+00 0. -1.
         23    2    1    2    0    0  0.61998361718E+03 -0.12965171842E+03  0.16852231243E+04  0.18026022932E+04  0.90602401364E+02 0.  0.
        254    2    1    2    0    0 -0.61998361718E+03  0.12965171842E+03 -0.65615581719E+02  0.11047117203E+04  0.90271442151E+03 0.  0.
        -24    2    4    4    0    0 -0.72635949795E+03 -0.12404423556E+03  0.13711266544E+03  0.75380994221E+03  0.80277352461E+02 0.  0.
         24    2    4    4    0    0  0.10637588077E+03  0.25369595398E+03 -0.20272824716E+03  0.35090177811E+03  0.79723588817E+02 0.  0.
         13    1    3    3    0    0  0.22632108190E+03 -0.89827047518E+02  0.68261468155E+03  0.72474335737E+03  0.00000000000E+00 0.  1.
        -13    1    3    3    0    0  0.39366253528E+03 -0.39824670897E+02  0.10026084428E+04  0.10778589359E+04  0.00000000000E+00 0. -1.
          2    1    6    6  502    0  0.93129004994E+02  0.25227464388E+03 -0.17702966006E+03  0.32195497831E+03  0.00000000000E+00 0. -1.
          3    1    5    5  503    0 -0.45789354393E+03 -0.10401142029E+03  0.57457266113E+02  0.47306047241E+03  0.00000000000E+00 0. -1.
         -4    1    5    5    0  503 -0.26846595402E+03 -0.20032815270E+02  0.79655399325E+02  0.28074946980E+03  0.00000000000E+00 0.  1.
         -1    1    6    6    0  502  0.13246875777E+02  0.14213100949E+01 -0.25698587093E+02  0.28946799802E+02  0.00000000000E+00 0.  1.
<mgrwt>
<rscale>  0 0.24144039E+04</rscale>
<asrwt>0</asrwt>
<pdfrwt beam="1">  1        4 0.99054345E-01 0.24144039E+04</pdfrwt>
<pdfrwt beam="2">  1       -4 0.34822473E+00 0.24144039E+04</pdfrwt>
<totfact> 0.23077247E-02</totfact>
</mgrwt>
</event>
<event>
12    1  0.2588309E-007  0.3002790E+04  0.7818608E-02  0.8242935E-01
         -2   -1    0    0    0  501 -0.00000000000E+00  0.00000000000E+00  0.12156334865E+04  0.12156334865E+04  0.00000000000E+00 0.  1.
          2   -1    0    0  501    0  0.00000000000E+00 -0.00000000000E+00 -0.18543305715E+04  0.18543305715E+04  0.00000000000E+00 0. -1.
         23    2    1    2    0    0  0.12228397935E+04 -0.53703406231E+03 -0.57587378624E+03  0.14573992458E+04  0.92947292612E+02 0.  0.
        254    2    1    2    0    0 -0.12228397935E+04  0.53703406231E+03 -0.62823298711E+02  0.16125648122E+04  0.90148530883E+03 0.  0.
        -24    2    4    4    0    0 -0.11585658988E+04  0.74486670616E+03 -0.52999009316E+02  0.13807410202E+04  0.80842551795E+02 0.  0.
         24    2    4    4    0    0 -0.64273894711E+02 -0.20783264385E+03 -0.98242893947E+01  0.23182379197E+03  0.79499763949E+02 0.  0.
         11    1    3    3    0    0  0.40819348818E+03 -0.18213481540E+03 -0.24086084624E+03  0.50774891632E+03  0.00000000000E+00 0.  1.
        -11    1    3    3    0    0  0.81464630534E+03 -0.35489924691E+03 -0.33501294000E+03  0.94965032945E+03  0.00000000000E+00 0. -1.
          2    1    6    6  502    0 -0.72875660319E+02 -0.21022237832E+03 -0.11265493782E+02  0.22278065797E+03  0.00000000000E+00 0. -1.
          1    1    5    5  503    0 -0.11515430516E+04  0.73065539837E+03 -0.54040580483E+02  0.13648549722E+04  0.00000000000E+00 0. -1.
         -2    1    5    5    0  503 -0.70228472492E+01  0.14211307787E+02  0.10415711674E+01  0.15886048061E+02  0.00000000000E+00 0.  1.
         -1    1    6    6    0  502  0.86017656082E+01  0.23897344713E+01  0.14412043869E+01  0.90431339980E+01  0.00000000000E+00 0.  1.
<mgrwt>
<rscale>  0 0.30027896E+04</rscale>
<asrwt>0</asrwt>
<pdfrwt beam="1">  1        2 0.28528163E+00 0.30027896E+04</pdfrwt>
<pdfrwt beam="2">  1       -2 0.18702054E+00 0.30027896E+04</pdfrwt>
<totfact> 0.11185393E+00</totfact>
</mgrwt>
</event>
<event>
12    1  0.2588309E-007  0.1410811E+04  0.7818608E-02  0.8946030E-01
          2   -1    0    0  501    0  0.00000000000E+00  0.00000000000E+00  0.45710727028E+04  0.45710727028E+04  0.00000000000E+00 0. -1.
         -2   -1    0    0    0  501 -0.00000000000E+00 -0.00000000000E+00 -0.10885778647E+03  0.10885778647E+03  0.00000000000E+00 0.  1.
         23    2    1    2    0    0  0.32915443513E+03  0.63201282164E+02  0.54337959400E+03  0.64525142009E+03  0.93546607224E+02 0.  0.
        254    2    1    2    0    0 -0.32915443513E+03 -0.63201282164E+02  0.39188353223E+04  0.40346790692E+04  0.89945976202E+03 0.  0.
        -24    2    4    4    0    0  0.29966086779E+03  0.16421578284E+01  0.16266421983E+04  0.16557969552E+04  0.76807443665E+02 0.  0.
         24    2    4    4    0    0 -0.62881530292E+03 -0.64843439992E+02  0.22921931241E+04  0.23788821140E+04  0.72920759506E+02 0.  0.
         13    1    3    3    0    0  0.28127554377E+03  0.23173542934E+02  0.47624905446E+03  0.55359381002E+03  0.00000000000E+00 0. -1.
        -13    1    3    3    0    0  0.47878891356E+02  0.40027739229E+02  0.67130539532E+02  0.91657610066E+02  0.00000000000E+00 0.  1.
          2    1    6    6  502    0 -0.12721185360E+03 -0.26508349977E+02  0.37913711441E+03  0.40078734990E+03  0.00000000000E+00 0. -1.
          3    1    5    5  503    0  0.16533848144E+03  0.27193338912E+02  0.74464374123E+03  0.76326312140E+03  0.00000000000E+00 0. -1.
         -4    1    5    5    0  503  0.13432238635E+03 -0.25551181083E+02  0.88199845704E+03  0.89253383384E+03  0.00000000000E+00 0.  1.
         -1    1    6    6    0  502 -0.50160344931E+03 -0.38335090015E+02  0.19130560097E+04  0.19780947641E+04  0.00000000000E+00 0.  1.
<mgrwt>
<rscale>  0 0.14108109E+04</rscale>
<asrwt>0</asrwt>
<pdfrwt beam="1">  1        2 0.70324181E+00 0.14108109E+04</pdfrwt>
<pdfrwt beam="2">  1       -2 0.16747355E-01 0.14108109E+04</pdfrwt>
<totfact> 0.30907448E+00</totfact>
</mgrwt>
</event>
<event>
12    1  0.2588309E-007  0.3832171E+04  0.7818608E-02  0.8039286E-01
          2   -1    0    0  501    0  0.00000000000E+00  0.00000000000E+00  0.21047245496E+04  0.21047245496E+04  0.00000000000E+00 0. -1.
         -2   -1    0    0    0  501 -0.00000000000E+00 -0.00000000000E+00 -0.17443535464E+04  0.17443535464E+04  0.00000000000E+00 0.  1.
         23    2    1    2    0    0 -0.15967511730E+04  0.74472473434E+03  0.59075982073E+03  0.18606271074E+04  0.93310389202E+02 0.  0.
        254    2    1    2    0    0  0.15967511730E+04 -0.74472473434E+03 -0.23038881751E+03  0.19884509886E+04  0.89254080489E+03 0.  0.
        -24    2    4    4    0    0  0.11377147481E+04 -0.74717625407E+02 -0.94604331058E+01  0.11429917352E+04  0.79768636478E+02 0.  0.
         24    2    4    4    0    0  0.45903642483E+03 -0.67000710894E+03 -0.22092838441E+03  0.84545925333E+03  0.79799953981E+02 0.  0.
         13    1    3    3    0    0 -0.26762598573E+03  0.12092798156E+03  0.13553911156E+03  0.32344720701E+03  0.00000000000E+00 0. -1.
        -13    1    3    3    0    0 -0.13291251872E+04  0.62379675279E+03  0.45522070917E+03  0.15371799004E+04  0.00000000000E+00 0.  1.
          2    1    6    6  502    0  0.11693732596E+03 -0.23641489514E+03 -0.74808979136E+02  0.27415821018E+03  0.00000000000E+00 0. -1.
          1    1    5    5  503    0  0.92021777897E+03 -0.89742675897E+02  0.35231863066E+01  0.92459013701E+03  0.00000000000E+00 0. -1.
         -2    1    5    5    0  503  0.21749696915E+03  0.15025050490E+02 -0.12983619412E+02  0.21840159822E+03  0.00000000000E+00 0.  1.
         -1    1    6    6    0  502  0.34209909886E+03 -0.43359221380E+03 -0.14611940527E+03  0.57130104315E+03  0.00000000000E+00 0.  1.
<mgrwt>
<rscale>  0 0.38321710E+04</rscale>
<asrwt>0</asrwt>
<pdfrwt beam="1">  1        2 0.32380378E+00 0.38321710E+04</pdfrwt>
<pdfrwt beam="2">  1       -2 0.26836208E+00 0.38321710E+04</pdfrwt>
<totfact> 0.23165576E-01</totfact>
</mgrwt>
</event>
<event>
12    1  0.2588309E-007  0.3330454E+04  0.7818608E-02  0.8155189E-01
          2   -1    0    0  501    0  0.00000000000E+00  0.00000000000E+00  0.32800731803E+04  0.32800731803E+04  0.00000000000E+00 0. -1.
         -2   -1    0    0    0  501 -0.00000000000E+00 -0.00000000000E+00 -0.84540201810E+03  0.84540201810E+03  0.00000000000E+00 0.  1.
         23    2    1    2    0    0 -0.15071995203E+04 -0.48993794719E+01  0.15335937361E+04  0.21521809086E+04  0.91096203552E+02 0.  0.
        254    2    1    2    0    0  0.15071995203E+04  0.48993794719E+01  0.90107742611E+03  0.19732942898E+04  0.90015300273E+03 0.  0.
        -24    2    4    4    0    0 -0.35504464498E+02 -0.73056552873E+02 -0.84002253624E+02  0.13948059718E+03  0.76161876680E+02 0.  0.
         24    2    4    4    0    0  0.15427039848E+04  0.77955932345E+02  0.98507967973E+03  0.18338136926E+04  0.80485847487E+02 0.  0.
         13    1    3    3    0    0 -0.48763773297E+03 -0.42148000514E+02  0.51599399883E+03  0.71120800009E+03  0.00000000000E+00 0. -1.
        -13    1    3    3    0    0 -0.10195617873E+04  0.37248621042E+02  0.10175997372E+04  0.14409729085E+04  0.00000000000E+00 0.  1.
          2    1    6    6  502    0  0.10998089098E+04  0.30134572280E+02  0.73188013953E+03  0.13214144956E+04  0.00000000000E+00 0. -1.
          3    1    5    5  503    0 -0.55855207259E+01 -0.18456591777E+02 -0.73939575262E+02  0.76412725457E+02  0.00000000000E+00 0. -1.
         -4    1    5    5    0  503 -0.29918943772E+02 -0.54599961096E+02 -0.10062678362E+02  0.63067871725E+02  0.00000000000E+00 0.  1.
         -1    1    6    6    0  502  0.44289507499E+03  0.47821360064E+02  0.25319954020E+03  0.51239919700E+03  0.00000000000E+00 0.  1.
<mgrwt>
<rscale>  0 0.33304537E+04</rscale>
<asrwt>0</asrwt>
<pdfrwt beam="1">  1        2 0.50462664E+00 0.33304537E+04</pdfrwt>
<pdfrwt beam="2">  1       -2 0.13006185E+00 0.33304537E+04</pdfrwt>
<totfact> 0.41457130E-01</totfact>
</mgrwt>
</event>
<event>
12    1  0.2588309E-007  0.3351146E+04  0.7818608E-02  0.8150002E-01
          1   -1    0    0  501    0  0.00000000000E+00  0.00000000000E+00  0.17879533467E+04  0.17879533467E+04  0.00000000000E+00 0. -1.
         -1   -1    0    0    0  501 -0.00000000000E+00 -0.00000000000E+00 -0.15702561384E+04  0.15702561384E+04  0.00000000000E+00 0.  1.
         23    2    1    2    0    0  0.14460165297E+04  0.11519498937E+03  0.65623964613E+03  0.15949910754E+04  0.95458722328E+02 0.  0.
        254    2    1    2    0    0 -0.14460165297E+04 -0.11519498937E+03 -0.43854243782E+03  0.17632184097E+04  0.90132458120E+03 0.  0.
        -24    2    4    4    0    0  0.98806058837E+01  0.96939741468E+02  0.13279629145E+03  0.18291576773E+03  0.79551135833E+02 0.  0.
         24    2    4    4    0    0 -0.14558971356E+04 -0.21213473084E+03 -0.57133872927E+03  0.15803026420E+04  0.79315087489E+02 0.  0.
         11    1    3    3    0    0  0.93520578539E+03  0.10563936575E+03  0.46175065263E+03  0.10483239966E+04  0.00000000000E+00 0.  1.
        -11    1    3    3    0    0  0.51081074436E+03  0.95556236185E+01  0.19448899350E+03  0.54666707884E+03  0.00000000000E+00 0. -1.
          2    1    6    6  502    0 -0.61236072816E+03 -0.10193892225E+03 -0.20136267561E+03  0.65262863283E+03  0.00000000000E+00 0. -1.
          3    1    5    5  503    0 -0.19092087766E+02  0.89681203550E+02  0.77447430120E+02  0.12002220843E+03  0.00000000000E+00 0. -1.
         -4    1    5    5    0  503  0.28972693649E+02  0.72585379176E+01  0.55348861333E+02  0.62893559296E+02  0.00000000000E+00 0.  1.
         -1    1    6    6    0  502 -0.84353640748E+03 -0.11019580858E+03 -0.36997605366E+03  0.92767400915E+03  0.00000000000E+00 0.  1.
<mgrwt>
<rscale>  0 0.33511459E+04</rscale>
<asrwt>0</asrwt>
<pdfrwt beam="1">  1        1 0.27506975E+00 0.33511459E+04</pdfrwt>
<pdfrwt beam="2">  1       -1 0.24157787E+00 0.33511459E+04</pdfrwt>
<totfact> 0.27150082E-01</totfact>
</mgrwt>
</event>
<event>
12    1  0.2588309E-007  0.1093079E+04  0.7818608E-02  0.9211964E-01
         -2   -1    0    0    0  501 -0.00000000000E+00  0.00000000000E+00  0.11734175936E+04  0.11734175936E+04  0.00000000000E+00 0.  1.
          2   -1    0    0  501    0  0.00000000000E+00 -0.00000000000E+00 -0.25456034070E+03  0.25456034070E+03  0.00000000000E+00 0. -1.
         23    2    1    2    0    0  0.13596245439E+03  0.73813718058E+02  0.16510141728E+03  0.24395499092E+03  0.91221190688E+02 0.  0.
        254    2    1    2    0    0 -0.13596245439E+03 -0.73813718058E+02  0.75375583562E+03  0.11840229434E+04  0.89990455979E+03 0.  0.
        -24    2    4    4    0    0  0.88044379549E+02  0.10727030411E+03 -0.15760283327E+03  0.22486566238E+03  0.80418792270E+02 0.  0.
         24    2    4    4    0    0 -0.22400683394E+03 -0.18108402217E+03  0.91135866890E+03  0.95915728099E+03  0.80234540985E+02 0.  0.
         11    1    3    3    0    0  0.65773295327E+02  0.13524331591E+02  0.12745561732E+03  0.14406237645E+03  0.00000000000E+00 0.  1.
        -11    1    3    3    0    0  0.70189159066E+02  0.60289386467E+02  0.37645799961E+02  0.99892614470E+02  0.00000000000E+00 0. -1.
          4    1    6    6  502    0 -0.16140640726E+03 -0.14329327708E+03  0.77421460440E+03  0.80373704981E+03  0.00000000000E+00 0. -1.
          1    1    5    5  503    0  0.78350576470E+02  0.79879389974E+02 -0.16051491453E+03  0.19566442590E+03  0.00000000000E+00 0. -1.
         -2    1    5    5    0  503  0.96938030798E+01  0.27390914135E+02  0.29120812526E+01  0.29201236490E+02  0.00000000000E+00 0.  1.
         -3    1    6    6    0  502 -0.62600426687E+02 -0.37790745091E+02  0.13714406449E+03  0.15542023119E+03  0.00000000000E+00 0.  1.
<mgrwt>
<rscale>  0 0.10930793E+04</rscale>
<asrwt>0</asrwt>
<pdfrwt beam="1">  1        2 0.39163130E-01 0.10930793E+04</pdfrwt>
<pdfrwt beam="2">  1       -2 0.18052578E+00 0.10930793E+04</pdfrwt>
<totfact> 0.23538239E+01</totfact>
</mgrwt>
</event>
<event>
12    1  0.2588309E-007  0.1214007E+04  0.7818608E-02  0.9100684E-01
          1   -1    0    0  501    0  0.00000000000E+00  0.00000000000E+00  0.60994015659E+03  0.60994015659E+03  0.00000000000E+00 0. -1.
         -1   -1    0    0    0  501 -0.00000000000E+00 -0.00000000000E+00 -0.60408073846E+03  0.60408073846E+03  0.00000000000E+00 0.  1.
         23    2    1    2    0    0  0.24527668239E+03  0.32538067283E+02  0.80567127734E+02  0.27624262427E+03  0.92733751379E+02 0.  0.
        254    2    1    2    0    0 -0.24527668239E+03 -0.32538067283E+02 -0.74707709611E+02  0.93777827078E+03  0.90145852180E+03 0.  0.
        -24    2    4    4    0    0 -0.34194394328E+03  0.36061482350E+03 -0.13191236143E+03  0.52036606319E+03  0.80070327494E+02 0.  0.
         24    2    4    4    0    0  0.96667260896E+02 -0.39315289078E+03  0.57204651814E+02  0.41741220760E+03  0.83945363190E+02 0.  0.
         11    1    3    3    0    0  0.19352818032E+03  0.22831756949E+02  0.10133549610E+03  0.21964363972E+03  0.00000000000E+00 0. -1.
        -11    1    3    3    0    0  0.51748502071E+02  0.97063103346E+01 -0.20768368362E+02  0.56598984543E+02  0.00000000000E+00 0.  1.
          2    1    6    6  502    0  0.12628169987E+02 -0.18837856464E+02 -0.14799195250E+02  0.27080467008E+02  0.00000000000E+00 0. -1.
          1    1    5    5  503    0 -0.20868914435E+03  0.16302353601E+03 -0.61635969979E+02  0.27189487869E+03  0.00000000000E+00 0. -1.
         -2    1    5    5    0  503 -0.13325479893E+03  0.19759128749E+03 -0.70276391446E+02  0.24847118450E+03  0.00000000000E+00 0.  1.
         -1    1    6    6    0  502  0.84039090910E+02 -0.37431503432E+03  0.72003847064E+02  0.39033174059E+03  0.00000000000E+00 0.  1.
<mgrwt>
<rscale>  0 0.12140068E+04</rscale>
<asrwt>0</asrwt>
<pdfrwt beam="1">  1        1 0.93836948E-01 0.12140068E+04</pdfrwt>
<pdfrwt beam="2">  1       -1 0.92935498E-01 0.12140068E+04</pdfrwt>
<totfact> 0.37211779E+01</totfact>
</mgrwt>
</event>
<event>
12    1  0.2588309E-007  0.3070996E+04  0.7818608E-02  0.8223743E-01
          1   -1    0    0  501    0  0.00000000000E+00  0.00000000000E+00  0.13369040476E+04  0.13369040476E+04  0.00000000000E+00 0. -1.
         -1   -1    0    0    0  501 -0.00000000000E+00 -0.00000000000E+00 -0.17635923735E+04  0.17635923735E+04  0.00000000000E+00 0.  1.
         23    2    1    2    0    0  0.12248412069E+04  0.68062219768E+03 -0.24297973428E+03  0.14249644410E+04  0.89453612478E+02 0.  0.
        254    2    1    2    0    0 -0.12248412069E+04 -0.68062219768E+03 -0.18370859162E+03  0.16755319801E+04  0.90009777894E+03 0.  0.
        -24    2    4    4    0    0 -0.69928085220E+03 -0.29102071406E+03  0.33969228586E+03  0.83403125041E+03  0.80811579163E+02 0.  0.
         24    2    4    4    0    0 -0.52556035469E+03 -0.38960148362E+03 -0.52340087748E+03  0.84150072969E+03  0.78562058674E+02 0.  0.
         13    1    3    3    0    0  0.88217273704E+03  0.51851374431E+03 -0.14560853510E+03  0.10335797437E+04  0.00000000000E+00 0. -1.
        -13    1    3    3    0    0  0.34266846985E+03  0.16210845337E+03 -0.97371199184E+02  0.39138469734E+03  0.00000000000E+00 0.  1.
          2    1    6    6  502    0 -0.20135704791E+03 -0.19704832835E+03 -0.23159622590E+03  0.36470469739E+03  0.00000000000E+00 0. -1.
          3    1    5    5  503    0 -0.32294401500E+03 -0.91332160369E+02  0.14385602410E+03  0.36514237772E+03  0.00000000000E+00 0. -1.
         -4    1    5    5    0  503 -0.37633683720E+03 -0.19968855369E+03  0.19583626176E+03  0.46888887269E+03  0.00000000000E+00 0.  1.
         -1    1    6    6    0  502 -0.32420330678E+03 -0.19255315526E+03 -0.29180465158E+03  0.47679603230E+03  0.00000000000E+00 0.  1.
<mgrwt>
<rscale>  0 0.30709958E+04</rscale>
<asrwt>0</asrwt>
<pdfrwt beam="1">  1        1 0.20567755E+00 0.30709958E+04</pdfrwt>
<pdfrwt beam="2">  1       -1 0.27132190E+00 0.30709958E+04</pdfrwt>
<totfact> 0.36481736E-01</totfact>
</mgrwt>
</event>
<event>
12    1  0.2588309E-007  0.2396080E+04  0.7818608E-02  0.8440973E-01
          2   -1    0    0  501    0  0.00000000000E+00  0.00000000000E+00  0.14465157336E+04  0.14465157336E+04  0.00000000000E+00 0. -1.
         -2   -1    0    0    0  501 -0.00000000000E+00 -0.00000000000E+00 -0.99224636942E+03  0.99224636942E+03  0.00000000000E+00 0.  1.
         23    2    1    2    0    0 -0.94490370259E+03 -0.16790059709E+03 -0.17597826168E+03  0.98010151102E+03  0.92720039138E+02 0.  0.
        254    2    1    2    0    0  0.94490370259E+03  0.16790059709E+03  0.63024762587E+03  0.14586605920E+04  0.89969163332E+03 0.  0.
        -24    2    4    4    0    0  0.82928027387E+03  0.21734825389E+03  0.53214194627E+02  0.86259774856E+03  0.79354200884E+02 0.  0.
         24    2    4    4    0    0  0.11562342872E+03 -0.49447656805E+02  0.57703343124E+03  0.59606284344E+03  0.80681376614E+02 0.  0.
         13    1    3    3    0    0 -0.65385352228E+03 -0.11768558857E+03 -0.77996675064E+02  0.66892287124E+03  0.00000000000E+00 0. -1.
        -13    1    3    3    0    0 -0.29105018031E+03 -0.50215008517E+02 -0.97981586613E+02  0.31117863978E+03  0.00000000000E+00 0.  1.
          2    1    6    6  502    0  0.97395212853E+02 -0.66648294919E+01  0.45754838073E+03  0.46784694949E+03  0.00000000000E+00 0. -1.
          1    1    5    5  503    0  0.37410847725E+03  0.60514300243E+02  0.81369858542E+01  0.37905849657E+03  0.00000000000E+00 0. -1.
         -2    1    5    5    0  503  0.45517179662E+03  0.15683395365E+03  0.45077208773E+02  0.48353925198E+03  0.00000000000E+00 0.  1.
         -1    1    6    6    0  502  0.18228215864E+02 -0.42782827314E+02  0.11948505051E+03  0.12821589395E+03  0.00000000000E+00 0.  1.
<mgrwt>
<rscale>  0 0.23960801E+04</rscale>
<asrwt>0</asrwt>
<pdfrwt beam="1">  1        2 0.22254088E+00 0.23960801E+04</pdfrwt>
<pdfrwt beam="2">  1       -2 0.15265329E+00 0.23960801E+04</pdfrwt>
<totfact> 0.35019557E+00</totfact>
</mgrwt>
</event>
<event>
12    1  0.2686037E-007  0.1828983E+04  0.7818608E-02  0.8691037E-01
         -2   -1    0    0    0  501 -0.00000000000E+00  0.00000000000E+00  0.34811771013E+03  0.34811771013E+03  0.00000000000E+00 0.  1.
          2   -1    0    0  501    0  0.00000000000E+00 -0.00000000000E+00 -0.24023323917E+04  0.24023323917E+04  0.00000000000E+00 0. -1.
         23    2    1    2    0    0  0.53575008945E+03  0.16445348820E+03 -0.18274974396E+03  0.59716565385E+03  0.95583686337E+02 0.  0.
        254    2    1    2    0    0 -0.53575008945E+03 -0.16445348820E+03 -0.18714649376E+04  0.21532844480E+04  0.90563778251E+03 0.  0.
        -24    2    4    4    0    0 -0.69095138775E+03  0.58707645243E+01 -0.82497584614E+03  0.10791049707E+04  0.80212873315E+02 0.  0.
         24    2    4    4    0    0  0.15520129829E+03 -0.17032425272E+03 -0.10464890914E+04  0.10741794772E+04  0.74995578064E+02 0.  0.
         13    1    3    3    0    0  0.24807537627E+03  0.12229507537E+03 -0.69833885448E+02  0.28526172076E+03  0.00000000000E+00 0.  1.
        -13    1    3    3    0    0  0.28767471318E+03  0.42158412823E+02 -0.11291585851E+03  0.31190393309E+03  0.00000000000E+00 0. -1.
          4    1    6    6  502    0  0.36156091055E+02 -0.20970344911E+01 -0.15133394074E+03  0.15560726877E+03  0.00000000000E+00 0. -1.
          3    1    5    5  503    0 -0.32669948070E+03 -0.35487830148E+02 -0.40831834714E+03  0.52413338893E+03  0.00000000000E+00 0. -1.
         -4    1    5    5    0  503 -0.36425190704E+03  0.41358594672E+02 -0.41665749900E+03  0.55497158181E+03  0.00000000000E+00 0.  1.
         -3    1    6    6    0  502  0.11904520724E+03 -0.16822721823E+03 -0.89515515070E+03  0.91857220846E+03  0.00000000000E+00 0.  1.
<mgrwt>
<rscale>  0 0.18289827E+04</rscale>
<asrwt>0</asrwt>
<pdfrwt beam="1">  1        2 0.36958960E+00 0.18289827E+04</pdfrwt>
<pdfrwt beam="2">  1       -2 0.53556570E-01 0.18289827E+04</pdfrwt>
<totfact> 0.12273489E+01</totfact>
</mgrwt>
</event>
<event>
12    1  0.2588309E-007  0.5145844E+04  0.7818608E-02  0.7806395E-01
         -2   -1    0    0    0  501 -0.00000000000E+00  0.00000000000E+00  0.23874118969E+04  0.23874118969E+04  0.00000000000E+00 0.  1.
          2   -1    0    0  501    0  0.00000000000E+00 -0.00000000000E+00 -0.27728464488E+04  0.27728464488E+04  0.00000000000E+00 0. -1.
         23    2    1    2    0    0  0.23934671537E+04  0.91951340257E+02 -0.88137651511E+03  0.25538838102E+04  0.91421495279E+02 0.  0.
        254    2    1    2    0    0 -0.23934671537E+04 -0.91951340257E+02  0.49594196319E+03  0.26063745355E+04  0.90004984508E+03 0.  0.
        -24    2    4    4    0    0 -0.14819705621E+04 -0.28404309815E+03 -0.71523747763E+02  0.15128291405E+04  0.81358057875E+02 0.  0.
         24    2    4    4    0    0 -0.91149659167E+03  0.19209175789E+03  0.56746571095E+03  0.10935453950E+04  0.78095567737E+02 0.  0.
         13    1    3    3    0    0  0.80953413778E+03  0.56970318502E+01 -0.33525394907E+03  0.87622667545E+03  0.00000000000E+00 0. -1.
        -13    1    3    3    0    0  0.15839330159E+04  0.86254308407E+02 -0.54612256605E+03  0.16776571348E+04  0.00000000000E+00 0.  1.
          2    1    6    6  502    0 -0.85671346772E+03  0.17242632858E+03  0.55083918185E+03  0.10330114272E+04  0.00000000000E+00 0. -1.
          1    1    5    5  503    0 -0.11736046886E+04 -0.24857443169E+03 -0.80100724754E+02  0.12023116648E+04  0.00000000000E+00 0. -1.
         -2    1    5    5    0  503 -0.30836587342E+03 -0.35468666459E+02  0.85769769912E+01  0.31051747572E+03  0.00000000000E+00 0.  1.
         -1    1    6    6    0  502 -0.54783123953E+02  0.19665429307E+02  0.16626529104E+02  0.60533967736E+02  0.00000000000E+00 0.  1.
<mgrwt>
<rscale>  0 0.51458436E+04</rscale>
<asrwt>0</asrwt>
<pdfrwt beam="1">  1        2 0.42659176E+00 0.51458436E+04</pdfrwt>
<pdfrwt beam="2">  1       -2 0.36729414E+00 0.51458436E+04</pdfrwt>
<totfact> 0.20882758E-02</totfact>
</mgrwt>
</event>
<event>
12    1  0.2588309E-007  0.1374393E+04  0.7818608E-02  0.8972565E-01
         -2   -1    0    0    0  501 -0.00000000000E+00  0.00000000000E+00  0.29490345354E+03  0.29490345354E+03  0.00000000000E+00 0. -1.
          2   -1    0    0  501    0  0.00000000000E+00 -0.00000000000E+00 -0.16013353960E+04  0.16013353960E+04  0.00000000000E+00 0.  1.
         23    2    1    2    0    0 -0.99288099805E+02  0.35202574542E+03 -0.21305460379E+03  0.43278949683E+03  0.90189978211E+02 0.  0.
        254    2    1    2    0    0  0.99288099805E+02 -0.35202574542E+03 -0.10933773387E+04  0.14634493527E+04  0.90134885090E+03 0.  0.
        -24    2    4    4    0    0  0.25307617776E+03  0.19377478923E+03 -0.68593412321E+03  0.76057262837E+03  0.79805269018E+02 0.  0.
         24    2    4    4    0    0 -0.15378807795E+03 -0.54580053465E+03 -0.40744321545E+03  0.70287672432E+03  0.80478066757E+02 0.  0.
         11    1    3    3    0    0 -0.20844732540E+02  0.19932254079E+03 -0.80819162237E+02  0.21609191361E+03  0.00000000000E+00 0. -1.
        -11    1    3    3    0    0 -0.78443367264E+02  0.15270320463E+03 -0.13223544156E+03  0.21669758323E+03  0.00000000000E+00 0.  1.
          2    1    6    6  502    0 -0.17820028526E+01 -0.10811585340E+03 -0.59268135748E+02  0.12330825278E+03  0.00000000000E+00 0. -1.
          1    1    5    5  503    0  0.41644920461E+02  0.27415032656E+02 -0.52647375800E+02  0.72509513820E+02  0.00000000000E+00 0. -1.
         -2    1    5    5    0  503  0.21143125730E+03  0.16635975658E+03 -0.63328674741E+03  0.68806311455E+03  0.00000000000E+00 0.  1.
         -1    1    6    6    0  502 -0.15200607510E+03 -0.43768468126E+03 -0.34817507971E+03  0.57956847154E+03  0.00000000000E+00 0.  1.
<mgrwt>
<rscale>  0 0.13743934E+04</rscale>
<asrwt>0</asrwt>
<pdfrwt beam="1">  1        2 0.24635929E+00 0.13743934E+04</pdfrwt>
<pdfrwt beam="2">  1       -2 0.45369762E-01 0.13743934E+04</pdfrwt>
<totfact> 0.49999287E+01</totfact>
</mgrwt>
</event>
<event>
12    1  0.2588309E-007  0.1871689E+04  0.7818608E-02  0.8669078E-01
          2   -1    0    0  501    0  0.00000000000E+00  0.00000000000E+00  0.19454206760E+04  0.19454206760E+04  0.00000000000E+00 0. -1.
         -2   -1    0    0    0  501 -0.00000000000E+00 -0.00000000000E+00 -0.45018817552E+03  0.45018817552E+03  0.00000000000E+00 0.  1.
         23    2    1    2    0    0 -0.23358601234E+03  0.67668131311E+03  0.55992017622E+03  0.91329140642E+03  0.90169643531E+02 0.  0.
        254    2    1    2    0    0  0.23358601234E+03 -0.67668131311E+03  0.93531232424E+03  0.14823174451E+04  0.89999768858E+03 0.  0.
        -24    2    4    4    0    0  0.30348011541E+03 -0.55814853985E+03  0.10874942654E+04  0.12621413798E+04  0.82018975370E+02 0.  0.
         24    2    4    4    0    0 -0.69894103064E+02 -0.11853277326E+03 -0.15218194113E+03  0.22017606532E+03  0.79893382417E+02 0.  0.
         11    1    3    3    0    0 -0.35170742751E+02  0.22153721045E+03  0.19300647267E+03  0.29591758186E+03  0.00000000000E+00 0. -1.
        -11    1    3    3    0    0 -0.19841526959E+03  0.45514410267E+03  0.36691370355E+03  0.61737382456E+03  0.00000000000E+00 0.  1.
          4    1    6    6  502    0 -0.55612975452E+02 -0.65319878089E+02 -0.13929550942E+03  0.16359317974E+03  0.00000000000E+00 0. -1.
          1    1    5    5  503    0  0.20582974114E+03 -0.38892920391E+03  0.82377360287E+03  0.93393509238E+03  0.00000000000E+00 0. -1.
         -2    1    5    5    0  503  0.97650374265E+02 -0.16921933595E+03  0.26372066250E+03  0.32820628739E+03  0.00000000000E+00 0.  1.
         -3    1    6    6    0  502 -0.14281127612E+02 -0.53212895171E+02 -0.12886431706E+02  0.56582885579E+02  0.00000000000E+00 0.  1.
<mgrwt>
<rscale>  0 0.18716895E+04</rscale>
<asrwt>0</asrwt>
<pdfrwt beam="1">  1        2 0.29929549E+00 0.18716895E+04</pdfrwt>
<pdfrwt beam="2">  1       -2 0.69259720E-01 0.18716895E+04</pdfrwt>
<totfact> 0.12794967E+01</totfact>
</mgrwt>
</event>
<event>
12    1  0.2588309E-007  0.2545855E+04  0.7818608E-02  0.8386829E-01
         -2   -1    0    0    0  501 -0.00000000000E+00  0.00000000000E+00  0.43331204323E+03  0.43331204323E+03  0.00000000000E+00 0. -1.
          2   -1    0    0  501    0  0.00000000000E+00 -0.00000000000E+00 -0.37394398722E+04  0.37394398722E+04  0.00000000000E+00 0.  1.
         23    2    1    2    0    0  0.88356473840E+03 -0.60718369852E+03 -0.96600313673E+03  0.14460026130E+04  0.91666819989E+02 0.  0.
        254    2    1    2    0    0 -0.88356473840E+03  0.60718369852E+03 -0.23401246922E+04  0.27267493024E+04  0.89978858208E+03 0.  0.
        -24    2    4    4    0    0 -0.10426161170E+04  0.42692596576E+03 -0.20596222371E+04  0.23487109468E+04  0.71310616444E+02 0.  0.
         24    2    4    4    0    0  0.15905137864E+03  0.18025773276E+03 -0.28050245508E+03  0.37803835565E+03  0.80256960861E+02 0.  0.
         11    1    3    3    0    0  0.40126391456E+03 -0.22076255706E+03 -0.41192658708E+03  0.61598080235E+03  0.00000000000E+00 0. -1.
        -11    1    3    3    0    0  0.48230082385E+03 -0.38642114146E+03 -0.55407654965E+03  0.83002181063E+03  0.00000000000E+00 0.  1.
          4    1    6    6  502    0  0.10053751651E+03  0.68196623552E+02 -0.17686478185E+03  0.21456869005E+03  0.00000000000E+00 0. -1.
          1    1    5    5  503    0 -0.40757356042E+02  0.55771463667E+01 -0.58973049844E+02  0.71903318707E+02  0.00000000000E+00 0. -1.
         -2    1    5    5    0  503 -0.10018587610E+04  0.42134881939E+03 -0.20006491873E+04  0.22768076281E+04  0.00000000000E+00 0.  1.
         -3    1    6    6    0  502  0.58513862133E+02  0.11206110921E+03 -0.10363767323E+03  0.16346966560E+03  0.00000000000E+00 0.  1.
<mgrwt>
<rscale>  0 0.25458549E+04</rscale>
<asrwt>0</asrwt>
<pdfrwt beam="1">  1        2 0.57529843E+00 0.25458549E+04</pdfrwt>
<pdfrwt beam="2">  1       -2 0.66663393E-01 0.25458549E+04</pdfrwt>
<totfact> 0.10039929E+00</totfact>
</mgrwt>
</event>
<event>
12    1  0.2588309E-007  0.2003826E+04  0.7818608E-02  0.8604834E-01
          1   -1    0    0  501    0  0.00000000000E+00  0.00000000000E+00  0.30936293868E+04  0.30936293868E+04  0.00000000000E+00 0. -1.
         -1   -1    0    0    0  501 -0.00000000000E+00 -0.00000000000E+00 -0.32448284933E+03  0.32448284933E+03  0.00000000000E+00 0.  1.
         23    2    1    2    0    0 -0.58349832654E+03  0.31590899813E+03  0.18574438403E+04  0.19745450861E+04  0.91988503960E+02 0.  0.
        254    2    1    2    0    0  0.58349832654E+03 -0.31590899813E+03  0.91170269714E+03  0.14435671500E+04  0.90134095466E+03 0.  0.
        -24    2    4    4    0    0  0.60975455629E+03  0.15869081505E+03  0.56414920999E+03  0.84953934822E+03  0.80432452097E+02 0.  0.
         24    2    4    4    0    0 -0.26256229751E+02 -0.47459981317E+03  0.34755348715E+03  0.59402780182E+03  0.78366004375E+02 0.  0.
         13    1    3    3    0    0 -0.52230633010E+03  0.24737685890E+03  0.15925962810E+04  0.16942143096E+04  0.00000000000E+00 0.  1.
        -13    1    3    3    0    0 -0.61191996431E+02  0.68532139224E+02  0.26484755935E+03  0.28033077645E+03  0.00000000000E+00 0. -1.
          4    1    6    6  502    0 -0.48202114124E+01 -0.92644432437E+02  0.10923047197E+03  0.14330918082E+03  0.00000000000E+00 0. -1.
          1    1    5    5  503    0  0.28346289211E+03  0.37479887294E+02  0.22886608580E+03  0.36624532541E+03  0.00000000000E+00 0. -1.
         -2    1    5    5    0  503  0.32629166417E+03  0.12121092775E+03  0.33528312419E+03  0.48329402281E+03  0.00000000000E+00 0.  1.
         -3    1    6    6    0  502 -0.21436018339E+02 -0.38195538074E+03  0.23832301518E+03  0.45071862100E+03  0.00000000000E+00 0.  1.
<mgrwt>
<rscale>  0 0.20038260E+04</rscale>
<asrwt>0</asrwt>
<pdfrwt beam="1">  1        1 0.47594296E+00 0.20038260E+04</pdfrwt>
<pdfrwt beam="2">  1       -1 0.49920441E-01 0.20038260E+04</pdfrwt>
<totfact> 0.19090447E+00</totfact>
</mgrwt>
</event>
<event>
12    1  0.2588309E-007  0.1297030E+04  0.7818608E-02  0.9031924E-01
         -2   -1    0    0    0  501 -0.00000000000E+00  0.00000000000E+00  0.33495883619E+03  0.33495883619E+03  0.00000000000E+00 0.  1.
          2   -1    0    0  501    0  0.00000000000E+00 -0.00000000000E+00 -0.12555912727E+04  0.12555912727E+04  0.00000000000E+00 0. -1.
         23    2    1    2    0    0  0.38189653767E+02 -0.12631002609E+03 -0.61021183310E+03  0.63145966840E+03  0.94710924480E+02 0.  0.
        254    2    1    2    0    0 -0.38189653767E+02  0.12631002609E+03 -0.31042060337E+03  0.95909044046E+03  0.89782005415E+03 0.  0.
        -24    2    4    4    0    0 -0.43055700730E+03  0.14223597532E+02  0.35345715155E+01  0.43814438351E+03  0.79852115500E+02 0.  0.
         24    2    4    4    0    0  0.39236735353E+03  0.11208642856E+03 -0.31395517489E+03  0.52094605695E+03  0.79381577374E+02 0.  0.
         13    1    3    3    0    0 -0.31927634324E+02 -0.38065145352E+02 -0.18066220465E+03  0.18736905110E+03  0.00000000000E+00 0.  1.
        -13    1    3    3    0    0  0.70117288091E+02 -0.88244880737E+02 -0.42954962845E+03  0.44409061729E+03  0.00000000000E+00 0. -1.
          4    1    6    6  502    0  0.42380471220E+02  0.58084634369E+01 -0.67946655444E+01  0.43312931881E+02  0.00000000000E+00 0. -1.
          1    1    5    5  503    0 -0.80481191690E+02 -0.11080082587E+02 -0.27542486443E+02  0.85782160181E+02  0.00000000000E+00 0. -1.
         -2    1    5    5    0  503 -0.35007581561E+03  0.25303680119E+02  0.31077057958E+02  0.35236222333E+03  0.00000000000E+00 0.  1.
         -3    1    6    6    0  502  0.34998688231E+03  0.10627796512E+03 -0.30716050934E+03  0.47763312506E+03  0.00000000000E+00 0.  1.
<mgrwt>
<rscale>  0 0.12970295E+04</rscale>
<asrwt>0</asrwt>
<pdfrwt beam="1">  1        2 0.19316788E+00 0.12970295E+04</pdfrwt>
<pdfrwt beam="2">  1       -2 0.51532130E-01 0.12970295E+04</pdfrwt>
<totfact> 0.61204925E+01</totfact>
</mgrwt>
</event>
<event>
12    1  0.2588309E-007  0.2813966E+04  0.7818608E-02  0.8298946E-01
         -1   -1    0    0    0  501 -0.00000000000E+00  0.00000000000E+00  0.19225512091E+04  0.19225512091E+04  0.00000000000E+00 0.  1.
          1   -1    0    0  501    0  0.00000000000E+00 -0.00000000000E+00 -0.10296737383E+04  0.10296737383E+04  0.00000000000E+00 0. -1.
         23    2    1    2    0    0 -0.64833649206E+03  0.31434454764E+03 -0.68425572703E+03  0.99775769910E+03  0.90342816884E+02 0.  0.
        254    2    1    2    0    0  0.64833649206E+03 -0.31434454764E+03  0.15771331979E+04  0.19544672483E+04  0.90190930773E+03 0.  0.
        -24    2    4    4    0    0  0.34510995236E+03 -0.45342858159E+03  0.33489974827E+03  0.66581698266E+03  0.80349581159E+02 0.  0.
         24    2    4    4    0    0  0.30322653969E+03  0.13908403395E+03  0.12422334496E+04  0.12886502657E+04  0.78643887188E+02 0.  0.
         11    1    3    3    0    0 -0.17641998716E+03  0.60631191880E+02 -0.13363257257E+03  0.22947291289E+03  0.00000000000E+00 0.  1.
        -11    1    3    3    0    0 -0.47191650490E+03  0.25371335576E+03 -0.55062315446E+03  0.76828478620E+03  0.00000000000E+00 0. -1.
          4    1    6    6  502    0  0.37316315508E+02  0.44312642389E+02  0.27649619468E+03  0.28250002363E+03  0.00000000000E+00 0. -1.
          3    1    5    5  503    0  0.14551357928E+03 -0.13764488539E+03  0.14071363433E+03  0.24478693412E+03  0.00000000000E+00 0. -1.
         -2    1    5    5    0  503  0.19959637308E+03 -0.31578369619E+03  0.19418611394E+03  0.42103004854E+03  0.00000000000E+00 0.  1.
         -3    1    6    6    0  502  0.26591022419E+03  0.94771391556E+02  0.96573725493E+03  0.10061502420E+04  0.00000000000E+00 0.  1.
<mgrwt>
<rscale>  0 0.28139655E+04</rscale>
<asrwt>0</asrwt>
<pdfrwt beam="1">  1        1 0.15841134E+00 0.28139655E+04</pdfrwt>
<pdfrwt beam="2">  1       -1 0.29577711E+00 0.28139655E+04</pdfrwt>
<totfact> 0.43634010E-01</totfact>
</mgrwt>
</event>
<event>
12    1  0.2588309E-007  0.2544340E+04  0.7818608E-02  0.8387357E-01
          2   -1    0    0  501    0  0.00000000000E+00  0.00000000000E+00  0.44835945412E+04  0.44835945412E+04  0.00000000000E+00 0.  1.
         -2   -1    0    0    0  501 -0.00000000000E+00 -0.00000000000E+00 -0.36096413141E+03  0.36096413141E+03  0.00000000000E+00 0. -1.
         23    2    1    2    0    0 -0.64830537011E+03 -0.90075589571E+03  0.17218943053E+04  0.20502586515E+04  0.83543418064E+02 0.  0.
        254    2    1    2    0    0  0.64830537011E+03  0.90075589571E+03  0.24007361044E+04  0.27943000211E+04  0.90161950298E+03 0.  0.
        -24    2    4    4    0    0  0.54507089060E+02  0.87337960309E+02 -0.53943933230E+02  0.13995949901E+03  0.77972888634E+02 0.  0.
         24    2    4    4    0    0  0.59379828105E+03  0.81341793540E+03  0.24546800377E+04  0.26543405221E+04  0.76317649593E+02 0.  0.
         11    1    3    3    0    0 -0.48306485094E+03 -0.64923422375E+03  0.13174221090E+04  0.15461105202E+04  0.00000000000E+00 0.  1.
        -11    1    3    3    0    0 -0.16524051917E+03 -0.25152167196E+03  0.40447219634E+03  0.50414813127E+03  0.00000000000E+00 0. -1.
          2    1    6    6  502    0  0.30928072550E+03  0.46919837781E+03  0.12970045226E+04  0.14135142082E+04  0.00000000000E+00 0. -1.
          3    1    5    5  503    0  0.41412755799E+02  0.63503660020E+00 -0.18984723328E+02  0.45561379854E+02  0.00000000000E+00 0. -1.
         -4    1    5    5    0  503  0.13094333262E+02  0.86702923709E+02 -0.34959209901E+02  0.94398119156E+02  0.00000000000E+00 0.  1.
         -1    1    6    6    0  502  0.28451755555E+03  0.34421955759E+03  0.11576755150E+04  0.12408263139E+04  0.00000000000E+00 0.  1.
<mgrwt>
<rscale>  0 0.25443402E+04</rscale>
<asrwt>0</asrwt>
<pdfrwt beam="1">  1        2 0.68978374E+00 0.25443402E+04</pdfrwt>
<pdfrwt beam="2">  1       -2 0.55532946E-01 0.25443402E+04</pdfrwt>
<totfact> 0.34754415E-01</totfact>
</mgrwt>
</event>
<event>
12    1  0.2588309E-007  0.2106582E+04  0.7818608E-02  0.8558349E-01
         -2   -1    0    0    0  501 -0.00000000000E+00  0.00000000000E+00  0.34330805785E+03  0.34330805785E+03  0.00000000000E+00 0.  1.
          2   -1    0    0  501    0  0.00000000000E+00 -0.00000000000E+00 -0.32315640204E+04  0.32315640204E+04  0.00000000000E+00 0. -1.
         23    2    1    2    0    0 -0.20139401792E+03 -0.71812826932E+03 -0.46538468538E+03  0.88387846713E+03  0.91599550366E+02 0.  0.
        254    2    1    2    0    0  0.20139401792E+03  0.71812826932E+03 -0.24228712771E+04  0.26909936111E+04  0.90270351036E+03 0.  0.
        -24    2    4    4    0    0 -0.12761774412E+03  0.75114003219E+03 -0.12201239475E+04  0.14406688332E+04  0.79539948152E+02 0.  0.
         24    2    4    4    0    0  0.32901176204E+03 -0.33011762864E+02 -0.12027473297E+04  0.12503247778E+04  0.85862651747E+02 0.  0.
         11    1    3    3    0    0 -0.13253340027E+03 -0.33696019128E+03 -0.25719335633E+03  0.44413477148E+03  0.00000000000E+00 0. -1.
        -11    1    3    3    0    0 -0.68860617658E+02 -0.38116807804E+03 -0.20819132905E+03  0.43974369566E+03  0.00000000000E+00 0.  1.
          2    1    6    6  502    0  0.26196856714E+03 -0.44946269114E+02 -0.10493918747E+04  0.10825299090E+04  0.00000000000E+00 0. -1.
          1    1    5    5  503    0 -0.55424493158E+02  0.51050236497E+03 -0.85811399529E+03  0.10000220838E+04  0.00000000000E+00 0. -1.
         -2    1    5    5    0  503 -0.72193250959E+02  0.24063766722E+03 -0.36200995217E+03  0.44064674949E+03  0.00000000000E+00 0.  1.
         -1    1    6    6    0  502  0.67043194902E+02  0.11934506250E+02 -0.15335545498E+03  0.16779486879E+03  0.00000000000E+00 0.  1.
<mgrwt>
<rscale>  0 0.21065820E+04</rscale>
<asrwt>0</asrwt>
<pdfrwt beam="1">  1        2 0.49716367E+00 0.21065820E+04</pdfrwt>
<pdfrwt beam="2">  1       -2 0.52816627E-01 0.21065820E+04</pdfrwt>
<totfact> 0.38617607E+00</totfact>
</mgrwt>
</event>
<event>
12    1  0.2588309E-007  0.1869867E+04  0.7818608E-02  0.8670003E-01
          2   -1    0    0  501    0  0.00000000000E+00  0.00000000000E+00  0.19577494739E+04  0.19577494739E+04  0.00000000000E+00 0. -1.
         -2   -1    0    0    0  501 -0.00000000000E+00 -0.00000000000E+00 -0.44648233136E+03  0.44648233136E+03  0.00000000000E+00 0.  1.
         23    2    1    2    0    0 -0.57644758900E+03 -0.34011133507E+03  0.90152393472E+03  0.11274022652E+04  0.10160176914E+03 0.  0.
        254    2    1    2    0    0  0.57644758900E+03  0.34011133507E+03  0.60974320784E+03  0.12768295401E+04  0.90029959009E+03 0.  0.
        -24    2    4    4    0    0  0.94199490267E+02  0.71955627872E+01  0.67048537317E+03  0.68177425626E+03  0.79625252120E+02 0.  0.
         24    2    4    4    0    0  0.48224809873E+03  0.33291577229E+03 -0.60742165330E+02  0.59505528386E+03  0.83696117221E+02 0.  0.
         11    1    3    3    0    0 -0.21265804222E+03 -0.10757887261E+03  0.40017075340E+03  0.46576097800E+03  0.00000000000E+00 0. -1.
        -11    1    3    3    0    0 -0.36378954677E+03 -0.23253246247E+03  0.50135318133E+03  0.66164128716E+03  0.00000000000E+00 0.  1.
          4    1    6    6  502    0  0.47420594118E+03  0.30912399459E+03 -0.51936372876E+02  0.56844199837E+03  0.00000000000E+00 0. -1.
          1    1    5    5  503    0  0.44748166679E+02 -0.21651822575E+01  0.54099595907E+03  0.54284778176E+03  0.00000000000E+00 0. -1.
         -2    1    5    5    0  503  0.49451323588E+02  0.93607450447E+01  0.12948941410E+03  0.13892647450E+03  0.00000000000E+00 0.  1.
         -3    1    6    6    0  502  0.80421575469E+01  0.23791777693E+02 -0.88057924537E+01  0.26613285490E+02  0.00000000000E+00 0.  1.
<mgrwt>
<rscale>  0 0.18698669E+04</rscale>
<asrwt>0</asrwt>
<pdfrwt beam="1">  1        2 0.30119222E+00 0.18698669E+04</pdfrwt>
<pdfrwt beam="2">  1       -2 0.68689590E-01 0.18698669E+04</pdfrwt>
<totfact> 0.12825574E+01</totfact>
</mgrwt>
</event>
<event>
12    1  0.2588309E-007  0.1467328E+04  0.7818608E-02  0.8906475E-01
          1   -1    0    0  501    0  0.00000000000E+00  0.00000000000E+00  0.13701160063E+04  0.13701160063E+04  0.00000000000E+00 0. -1.
         -1   -1    0    0    0  501 -0.00000000000E+00 -0.00000000000E+00 -0.39285914377E+03  0.39285914377E+03  0.00000000000E+00 0.  1.
         23    2    1    2    0    0  0.43461809285E+03  0.19755209706E+02  0.44555021826E+03  0.62956927802E+03  0.92516614101E+02 0.  0.
        254    2    1    2    0    0 -0.43461809285E+03 -0.19755209706E+02  0.53170664430E+03  0.11334058721E+04  0.90145091954E+03 0.  0.
        -24    2    4    4    0    0  0.20838865476E+03  0.10422195678E+03  0.38564812032E+03  0.45768378430E+03  0.80386105709E+02 0.  0.
         24    2    4    4    0    0 -0.64300674761E+03 -0.12397716649E+03  0.14605852397E+03  0.67572208779E+03  0.80244826694E+02 0.  0.
         11    1    3    3    0    0  0.91546782367E+02  0.36451025727E+02  0.71528428072E+02  0.12176126913E+03  0.00000000000E+00 0.  1.
        -11    1    3    3    0    0  0.34307131049E+03 -0.16695816021E+02  0.37402179019E+03  0.50780800888E+03  0.00000000000E+00 0. -1.
          4    1    6    6  502    0 -0.20108838564E+03 -0.37748645766E+01  0.30817184852E+02  0.20347109703E+03  0.00000000000E+00 0. -1.
          3    1    5    5  503    0  0.40696960826E+02 -0.55036612254E+01  0.10572183432E+03  0.11341798429E+03  0.00000000000E+00 0. -1.
         -2    1    5    5    0  503  0.16769169393E+03  0.10972561801E+03  0.27992628600E+03  0.34426580001E+03  0.00000000000E+00 0.  1.
         -3    1    6    6    0  502 -0.44191836197E+03 -0.12020230191E+03  0.11524133912E+03  0.47225099076E+03  0.00000000000E+00 0.  1.
<mgrwt>
<rscale>  0 0.14673276E+04</rscale>
<asrwt>0</asrwt>
<pdfrwt beam="1">  1        1 0.21078708E+00 0.14673276E+04</pdfrwt>
<pdfrwt beam="2">  1       -1 0.60439869E-01 0.14673276E+04</pdfrwt>
<totfact> 0.21712247E+01</totfact>
</mgrwt>
</event>
<event>
12    1  0.2588309E-007  0.1634168E+04  0.7818608E-02  0.8799828E-01
         -1   -1    0    0    0  501 -0.00000000000E+00  0.00000000000E+00  0.14311206642E+04  0.14311206642E+04  0.00000000000E+00 0.  1.
          1   -1    0    0  501    0  0.00000000000E+00 -0.00000000000E+00 -0.46650606718E+03  0.46650606718E+03  0.00000000000E+00 0. -1.
         23    2    1    2    0    0 -0.43763076590E+03 -0.33037968463E+03  0.49355492965E+03  0.74347577550E+03  0.92132170798E+02 0.  0.
        254    2    1    2    0    0  0.43763076590E+03  0.33037968463E+03  0.47105966741E+03  0.11541509559E+04  0.89971984280E+03 0.  0.
        -24    2    4    4    0    0  0.59354971259E+03  0.55169919261E+02  0.24988322655E+02  0.60169402829E+03  0.77886495059E+02 0.  0.
         24    2    4    4    0    0 -0.15591894669E+03  0.27520976537E+03  0.44607134476E+03  0.55245692764E+03  0.78599487198E+02 0.  0.
         13    1    3    3    0    0 -0.11768480115E+03 -0.44443838876E+02  0.13225947003E+03  0.18253091423E+03  0.00000000000E+00 0.  1.
        -13    1    3    3    0    0 -0.31994596474E+03 -0.28593584576E+03  0.36129545962E+03  0.56094486127E+03  0.00000000000E+00 0. -1.
          4    1    6    6  502    0 -0.13665451503E+03  0.25542225935E+03  0.43516428919E+03  0.52276471346E+03  0.00000000000E+00 0. -1.
          3    1    5    5  503    0  0.20547746670E+03 -0.16008771509E+02 -0.33994660334E+01  0.20612817968E+03  0.00000000000E+00 0. -1.
         -4    1    5    5    0  503  0.38807224589E+03  0.71178690770E+02  0.28387788688E+02  0.39556584862E+03  0.00000000000E+00 0.  1.
         -1    1    6    6    0  502 -0.19264431661E+02  0.19787506021E+02  0.10907055566E+02  0.29692214179E+02  0.00000000000E+00 0.  1.
<mgrwt>
<rscale>  0 0.16341683E+04</rscale>
<asrwt>0</asrwt>
<pdfrwt beam="1">  1        1 0.71770165E-01 0.16341683E+04</pdfrwt>
<pdfrwt beam="2">  1       -1 0.22017241E+00 0.16341683E+04</pdfrwt>
<totfact> 0.51196320E+00</totfact>
</mgrwt>
</event>
<event>
12    1  0.2588309E-007  0.1152187E+04  0.7818608E-02  0.9155768E-01
          1   -1    0    0  501    0  0.00000000000E+00  0.00000000000E+00  0.12767947214E+04  0.12767947214E+04  0.00000000000E+00 0. -1.
         -1   -1    0    0    0  501 -0.00000000000E+00 -0.00000000000E+00 -0.25993513196E+03  0.25993513196E+03  0.00000000000E+00 0.  1.
         23    2    1    2    0    0  0.18067718005E+03 -0.22271796395E+02  0.64287128041E+02  0.21372776646E+03  0.91686678524E+02 0.  0.
        254    2    1    2    0    0 -0.18067718005E+03  0.22271796395E+02  0.95257246140E+03  0.13230020869E+04  0.89988885505E+03 0.  0.
        -24    2    4    4    0    0  0.80358951296E+02 -0.38633514244E+03  0.58062375056E+03  0.70677378492E+03  0.81809779344E+02 0.  0.
         24    2    4    4    0    0 -0.26103613134E+03  0.40860693884E+03  0.37194871084E+03  0.61622830199E+03  0.79322029396E+02 0.  0.
         11    1    3    3    0    0  0.11745997986E+03 -0.18847307059E+02  0.86005957403E+02  0.14679609177E+03  0.00000000000E+00 0. -1.
        -11    1    3    3    0    0  0.63217200192E+02 -0.34244893367E+01 -0.21718829362E+02  0.66931674685E+02  0.00000000000E+00 0.  1.
          2    1    6    6  502    0 -0.69275590293E+02  0.62069119629E+02  0.48630430291E+02  0.10496000082E+03  0.00000000000E+00 0. -1.
          1    1    5    5  503    0  0.52783782744E+02 -0.22678900091E+03  0.41032887114E+03  0.47179355776E+03  0.00000000000E+00 0. -1.
         -2    1    5    5    0  503  0.27575168552E+02 -0.15954614153E+03  0.17029487942E+03  0.23498022716E+03  0.00000000000E+00 0.  1.
         -1    1    6    6    0  502 -0.19176054105E+03  0.34653781921E+03  0.32331828055E+03  0.51126830117E+03  0.00000000000E+00 0.  1.
<mgrwt>
<rscale>  0 0.11521871E+04</rscale>
<asrwt>0</asrwt>
<pdfrwt beam="1">  1        1 0.19642995E+00 0.11521871E+04</pdfrwt>
<pdfrwt beam="2">  1       -1 0.39990021E-01 0.11521871E+04</pdfrwt>
<totfact> 0.56844690E+01</totfact>
</mgrwt>
</event>
<event>
12    1  0.2588309E-007  0.2588065E+04  0.7818608E-02  0.8372266E-01
         -2   -1    0    0    0  501 -0.00000000000E+00  0.00000000000E+00  0.16209021355E+04  0.16209021355E+04  0.00000000000E+00 0.  1.
          2   -1    0    0  501    0  0.00000000000E+00 -0.00000000000E+00 -0.10330793374E+04  0.10330793374E+04  0.00000000000E+00 0. -1.
         23    2    1    2    0    0  0.49087767105E+03  0.63870520533E+03  0.10791072240E+04  0.13499339257E+04  0.94572594495E+02 0.  0.
        254    2    1    2    0    0 -0.49087767105E+03 -0.63870520533E+03 -0.49128442582E+03  0.13040475472E+04  0.90015242660E+03 0.  0.
        -24    2    4    4    0    0 -0.60316745239E+03 -0.11560435290E+03 -0.44328388444E+03  0.76111949428E+03  0.75012934439E+02 0.  0.
         24    2    4    4    0    0  0.11228978134E+03 -0.52310085243E+03 -0.48000541382E+02  0.54292805295E+03  0.78888033976E+02 0.  0.
         13    1    3    3    0    0  0.32249664445E+03  0.42382186324E+03  0.78549485174E+03  0.94901592165E+03  0.00000000000E+00 0. -1.
        -13    1    3    3    0    0  0.16838102660E+03  0.21488334209E+03  0.29361237222E+03  0.40091800402E+03  0.00000000000E+00 0.  1.
          4    1    6    6  502    0  0.12002363686E+03 -0.49765220503E+03 -0.34454552725E+02  0.51307943516E+03  0.00000000000E+00 0. -1.
          1    1    5    5  503    0 -0.46748524316E+03 -0.11969997145E+03 -0.35712883555E+03  0.60034285281E+03  0.00000000000E+00 0. -1.
         -2    1    5    5    0  503 -0.13568220923E+03  0.40956185496E+01 -0.86155048895E+02  0.16077664147E+03  0.00000000000E+00 0.  1.
         -3    1    6    6    0  502 -0.77338555203E+01 -0.25448647393E+02 -0.13545988657E+02  0.29848617791E+02  0.00000000000E+00 0.  1.
<mgrwt>
<rscale>  0 0.25880653E+04</rscale>
<asrwt>0</asrwt>
<pdfrwt beam="1">  1        2 0.15893528E+00 0.25880653E+04</pdfrwt>
<pdfrwt beam="2">  1       -2 0.24936956E+00 0.25880653E+04</pdfrwt>
<totfact> 0.13772629E+00</totfact>
</mgrwt>
</event>
<event>
12    1  0.2588309E-007  0.2330826E+04  0.7818608E-02  0.8465865E-01
         -4   -1    0    0    0  501 -0.00000000000E+00  0.00000000000E+00  0.19288780954E+04  0.19288780954E+04  0.00000000000E+00 0. -1.
          4   -1    0    0  501    0  0.00000000000E+00 -0.00000000000E+00 -0.70413319537E+03  0.70413319537E+03  0.00000000000E+00 0.  1.
         23    2    1    2    0    0 -0.26518170837E+03  0.93690991203E+03  0.31985827327E+03  0.10286944063E+04  0.88211930968E+02 0.  0.
        254    2    1    2    0    0  0.26518170837E+03 -0.93690991203E+03  0.90488662674E+03  0.16043168845E+04  0.89827130475E+03 0.  0.
        -24    2    4    4    0    0  0.31315040594E+03 -0.10574758281E+04  0.93764058615E+03  0.14497727544E+04  0.79704874262E+02 0.  0.
         24    2    4    4    0    0 -0.47968697574E+02  0.12056591603E+03 -0.32753959405E+02  0.15454413009E+03  0.77291204126E+02 0.  0.
         11    1    3    3    0    0 -0.75682825220E+02  0.29177103544E+03  0.14185185838E+03  0.33313687409E+03  0.00000000000E+00 0. -1.
        -11    1    3    3    0    0 -0.18949888315E+03  0.64513887659E+03  0.17800641489E+03  0.69555753216E+03  0.00000000000E+00 0.  1.
          4    1    6    6  502    0 -0.12952341517E+02  0.11145507563E+03 -0.12032615176E+02  0.11284848631E+03  0.00000000000E+00 0. -1.
          1    1    5    5  503    0  0.30900030208E+03 -0.99983177458E+03  0.90413398661E+03  0.13829689186E+04  0.00000000000E+00 0. -1.
         -2    1    5    5    0  503  0.41501038680E+01 -0.57644053474E+02  0.33506599536E+02  0.66803835784E+02  0.00000000000E+00 0.  1.
         -3    1    6    6    0  502 -0.35016356056E+02  0.91108404025E+01 -0.20721344228E+02  0.41695643788E+02  0.00000000000E+00 0.  1.
<mgrwt>
<rscale>  0 0.23308257E+04</rscale>
<asrwt>0</asrwt>
<pdfrwt beam="1">  1        4 0.10832818E+00 0.23308257E+04</pdfrwt>
<pdfrwt beam="2">  1       -4 0.29675047E+00 0.23308257E+04</pdfrwt>
<totfact> 0.39811213E-02</totfact>
</mgrwt>
</event>
<event>
12    1  0.3725988E-007  0.2145005E+04  0.7818608E-02  0.8541674E-01
          2   -1    0    0  501    0  0.00000000000E+00  0.00000000000E+00  0.15409345769E+04  0.15409345769E+04  0.00000000000E+00 0. -1.
         -2   -1    0    0    0  501 -0.00000000000E+00 -0.00000000000E+00 -0.74646988601E+03  0.74646988601E+03  0.00000000000E+00 0.  1.
         23    2    1    2    0    0 -0.40676779526E+03  0.67511751370E+03 -0.90751139156E+02  0.79855838798E+03  0.90642336679E+02 0.  0.
        254    2    1    2    0    0  0.40676779526E+03 -0.67511751370E+03  0.88521583009E+03  0.14888460750E+04  0.90100603358E+03 0.  0.
        -24    2    4    4    0    0  0.27355573234E+03  0.17022687165E+03  0.18597848078E+03  0.38051138980E+03  0.79943704757E+02 0.  0.
         24    2    4    4    0    0  0.13321206292E+03 -0.84534438536E+03  0.69923734931E+03  0.11083346852E+04  0.84381989224E+02 0.  0.
         11    1    3    3    0    0 -0.13588985376E+03  0.20642064058E+03 -0.69834705363E+02  0.25681203103E+03  0.00000000000E+00 0.  1.
        -11    1    3    3    0    0 -0.27087794150E+03  0.46869687313E+03 -0.20916433794E+02  0.54174635695E+03  0.00000000000E+00 0. -1.
          2    1    6    6  502    0  0.11605884298E+03 -0.62522730820E+03  0.47571069755E+03  0.79415332884E+03  0.00000000000E+00 0. -1.
          3    1    5    5  503    0  0.16408954740E+03  0.10943531012E+03  0.15673742901E+03  0.25192873659E+03  0.00000000000E+00 0. -1.
         -4    1    5    5    0  503  0.10946618494E+03  0.60791561536E+02  0.29241051762E+02  0.12858265321E+03  0.00000000000E+00 0.  1.
         -1    1    6    6    0  502  0.17153219936E+02 -0.22011707716E+03  0.22352665177E+03  0.31418135632E+03  0.00000000000E+00 0.  1.
<mgrwt>
<rscale>  0 0.21450047E+04</rscale>
<asrwt>0</asrwt>
<pdfrwt beam="1">  1        2 0.23706686E+00 0.21450047E+04</pdfrwt>
<pdfrwt beam="2">  1       -2 0.11484152E+00 0.21450047E+04</pdfrwt>
<totfact> 0.65395522E+00</totfact>
</mgrwt>
</event>
<event>
12    1  0.2588309E-007  0.1407866E+04  0.7818608E-02  0.8948144E-01
         -4   -1    0    0    0  501 -0.00000000000E+00  0.00000000000E+00  0.15966892827E+04  0.15966892827E+04  0.00000000000E+00 0. -1.
          4   -1    0    0  501    0  0.00000000000E+00 -0.00000000000E+00 -0.31034323325E+03  0.31034323325E+03  0.00000000000E+00 0.  1.
         23    2    1    2    0    0 -0.18841202696E+03  0.33926688670E+03  0.56862387556E+03  0.69394170193E+03  0.87297545864E+02 0.  0.
        254    2    1    2    0    0  0.18841202696E+03 -0.33926688670E+03  0.71772217386E+03  0.12130908140E+04  0.89769877565E+03 0.  0.
        -24    2    4    4    0    0 -0.25343932486E+03  0.18687677426E+02  0.55609664508E+03  0.61658298345E+03  0.79689247298E+02 0.  0.
         24    2    4    4    0    0  0.44185135182E+03 -0.35795456413E+03  0.16162552878E+03  0.59650783054E+03  0.79590786259E+02 0.  0.
         11    1    3    3    0    0 -0.98509981732E+02  0.17477014536E+03  0.36956393747E+03  0.42050722240E+03  0.00000000000E+00 0. -1.
        -11    1    3    3    0    0 -0.89902045227E+02  0.16449674134E+03  0.19905993808E+03  0.27343447953E+03  0.00000000000E+00 0.  1.
          2    1    6    6  502    0  0.76838810228E+02 -0.10238703496E+03  0.24874516061E+02  0.13040724379E+03  0.00000000000E+00 0. -1.
          1    1    5    5  503    0 -0.13298668566E+03  0.18126619647E+02  0.38188318367E+03  0.40478240929E+03  0.00000000000E+00 0. -1.
         -2    1    5    5    0  503 -0.12045263920E+03  0.56105777819E+00  0.17421346141E+03  0.21180057416E+03  0.00000000000E+00 0.  1.
         -1    1    6    6    0  502  0.36501254159E+03 -0.25556752917E+03  0.13675101272E+03  0.46610058674E+03  0.00000000000E+00 0.  1.
<mgrwt>
<rscale>  0 0.14078661E+04</rscale>
<asrwt>0</asrwt>
<pdfrwt beam="1">  1        4 0.47745114E-01 0.14078661E+04</pdfrwt>
<pdfrwt beam="2">  1       -4 0.24564450E+00 0.14078661E+04</pdfrwt>
<totfact> 0.55690647E-01</totfact>
</mgrwt>
</event>
<event>
12    1  0.2588309E-007  0.2298010E+04  0.7818608E-02  0.8478706E-01
          2   -1    0    0  501    0  0.00000000000E+00  0.00000000000E+00  0.39903615425E+04  0.39903615425E+04  0.00000000000E+00 0. -1.
         -2   -1    0    0    0  501 -0.00000000000E+00 -0.00000000000E+00 -0.33085029862E+03  0.33085029862E+03  0.00000000000E+00 0.  1.
         23    2    1    2    0    0  0.53651960304E+03  0.40865844277E+03  0.28357157893E+04  0.29160959914E+04  0.86468411445E+02 0.  0.
        254    2    1    2    0    0 -0.53651960304E+03 -0.40865844277E+03  0.82379545456E+03  0.14051158497E+04  0.91698232959E+03 0.  0.
        -24    2    4    4    0    0 -0.57817822343E+03 -0.52634918975E+01  0.80071830278E+03  0.99086157151E+03  0.79618409306E+02 0.  0.
         24    2    4    4    0    0  0.41658620396E+02 -0.40339495087E+03  0.23077151787E+02  0.41425427817E+03  0.81308824895E+02 0.  0.
         11    1    3    3    0    0  0.42334995054E+03  0.33631491085E+03  0.23999168935E+04  0.24600678844E+04  0.00000000000E+00 0. -1.
        -11    1    3    3    0    0  0.11316965250E+03  0.72343531921E+02  0.43579889576E+03  0.45602810703E+03  0.00000000000E+00 0.  1.
          4    1    6    6  502    0  0.33466739245E+02 -0.15796298496E+03  0.45241089891E+02  0.16768745770E+03  0.00000000000E+00 0. -1.
          1    1    5    5  503    0 -0.24272116681E+03 -0.25344738255E+02  0.28367419307E+03  0.37420177497E+03  0.00000000000E+00 0. -1.
         -2    1    5    5    0  503 -0.33545705662E+03  0.20081246357E+02  0.51704410970E+03  0.61665979654E+03  0.00000000000E+00 0.  1.
         -3    1    6    6    0  502  0.81918811516E+01 -0.24543196591E+03 -0.22163938103E+02  0.24656682047E+03  0.00000000000E+00 0.  1.
<mgrwt>
<rscale>  0 0.22980098E+04</rscale>
<asrwt>0</asrwt>
<pdfrwt beam="1">  1        2 0.61390174E+00 0.22980098E+04</pdfrwt>
<pdfrwt beam="2">  1       -2 0.50900049E-01 0.22980098E+04</pdfrwt>
<totfact> 0.11590388E+00</totfact>
</mgrwt>
</event>
<event>
12    1  0.2588309E-007  0.2226370E+04  0.7818608E-02  0.8507532E-01
         -2   -1    0    0    0  501 -0.00000000000E+00  0.00000000000E+00  0.68914668143E+03  0.68914668143E+03  0.00000000000E+00 0. -1.
          2   -1    0    0  501    0  0.00000000000E+00 -0.00000000000E+00 -0.17981382763E+04  0.17981382763E+04  0.00000000000E+00 0.  1.
         23    2    1    2    0    0 -0.67990448834E+03  0.25414405618E+03  0.18082401064E+03  0.75404032404E+03  0.94974590796E+02 0.  0.
        254    2    1    2    0    0  0.67990448834E+03 -0.25414405618E+03 -0.12898156055E+04  0.17332446337E+04  0.90202735514E+03 0.  0.
        -24    2    4    4    0    0  0.65255540929E+03 -0.23210923745E+03 -0.33326283091E+03  0.77275322274E+03  0.79875956823E+02 0.  0.
         24    2    4    4    0    0  0.27349079048E+02 -0.22034818735E+02 -0.95655277455E+03  0.96049141091E+03  0.79479774611E+02 0.  0.
         13    1    3    3    0    0 -0.20444861890E+02 -0.73735862751E+01 -0.76487923286E+00  0.21747349091E+02  0.00000000000E+00 0.  1.
        -13    1    3    3    0    0 -0.65945962645E+03  0.26151764246E+03  0.18158888987E+03  0.73229297495E+03  0.00000000000E+00 0. -1.
          4    1    6    6  502    0 -0.19168778001E+02  0.17203826960E+02 -0.25046489538E+03  0.25178577706E+03  0.00000000000E+00 0. -1.
          3    1    5    5  503    0  0.45534928232E+03 -0.14329077235E+03 -0.26481763437E+03  0.54589705423E+03  0.00000000000E+00 0. -1.
         -4    1    5    5    0  503  0.19720612697E+03 -0.88818465099E+02 -0.68445196545E+02  0.22685616850E+03  0.00000000000E+00 0.  1.
         -3    1    6    6    0  502  0.46517857048E+02 -0.39238645695E+02 -0.70608787917E+03  0.70870563385E+03  0.00000000000E+00 0.  1.
<mgrwt>
<rscale>  0 0.22263702E+04</rscale>
<asrwt>0</asrwt>
<pdfrwt beam="1">  1        2 0.27663665E+00 0.22263702E+04</pdfrwt>
<pdfrwt beam="2">  1       -2 0.10602257E+00 0.22263702E+04</pdfrwt>
<totfact> 0.56654677E+00</totfact>
</mgrwt>
</event>
<event>
12    1  0.2588309E-007  0.2761195E+04  0.7818608E-02  0.8315418E-01
         -2   -1    0    0    0  501 -0.00000000000E+00  0.00000000000E+00  0.11567296302E+04  0.11567296302E+04  0.00000000000E+00 0.  1.
          2   -1    0    0  501    0  0.00000000000E+00 -0.00000000000E+00 -0.16477917476E+04  0.16477917476E+04  0.00000000000E+00 0. -1.
         23    2    1    2    0    0 -0.54643857032E+03  0.29305997948E+03  0.86188142714E+03  0.10656858437E+04  0.91473822976E+02 0.  0.
        254    2    1    2    0    0  0.54643857032E+03 -0.29305997948E+03 -0.13529435445E+04  0.17388355341E+04  0.89922940180E+03 0.  0.
        -24    2    4    4    0    0  0.75281562909E+03 -0.47298391446E+02 -0.10158909005E+04  0.12678449878E+04  0.80175320647E+02 0.  0.
         24    2    4    4    0    0 -0.20637705877E+03 -0.24576158804E+03 -0.33705264401E+03  0.47099054627E+03  0.72369615862E+02 0.  0.
         11    1    3    3    0    0 -0.11385883546E+03  0.38061513432E+02  0.11919373156E+03  0.16917345791E+03  0.00000000000E+00 0. -1.
        -11    1    3    3    0    0 -0.43257973485E+03  0.25499846605E+03  0.74268769558E+03  0.89651238578E+03  0.00000000000E+00 0.  1.
          4    1    6    6  502    0 -0.78800187770E+02 -0.73945998413E+02 -0.69922414232E+02  0.12871139921E+03  0.00000000000E+00 0. -1.
          3    1    5    5  503    0  0.50364919846E+03 -0.11204068080E+02 -0.72922221532E+03  0.88631432662E+03  0.00000000000E+00 0. -1.
         -4    1    5    5    0  503  0.24916643063E+03 -0.36094323366E+02 -0.28666868521E+03  0.38153066117E+03  0.00000000000E+00 0.  1.
         -3    1    6    6    0  502 -0.12757687100E+03 -0.17181558962E+03 -0.26713022978E+03  0.34227914706E+03  0.00000000000E+00 0.  1.
<mgrwt>
<rscale>  0 0.27611951E+04</rscale>
<asrwt>0</asrwt>
<pdfrwt beam="1">  1        2 0.25350642E+00 0.27611951E+04</pdfrwt>
<pdfrwt beam="2">  1       -2 0.17795841E+00 0.27611951E+04</pdfrwt>
<totfact> 0.17151540E+00</totfact>
</mgrwt>
</event>
<event>
12    1  0.2588309E-007  0.1477283E+04  0.7818608E-02  0.8899702E-01
         -2   -1    0    0    0  501 -0.00000000000E+00  0.00000000000E+00  0.16911716490E+04  0.16911716490E+04  0.00000000000E+00 0. -1.
          2   -1    0    0  501    0  0.00000000000E+00 -0.00000000000E+00 -0.32261130226E+03  0.32261130226E+03  0.00000000000E+00 0.  1.
         23    2    1    2    0    0  0.61595835975E+02 -0.43783779372E+03  0.59831268447E+03  0.74944938185E+03  0.90555656521E+02 0.  0.
        254    2    1    2    0    0 -0.61595835975E+02  0.43783779372E+03  0.77024766229E+03  0.12643335694E+04  0.89986773080E+03 0.  0.
        -24    2    4    4    0    0  0.21497121299E+03  0.20818914081E+03  0.83442343051E+03  0.89044626274E+03  0.84123389599E+02 0.  0.
         24    2    4    4    0    0 -0.27656704896E+03  0.22964865291E+03 -0.64175768219E+02  0.37388730670E+03  0.80282952926E+02 0.  0.
         13    1    3    3    0    0  0.70349379803E+02 -0.18575813167E+03  0.28050653925E+03  0.34371359775E+03  0.00000000000E+00 0. -1.
        -13    1    3    3    0    0 -0.87535438279E+01 -0.25207966206E+03  0.31780614522E+03  0.40573578409E+03  0.00000000000E+00 0.  1.
          4    1    6    6  502    0 -0.74293597750E+01  0.10787686605E+01 -0.15795466141E+02  0.17488735778E+02  0.00000000000E+00 0. -1.
          3    1    5    5  503    0  0.13067518002E+03  0.69643361153E+02  0.37054434705E+03  0.39903547907E+03  0.00000000000E+00 0. -1.
         -4    1    5    5    0  503  0.84296032968E+02  0.13854577966E+03  0.46387908345E+03  0.49141078366E+03  0.00000000000E+00 0.  1.
         -3    1    6    6    0  502 -0.26913768919E+03  0.22856988425E+03 -0.48380302078E+02  0.35639857093E+03  0.00000000000E+00 0.  1.
<mgrwt>
<rscale>  0 0.14772828E+04</rscale>
<asrwt>0</asrwt>
<pdfrwt beam="1">  1        2 0.49632509E-01 0.14772828E+04</pdfrwt>
<pdfrwt beam="2">  1       -2 0.26018025E+00 0.14772828E+04</pdfrwt>
<totfact> 0.54595425E+00</totfact>
</mgrwt>
</event>
<event>
12    1  0.2588309E-007  0.2554627E+04  0.7818608E-02  0.8383779E-01
         -1   -1    0    0    0  501 -0.00000000000E+00  0.00000000000E+00  0.80234092816E+03  0.80234092816E+03  0.00000000000E+00 0.  1.
          1   -1    0    0  501    0  0.00000000000E+00 -0.00000000000E+00 -0.20334623992E+04  0.20334623992E+04  0.00000000000E+00 0. -1.
         23    2    1    2    0    0 -0.41319798490E+01 -0.98549829356E+03 -0.11156047667E+04  0.14915460257E+04  0.94401225096E+02 0.  0.
        254    2    1    2    0    0  0.41319798490E+01  0.98549829356E+03 -0.11551670428E+03  0.13442573017E+04  0.90689559719E+03 0.  0.
        -24    2    4    4    0    0 -0.31579052462E+03  0.87668212924E+03  0.91660356565E+02  0.93977108179E+03  0.80454049286E+02 0.  0.
         24    2    4    4    0    0  0.31992250446E+03  0.10881616432E+03 -0.20717706085E+03  0.40448621986E+03  0.80594050868E+02 0.  0.
         13    1    3    3    0    0  0.32518077144E+02 -0.34015157681E+03 -0.43074344799E+03  0.54981855055E+03  0.00000000000E+00 0. -1.
        -13    1    3    3    0    0 -0.36650056993E+02 -0.64534671675E+03 -0.68486131875E+03  0.94172747513E+03  0.00000000000E+00 0.  1.
          2    1    6    6  502    0  0.25860189975E+03  0.10614287105E+03 -0.13715949745E+03  0.31137433961E+03  0.00000000000E+00 0. -1.
          3    1    5    5  503    0 -0.27996791510E+03  0.68627929879E+03  0.62107103331E+02  0.74378666412E+03  0.00000000000E+00 0. -1.
         -4    1    5    5    0  503 -0.35822609513E+02  0.19040283045E+03  0.29553253234E+02  0.19598441768E+03  0.00000000000E+00 0.  1.
         -1    1    6    6    0  502  0.61320604718E+02  0.26732932730E+01 -0.70017563392E+02  0.93111880248E+02  0.00000000000E+00 0.  1.
<mgrwt>
<rscale>  0 0.25546273E+04</rscale>
<asrwt>0</asrwt>
<pdfrwt beam="1">  1        1 0.31284036E+00 0.25546273E+04</pdfrwt>
<pdfrwt beam="2">  1       -1 0.12343707E+00 0.25546273E+04</pdfrwt>
<totfact> 0.14436361E+00</totfact>
</mgrwt>
</event>
<event>
12    1  0.2588309E-007  0.1294148E+04  0.7818608E-02  0.9034219E-01
         -1   -1    0    0    0  501 -0.00000000000E+00  0.00000000000E+00  0.67324252686E+03  0.67324252686E+03  0.00000000000E+00 0.  1.
          1   -1    0    0  501    0  0.00000000000E+00 -0.00000000000E+00 -0.62192237758E+03  0.62192237758E+03  0.00000000000E+00 0. -1.
         23    2    1    2    0    0  0.25376758252E+03  0.11196727017E+03 -0.15550800284E+03  0.33069303940E+03  0.90777154800E+02 0.  0.
        254    2    1    2    0    0 -0.25376758252E+03 -0.11196727017E+03  0.20682815211E+03  0.96447186503E+03  0.90027409071E+03 0.  0.
        -24    2    4    4    0    0  0.32417143417E+03 -0.35854249995E+02  0.16826325388E+03  0.37487833038E+03  0.76476100915E+02 0.  0.
         24    2    4    4    0    0 -0.57793901669E+03 -0.76113020171E+02  0.38564898235E+02  0.58959353465E+03  0.79539838303E+02 0.  0.
         11    1    3    3    0    0  0.14250606741E+03  0.10478775097E+03 -0.11974207458E+03  0.21360387737E+03  0.00000000000E+00 0.  1.
        -11    1    3    3    0    0  0.11126151512E+03  0.71795191979E+01 -0.35765928252E+02  0.11708916203E+03  0.00000000000E+00 0. -1.
          4    1    6    6  502    0 -0.15164531910E+03 -0.24027153539E+02 -0.24646535640E+02  0.15550260008E+03  0.00000000000E+00 0. -1.
          3    1    5    5  503    0  0.22419450354E+02  0.17612836105E+02  0.15774632448E+02  0.32583474012E+02  0.00000000000E+00 0. -1.
         -4    1    5    5    0  503  0.30175198381E+03 -0.53467086100E+02  0.15248862143E+03  0.34229485637E+03  0.00000000000E+00 0.  1.
         -3    1    6    6    0  502 -0.42629369759E+03 -0.52085866632E+02  0.63211433875E+02  0.43409093457E+03  0.00000000000E+00 0.  1.
<mgrwt>
<rscale>  0 0.12941477E+04</rscale>
<asrwt>0</asrwt>
<pdfrwt beam="1">  1        1 0.95680366E-01 0.12941477E+04</pdfrwt>
<pdfrwt beam="2">  1       -1 0.10357577E+00 0.12941477E+04</pdfrwt>
<totfact> 0.28094525E+01</totfact>
</mgrwt>
</event>
<event>
12    1  0.2588309E-007  0.2370456E+04  0.7818608E-02  0.8450648E-01
          1   -1    0    0  501    0  0.00000000000E+00  0.00000000000E+00  0.95865248209E+03  0.95865248209E+03  0.00000000000E+00 0. -1.
         -1   -1    0    0    0  501 -0.00000000000E+00 -0.00000000000E+00 -0.14653543875E+04  0.14653543875E+04  0.00000000000E+00 0.  1.
         23    2    1    2    0    0  0.41668960600E+03 -0.76143072420E+03 -0.74984761760E+03  0.11506697762E+04  0.91446753208E+02 0.  0.
        254    2    1    2    0    0 -0.41668960600E+03  0.76143072420E+03  0.24314571217E+03  0.12733370934E+04  0.89936674425E+03 0.  0.
        -24    2    4    4    0    0 -0.39336582059E+03 -0.63764044162E+02  0.16708622770E+03  0.44037000796E+03  0.84884711759E+02 0.  0.
         24    2    4    4    0    0 -0.23323785411E+02  0.82519476837E+03  0.76059484467E+02  0.83296708547E+03  0.80985897532E+02 0.  0.
         13    1    3    3    0    0  0.13280719744E+03 -0.16530650399E+03 -0.16612990867E+03  0.26937546010E+03  0.00000000000E+00 0. -1.
        -13    1    3    3    0    0  0.28388240856E+03 -0.59612422022E+03 -0.58371770894E+03  0.88129431608E+03  0.00000000000E+00 0.  1.
          4    1    6    6  502    0 -0.35094781148E+02  0.41444149819E+03  0.71463625963E+02  0.42201948879E+03  0.00000000000E+00 0. -1.
          3    1    5    5  503    0 -0.86873946873E+02  0.14409391747E+02  0.14727882690E+02  0.89283950094E+02  0.00000000000E+00 0. -1.
         -4    1    5    5    0  503 -0.30649187372E+03 -0.78173435909E+02  0.15235834501E+03  0.35108605787E+03  0.00000000000E+00 0.  1.
         -3    1    6    6    0  502  0.11770995737E+02  0.41075327018E+03  0.45958585040E+01  0.41094759668E+03  0.00000000000E+00 0.  1.
<mgrwt>
<rscale>  0 0.23704562E+04</rscale>
<asrwt>0</asrwt>
<pdfrwt beam="1">  1        1 0.14748500E+00 0.23704562E+04</pdfrwt>
<pdfrwt beam="2">  1       -1 0.22543914E+00 0.23704562E+04</pdfrwt>
<totfact> 0.14833088E+00</totfact>
</mgrwt>
</event>
<event>
12    1  0.2588309E-007  0.2305239E+04  0.7818608E-02  0.8475858E-01
         -1   -1    0    0    0  501 -0.00000000000E+00  0.00000000000E+00  0.46855635025E+03  0.46855635025E+03  0.00000000000E+00 0.  1.
          1   -1    0    0  501    0  0.00000000000E+00 -0.00000000000E+00 -0.28353713233E+04  0.28353713233E+04  0.00000000000E+00 0. -1.
         23    2    1    2    0    0 -0.93513516863E+03  0.27158781884E+03 -0.94881211144E+03  0.13626731283E+04  0.91629170675E+02 0.  0.
        254    2    1    2    0    0  0.93513516863E+03 -0.27158781884E+03 -0.14180028616E+04  0.19412545453E+04  0.89972182752E+03 0.  0.
        -24    2    4    4    0    0  0.90353616933E+03 -0.24108393649E+03 -0.59092089023E+03  0.11091240101E+04  0.80433186867E+02 0.  0.
         24    2    4    4    0    0  0.31598999292E+02 -0.30503882352E+02 -0.82708197142E+03  0.83213053516E+03  0.80297300712E+02 0.  0.
         13    1    3    3    0    0 -0.55434260509E+03  0.13738421066E+03 -0.60969291739E+03  0.83540145958E+03  0.00000000000E+00 0. -1.
        -13    1    3    3    0    0 -0.38079256353E+03  0.13420360819E+03 -0.33911919405E+03  0.52727166875E+03  0.00000000000E+00 0.  1.
          2    1    6    6  502    0  0.22229712268E+02  0.77824525687E+01 -0.66854819455E+02  0.70882251374E+02  0.00000000000E+00 0. -1.
          3    1    5    5  503    0  0.18731884161E+03 -0.68654622598E+02 -0.15939396574E+03  0.25535904515E+03  0.00000000000E+00 0. -1.
         -4    1    5    5    0  503  0.71621732772E+03 -0.17242931389E+03 -0.43152692449E+03  0.85376496495E+03  0.00000000000E+00 0.  1.
         -1    1    6    6    0  502  0.93692870243E+01 -0.38286334920E+02 -0.76022715196E+03  0.76124828378E+03  0.00000000000E+00 0.  1.
<mgrwt>
<rscale>  0 0.23052386E+04</rscale>
<asrwt>0</asrwt>
<pdfrwt beam="1">  1        1 0.43621097E+00 0.23052386E+04</pdfrwt>
<pdfrwt beam="2">  1       -1 0.72085593E-01 0.23052386E+04</pdfrwt>
<totfact> 0.13797547E+00</totfact>
</mgrwt>
</event>
<event>
12    1  0.2715073E-007  0.2102745E+04  0.7818608E-02  0.8560035E-01
         -2   -1    0    0    0  501 -0.00000000000E+00  0.00000000000E+00  0.47110949290E+03  0.47110949290E+03  0.00000000000E+00 0.  1.
          2   -1    0    0  501    0  0.00000000000E+00 -0.00000000000E+00 -0.23463416291E+04  0.23463416291E+04  0.00000000000E+00 0. -1.
         23    2    1    2    0    0  0.58426986824E+03 -0.57144932328E+03 -0.42739410621E+03  0.92670396205E+03  0.90492559043E+02 0.  0.
        254    2    1    2    0    0 -0.58426986824E+03  0.57144932328E+03 -0.14478380300E+04  0.18907471600E+04  0.90042448535E+03 0.  0.
        -24    2    4    4    0    0  0.53395248733E+01  0.10914218380E+03  0.10060308317E+03  0.16875755609E+03  0.80109959340E+02 0.  0.
         24    2    4    4    0    0 -0.58960939311E+03  0.46230713948E+03 -0.15484411132E+04  0.17219896039E+04  0.78811085731E+02 0.  0.
         11    1    3    3    0    0  0.13969599992E+03 -0.86208850789E+02 -0.85204664093E+02  0.18495073163E+03  0.00000000000E+00 0.  1.
        -11    1    3    3    0    0  0.44457386832E+03 -0.48524047249E+03 -0.34218944212E+03  0.74175323042E+03  0.00000000000E+00 0. -1.
          2    1    6    6  502    0 -0.16816798571E+03  0.15364413914E+03 -0.39973107466E+03  0.46007817266E+03  0.00000000000E+00 0. -1.
          3    1    5    5  503    0  0.20634892507E+02 -0.19696218301E+01  0.48605872360E+01  0.21290925466E+02  0.00000000000E+00 0. -1.
         -4    1    5    5    0  503 -0.15295367634E+02  0.11111180563E+03  0.95742495935E+02  0.14746663063E+03  0.00000000000E+00 0.  1.
         -1    1    6    6    0  502 -0.42144140740E+03  0.30866300034E+03 -0.11487100385E+04  0.12619114312E+04  0.00000000000E+00 0.  1.
<mgrwt>
<rscale>  0 0.21027447E+04</rscale>
<asrwt>0</asrwt>
<pdfrwt beam="1">  1        2 0.36097563E+00 0.21027447E+04</pdfrwt>
<pdfrwt beam="2">  1       -2 0.72478384E-01 0.21027447E+04</pdfrwt>
<totfact> 0.67705269E+00</totfact>
</mgrwt>
</event>
<event>
12    1  0.2588309E-007  0.1206714E+04  0.7818608E-02  0.9107000E-01
          2   -1    0    0  501    0  0.00000000000E+00  0.00000000000E+00  0.17506416299E+04  0.17506416299E+04  0.00000000000E+00 0. -1.
         -2   -1    0    0    0  501 -0.00000000000E+00 -0.00000000000E+00 -0.20794639944E+03  0.20794639944E+03  0.00000000000E+00 0.  1.
         23    2    1    2    0    0  0.17935807806E+03 -0.10507390279E+02  0.64648984225E+03  0.67701373249E+03  0.90104119935E+02 0.  0.
        254    2    1    2    0    0 -0.17935807806E+03  0.10507390279E+02  0.89620538818E+03  0.12815742968E+04  0.89831445223E+03 0.  0.
        -24    2    4    4    0    0 -0.84101693753E+02 -0.28642175773E+02  0.10641305371E+04  0.10706633656E+04  0.77799570930E+02 0.  0.
         24    2    4    4    0    0 -0.95256384307E+02  0.39149566052E+02 -0.16792514894E+03  0.21091093126E+03  0.75353155240E+02 0.  0.
         13    1    3    3    0    0  0.69342414722E+02 -0.28560425388E+01  0.41299325656E+03  0.41878390302E+03  0.00000000000E+00 0. -1.
        -13    1    3    3    0    0  0.11001566334E+03 -0.76513477402E+01  0.23349658569E+03  0.25822982947E+03  0.00000000000E+00 0.  1.
          2    1    6    6  502    0 -0.30720507020E+02  0.28992503342E+02 -0.12695214343E+03  0.13379522235E+03  0.00000000000E+00 0. -1.
          3    1    5    5  503    0 -0.96266554028E+02 -0.30204061131E+02  0.81347407723E+03  0.81970702636E+03  0.00000000000E+00 0. -1.
         -4    1    5    5    0  503  0.12164860276E+02  0.15618853575E+01  0.25065645989E+03  0.25095633922E+03  0.00000000000E+00 0.  1.
         -1    1    6    6    0  502 -0.64535877286E+02  0.10157062710E+02 -0.40973005504E+02  0.77115708906E+02  0.00000000000E+00 0.  1.
<mgrwt>
<rscale>  0 0.12067139E+04</rscale>
<asrwt>0</asrwt>
<pdfrwt beam="1">  1        2 0.26932947E+00 0.12067139E+04</pdfrwt>
<pdfrwt beam="2">  1       -2 0.31991755E-01 0.12067139E+04</pdfrwt>
<totfact> 0.82390989E+01</totfact>
</mgrwt>
</event>
<event>
12    1  0.2588309E-007  0.1830769E+04  0.7818608E-02  0.8690106E-01
          3   -1    0    0  501    0  0.00000000000E+00  0.00000000000E+00  0.14014925846E+04  0.14014925846E+04  0.00000000000E+00 0. -1.
         -3   -1    0    0    0  501 -0.00000000000E+00 -0.00000000000E+00 -0.59788340804E+03  0.59788340804E+03  0.00000000000E+00 0.  1.
         23    2    1    2    0    0  0.57305456398E+03  0.71691808768E+02  0.72277414465E+03  0.92969296254E+03  0.91625824288E+02 0.  0.
        254    2    1    2    0    0 -0.57305456398E+03 -0.71691808768E+02  0.80835031945E+02  0.10696830301E+04  0.89674758645E+03 0.  0.
        -24    2    4    4    0    0 -0.16141654940E+03 -0.33609019765E+03  0.33973448356E+03  0.51043890615E+03  0.78207635227E+02 0.  0.
         24    2    4    4    0    0 -0.41163801458E+03  0.26439838889E+03 -0.25889945162E+03  0.55924412398E+03  0.79829199359E+02 0.  0.
         13    1    3    3    0    0  0.18427981472E+03  0.12176228134E+01  0.17376368248E+03  0.25328709021E+03  0.00000000000E+00 0. -1.
        -13    1    3    3    0    0  0.38877474927E+03  0.70474185954E+02  0.54901046217E+03  0.67640587233E+03  0.00000000000E+00 0.  1.
          2    1    6    6  502    0 -0.41467615652E+03  0.25836415828E+03 -0.25772730890E+03  0.55238729060E+03  0.00000000000E+00 0. -1.
          1    1    5    5  503    0 -0.97207230719E+02 -0.23899990226E+03  0.27565104480E+03  0.37756283911E+03  0.00000000000E+00 0. -1.
         -2    1    5    5    0  503 -0.64209318683E+02 -0.97090295398E+02  0.64083438765E+02  0.13287606703E+03  0.00000000000E+00 0.  1.
         -1    1    6    6    0  502  0.30381419386E+01  0.60342306077E+01 -0.11721427198E+01  0.68568333815E+01  0.00000000000E+00 0.  1.
<mgrwt>
<rscale>  0 0.18307694E+04</rscale>
<asrwt>0</asrwt>
<pdfrwt beam="1">  1        3 0.21561424E+00 0.18307694E+04</pdfrwt>
<pdfrwt beam="2">  1       -3 0.91982063E-01 0.18307694E+04</pdfrwt>
<totfact> 0.30803450E-01</totfact>
</mgrwt>
</event>
<event>
12    1  0.2588309E-007  0.2990257E+04  0.7818608E-02  0.8246519E-01
          1   -1    0    0  501    0  0.00000000000E+00  0.00000000000E+00  0.20510138021E+04  0.20510138021E+04  0.00000000000E+00 0. -1.
         -1   -1    0    0    0  501 -0.00000000000E+00 -0.00000000000E+00 -0.10899043485E+04  0.10899043485E+04  0.00000000000E+00 0.  1.
         23    2    1    2    0    0  0.10969169545E+04  0.77976055416E+03  0.63093849248E+03  0.14890927108E+04  0.89779691773E+02 0.  0.
        254    2    1    2    0    0 -0.10969169545E+04 -0.77976055416E+03  0.33017096108E+03  0.16518254399E+04  0.89903342173E+03 0.  0.
        -24    2    4    4    0    0 -0.66826007417E+03 -0.48286501208E+03  0.63385836796E+03  0.10432190695E+04  0.82458775772E+02 0.  0.
         24    2    4    4    0    0 -0.42865688033E+03 -0.29689554209E+03 -0.30368740688E+03  0.60860637038E+03  0.79258999579E+02 0.  0.
         13    1    3    3    0    0  0.58452388938E+03  0.36209742556E+03  0.33369626155E+03  0.76428785011E+03  0.00000000000E+00 0. -1.
        -13    1    3    3    0    0  0.51239306511E+03  0.41766312860E+03  0.29724223093E+03  0.72480486065E+03  0.00000000000E+00 0.  1.
          4    1    6    6  502    0 -0.44208037518E+01 -0.16623710020E+02 -0.18331655459E+01  0.17298894085E+02  0.00000000000E+00 0. -1.
          3    1    5    5  503    0 -0.79460231381E+02 -0.92868947061E+02  0.99380313366E+02  0.15752782733E+03  0.00000000000E+00 0. -1.
         -4    1    5    5    0  503 -0.58879984279E+03 -0.38999606502E+03  0.53447805460E+03  0.88569124216E+03  0.00000000000E+00 0.  1.
         -3    1    6    6    0  502 -0.42423607657E+03 -0.28027183207E+03 -0.30185424133E+03  0.59130747630E+03  0.00000000000E+00 0.  1.
<mgrwt>
<rscale>  0 0.29902568E+04</rscale>
<asrwt>0</asrwt>
<pdfrwt beam="1">  1        1 0.31554058E+00 0.29902568E+04</pdfrwt>
<pdfrwt beam="2">  1       -1 0.16767759E+00 0.29902568E+04</pdfrwt>
<totfact> 0.59988220E-01</totfact>
</mgrwt>
</event>
