<event>
12    4  0.4183215E-008  0.1136534E+04  0.7818608E-02  0.9170297E-01
         -2   -1    0    0    0  501 -0.00000000000E+00  0.00000000000E+00  0.17203660087E+03  0.17203660087E+03  0.00000000000E+00 0.  1.
          1   -1    0    0  501    0  0.00000000000E+00 -0.00000000000E+00 -0.18770854237E+04  0.18770854237E+04  0.00000000000E+00 0. -1.
        -24    2    1    2    0    0  0.40848672266E+02 -0.16642098652E+03 -0.53619067489E+03  0.57270738344E+03  0.10549288332E+03 0.  0.
        254    2    1    2    0    0 -0.40848672266E+02  0.16642098652E+03 -0.11688581479E+04  0.14764146411E+04  0.88555421276E+03 0.  0.
         23    2    4    4    0    0 -0.44201651209E+03 -0.12249671053E+02 -0.63492000408E+03  0.77905985986E+03  0.91006605681E+02 0.  0.
         23    2    4    4    0    0  0.40116783982E+03  0.17867065758E+03 -0.53393814385E+03  0.69735478125E+03  0.91405196169E+02 0.  0.
          3    1    3    3  502    0  0.25351415453E+02 -0.11208970442E+03 -0.47792399995E+03  0.49154668733E+03  0.00000000000E+00 0. -1.
         -4    1    3    3    0  502  0.15497256813E+02 -0.54331282109E+02 -0.58266674936E+02  0.81160696106E+02  0.00000000000E+00 0.  1.
         11    1    5    5    0    0 -0.38702774283E+02 -0.12326281604E+02 -0.24499611091E+02  0.47434933319E+02  0.00000000000E+00 0. -1.
        -11    1    5    5    0    0 -0.40331373780E+03  0.76610550269E-01 -0.61042039299E+03  0.73162492655E+03  0.00000000000E+00 0.  1.
          3    1    6    6  503    0 -0.45676560487E+01  0.22495748819E+01 -0.19995165037E+01  0.54701129035E+01  0.00000000000E+00 0. -1.
         -3    1    6    6    0  503  0.40573549587E+03  0.17642108270E+03 -0.53193862735E+03  0.69188466835E+03  0.00000000000E+00 0.  1.
<mgrwt>
<rscale>  0 0.11365340E+04</rscale>
<asrwt>0</asrwt>
<pdfrwt beam="1">  1        1 0.28878237E+00 0.11365340E+04</pdfrwt>
<pdfrwt beam="2">  1       -2 0.26467170E-01 0.11365340E+04</pdfrwt>
<totfact> 0.40805109E+01</totfact>
</mgrwt>
</event>
<event>
12    4  0.4183215E-008  0.1240034E+04  0.7818608E-02  0.9078519E-01
          1   -1    0    0  501    0  0.00000000000E+00  0.00000000000E+00  0.12234347552E+04  0.12234347552E+04  0.00000000000E+00 0. -1.
         -2   -1    0    0    0  501 -0.00000000000E+00 -0.00000000000E+00 -0.31421440845E+03  0.31421440845E+03  0.00000000000E+00 0.  1.
        -24    2    1    2    0    0 -0.10095514901E+03  0.26979090950E+03  0.22031056846E+03  0.37082174788E+03  0.77414114770E+02 0.  0.
        254    2    1    2    0    0  0.10095514901E+03 -0.26979090950E+03  0.68890977824E+03  0.11668274157E+04  0.89661053896E+03 0.  0.
         23    2    4    4    0    0 -0.69883860498E+02 -0.55137103886E+03  0.26551804892E+03  0.62266944876E+03  0.91233939236E+02 0.  0.
         23    2    4    4    0    0  0.17083900951E+03  0.28158012937E+03  0.42339172933E+03  0.54415796696E+03  0.91509562991E+02 0.  0.
          3    1    3    3  502    0  0.67512109760E+00  0.12109857534E+02  0.36302999043E+02  0.38275477495E+02  0.00000000000E+00 0. -1.
         -4    1    3    3    0  502 -0.10163027011E+03  0.25768105196E+03  0.18400756942E+03  0.33254627039E+03  0.00000000000E+00 0.  1.
         11    1    5    5    0    0  0.37418856084E+01 -0.52424801123E+02 -0.29731929235E+00  0.52559013304E+02  0.00000000000E+00 0. -1.
        -11    1    5    5    0    0 -0.73625746107E+02 -0.49894623774E+03  0.26581536821E+03  0.57011043546E+03  0.00000000000E+00 0.  1.
          1    1    6    6  503    0  0.11788702579E+03  0.25775173596E+03  0.34211948835E+03  0.44427362351E+03  0.00000000000E+00 0.  1.
         -1    1    6    6    0  503  0.52951983726E+02  0.23828393408E+02  0.81272240975E+02  0.99884343448E+02  0.00000000000E+00 0. -1.
<mgrwt>
<rscale>  0 0.12400336E+04</rscale>
<asrwt>0</asrwt>
<pdfrwt beam="1">  1        1 0.18822073E+00 0.12400336E+04</pdfrwt>
<pdfrwt beam="2">  1       -2 0.48340679E-01 0.12400336E+04</pdfrwt>
<totfact> 0.36037678E+01</totfact>
</mgrwt>
</event>
<event>
12    4  0.4183215E-008  0.1937347E+04  0.7818608E-02  0.8636487E-01
          1   -1    0    0  501    0  0.00000000000E+00  0.00000000000E+00  0.10985147141E+04  0.10985147141E+04  0.00000000000E+00 0. -1.
         -2   -1    0    0    0  501 -0.00000000000E+00 -0.00000000000E+00 -0.85417905463E+03  0.85417905463E+03  0.00000000000E+00 0.  1.
        -24    2    1    2    0    0 -0.20358295467E+02  0.62545819385E+03 -0.32542340330E+03  0.70981221778E+03  0.79502079527E+02 0.  0.
        254    2    1    2    0    0  0.20358295467E+02 -0.62545819385E+03  0.56975906280E+03  0.12428815510E+04  0.91022895345E+03 0.  0.
         23    2    4    4    0    0  0.37452790816E+03 -0.11485731904E+02  0.26190499440E+03  0.46475625382E+03  0.83672416881E+02 0.  0.
         23    2    4    4    0    0 -0.35416961269E+03 -0.61397246194E+03  0.30785406840E+03  0.77812529717E+03  0.91140287924E+02 0.  0.
          3    1    3    3  502    0  0.19297449215E+02  0.48758975096E+02 -0.20958639702E+02  0.56472061914E+02  0.00000000000E+00 0. -1.
         -4    1    3    3    0  502 -0.39655744682E+02  0.57669921875E+03 -0.30446476360E+03  0.65334015586E+03  0.00000000000E+00 0.  1.
         11    1    5    5    0    0  0.32619519110E+03 -0.27520043031E+02  0.25142686839E+03  0.41276642985E+03  0.00000000000E+00 0.  1.
        -11    1    5    5    0    0  0.48332717057E+02  0.16034311127E+02  0.10478126012E+02  0.51989823968E+02  0.00000000000E+00 0. -1.
          2    1    6    6  503    0 -0.26169884237E+03 -0.36798050204E+03  0.18388397567E+03  0.48755435644E+03  0.00000000000E+00 0.  1.
         -2    1    6    6    0  503 -0.92470770319E+02 -0.24599195990E+03  0.12397009274E+03  0.29057094072E+03  0.00000000000E+00 0. -1.
<mgrwt>
<rscale>  0 0.19373469E+04</rscale>
<asrwt>0</asrwt>
<pdfrwt beam="1">  1        1 0.16900226E+00 0.19373469E+04</pdfrwt>
<pdfrwt beam="2">  1       -2 0.13141216E+00 0.19373469E+04</pdfrwt>
<totfact> 0.43928689E+00</totfact>
</mgrwt>
</event>
<event>
12    4  0.4183215E-008  0.2040124E+04  0.7818608E-02  0.8588088E-01
          1   -1    0    0  501    0  0.00000000000E+00  0.00000000000E+00  0.16713816448E+04  0.16713816448E+04  0.00000000000E+00 0. -1.
         -2   -1    0    0    0  501 -0.00000000000E+00 -0.00000000000E+00 -0.62255474176E+03  0.62255474176E+03  0.00000000000E+00 0.  1.
        -24    2    1    2    0    0  0.68133389223E+03  0.17686934751E+03 -0.40361945524E+02  0.70946382446E+03  0.78811120930E+02 0.  0.
        254    2    1    2    0    0 -0.68133389223E+03 -0.17686934751E+03  0.10891888486E+04  0.15844725621E+04  0.91034186625E+03 0.  0.
         23    2    4    4    0    0 -0.88652091571E+03 -0.53189127028E+02  0.90530082378E+03  0.12715725637E+04  0.92621735505E+02 0.  0.
         23    2    4    4    0    0  0.20518702348E+03 -0.12368022048E+03  0.18388802479E+03  0.31289999845E+03  0.81811318445E+02 0.  0.
          3    1    3    3  502    0  0.16019921456E+03  0.25973351543E+02  0.20240631095E+02  0.16354842244E+03  0.00000000000E+00 0. -1.
         -4    1    3    3    0  502  0.52113467767E+03  0.15089599597E+03 -0.60602576618E+02  0.54591540202E+03  0.00000000000E+00 0.  1.
         11    1    5    5    0    0 -0.11824401163E+03 -0.35971170645E+02  0.14544503176E+03  0.19086599662E+03  0.00000000000E+00 0. -1.
        -11    1    5    5    0    0 -0.76827690408E+03 -0.17217956383E+02  0.75985579202E+03  0.10807065670E+04  0.00000000000E+00 0.  1.
          1    1    6    6  503    0  0.26368439032E+02 -0.49857118407E+02  0.21632639823E+02  0.60406936179E+02  0.00000000000E+00 0. -1.
         -1    1    6    6    0  503  0.17881858445E+03 -0.73823102073E+02  0.16225538497E+03  0.25249306227E+03  0.00000000000E+00 0.  1.
<mgrwt>
<rscale>  0 0.20401241E+04</rscale>
<asrwt>0</asrwt>
<pdfrwt beam="1">  1        1 0.25713564E+00 0.20401241E+04</pdfrwt>
<pdfrwt beam="2">  1       -2 0.95777653E-01 0.20401241E+04</pdfrwt>
<totfact> 0.36999341E+00</totfact>
</mgrwt>
</event>
<event>
12    4  0.4183215E-008  0.2166320E+04  0.7818608E-02  0.8532579E-01
          1   -1    0    0  501    0  0.00000000000E+00  0.00000000000E+00  0.43510323289E+03  0.43510323289E+03  0.00000000000E+00 0. -1.
         -2   -1    0    0    0  501 -0.00000000000E+00 -0.00000000000E+00 -0.26964527995E+04  0.26964527995E+04  0.00000000000E+00 0.  1.
        -24    2    1    2    0    0  0.81990197286E+02 -0.76010871877E+03 -0.16235240135E+04  0.17967454436E+04  0.89310188338E+02 0.  0.
        254    2    1    2    0    0 -0.81990197286E+02  0.76010871877E+03 -0.63782555310E+03  0.13348105888E+04  0.88905017577E+03 0.  0.
         23    2    4    4    0    0  0.19880905636E+03 -0.11310854558E+03 -0.88093264287E+02  0.26125447066E+03  0.90415105220E+02 0.  0.
         23    2    4    4    0    0 -0.28079925365E+03  0.87321726434E+03 -0.54973228881E+03  0.10735561182E+04  0.94660117654E+02 0.  0.
          3    1    3    3  502    0 -0.65576956567E+01 -0.68530885692E+02 -0.10173752322E+03  0.12284139896E+03  0.00000000000E+00 0. -1.
         -4    1    3    3    0  502  0.88547892943E+02 -0.69157783307E+03 -0.15217864903E+04  0.16739040446E+04  0.00000000000E+00 0.  1.
         11    1    5    5    0    0  0.28988645950E+01 -0.33096895785E+02 -0.20782427568E+02  0.39188228107E+02  0.00000000000E+00 0.  1.
        -11    1    5    5    0    0  0.19591019177E+03 -0.80011649790E+02 -0.67310836719E+02  0.22206624255E+03  0.00000000000E+00 0. -1.
          2    1    6    6  503    0 -0.25234924930E+03  0.65327788095E+03 -0.42131409900E+03  0.81728679383E+03  0.00000000000E+00 0. -1.
         -2    1    6    6    0  503 -0.28450004356E+02  0.21993938339E+03 -0.12841818981E+03  0.25626932432E+03  0.00000000000E+00 0.  1.
<mgrwt>
<rscale>  0 0.21663198E+04</rscale>
<asrwt>0</asrwt>
<pdfrwt beam="1">  1        1 0.66938958E-01 0.21663198E+04</pdfrwt>
<pdfrwt beam="2">  1       -2 0.41483890E+00 0.21663198E+04</pdfrwt>
<totfact> 0.25481250E-01</totfact>
</mgrwt>
</event>
<event>
12    4  0.4183215E-008  0.1591106E+04  0.7818608E-02  0.8826031E-01
         -2   -1    0    0    0  501 -0.00000000000E+00  0.00000000000E+00  0.14122383000E+04  0.14122383000E+04  0.00000000000E+00 0.  1.
          1   -1    0    0  501    0  0.00000000000E+00 -0.00000000000E+00 -0.44815716100E+03  0.44815716100E+03  0.00000000000E+00 0. -1.
        -24    2    1    2    0    0  0.48234236420E+02  0.11198500297E+03  0.94109872505E+03  0.95246078489E+03  0.81532533434E+02 0.  0.
        254    2    1    2    0    0 -0.48234236420E+02 -0.11198500297E+03  0.22982413949E+02  0.90793467610E+03  0.89941647876E+03 0.  0.
         23    2    4    4    0    0  0.10662125105E+03 -0.35980648066E+03 -0.28028273187E+03  0.47728333859E+03  0.91717941587E+02 0.  0.
         23    2    4    4    0    0 -0.15485548747E+03  0.24782147769E+03  0.30326514582E+03  0.43065133751E+03  0.89972879410E+02 0.  0.
          1    1    3    3  502    0  0.27417568912E+02  0.72867012899E+01  0.82281962572E+02  0.87035282877E+02  0.00000000000E+00 0. -1.
         -2    1    3    3    0  502  0.20816667509E+02  0.10469830168E+03  0.85881676248E+03  0.86542550201E+03  0.00000000000E+00 0.  1.
         11    1    5    5    0    0  0.10912681877E+03 -0.23062351983E+03 -0.20835220192E+03  0.32940326428E+03  0.00000000000E+00 0.  1.
        -11    1    5    5    0    0 -0.25055677203E+01 -0.12918296083E+03 -0.71930529951E+02  0.14788007431E+03  0.00000000000E+00 0. -1.
          1    1    6    6  503    0 -0.98993349555E+01  0.28275826137E+02  0.80603476639E+02  0.85990927560E+02  0.00000000000E+00 0. -1.
         -1    1    6    6    0  503 -0.14495615251E+03  0.21954565155E+03  0.22266166918E+03  0.34466040995E+03  0.00000000000E+00 0.  1.
<mgrwt>
<rscale>  0 0.15911062E+04</rscale>
<asrwt>0</asrwt>
<pdfrwt beam="1">  1        1 0.68947256E-01 0.15911062E+04</pdfrwt>
<pdfrwt beam="2">  1       -2 0.21726743E+00 0.15911062E+04</pdfrwt>
<totfact> 0.44444425E+00</totfact>
</mgrwt>
</event>
<event>
12    4  0.4183215E-008  0.1410071E+04  0.7818608E-02  0.8946561E-01
          1   -1    0    0  501    0  0.00000000000E+00  0.00000000000E+00  0.38198634318E+03  0.38198634318E+03  0.00000000000E+00 0. -1.
         -2   -1    0    0    0  501 -0.00000000000E+00 -0.00000000000E+00 -0.13012899129E+04  0.13012899129E+04  0.00000000000E+00 0.  1.
        -24    2    1    2    0    0  0.31057087578E+03  0.25197452836E+03 -0.42266981797E+03  0.58733665776E+03  0.79806908856E+02 0.  0.
        254    2    1    2    0    0 -0.31057087578E+03 -0.25197452836E+03 -0.49663375179E+03  0.10959395984E+04  0.89134341755E+03 0.  0.
         23    2    4    4    0    0  0.21369522248E+02 -0.27372362939E+03  0.17728073385E+03  0.33936952280E+03  0.91443603627E+02 0.  0.
         23    2    4    4    0    0 -0.33194039802E+03  0.21749101027E+02 -0.67391448564E+03  0.75657007556E+03  0.87063735555E+02 0.  0.
          1    1    3    3  502    0  0.11231415793E+02  0.21905221792E+02 -0.65522099034E+01  0.25473808060E+02  0.00000000000E+00 0. -1.
         -2    1    3    3    0  502  0.29933945998E+03  0.23006930657E+03 -0.41611760806E+03  0.56186284970E+03  0.00000000000E+00 0.  1.
         11    1    5    5    0    0  0.64639802798E+01 -0.39467307067E+02  0.71457657173E+02  0.81888021938E+02  0.00000000000E+00 0. -1.
        -11    1    5    5    0    0  0.14905541969E+02 -0.23425632232E+03  0.10582307667E+03  0.25748150086E+03  0.00000000000E+00 0.  1.
          4    1    6    6  503    0 -0.13835724204E+03 -0.24328116474E+02 -0.22100456082E+03  0.26187325098E+03  0.00000000000E+00 0. -1.
         -4    1    6    6    0  503 -0.19358315599E+03  0.46077217501E+02 -0.45290992481E+03  0.49469682458E+03  0.00000000000E+00 0.  1.
<mgrwt>
<rscale>  0 0.14100709E+04</rscale>
<asrwt>0</asrwt>
<pdfrwt beam="1">  1        1 0.58767130E-01 0.14100709E+04</pdfrwt>
<pdfrwt beam="2">  1       -2 0.20019845E+00 0.14100709E+04</pdfrwt>
<totfact> 0.71946586E+00</totfact>
</mgrwt>
</event>
<event>
12    4  0.4183215E-008  0.1709477E+04  0.7818608E-02  0.8755978E-01
         -2   -1    0    0    0  501 -0.00000000000E+00  0.00000000000E+00  0.12330246582E+04  0.12330246582E+04  0.00000000000E+00 0.  1.
          1   -1    0    0  501    0  0.00000000000E+00 -0.00000000000E+00 -0.59250844323E+03  0.59250844323E+03  0.00000000000E+00 0. -1.
        -24    2    1    2    0    0 -0.77119256127E+01 -0.38217542153E+03  0.73697173394E+03  0.83406425906E+03  0.80114449412E+02 0.  0.
        254    2    1    2    0    0  0.77119256127E+01  0.38217542153E+03 -0.96455518961E+02  0.99146884237E+03  0.90971933673E+03 0.  0.
         23    2    4    4    0    0  0.15707924370E+03 -0.18860676054E+03 -0.26315229529E+03  0.37172905213E+03  0.93203855898E+02 0.  0.
         23    2    4    4    0    0 -0.14936731808E+03  0.57078218207E+03  0.16669677633E+03  0.61973979024E+03  0.90480369601E+02 0.  0.
          3    1    3    3  502    0 -0.18478222663E+02 -0.77761192798E+02  0.21947415017E+03  0.23357472126E+03  0.00000000000E+00 0. -1.
         -4    1    3    3    0  502  0.10766297051E+02 -0.30441422873E+03  0.51749758377E+03  0.60048953780E+03  0.00000000000E+00 0.  1.
         11    1    5    5    0    0  0.11567756008E+02 -0.70361167113E+02 -0.46117724151E+02  0.84919675561E+02  0.00000000000E+00 0.  1.
        -11    1    5    5    0    0  0.14551148769E+03 -0.11824559343E+03 -0.21703457114E+03  0.28680937657E+03  0.00000000000E+00 0. -1.
          2    1    6    6  503    0 -0.83905473054E+01  0.19821803983E+03  0.62190365352E+02  0.20791448757E+03  0.00000000000E+00 0.  1.
         -2    1    6    6    0  503 -0.14097677078E+03  0.37256414224E+03  0.10450641098E+03  0.41182530267E+03  0.00000000000E+00 0. -1.
<mgrwt>
<rscale>  0 0.17094766E+04</rscale>
<asrwt>0</asrwt>
<pdfrwt beam="1">  1        1 0.91155145E-01 0.17094766E+04</pdfrwt>
<pdfrwt beam="2">  1       -2 0.18969610E+00 0.17094766E+04</pdfrwt>
<totfact> 0.45163468E+00</totfact>
</mgrwt>
</event>
<event>
12    4  0.4183215E-008  0.1609543E+04  0.7818608E-02  0.8814707E-01
          1   -1    0    0  501    0  0.00000000000E+00  0.00000000000E+00  0.10456604563E+04  0.10456604563E+04  0.00000000000E+00 0. -1.
         -4   -1    0    0    0  501 -0.00000000000E+00 -0.00000000000E+00 -0.61937640158E+03  0.61937640158E+03  0.00000000000E+00 0.  1.
        -24    2    1    2    0    0  0.33148658761E+03 -0.19619002023E+03 -0.23374439204E+03  0.45809856230E+03  0.82728291211E+02 0.  0.
        254    2    1    2    0    0 -0.33148658761E+03  0.19619002023E+03  0.66002844671E+03  0.12069382955E+04  0.93417804350E+03 0.  0.
         23    2    4    4    0    0  0.28332446546E+03 -0.96822575683E+02  0.12423609021E+03  0.33581803601E+03  0.87702812427E+02 0.  0.
         23    2    4    4    0    0 -0.61481105307E+03  0.29301259591E+03  0.53579235651E+03  0.87112025953E+03  0.89039569495E+02 0.  0.
          3    1    3    3  502    0  0.96693882985E+02 -0.72994006311E+02 -0.33111825281E+02  0.12559548136E+03  0.00000000000E+00 0. -1.
         -4    1    3    3    0  502  0.23479270463E+03 -0.12319601392E+03 -0.20063256676E+03  0.33250308094E+03  0.00000000000E+00 0.  1.
         11    1    5    5    0    0  0.26043565711E+03 -0.97794932282E+02  0.85888658585E+02  0.29114848780E+03  0.00000000000E+00 0. -1.
        -11    1    5    5    0    0  0.22888808349E+02  0.97235659947E+00  0.38347431622E+02  0.44669548207E+02  0.00000000000E+00 0.  1.
          3    1    6    6  503    0 -0.53548125649E+03  0.26476930690E+03  0.43063965358E+03  0.73640578024E+03  0.00000000000E+00 0. -1.
         -3    1    6    6    0  503 -0.79329796583E+02  0.28243289009E+02  0.10515270292E+03  0.13471447930E+03  0.00000000000E+00 0.  1.
<mgrwt>
<rscale>  0 0.16095433E+04</rscale>
<asrwt>0</asrwt>
<pdfrwt beam="1">  1        1 0.16087084E+00 0.16095433E+04</pdfrwt>
<pdfrwt beam="2">  1       -4 0.95288677E-01 0.16095433E+04</pdfrwt>
<totfact> 0.60239141E+00</totfact>
</mgrwt>
</event>
<event>
12    4  0.4183215E-008  0.1757799E+04  0.7818608E-02  0.8729069E-01
         -2   -1    0    0    0  501 -0.00000000000E+00  0.00000000000E+00  0.16369673507E+03  0.16369673507E+03  0.00000000000E+00 0.  1.
          1   -1    0    0  501    0  0.00000000000E+00 -0.00000000000E+00 -0.47188733123E+04  0.47188733123E+04  0.00000000000E+00 0. -1.
        -24    2    1    2    0    0  0.17136399111E+03  0.13524769627E+03 -0.33656543896E+04  0.33734905026E+04  0.71771467399E+02 0.  0.
        254    2    1    2    0    0 -0.17136399111E+03 -0.13524769627E+03 -0.11895221876E+04  0.15090795448E+04  0.90260760080E+03 0.  0.
         23    2    4    4    0    0 -0.12275034921E+03 -0.43338233046E+03 -0.10827296461E+04  0.11761185237E+04  0.89796452403E+02 0.  0.
         23    2    4    4    0    0 -0.48613641900E+02  0.29813463419E+03 -0.10679254156E+03  0.33296102109E+03  0.90613731590E+02 0.  0.
          3    1    3    3  502    0  0.17214289742E+03  0.11257507850E+03 -0.31282373823E+04  0.31349920965E+04  0.00000000000E+00 0. -1.
         -4    1    3    3    0  502 -0.77890630507E+00  0.22672617765E+02 -0.23741700735E+03  0.23849840601E+03  0.00000000000E+00 0.  1.
         11    1    5    5    0    0 -0.57108917273E+02 -0.34144263694E+03 -0.82872295939E+03  0.89812373656E+03  0.00000000000E+00 0. -1.
        -11    1    5    5    0    0 -0.65641431942E+02 -0.91939693522E+02 -0.25400668667E+03  0.27799478719E+03  0.00000000000E+00 0.  1.
          1    1    6    6  503    0 -0.30352373077E+02  0.91785739678E+02 -0.77171695139E+02  0.12369866244E+03  0.00000000000E+00 0. -1.
         -1    1    6    6    0  503 -0.18261268823E+02  0.20634889451E+03 -0.29620846422E+02  0.20926235865E+03  0.00000000000E+00 0.  1.
<mgrwt>
<rscale>  0 0.17577988E+04</rscale>
<asrwt>0</asrwt>
<pdfrwt beam="1">  1        1 0.72598046E+00 0.17577988E+04</pdfrwt>
<pdfrwt beam="2">  1       -2 0.25184115E-01 0.17577988E+04</pdfrwt>
<totfact> 0.22634024E-01</totfact>
</mgrwt>
</event>
<event>
12    4  0.4183215E-008  0.1882102E+04  0.7818608E-02  0.8663817E-01
          1   -1    0    0  501    0  0.00000000000E+00  0.00000000000E+00  0.52560114511E+03  0.52560114511E+03  0.00000000000E+00 0. -1.
         -2   -1    0    0    0  501 -0.00000000000E+00 -0.00000000000E+00 -0.16848832409E+04  0.16848832409E+04  0.00000000000E+00 0.  1.
        -24    2    1    2    0    0 -0.33759651604E+03  0.36489779042E+03  0.17853583321E+03  0.53542930548E+03  0.87679486343E+02 0.  0.
        254    2    1    2    0    0  0.33759651604E+03 -0.36489779042E+03 -0.13378179290E+04  0.16750550806E+04  0.87688705466E+03 0.  0.
         23    2    4    4    0    0  0.13565644209E+03 -0.42559611849E+03 -0.17295827577E+03  0.48776719520E+03  0.92019265429E+02 0.  0.
         23    2    4    4    0    0  0.20194007396E+03  0.60698328066E+02 -0.11648596533E+04  0.11872878854E+04  0.91051800980E+02 0.  0.
          3    1    3    3  502    0 -0.29519901865E+03  0.26685381899E+03  0.14319955736E+03  0.42291788157E+03  0.00000000000E+00 0. -1.
         -4    1    3    3    0  502 -0.42397497392E+02  0.98043971431E+02  0.35336275847E+02  0.11251142391E+03  0.00000000000E+00 0.  1.
         11    1    5    5    0    0  0.98925012960E+02 -0.32388959294E+03 -0.17152832689E+03  0.37962164523E+03  0.00000000000E+00 0. -1.
        -11    1    5    5    0    0  0.36731429126E+02 -0.10170652555E+03 -0.14299488769E+01  0.10814554997E+03  0.00000000000E+00 0.  1.
          3    1    6    6  503    0  0.21149570839E+03  0.60950741364E+02 -0.11130449520E+04  0.11345988246E+04  0.00000000000E+00 0. -1.
         -3    1    6    6    0  503 -0.95556344311E+01 -0.25241329798E+00 -0.51814701240E+02  0.52689060786E+02  0.00000000000E+00 0.  1.
<mgrwt>
<rscale>  0 0.18821015E+04</rscale>
<asrwt>0</asrwt>
<pdfrwt beam="1">  1        1 0.80861716E-01 0.18821015E+04</pdfrwt>
<pdfrwt beam="2">  1       -2 0.25921280E+00 0.18821015E+04</pdfrwt>
<totfact> 0.19133756E+00</totfact>
</mgrwt>
</event>
<event>
12    4  0.4183215E-008  0.1812840E+04  0.7818608E-02  0.8699501E-01
          1   -1    0    0  501    0  0.00000000000E+00  0.00000000000E+00  0.22424437515E+04  0.22424437515E+04  0.00000000000E+00 0. -1.
         -2   -1    0    0    0  501 -0.00000000000E+00 -0.00000000000E+00 -0.36638477594E+03  0.36638477594E+03  0.00000000000E+00 0.  1.
        -24    2    1    2    0    0 -0.53009480961E+03  0.23880110534E+03  0.79101361424E+03  0.98482237569E+03  0.78397057776E+02 0.  0.
        254    2    1    2    0    0  0.53009480961E+03 -0.23880110534E+03  0.10850453613E+04  0.16240061518E+04  0.10592667604E+04 0.  0.
         23    2    4    4    0    0 -0.16782173357E+03  0.96479576000E+02  0.74103686337E+03  0.77128280575E+03  0.90934540828E+02 0.  0.
         23    2    4    4    0    0  0.69791654318E+03 -0.33528068134E+03  0.34400849796E+03  0.85272334601E+03  0.96408618099E+02 0.  0.
          1    1    3    3  502    0 -0.35027306289E+03  0.15344327044E+03  0.58017213518E+03  0.69486384441E+03  0.00000000000E+00 0. -1.
         -4    1    3    3    0  502 -0.17982174672E+03  0.85357834900E+02  0.21084147906E+03  0.28995853128E+03  0.00000000000E+00 0.  1.
         11    1    5    5    0    0 -0.65323614565E+02  0.31141320609E+02  0.13496616864E+03  0.15314314594E+03  0.00000000000E+00 0. -1.
        -11    1    5    5    0    0 -0.10249811901E+03  0.65338255391E+02  0.60607069473E+03  0.61813965981E+03  0.00000000000E+00 0.  1.
          4    1    6    6  503    0  0.13690168029E+03 -0.59218013134E+02  0.10906581397E+03  0.18478147884E+03  0.00000000000E+00 0. -1.
         -4    1    6    6    0  503  0.56101486289E+03 -0.27606266821E+03  0.23494268399E+03  0.66794186717E+03  0.00000000000E+00 0.  1.
<mgrwt>
<rscale>  0 0.18128400E+04</rscale>
<asrwt>0</asrwt>
<pdfrwt beam="1">  1        1 0.34499134E+00 0.18128400E+04</pdfrwt>
<pdfrwt beam="2">  1       -2 0.56366890E-01 0.18128400E+04</pdfrwt>
<totfact> 0.49848519E+00</totfact>
</mgrwt>
</event>
<event>
12    4  0.4183215E-008  0.1474413E+04  0.7818608E-02  0.8901649E-01
         -2   -1    0    0    0  501 -0.00000000000E+00  0.00000000000E+00  0.27546339104E+03  0.27546339104E+03  0.00000000000E+00 0.  1.
          1   -1    0    0  501    0  0.00000000000E+00 -0.00000000000E+00 -0.19729418777E+04  0.19729418777E+04  0.00000000000E+00 0. -1.
        -24    2    1    2    0    0 -0.21674773926E+03 -0.14585376420E+03  0.28161492332E+02  0.27432863521E+03  0.78804996261E+02 0.  0.
        254    2    1    2    0    0  0.21674773926E+03  0.14585376420E+03 -0.17256399790E+04  0.19740766335E+04  0.92243824451E+03 0.  0.
         23    2    4    4    0    0  0.45026722877E+03 -0.55383677524E+01 -0.37631743122E+03  0.59345807668E+03  0.88353997740E+02 0.  0.
         23    2    4    4    0    0 -0.23351948951E+03  0.15139213195E+03 -0.13493225477E+04  0.13806185568E+04  0.89360684743E+02 0.  0.
          1    1    3    3  502    0 -0.13612155297E+03 -0.80346904141E+02 -0.20902734003E+02  0.15944160836E+03  0.00000000000E+00 0. -1.
         -2    1    3    3    0  502 -0.80626186292E+02 -0.65506860060E+02  0.49064226335E+02  0.11488702684E+03  0.00000000000E+00 0.  1.
         11    1    5    5    0    0  0.37757113254E+02 -0.17707118596E+02 -0.13147906542E+02  0.43726526236E+02  0.00000000000E+00 0.  1.
        -11    1    5    5    0    0  0.41251011552E+03  0.12168750843E+02 -0.36316952468E+03  0.54973155045E+03  0.00000000000E+00 0. -1.
          3    1    6    6  503    0 -0.48596434387E+02  0.44816028585E+02 -0.17525739488E+03  0.18731055580E+03  0.00000000000E+00 0.  1.
         -3    1    6    6    0  503 -0.18492305512E+03  0.10657610337E+03 -0.11740651529E+04  0.11933080010E+04  0.00000000000E+00 0. -1.
<mgrwt>
<rscale>  0 0.14744128E+04</rscale>
<asrwt>0</asrwt>
<pdfrwt beam="1">  1        1 0.30352952E+00 0.14744128E+04</pdfrwt>
<pdfrwt beam="2">  1       -2 0.42378983E-01 0.14744128E+04</pdfrwt>
<totfact> 0.13970666E+01</totfact>
</mgrwt>
</event>
<event>
12    4  0.4183215E-008  0.2535119E+04  0.7818608E-02  0.8390580E-01
          1   -1    0    0  501    0  0.00000000000E+00  0.00000000000E+00  0.14017182025E+04  0.14017182025E+04  0.00000000000E+00 0. -1.
         -2   -1    0    0    0  501 -0.00000000000E+00 -0.00000000000E+00 -0.11462413790E+04  0.11462413790E+04  0.00000000000E+00 0.  1.
        -24    2    1    2    0    0 -0.10055695816E+04  0.34674857170E+03 -0.18864203347E+03  0.10832289666E+04  0.79965129456E+02 0.  0.
        254    2    1    2    0    0  0.10055695816E+04 -0.34674857170E+03  0.44411885699E+03  0.14647306150E+04  0.90376405100E+03 0.  0.
         23    2    4    4    0    0  0.75908502514E+03  0.32287364815E+02  0.60530788305E+03  0.97595373758E+03  0.93997421670E+02 0.  0.
         23    2    4    4    0    0  0.24648455643E+03 -0.37903593651E+03 -0.16118902606E+03  0.48877687737E+03  0.92184901200E+02 0.  0.
          1    1    3    3  502    0 -0.86829679242E+03  0.30069187176E+03 -0.19048606079E+03  0.93842413696E+03  0.00000000000E+00 0. -1.
         -2    1    3    3    0  502 -0.13727278915E+03  0.46056699942E+02  0.18440273169E+01  0.14480482964E+03  0.00000000000E+00 0.  1.
         11    1    5    5    0    0  0.50196287677E+03 -0.78492434535E+01  0.44079589987E+03  0.66807886183E+03  0.00000000000E+00 0.  1.
        -11    1    5    5    0    0  0.25712214837E+03  0.40136608269E+02  0.16451198318E+03  0.30787487575E+03  0.00000000000E+00 0. -1.
          3    1    6    6  503    0  0.99279589390E+01 -0.21706266459E+01  0.77999486394E+01  0.12810745002E+02  0.00000000000E+00 0. -1.
         -3    1    6    6    0  503  0.23655659749E+03 -0.37686530987E+03 -0.16898897470E+03  0.47596613237E+03  0.00000000000E+00 0.  1.
<mgrwt>
<rscale>  0 0.25351193E+04</rscale>
<asrwt>0</asrwt>
<pdfrwt beam="1">  1        1 0.21564896E+00 0.25351193E+04</pdfrwt>
<pdfrwt beam="2">  1       -2 0.17634483E+00 0.25351193E+04</pdfrwt>
<totfact> 0.11453831E+00</totfact>
</mgrwt>
</event>
<event>
12    4  0.4183215E-008  0.1692913E+04  0.7818608E-02  0.8765417E-01
         -2   -1    0    0    0  501 -0.00000000000E+00  0.00000000000E+00  0.13981759714E+04  0.13981759714E+04  0.00000000000E+00 0.  1.
          1   -1    0    0  501    0  0.00000000000E+00 -0.00000000000E+00 -0.51244518585E+03  0.51244518585E+03  0.00000000000E+00 0. -1.
        -24    2    1    2    0    0 -0.60658316225E+03 -0.54014358047E+02  0.27286749023E+03  0.67206585093E+03  0.79719239582E+02 0.  0.
        254    2    1    2    0    0  0.60658316225E+03  0.54014358047E+02  0.61286329534E+03  0.12385553063E+04  0.88744416415E+03 0.  0.
         23    2    4    4    0    0 -0.15482823132E+03 -0.88699897139E+02 -0.59566834884E+02  0.20862936399E+03  0.90213916522E+02 0.  0.
         23    2    4    4    0    0  0.76141139357E+03  0.14271425519E+03  0.67243013023E+03  0.10299259423E+04  0.92035307332E+02 0.  0.
          1    1    3    3  502    0 -0.48547453683E+03 -0.74229907846E+02  0.21012739079E+03  0.53418079851E+03  0.00000000000E+00 0. -1.
         -2    1    3    3    0  502 -0.12110862542E+03  0.20215549798E+02  0.62740099435E+02  0.13788505242E+03  0.00000000000E+00 0.  1.
         11    1    5    5    0    0  0.69408235127E+00 -0.28819372458E+02  0.61703593399E+01  0.29480693913E+02  0.00000000000E+00 0.  1.
        -11    1    5    5    0    0 -0.15552231367E+03 -0.59880524681E+02 -0.65737194224E+02  0.17914867008E+03  0.00000000000E+00 0. -1.
          3    1    6    6  503    0  0.62716276495E+03  0.11034201869E+03  0.50394101263E+03  0.81207452801E+03  0.00000000000E+00 0. -1.
         -3    1    6    6    0  503  0.13424862862E+03  0.32372236500E+02  0.16848911759E+03  0.21785141434E+03  0.00000000000E+00 0.  1.
<mgrwt>
<rscale>  0 0.16929129E+04</rscale>
<asrwt>0</asrwt>
<pdfrwt beam="1">  1        1 0.78837722E-01 0.16929129E+04</pdfrwt>
<pdfrwt beam="2">  1       -2 0.21510399E+00 0.16929129E+04</pdfrwt>
<totfact> 0.37866740E+00</totfact>
</mgrwt>
</event>
<event>
12    4  0.4183215E-008  0.1423422E+04  0.7818608E-02  0.8937037E-01
          1   -1    0    0  501    0  0.00000000000E+00  0.00000000000E+00  0.94905776978E+03  0.94905776978E+03  0.00000000000E+00 0. -1.
         -2   -1    0    0    0  501 -0.00000000000E+00 -0.00000000000E+00 -0.53372118529E+03  0.53372118529E+03  0.00000000000E+00 0.  1.
        -24    2    1    2    0    0 -0.79571666822E+02 -0.18100963767E+03  0.52585785639E+03  0.56804689650E+03  0.83991978176E+02 0.  0.
        254    2    1    2    0    0  0.79571666822E+02  0.18100963767E+03 -0.11052127190E+03  0.91473205857E+03  0.88624130368E+03 0.  0.
         23    2    4    4    0    0 -0.36308360745E+03  0.12421255792E+03  0.10855571233E+03  0.40896633787E+03  0.90612677311E+02 0.  0.
         23    2    4    4    0    0  0.44265527427E+03  0.56797079745E+02 -0.21907698423E+03  0.50576572070E+03  0.92922758844E+02 0.  0.
          3    1    3    3  502    0 -0.97284976638E+01 -0.10093539013E+03  0.18444209462E+03  0.21047917454E+03  0.00000000000E+00 0. -1.
         -4    1    3    3    0  502 -0.69843169158E+02 -0.80074247539E+02  0.34141576177E+03  0.35756772196E+03  0.00000000000E+00 0.  1.
         11    1    5    5    0    0 -0.56885876358E+01  0.16011666888E+02  0.17948496999E+02  0.24716028207E+02  0.00000000000E+00 0.  1.
        -11    1    5    5    0    0 -0.35739501981E+03  0.10820089103E+03  0.90607215332E+02  0.38425030966E+03  0.00000000000E+00 0. -1.
          2    1    6    6  503    0  0.17747760843E+03  0.51368687098E+02 -0.13023378281E+03  0.22604840564E+03  0.00000000000E+00 0.  1.
         -2    1    6    6    0  503  0.26517766584E+03  0.54283926472E+01 -0.88843201426E+02  0.27971731506E+03  0.00000000000E+00 0. -1.
<mgrwt>
<rscale>  0 0.14234216E+04</rscale>
<asrwt>0</asrwt>
<pdfrwt beam="1">  1        1 0.14600889E+00 0.14234216E+04</pdfrwt>
<pdfrwt beam="2">  1       -2 0.82110951E-01 0.14234216E+04</pdfrwt>
<totfact> 0.18463109E+01</totfact>
</mgrwt>
</event>
<event>
12    4  0.4183215E-008  0.1091711E+04  0.7818608E-02  0.9213309E-01
         -2   -1    0    0    0  501 -0.00000000000E+00  0.00000000000E+00  0.21343801465E+03  0.21343801465E+03  0.00000000000E+00 0.  1.
          1   -1    0    0  501    0  0.00000000000E+00 -0.00000000000E+00 -0.13959947792E+04  0.13959947792E+04  0.00000000000E+00 0. -1.
        -24    2    1    2    0    0 -0.31612065220E+02  0.41487012903E+02 -0.47732540906E+03  0.48675756558E+03  0.79830361435E+02 0.  0.
        254    2    1    2    0    0  0.31612065220E+02 -0.41487012903E+02 -0.70523135549E+03  0.11226752283E+04  0.87196783685E+03 0.  0.
         23    2    4    4    0    0  0.10210147462E+03 -0.22073558409E+02  0.18227660454E+03  0.22749380809E+03  0.87273816543E+02 0.  0.
         23    2    4    4    0    0 -0.70489409403E+02 -0.19413454494E+02 -0.88750796003E+03  0.89518142019E+03  0.91289412700E+02 0.  0.
          1    1    3    3  502    0 -0.50500293070E+02  0.38671654695E+02 -0.44242622892E+03  0.44697510503E+03  0.00000000000E+00 0. -1.
         -2    1    3    3    0  502  0.18888227850E+02  0.28153582074E+01 -0.34899180139E+02  0.39782460551E+02  0.00000000000E+00 0.  1.
         11    1    5    5    0    0  0.10947590824E+03 -0.40097734957E+02  0.15381699941E+03  0.19300899497E+03  0.00000000000E+00 0. -1.
        -11    1    5    5    0    0 -0.73744336129E+01  0.18024176548E+02  0.28459605131E+02  0.34484813115E+02  0.00000000000E+00 0.  1.
          2    1    6    6  503    0 -0.90333090673E+02 -0.35164803665E+01 -0.63625288123E+03  0.64264310607E+03  0.00000000000E+00 0. -1.
         -2    1    6    6    0  503  0.19843681270E+02 -0.15896974127E+02 -0.25125507880E+03  0.25253831412E+03  0.00000000000E+00 0.  1.
<mgrwt>
<rscale>  0 0.10917112E+04</rscale>
<asrwt>0</asrwt>
<pdfrwt beam="1">  1        1 0.21476842E+00 0.10917112E+04</pdfrwt>
<pdfrwt beam="2">  1       -2 0.32836619E-01 0.10917112E+04</pdfrwt>
<totfact> 0.58499093E+01</totfact>
</mgrwt>
</event>
<event>
12    4  0.4183215E-008  0.2969468E+04  0.7818608E-02  0.8252504E-01
         -2   -1    0    0    0  501 -0.00000000000E+00  0.00000000000E+00  0.87134788268E+03  0.87134788268E+03  0.00000000000E+00 0.  1.
          1   -1    0    0  501    0  0.00000000000E+00 -0.00000000000E+00 -0.25299139023E+04  0.25299139023E+04  0.00000000000E+00 0. -1.
        -24    2    1    2    0    0  0.37390073397E+03 -0.47090784293E+03  0.64331418591E+03  0.88417909946E+03  0.79772067417E+02 0.  0.
        254    2    1    2    0    0 -0.37390073397E+03  0.47090784293E+03 -0.23018802056E+04  0.25170826856E+04  0.82188612942E+03 0.  0.
         23    2    4    4    0    0 -0.35464235727E+02 -0.20112632511E+03 -0.83763511083E+03  0.86813968097E+03  0.10160913398E+03 0.  0.
         23    2    4    4    0    0 -0.33843649824E+03  0.67203416804E+03 -0.14642450947E+04  0.16489430046E+04  0.93968870172E+02 0.  0.
          1    1    3    3  502    0  0.46737522706E+02 -0.82069901086E+02  0.14055158432E+03  0.16933579819E+03  0.00000000000E+00 0. -1.
         -2    1    3    3    0  502  0.32716321126E+03 -0.38883794185E+03  0.50276260158E+03  0.71484330127E+03  0.00000000000E+00 0.  1.
         11    1    5    5    0    0 -0.31402022943E+02 -0.13811383347E+03 -0.36865513685E+03  0.39492800353E+03  0.00000000000E+00 0. -1.
        -11    1    5    5    0    0 -0.40622127841E+01 -0.63012491636E+02 -0.46897997398E+03  0.47321167745E+03  0.00000000000E+00 0.  1.
          3    1    6    6  503    0 -0.33420436182E+03  0.67443096190E+03 -0.14594356522E+04  0.16421029507E+04  0.00000000000E+00 0. -1.
         -3    1    6    6    0  503 -0.42321364179E+01 -0.23967938613E+01 -0.48094425393E+01  0.68400538749E+01  0.00000000000E+00 0.  1.
<mgrwt>
<rscale>  0 0.29694680E+04</rscale>
<asrwt>0</asrwt>
<pdfrwt beam="1">  1        1 0.38921752E+00 0.29694680E+04</pdfrwt>
<pdfrwt beam="2">  1       -2 0.13405352E+00 0.29694680E+04</pdfrwt>
<totfact> 0.38925225E-01</totfact>
</mgrwt>
</event>
<event>
12    4  0.4183215E-008  0.1506865E+04  0.7818608E-02  0.8879900E-01
         -2   -1    0    0    0  501 -0.00000000000E+00  0.00000000000E+00  0.76597138695E+03  0.76597138695E+03  0.00000000000E+00 0.  1.
          1   -1    0    0  501    0  0.00000000000E+00 -0.00000000000E+00 -0.74109935227E+03  0.74109935227E+03  0.00000000000E+00 0. -1.
        -24    2    1    2    0    0 -0.39907317308E+03  0.24562717781E+03  0.12845477589E+03  0.49245255607E+03  0.80104822407E+02 0.  0.
        254    2    1    2    0    0  0.39907317308E+03 -0.24562717781E+03 -0.10358274121E+03  0.10146181832E+04  0.89393991149E+03 0.  0.
         23    2    4    4    0    0  0.13206211561E+03  0.20690980133E+03 -0.34190914348E+03  0.43052430560E+03  0.90538649502E+02 0.  0.
         23    2    4    4    0    0  0.26701105748E+03 -0.45253697914E+03  0.23832640227E+03  0.58409387756E+03  0.91003085001E+02 0.  0.
          1    1    3    3  502    0 -0.21358687470E+03  0.10861332026E+03  0.29176565611E+02  0.24138657453E+03  0.00000000000E+00 0. -1.
         -2    1    3    3    0  502 -0.18548629839E+03  0.13701385755E+03  0.99278210281E+02  0.25106598154E+03  0.00000000000E+00 0.  1.
         11    1    5    5    0    0  0.66064009006E+02  0.29544975357E+02 -0.96481824416E+02  0.12060721909E+03  0.00000000000E+00 0. -1.
        -11    1    5    5    0    0  0.65998106603E+02  0.17736482597E+03 -0.24542731906E+03  0.30991708651E+03  0.00000000000E+00 0.  1.
          2    1    6    6  503    0  0.63481937592E+02 -0.17480530855E+03  0.11332020363E+03  0.21778044184E+03  0.00000000000E+00 0. -1.
         -2    1    6    6    0  503  0.20352911988E+03 -0.27773167059E+03  0.12500619864E+03  0.36631343572E+03  0.00000000000E+00 0.  1.
<mgrwt>
<rscale>  0 0.15068655E+04</rscale>
<asrwt>0</asrwt>
<pdfrwt beam="1">  1        1 0.11401528E+00 0.15068655E+04</pdfrwt>
<pdfrwt beam="2">  1       -2 0.11784175E+00 0.15068655E+04</pdfrwt>
<totfact> 0.11733060E+01</totfact>
</mgrwt>
</event>
<event>
12    4  0.4183215E-008  0.1348786E+04  0.7818608E-02  0.8991748E-01
          1   -1    0    0  501    0  0.00000000000E+00  0.00000000000E+00  0.13571027843E+04  0.13571027843E+04  0.00000000000E+00 0. -1.
         -2   -1    0    0    0  501 -0.00000000000E+00 -0.00000000000E+00 -0.33512996755E+03  0.33512996755E+03  0.00000000000E+00 0.  1.
        -24    2    1    2    0    0 -0.19782538786E+03 -0.22371838675E+03  0.12352666062E+02  0.30914288519E+03  0.78942602250E+02 0.  0.
        254    2    1    2    0    0  0.19782538786E+03  0.22371838675E+03  0.10096201507E+04  0.13830898667E+04  0.89689460360E+03 0.  0.
         23    2    4    4    0    0  0.30678358072E+03  0.25590419597E+03  0.11249851370E+04  0.11972603757E+04  0.90761918790E+02 0.  0.
         23    2    4    4    0    0 -0.10895819286E+03 -0.32185809213E+02 -0.11536498625E+03  0.18582949100E+03  0.91190490544E+02 0.  0.
          1    1    3    3  502    0 -0.82262874926E+02 -0.39104487048E+02  0.24315092349E+01  0.91116703932E+02  0.00000000000E+00 0. -1.
         -2    1    3    3    0  502 -0.11556251293E+03 -0.18461389971E+03  0.99211568266E+01  0.21802618125E+03  0.00000000000E+00 0.  1.
         11    1    5    5    0    0  0.26243280625E+03  0.19517499504E+03  0.99152838054E+03  0.10440750863E+04  0.00000000000E+00 0. -1.
        -11    1    5    5    0    0  0.44350774476E+02  0.60729200927E+02  0.13345675644E+03  0.15318528937E+03  0.00000000000E+00 0.  1.
          1    1    6    6  503    0 -0.88635595843E+02 -0.10878139069E+02 -0.12607442453E+03  0.15449713033E+03  0.00000000000E+00 0. -1.
         -1    1    6    6    0  503 -0.20322597019E+02 -0.21307670143E+02  0.10709438282E+02  0.31332360665E+02  0.00000000000E+00 0.  1.
<mgrwt>
<rscale>  0 0.13487858E+04</rscale>
<asrwt>0</asrwt>
<pdfrwt beam="1">  1        1 0.20878504E+00 0.13487858E+04</pdfrwt>
<pdfrwt beam="2">  1       -2 0.51558457E-01 0.13487858E+04</pdfrwt>
<totfact> 0.25136489E+01</totfact>
</mgrwt>
</event>
<event>
12    4  0.4183215E-008  0.1636437E+04  0.7818608E-02  0.8798471E-01
         -2   -1    0    0    0  501 -0.00000000000E+00  0.00000000000E+00  0.73781756233E+03  0.73781756233E+03  0.00000000000E+00 0.  1.
          1   -1    0    0  501    0  0.00000000000E+00 -0.00000000000E+00 -0.90738107956E+03  0.90738107956E+03  0.00000000000E+00 0. -1.
        -24    2    1    2    0    0 -0.54194831719E+03  0.41128526212E+02  0.84192596437E+02  0.55578707412E+03  0.80070870460E+02 0.  0.
        254    2    1    2    0    0  0.54194831719E+03 -0.41128526212E+02 -0.25375611367E+03  0.10894115678E+04  0.90940962420E+03 0.  0.
         23    2    4    4    0    0  0.32248487791E+02  0.31635696462E+03  0.12646215281E+03  0.35425318026E+03  0.91547504644E+02 0.  0.
         23    2    4    4    0    0  0.50969982939E+03 -0.35748549083E+03 -0.38021826648E+03  0.73515838750E+03  0.91116037646E+02 0.  0.
          1    1    3    3  502    0 -0.17272907393E+03  0.13060827323E+01 -0.88079137545E+01  0.17295842905E+03  0.00000000000E+00 0. -1.
         -2    1    3    3    0  502 -0.36921924325E+03  0.39822443480E+02  0.93000510192E+02  0.38282864507E+03  0.00000000000E+00 0.  1.
         11    1    5    5    0    0 -0.83475920640E+01  0.16117406083E+02 -0.11353672326E+02  0.21409319172E+02  0.00000000000E+00 0. -1.
        -11    1    5    5    0    0  0.40596079855E+02  0.30023955853E+03  0.13781582513E+03  0.33284386109E+03  0.00000000000E+00 0.  1.
          3    1    6    6  503    0  0.54535938804E+02 -0.71595393628E+02 -0.36293212115E+02  0.97042600210E+02  0.00000000000E+00 0. -1.
         -3    1    6    6    0  503  0.45516389059E+03 -0.28589009720E+03 -0.34392505436E+03  0.63811578729E+03  0.00000000000E+00 0.  1.
<mgrwt>
<rscale>  0 0.16364372E+04</rscale>
<asrwt>0</asrwt>
<pdfrwt beam="1">  1        1 0.13959709E+00 0.16364372E+04</pdfrwt>
<pdfrwt beam="2">  1       -2 0.11351039E+00 0.16364372E+04</pdfrwt>
<totfact> 0.91574188E+00</totfact>
</mgrwt>
</event>
<event>
12    4  0.4183215E-008  0.1100397E+04  0.7818608E-02  0.9204805E-01
          1   -1    0    0  501    0  0.00000000000E+00  0.00000000000E+00  0.13419049251E+04  0.13419049251E+04  0.00000000000E+00 0. -1.
         -2   -1    0    0    0  501 -0.00000000000E+00 -0.00000000000E+00 -0.22558837470E+03  0.22558837470E+03  0.00000000000E+00 0.  1.
        -24    2    1    2    0    0  0.13082792210E+03 -0.63841694090E+02  0.32934977625E+03  0.36808054800E+03  0.76290940455E+02 0.  0.
        254    2    1    2    0    0 -0.13082792210E+03  0.63841694090E+02  0.78696677420E+03  0.11994127518E+04  0.89335465437E+03 0.  0.
         23    2    4    4    0    0 -0.39203472613E+03 -0.16551107771E+03  0.70798361596E+03  0.83175249846E+03  0.97397509693E+02 0.  0.
         23    2    4    4    0    0  0.26120680403E+03  0.22935277180E+03  0.78983158246E+02  0.36766025338E+03  0.90022409600E+02 0.  0.
          3    1    3    3  502    0  0.13429764489E+03 -0.71295831171E+02  0.32493028922E+03  0.35874593491E+03  0.00000000000E+00 0. -1.
         -4    1    3    3    0  502 -0.34697227908E+01  0.74541370807E+01  0.44194870311E+01  0.93346130868E+01  0.00000000000E+00 0.  1.
         11    1    5    5    0    0 -0.14664066053E+03 -0.91573791746E+02  0.21281168888E+03  0.27418617321E+03  0.00000000000E+00 0. -1.
        -11    1    5    5    0    0 -0.24539406560E+03 -0.73937285959E+02  0.49517192707E+03  0.55756632525E+03  0.00000000000E+00 0.  1.
          3    1    6    6  503    0  0.10743432710E+03  0.57539536424E+02  0.61260827674E+02  0.13640315941E+03  0.00000000000E+00 0. -1.
         -3    1    6    6    0  503  0.15377247693E+03  0.17181323537E+03  0.17722330572E+02  0.23125709397E+03  0.00000000000E+00 0.  1.
<mgrwt>
<rscale>  0 0.11003966E+04</rscale>
<asrwt>0</asrwt>
<pdfrwt beam="1">  1        1 0.20644691E+00 0.11003966E+04</pdfrwt>
<pdfrwt beam="2">  1       -2 0.34705905E-01 0.11003966E+04</pdfrwt>
<totfact> 0.57448586E+01</totfact>
</mgrwt>
</event>
<event>
12    4  0.4183215E-008  0.2202108E+04  0.7818608E-02  0.8517551E-01
         -2   -1    0    0    0  501 -0.00000000000E+00  0.00000000000E+00  0.13841649429E+04  0.13841649429E+04  0.00000000000E+00 0.  1.
          1   -1    0    0  501    0  0.00000000000E+00 -0.00000000000E+00 -0.87584942144E+03  0.87584942144E+03  0.00000000000E+00 0. -1.
        -24    2    1    2    0    0  0.21229440698E+03 -0.34909484864E+03  0.10745471964E+04  0.11524367458E+04  0.80762907293E+02 0.  0.
        254    2    1    2    0    0 -0.21229440698E+03  0.34909484864E+03 -0.56623167494E+03  0.11075776185E+04  0.85975214034E+03 0.  0.
         23    2    4    4    0    0  0.12215575652E+02 -0.24564008506E+03 -0.33257155365E+03  0.42357994346E+03  0.91257101251E+02 0.  0.
         23    2    4    4    0    0 -0.22450998264E+03  0.59473493370E+03 -0.23366012129E+03  0.68399767509E+03  0.95610635321E+02 0.  0.
          3    1    3    3  502    0  0.73418719088E+02 -0.11302136900E+03  0.25644379045E+03  0.28970252988E+03  0.00000000000E+00 0. -1.
         -4    1    3    3    0  502  0.13887568790E+03 -0.23607347964E+03  0.81810340593E+03  0.86273421590E+03  0.00000000000E+00 0.  1.
         11    1    5    5    0    0  0.36044012161E+02 -0.73445853556E+02 -0.64969043779E+02  0.10447220141E+03  0.00000000000E+00 0.  1.
        -11    1    5    5    0    0 -0.23828436509E+02 -0.17219423150E+03 -0.26760250987E+03  0.31910774205E+03  0.00000000000E+00 0. -1.
          3    1    6    6  503    0 -0.21436982144E+03  0.59520301002E+03 -0.23119289278E+03  0.67355118376E+03  0.00000000000E+00 0. -1.
         -3    1    6    6    0  503 -0.10140161200E+02 -0.46807631923E+00 -0.24672285166E+01  0.10446491332E+02  0.00000000000E+00 0.  1.
<mgrwt>
<rscale>  0 0.22021081E+04</rscale>
<asrwt>0</asrwt>
<pdfrwt beam="1">  1        1 0.13474607E+00 0.22021081E+04</pdfrwt>
<pdfrwt beam="2">  1       -2 0.21294845E+00 0.22021081E+04</pdfrwt>
<totfact> 0.16682775E+00</totfact>
</mgrwt>
</event>
<event>
12    4  0.4183215E-008  0.1849922E+04  0.7818608E-02  0.8680193E-01
         -2   -1    0    0    0  501 -0.00000000000E+00  0.00000000000E+00  0.88492569244E+03  0.88492569244E+03  0.00000000000E+00 0.  1.
          1   -1    0    0  501    0  0.00000000000E+00 -0.00000000000E+00 -0.96680758465E+03  0.96680758465E+03  0.00000000000E+00 0. -1.
        -24    2    1    2    0    0  0.16190582246E+03 -0.13349907458E+03 -0.70687833896E+03  0.74127821623E+03  0.76032292598E+02 0.  0.
        254    2    1    2    0    0 -0.16190582246E+03  0.13349907458E+03  0.62499644674E+03  0.11104550609E+04  0.89356274849E+03 0.  0.
         23    2    4    4    0    0 -0.48137704493E+03 -0.81316484073E+02  0.47598457102E+03  0.68837327714E+03  0.94658474834E+02 0.  0.
         23    2    4    4    0    0  0.31947122247E+03  0.21481555865E+03  0.14901187572E+03  0.42208178372E+03  0.87982423371E+02 0.  0.
          1    1    3    3  502    0  0.16201896115E+03 -0.13136677561E+03 -0.70851979574E+03  0.73858491351E+03  0.00000000000E+00 0. -1.
         -2    1    3    3    0  502 -0.11313869593E+00 -0.21322989642E+01  0.16414567781E+01  0.26933027293E+01  0.00000000000E+00 0.  1.
         11    1    5    5    0    0 -0.23037015627E+03  0.36659939003E+01  0.19161168740E+03  0.29966462447E+03  0.00000000000E+00 0. -1.
        -11    1    5    5    0    0 -0.25100688865E+03 -0.84982477973E+02  0.28437288363E+03  0.38870865266E+03  0.00000000000E+00 0.  1.
          1    1    6    6  503    0  0.41476796905E+01 -0.22502328292E+01 -0.72114382658E+01  0.86180993532E+01  0.00000000000E+00 0. -1.
         -1    1    6    6    0  503  0.31532354278E+03  0.21706579148E+03  0.15622331399E+03  0.41346368437E+03  0.00000000000E+00 0.  1.
<mgrwt>
<rscale>  0 0.18499220E+04</rscale>
<asrwt>0</asrwt>
<pdfrwt beam="1">  1        1 0.14873963E+00 0.18499220E+04</pdfrwt>
<pdfrwt beam="2">  1       -2 0.13614241E+00 0.18499220E+04</pdfrwt>
<totfact> 0.51098201E+00</totfact>
</mgrwt>
</event>
<event>
12    4  0.4183215E-008  0.2834783E+04  0.7818608E-02  0.8292550E-01
         -2   -1    0    0    0  501 -0.00000000000E+00  0.00000000000E+00  0.92193215812E+03  0.92193215812E+03  0.00000000000E+00 0.  1.
          1   -1    0    0  501    0  0.00000000000E+00 -0.00000000000E+00 -0.21791183849E+04  0.21791183849E+04  0.00000000000E+00 0. -1.
        -24    2    1    2    0    0 -0.67938102838E+03  0.32002079871E+03 -0.16849639477E+04  0.18464726443E+04  0.79911374599E+02 0.  0.
        254    2    1    2    0    0  0.67938102838E+03 -0.32002079871E+03  0.42777772093E+03  0.12545778987E+04  0.90939542118E+03 0.  0.
         23    2    4    4    0    0 -0.12115898122E+03 -0.26123869995E+01 -0.15035661810E+03  0.21335582667E+03  0.90704315601E+02 0.  0.
         23    2    4    4    0    0  0.80054000960E+03 -0.31740841171E+03  0.57813433904E+03  0.10412220720E+04  0.91058676345E+02 0.  0.
          1    1    3    3  502    0 -0.55992468244E+03  0.27124478825E+03 -0.14617559310E+04  0.15886534509E+04  0.00000000000E+00 0. -1.
         -2    1    3    3    0  502 -0.11945634594E+03  0.48776010463E+02 -0.22320801666E+03  0.25781919339E+03  0.00000000000E+00 0.  1.
         11    1    5    5    0    0 -0.50721424076E+02 -0.45333041056E+02 -0.56125848804E+02  0.88192167314E+02  0.00000000000E+00 0.  1.
        -11    1    5    5    0    0 -0.70437557147E+02  0.42720654056E+02 -0.94230769297E+02  0.12516365935E+03  0.00000000000E+00 0. -1.
          3    1    6    6  503    0  0.57707201475E+03 -0.25738151443E+03  0.45883563351E+03  0.78088891192E+03  0.00000000000E+00 0. -1.
         -3    1    6    6    0  503  0.22346799485E+03 -0.60026897283E+02  0.11929870552E+03  0.26033316012E+03  0.00000000000E+00 0.  1.
<mgrwt>
<rscale>  0 0.28347835E+04</rscale>
<asrwt>0</asrwt>
<pdfrwt beam="1">  1        1 0.33524897E+00 0.28347835E+04</pdfrwt>
<pdfrwt beam="2">  1       -2 0.14183572E+00 0.28347835E+04</pdfrwt>
<totfact> 0.59308511E-01</totfact>
</mgrwt>
</event>
<event>
12    4  0.4183215E-008  0.2079597E+04  0.7818608E-02  0.8570285E-01
         -2   -1    0    0    0  501 -0.00000000000E+00  0.00000000000E+00  0.66936132803E+03  0.66936132803E+03  0.00000000000E+00 0.  1.
          1   -1    0    0  501    0  0.00000000000E+00 -0.00000000000E+00 -0.16152430739E+04  0.16152430739E+04  0.00000000000E+00 0. -1.
        -24    2    1    2    0    0  0.80125329263E+03 -0.10695982517E+03 -0.39067411425E+03  0.90124465446E+03  0.78539292654E+02 0.  0.
        254    2    1    2    0    0 -0.80125329263E+03  0.10695982517E+03 -0.55520763157E+03  0.13833597474E+04  0.97569535896E+03 0.  0.
         23    2    4    4    0    0  0.47725645504E+02  0.28866772914E+03  0.61681102758E+02  0.31451830416E+03  0.97521331681E+02 0.  0.
         23    2    4    4    0    0 -0.84897893814E+03 -0.18170790397E+03 -0.61688873433E+03  0.10688414433E+04  0.89929530953E+02 0.  0.
          1    1    3    3  502    0  0.26818921129E+03 -0.59657155577E+02 -0.16472825252E+03  0.32034329468E+03  0.00000000000E+00 0. -1.
         -2    1    3    3    0  502  0.53306408134E+03 -0.47302669593E+02 -0.22594586173E+03  0.58090135978E+03  0.00000000000E+00 0.  1.
         11    1    5    5    0    0 -0.21184965091E+02  0.15458062297E+03  0.47494379396E+02  0.16309410725E+03  0.00000000000E+00 0. -1.
        -11    1    5    5    0    0  0.68910610596E+02  0.13408710617E+03  0.14186723362E+02  0.15142419692E+03  0.00000000000E+00 0.  1.
          2    1    6    6  503    0 -0.44351872905E+03 -0.11818251497E+03 -0.37294737096E+03  0.59140993513E+03  0.00000000000E+00 0. -1.
         -2    1    6    6    0  503 -0.40546020909E+03 -0.63525388994E+02 -0.24394136337E+03  0.47743150814E+03  0.00000000000E+00 0.  1.
<mgrwt>
<rscale>  0 0.20795973E+04</rscale>
<asrwt>0</asrwt>
<pdfrwt beam="1">  1        1 0.24849893E+00 0.20795973E+04</pdfrwt>
<pdfrwt beam="2">  1       -2 0.10297867E+00 0.20795973E+04</pdfrwt>
<totfact> 0.33932863E+00</totfact>
</mgrwt>
</event>
<event>
12    4  0.4183215E-008  0.2780452E+04  0.7818608E-02  0.8309363E-01
         -2   -1    0    0    0  501 -0.00000000000E+00  0.00000000000E+00  0.17033979342E+04  0.17033979342E+04  0.00000000000E+00 0.  1.
          1   -1    0    0  501    0  0.00000000000E+00 -0.00000000000E+00 -0.11346308620E+04  0.11346308620E+04  0.00000000000E+00 0. -1.
        -24    2    1    2    0    0  0.11028104552E+04 -0.54287081510E+03  0.70233285201E+02  0.12338091340E+04  0.80328344178E+02 0.  0.
        254    2    1    2    0    0 -0.11028104552E+04  0.54287081510E+03  0.49853378699E+03  0.16042196621E+04  0.90226668214E+03 0.  0.
         23    2    4    4    0    0 -0.23944414524E+03  0.39259987694E+03  0.54883899150E+03  0.72168150426E+03  0.90176454456E+02 0.  0.
         23    2    4    4    0    0 -0.86336630994E+03  0.15027093816E+03 -0.50305204507E+02  0.88253815788E+03  0.91434383717E+02 0.  0.
          1    1    3    3  502    0  0.43899570650E+02 -0.29386923570E+02 -0.11735883922E+02  0.54115566629E+02  0.00000000000E+00 0. -1.
         -2    1    3    3    0  502  0.10589108845E+04 -0.51348389153E+03  0.81969169122E+02  0.11796935674E+04  0.00000000000E+00 0.  1.
         11    1    5    5    0    0 -0.52048414798E+02  0.16137094212E+03  0.17257920378E+03  0.24193635531E+03  0.00000000000E+00 0.  1.
        -11    1    5    5    0    0 -0.18739573044E+03  0.23122893482E+03  0.37625978772E+03  0.47974514895E+03  0.00000000000E+00 0. -1.
          2    1    6    6  503    0 -0.27158554023E+01  0.16217503601E+01  0.65732834664E+01  0.72947926856E+01  0.00000000000E+00 0. -1.
         -2    1    6    6    0  503 -0.86065045454E+03  0.14864918780E+03 -0.56878487974E+02  0.87524336520E+03  0.00000000000E+00 0.  1.
<mgrwt>
<rscale>  0 0.27804517E+04</rscale>
<asrwt>0</asrwt>
<pdfrwt beam="1">  1        1 0.17455859E+00 0.27804517E+04</pdfrwt>
<pdfrwt beam="2">  1       -2 0.26206122E+00 0.27804517E+04</pdfrwt>
<totfact> 0.49252175E-01</totfact>
</mgrwt>
</event>
<event>
12    4  0.4183215E-008  0.1515853E+04  0.7818608E-02  0.8873979E-01
         -2   -1    0    0    0  501 -0.00000000000E+00  0.00000000000E+00  0.16120092348E+03  0.16120092348E+03  0.00000000000E+00 0.  1.
          1   -1    0    0  501    0  0.00000000000E+00 -0.00000000000E+00 -0.35635820583E+04  0.35635820583E+04  0.00000000000E+00 0. -1.
        -24    2    1    2    0    0  0.10162414982E+03  0.15872528623E+03 -0.70262181293E+01  0.20459954786E+03  0.79312186497E+02 0.  0.
        254    2    1    2    0    0 -0.10162414982E+03 -0.15872528623E+03 -0.33953549167E+04  0.35201834339E+04  0.90979954594E+03 0.  0.
         23    2    4    4    0    0  0.36039575932E+03 -0.59376631790E+02 -0.21955165167E+04  0.22275220681E+04  0.90283448514E+02 0.  0.
         23    2    4    4    0    0 -0.46201990914E+03 -0.99348654439E+02 -0.11998384000E+04  0.12926613658E+04  0.89602840218E+02 0.  0.
          1    1    3    3  502    0  0.22679177269E+02  0.10615663192E+03  0.67324875945E+01  0.10876075566E+03  0.00000000000E+00 0. -1.
         -2    1    3    3    0  502  0.78944972551E+02  0.52568654310E+02 -0.13758705724E+02  0.95838792200E+02  0.00000000000E+00 0.  1.
         11    1    5    5    0    0  0.32704046903E+03 -0.74896205844E+02 -0.20580383898E+04  0.20852066862E+04  0.00000000000E+00 0.  1.
        -11    1    5    5    0    0  0.33355290291E+02  0.15519574055E+02 -0.13747812689E+03  0.14231538196E+03  0.00000000000E+00 0. -1.
          1    1    6    6  503    0 -0.44605516751E+02  0.16765498905E+02 -0.12629792452E+03  0.13498851735E+03  0.00000000000E+00 0. -1.
         -1    1    6    6    0  503 -0.41741439239E+03 -0.11611415334E+03 -0.10735404755E+04  0.11576728485E+04  0.00000000000E+00 0.  1.
<mgrwt>
<rscale>  0 0.15158532E+04</rscale>
<asrwt>0</asrwt>
<pdfrwt beam="1">  1        1 0.54824330E+00 0.15158532E+04</pdfrwt>
<pdfrwt beam="2">  1       -2 0.24800146E-01 0.15158532E+04</pdfrwt>
<totfact> 0.27813368E+00</totfact>
</mgrwt>
</event>
<event>
12    4  0.4183215E-008  0.1313200E+04  0.7818608E-02  0.9019163E-01
         -2   -1    0    0    0  501 -0.00000000000E+00  0.00000000000E+00  0.64648215269E+03  0.64648215269E+03  0.00000000000E+00 0.  1.
          1   -1    0    0  501    0  0.00000000000E+00 -0.00000000000E+00 -0.66687594477E+03  0.66687594477E+03  0.00000000000E+00 0. -1.
        -24    2    1    2    0    0 -0.20993294813E+03  0.26059909433E+03  0.53640972207E+02  0.34707571222E+03  0.74836257515E+02 0.  0.
        254    2    1    2    0    0  0.20993294813E+03 -0.26059909433E+03 -0.74034764293E+02  0.96628238524E+03  0.90345822871E+03 0.  0.
         23    2    4    4    0    0 -0.25999208036E+03 -0.35041210327E+03 -0.15856924233E+03  0.47351976563E+03  0.93232182553E+02 0.  0.
         23    2    4    4    0    0  0.46992502848E+03  0.89813008938E+02  0.84534478033E+02  0.49276261961E+03  0.82298313071E+02 0.  0.
          3    1    3    3  502    0 -0.17462436417E+03  0.25166353369E+03  0.44550134720E+02  0.30953661699E+03  0.00000000000E+00 0. -1.
         -4    1    3    3    0  502 -0.35308583956E+02  0.89355606438E+01  0.90908374875E+01  0.37539095237E+02  0.00000000000E+00 0.  1.
         11    1    5    5    0    0 -0.20953210967E+03 -0.22569309223E+03 -0.13779650737E+03  0.33738546843E+03  0.00000000000E+00 0.  1.
        -11    1    5    5    0    0 -0.50459970684E+02 -0.12471901104E+03 -0.20772734955E+02  0.13613429720E+03  0.00000000000E+00 0. -1.
          3    1    6    6  503    0  0.13731958628E+03 -0.67060086081E+01  0.58381029244E+01  0.13760713198E+03  0.00000000000E+00 0. -1.
         -3    1    6    6    0  503  0.33260544221E+03  0.96519017546E+02  0.78696375108E+02  0.35515548762E+03  0.00000000000E+00 0.  1.
<mgrwt>
<rscale>  0 0.13131998E+04</rscale>
<asrwt>0</asrwt>
<pdfrwt beam="1">  1        1 0.10259630E+00 0.13131998E+04</pdfrwt>
<pdfrwt beam="2">  1       -2 0.99458793E-01 0.13131998E+04</pdfrwt>
<totfact> 0.21078743E+01</totfact>
</mgrwt>
</event>
<event>
12    4  0.4183215E-008  0.1514077E+04  0.7818608E-02  0.8875145E-01
          3   -1    0    0  501    0  0.00000000000E+00  0.00000000000E+00  0.93974564802E+03  0.93974564802E+03  0.00000000000E+00 0. -1.
         -4   -1    0    0    0  501 -0.00000000000E+00 -0.00000000000E+00 -0.60985364257E+03  0.60985364257E+03  0.00000000000E+00 0.  1.
        -24    2    1    2    0    0  0.15155942179E+03 -0.45531124765E+03  0.97100434200E+02  0.49602534477E+03  0.79586793850E+02 0.  0.
        254    2    1    2    0    0 -0.15155942179E+03  0.45531124765E+03  0.23279157125E+03  0.10535739458E+04  0.90859647429E+03 0.  0.
         23    2    4    4    0    0 -0.50008214338E+03  0.11503710660E+03  0.19600367004E+03  0.55689967983E+03  0.91674035062E+02 0.  0.
         23    2    4    4    0    0  0.34852272159E+03  0.34027414105E+03  0.36787901216E+02  0.49667426599E+03  0.89874347193E+02 0.  0.
          1    1    3    3  502    0  0.13119727440E+03 -0.27323168609E+03  0.65763494493E+02  0.31015015122E+03  0.00000000000E+00 0. -1.
         -2    1    3    3    0  502  0.20362147389E+02 -0.18207956157E+03  0.31336939708E+02  0.18587519355E+03  0.00000000000E+00 0.  1.
         11    1    5    5    0    0 -0.37616107224E+02  0.35019240780E+02  0.11960328408E+02  0.52767112894E+02  0.00000000000E+00 0. -1.
        -11    1    5    5    0    0 -0.46246603616E+03  0.80017865821E+02  0.18404334163E+03  0.50413256694E+03  0.00000000000E+00 0.  1.
          2    1    6    6  503    0  0.80066026748E+01  0.35941185153E+02  0.14058289043E+02  0.39414590793E+02  0.00000000000E+00 0. -1.
         -2    1    6    6    0  503  0.34051611892E+03  0.30433295590E+03  0.22729612172E+02  0.45725967519E+03  0.00000000000E+00 0.  1.
<mgrwt>
<rscale>  0 0.15140770E+04</rscale>
<asrwt>0</asrwt>
<pdfrwt beam="1">  1        3 0.14457625E+00 0.15140770E+04</pdfrwt>
<pdfrwt beam="2">  1       -4 0.93823637E-01 0.15140770E+04</pdfrwt>
<totfact> 0.75515964E-01</totfact>
</mgrwt>
</event>
<event>
12    4  0.4183215E-008  0.1344901E+04  0.7818608E-02  0.8994697E-01
          1   -1    0    0  501    0  0.00000000000E+00  0.00000000000E+00  0.17911696209E+04  0.17911696209E+04  0.00000000000E+00 0. -1.
         -2   -1    0    0    0  501 -0.00000000000E+00 -0.00000000000E+00 -0.25245496057E+03  0.25245496057E+03  0.00000000000E+00 0.  1.
        -24    2    1    2    0    0  0.19319292592E+03 -0.17049217356E+03  0.33976446725E+02  0.27175190994E+03  0.79395300579E+02 0.  0.
        254    2    1    2    0    0 -0.19319292592E+03  0.17049217356E+03  0.15047382136E+04  0.17718726716E+04  0.89939123011E+03 0.  0.
         23    2    4    4    0    0 -0.27323025293E+03 -0.22144916835E+03  0.12183631868E+04  0.12712596190E+04  0.89429629831E+02 0.  0.
         23    2    4    4    0    0  0.80037327007E+02  0.39194134191E+03  0.28637502689E+03  0.50061305261E+03  0.92621721026E+02 0.  0.
          1    1    3    3  502    0  0.20515460144E+02  0.66639162041E+01 -0.23926480464E+01  0.21702917978E+02  0.00000000000E+00 0. -1.
         -2    1    3    3    0  502  0.17267746578E+03 -0.17715608976E+03  0.36369094771E+02  0.25004899197E+03  0.00000000000E+00 0.  1.
         11    1    5    5    0    0 -0.24511521154E+03 -0.22154981942E+03  0.10560502919E+04  0.11065297142E+04  0.00000000000E+00 0.  1.
        -11    1    5    5    0    0 -0.28115041392E+02  0.10065107307E+00  0.16231289489E+03  0.16472990478E+03  0.00000000000E+00 0. -1.
          3    1    6    6  503    0 -0.37206750276E+01  0.14235852020E+03  0.13855854436E+03  0.19869137352E+03  0.00000000000E+00 0. -1.
         -3    1    6    6    0  503  0.83758002035E+02  0.24958282170E+03  0.14781648253E+03  0.30192167908E+03  0.00000000000E+00 0.  1.
<mgrwt>
<rscale>  0 0.13449010E+04</rscale>
<asrwt>0</asrwt>
<pdfrwt beam="1">  1        1 0.27556455E+00 0.13449010E+04</pdfrwt>
<pdfrwt beam="2">  1       -2 0.38839226E-01 0.13449010E+04</pdfrwt>
<totfact> 0.22251269E+01</totfact>
</mgrwt>
</event>
<event>
12    4  0.4183215E-008  0.2158867E+04  0.7818608E-02  0.8535746E-01
          1   -1    0    0  501    0  0.00000000000E+00  0.00000000000E+00  0.36162289763E+03  0.36162289763E+03  0.00000000000E+00 0. -1.
         -2   -1    0    0    0  501 -0.00000000000E+00 -0.00000000000E+00 -0.32220772576E+04  0.32220772576E+04  0.00000000000E+00 0.  1.
        -24    2    1    2    0    0  0.12065451822E+03  0.35550618010E+03  0.15708917257E+03  0.41353571842E+03  0.73434497415E+02 0.  0.
        254    2    1    2    0    0 -0.12065451822E+03 -0.35550618010E+03 -0.30175435326E+04  0.31701644368E+04  0.89634336543E+03 0.  0.
         23    2    4    4    0    0  0.11024826869E+03 -0.55241528091E+03 -0.12406893012E+04  0.13652097253E+04  0.84677791684E+02 0.  0.
         23    2    4    4    0    0 -0.23090278691E+03  0.19690910081E+03 -0.17768542313E+04  0.18049547116E+04  0.92527079542E+02 0.  0.
          3    1    3    3  502    0  0.74144191436E+02  0.22828371279E+03  0.61590588751E+02  0.24779873945E+03  0.00000000000E+00 0. -1.
         -4    1    3    3    0  502  0.46510326784E+02  0.12722246731E+03  0.95498583820E+02  0.16573697897E+03  0.00000000000E+00 0.  1.
         11    1    5    5    0    0  0.82677954466E+02 -0.27975296907E+03 -0.56004299891E+03  0.63146300642E+03  0.00000000000E+00 0. -1.
        -11    1    5    5    0    0  0.27570314220E+02 -0.27266231185E+03 -0.68064630232E+03  0.73374671883E+03  0.00000000000E+00 0.  1.
          1    1    6    6  503    0 -0.76619070195E+02  0.32935063757E+02 -0.69027087546E+03  0.69529064560E+03  0.00000000000E+00 0. -1.
         -1    1    6    6    0  503 -0.15428371671E+03  0.16397403705E+03 -0.10865833559E+04  0.11096640660E+04  0.00000000000E+00 0.  1.
<mgrwt>
<rscale>  0 0.21588672E+04</rscale>
<asrwt>0</asrwt>
<pdfrwt beam="1">  1        1 0.55634290E-01 0.21588672E+04</pdfrwt>
<pdfrwt beam="2">  1       -2 0.49570421E+00 0.21588672E+04</pdfrwt>
<totfact> 0.96045326E-02</totfact>
</mgrwt>
</event>
<event>
12    4  0.4183215E-008  0.2676422E+04  0.7818608E-02  0.8342696E-01
          3   -1    0    0  501    0  0.00000000000E+00  0.00000000000E+00  0.11654182248E+04  0.11654182248E+04  0.00000000000E+00 0. -1.
         -4   -1    0    0    0  501 -0.00000000000E+00 -0.00000000000E+00 -0.15366228927E+04  0.15366228927E+04  0.00000000000E+00 0.  1.
        -24    2    1    2    0    0 -0.18870656658E+03  0.10334285675E+03  0.10135783084E+04  0.10394743110E+04  0.82921298238E+02 0.  0.
        254    2    1    2    0    0  0.18870656658E+03 -0.10334285675E+03 -0.13847829763E+04  0.16625668066E+04  0.89454713717E+03 0.  0.
         23    2    4    4    0    0  0.36306888348E+03  0.22441322033E+03 -0.11073448732E+04  0.11900697916E+04  0.88730677441E+02 0.  0.
         23    2    4    4    0    0 -0.17436231690E+03 -0.32775607709E+03 -0.27743810307E+03  0.47249701494E+03  0.91952512051E+02 0.  0.
          3    1    3    3  502    0 -0.18524577056E+03  0.75603255000E+02  0.93215247941E+03  0.95338349710E+03  0.00000000000E+00 0. -1.
         -4    1    3    3    0  502 -0.34607960221E+01  0.27739601753E+02  0.81425828982E+02  0.86090813911E+02  0.00000000000E+00 0.  1.
         11    1    5    5    0    0  0.35845797872E+03  0.22604340650E+03 -0.11067917978E+04  0.11851480194E+04  0.00000000000E+00 0.  1.
        -11    1    5    5    0    0  0.46109047596E+01 -0.16301861677E+01 -0.55307538736E+00  0.49217722446E+01  0.00000000000E+00 0. -1.
          3    1    6    6  503    0 -0.32958761310E+02 -0.23150671755E+02 -0.60549731585E+02  0.72722098050E+02  0.00000000000E+00 0. -1.
         -3    1    6    6    0  503 -0.14140355559E+03 -0.30460540533E+03 -0.21688837149E+03  0.39977491689E+03  0.00000000000E+00 0.  1.
<mgrwt>
<rscale>  0 0.26764217E+04</rscale>
<asrwt>0</asrwt>
<pdfrwt beam="1">  1        3 0.17929511E+00 0.26764217E+04</pdfrwt>
<pdfrwt beam="2">  1       -4 0.23640352E+00 0.26764217E+04</pdfrwt>
<totfact> 0.30830868E-02</totfact>
</mgrwt>
</event>
<event>
12    4  0.4183215E-008  0.1584009E+04  0.7818608E-02  0.8830433E-01
          1   -1    0    0  501    0  0.00000000000E+00  0.00000000000E+00  0.69088381838E+03  0.69088381838E+03  0.00000000000E+00 0. -1.
         -2   -1    0    0    0  501 -0.00000000000E+00 -0.00000000000E+00 -0.90792526864E+03  0.90792526864E+03  0.00000000000E+00 0.  1.
        -24    2    1    2    0    0 -0.38516073401E+03 -0.35338572068E+03  0.49582551107E+02  0.53125629866E+03  0.80898497447E+02 0.  0.
        254    2    1    2    0    0  0.38516073401E+03  0.35338572068E+03 -0.26662400136E+03  0.10675527884E+04  0.89182416386E+03 0.  0.
         23    2    4    4    0    0 -0.13557347535E+03 -0.69202279666E+02  0.18279002488E+03  0.25513190452E+03  0.92254933620E+02 0.  0.
         23    2    4    4    0    0  0.52073420935E+03  0.42258800035E+03 -0.44941402625E+03  0.81242088385E+03  0.91159150355E+02 0.  0.
          1    1    3    3  502    0 -0.28000372680E+03 -0.29820621994E+03  0.52834456931E+02  0.41245668436E+03  0.00000000000E+00 0. -1.
         -4    1    3    3    0  502 -0.10515700720E+03 -0.55179500741E+02 -0.32519058249E+01  0.11879961430E+03  0.00000000000E+00 0.  1.
         11    1    5    5    0    0  0.12023233225E+02 -0.15860580766E+02  0.30706211386E+02  0.36592179180E+02  0.00000000000E+00 0. -1.
        -11    1    5    5    0    0 -0.14759670857E+03 -0.53341698899E+02  0.15208381350E+03  0.21853972534E+03  0.00000000000E+00 0.  1.
          3    1    6    6  503    0  0.11447404026E+03  0.77770130037E+02 -0.13694815308E+03  0.19469796006E+03  0.00000000000E+00 0. -1.
         -3    1    6    6    0  503  0.40626016909E+03  0.34481787031E+03 -0.31246587317E+03  0.61772292379E+03  0.00000000000E+00 0.  1.
<mgrwt>
<rscale>  0 0.15840087E+04</rscale>
<asrwt>0</asrwt>
<pdfrwt beam="1">  1        1 0.10628982E+00 0.15840087E+04</pdfrwt>
<pdfrwt beam="2">  1       -2 0.13968081E+00 0.15840087E+04</pdfrwt>
<totfact> 0.84432214E+00</totfact>
</mgrwt>
</event>
<event>
12    4  0.4183215E-008  0.2217938E+04  0.7818608E-02  0.8510999E-01
         -2   -1    0    0    0  501 -0.00000000000E+00  0.00000000000E+00  0.56106522707E+03  0.56106522707E+03  0.00000000000E+00 0.  1.
          1   -1    0    0  501    0  0.00000000000E+00 -0.00000000000E+00 -0.21919230214E+04  0.21919230214E+04  0.00000000000E+00 0. -1.
        -24    2    1    2    0    0 -0.91021618969E+03  0.43332885664E+02 -0.50331096553E+03  0.10442329118E+04  0.82031671123E+02 0.  0.
        254    2    1    2    0    0  0.91021618969E+03 -0.43332885664E+02 -0.11275468288E+04  0.17087553367E+04  0.90449527284E+03 0.  0.
         23    2    4    4    0    0  0.40498627962E+02 -0.30505703560E+03 -0.10665489269E+03  0.33926863994E+03  0.95015841175E+02 0.  0.
         23    2    4    4    0    0  0.86971756173E+03  0.26172414993E+03 -0.10208919361E+04  0.13694866968E+04  0.91462011486E+02 0.  0.
          3    1    3    3  502    0 -0.34343817561E+03  0.47936914291E+02 -0.21892621001E+03  0.41009317678E+03  0.00000000000E+00 0. -1.
         -4    1    3    3    0  502 -0.56677801409E+03 -0.46040286266E+01 -0.28438475552E+03  0.63413973500E+03  0.00000000000E+00 0.  1.
         11    1    5    5    0    0  0.20518242940E+02 -0.55849208092E+02  0.14812715355E+02  0.61315160230E+02  0.00000000000E+00 0.  1.
        -11    1    5    5    0    0  0.19980385021E+02 -0.24920782751E+03 -0.12146760805E+03  0.27795347971E+03  0.00000000000E+00 0. -1.
          1    1    6    6  503    0  0.63941134553E+03  0.16087300610E+03 -0.69669842201E+03  0.95922660728E+03  0.00000000000E+00 0. -1.
         -1    1    6    6    0  503  0.23030621620E+03  0.10085114383E+03 -0.32419351414E+03  0.41026008950E+03  0.00000000000E+00 0.  1.
<mgrwt>
<rscale>  0 0.22179376E+04</rscale>
<asrwt>0</asrwt>
<pdfrwt beam="1">  1        1 0.33721893E+00 0.22179376E+04</pdfrwt>
<pdfrwt beam="2">  1       -2 0.86317727E-01 0.22179376E+04</pdfrwt>
<totfact> 0.20526225E+00</totfact>
</mgrwt>
</event>
<event>
12    4  0.4183215E-008  0.1329647E+04  0.7818608E-02  0.9006380E-01
         -2   -1    0    0    0  501 -0.00000000000E+00  0.00000000000E+00  0.20000777616E+03  0.20000777616E+03  0.00000000000E+00 0.  1.
          1   -1    0    0  501    0  0.00000000000E+00 -0.00000000000E+00 -0.22098658487E+04  0.22098658487E+04  0.00000000000E+00 0. -1.
        -24    2    1    2    0    0 -0.98389929310E+02  0.34349993161E+03 -0.57260016121E+03  0.67959552045E+03  0.79412502707E+02 0.  0.
        254    2    1    2    0    0  0.98389929310E+02 -0.34349993161E+03 -0.14372579113E+04  0.17302781044E+04  0.89469505068E+03 0.  0.
         23    2    4    4    0    0 -0.37925795238E+03 -0.25923420946E+03 -0.75102094868E+03  0.88499551820E+03  0.90253155425E+02 0.  0.
         23    2    4    4    0    0  0.47764788169E+03 -0.84265722150E+02 -0.68623696260E+03  0.84528258618E+03  0.91286750651E+02 0.  0.
          1    1    3    3  502    0 -0.75759208114E+01  0.30374606821E+02 -0.10492061939E+03  0.10949131331E+03  0.00000000000E+00 0. -1.
         -2    1    3    3    0  502 -0.90814008498E+02  0.31312532479E+03 -0.46767954182E+03  0.57010420714E+03  0.00000000000E+00 0.  1.
         11    1    5    5    0    0 -0.21121721482E+03 -0.99397381845E+02 -0.32824341691E+03  0.40278566522E+03  0.00000000000E+00 0.  1.
        -11    1    5    5    0    0 -0.16804073756E+03 -0.15983682762E+03 -0.42277753177E+03  0.48220985298E+03  0.00000000000E+00 0. -1.
          1    1    6    6  503    0  0.31300468352E+03 -0.11571857598E+02 -0.42049317555E+03  0.52432847575E+03  0.00000000000E+00 0. -1.
         -1    1    6    6    0  503  0.16464319816E+03 -0.72693864552E+02 -0.26574378705E+03  0.32095411043E+03  0.00000000000E+00 0.  1.
<mgrwt>
<rscale>  0 0.13296471E+04</rscale>
<asrwt>0</asrwt>
<pdfrwt beam="1">  1        1 0.33997936E+00 0.13296471E+04</pdfrwt>
<pdfrwt beam="2">  1       -2 0.30770427E-01 0.13296471E+04</pdfrwt>
<totfact> 0.18094577E+01</totfact>
</mgrwt>
</event>
<event>
12    4  0.4183215E-008  0.1208769E+04  0.7818608E-02  0.9105216E-01
         -2   -1    0    0    0  501 -0.00000000000E+00  0.00000000000E+00  0.70512567812E+03  0.70512567812E+03  0.00000000000E+00 0.  1.
          1   -1    0    0  501    0  0.00000000000E+00 -0.00000000000E+00 -0.51803609296E+03  0.51803609296E+03  0.00000000000E+00 0. -1.
        -24    2    1    2    0    0  0.17486310297E+03 -0.13571309147E+03  0.17328167562E+03  0.29232250339E+03  0.80192012741E+02 0.  0.
        254    2    1    2    0    0 -0.17486310297E+03  0.13571309147E+03  0.13807909549E+02  0.93083926769E+03  0.90403314979E+03 0.  0.
         23    2    4    4    0    0 -0.24232417994E+03 -0.33393536459E+03  0.11382672187E+03  0.43748602850E+03  0.90574094634E+02 0.  0.
         23    2    4    4    0    0  0.67461076967E+02  0.46964845606E+03 -0.10001881232E+03  0.49335323918E+03  0.90955959742E+02 0.  0.
          3    1    3    3  502    0  0.10038706616E+03 -0.69107159301E+02  0.45444135901E+02  0.13007125742E+03  0.00000000000E+00 0. -1.
         -4    1    3    3    0  502  0.74476036816E+02 -0.66605932168E+02  0.12783753972E+03  0.16225124598E+03  0.00000000000E+00 0.  1.
         11    1    5    5    0    0 -0.37832698128E+02 -0.10561824943E+02  0.43118626434E+01  0.39515279997E+02  0.00000000000E+00 0.  1.
        -11    1    5    5    0    0 -0.20449148181E+03 -0.32337353964E+03  0.10951485923E+03  0.39797074851E+03  0.00000000000E+00 0. -1.
          3    1    6    6  503    0 -0.22249714137E+02  0.10166254995E+03 -0.14730163891E+02  0.10510614430E+03  0.00000000000E+00 0. -1.
         -3    1    6    6    0  503  0.89710791104E+02  0.36798590611E+03 -0.85288648433E+02  0.38824709489E+03  0.00000000000E+00 0.  1.
<mgrwt>
<rscale>  0 0.12087689E+04</rscale>
<asrwt>0</asrwt>
<pdfrwt beam="1">  1        1 0.79697860E-01 0.12087689E+04</pdfrwt>
<pdfrwt beam="2">  1       -2 0.10848087E+00 0.12087689E+04</pdfrwt>
<totfact> 0.24801720E+01</totfact>
</mgrwt>
</event>
<event>
12    4  0.4183215E-008  0.1177646E+04  0.7818608E-02  0.9132651E-01
         -2   -1    0    0    0  501 -0.00000000000E+00  0.00000000000E+00  0.63750273661E+03  0.63750273661E+03  0.00000000000E+00 0.  1.
          1   -1    0    0  501    0  0.00000000000E+00 -0.00000000000E+00 -0.54386081796E+03  0.54386081796E+03  0.00000000000E+00 0. -1.
        -24    2    1    2    0    0  0.22930131793E+03 -0.42663165824E+02  0.69880331229E+02  0.25705450209E+03  0.82428855558E+02 0.  0.
        254    2    1    2    0    0 -0.22930131793E+03  0.42663165824E+02  0.23761587427E+02  0.92430905249E+03  0.89408241866E+03 0.  0.
         23    2    4    4    0    0 -0.12222102139E+03  0.43074768034E+03 -0.14190673914E+03  0.47868050402E+03  0.92281959931E+02 0.  0.
         23    2    4    4    0    0 -0.10708029654E+03 -0.38808451452E+03  0.16566832657E+03  0.44562854847E+03  0.95199939408E+02 0.  0.
          3    1    3    3  502    0  0.94014948362E+02  0.61270626435E+01  0.62479301651E+02  0.11304872643E+03  0.00000000000E+00 0. -1.
         -4    1    3    3    0  502  0.13528636957E+03 -0.48790228467E+02  0.74010295777E+01  0.14400577566E+03  0.00000000000E+00 0.  1.
         11    1    5    5    0    0 -0.14418097406E+02  0.25140429785E+02  0.12401195680E+02  0.31523204102E+02  0.00000000000E+00 0. -1.
        -11    1    5    5    0    0 -0.10780292398E+03  0.40560725056E+03 -0.15430793482E+03  0.44715729992E+03  0.00000000000E+00 0.  1.
          4    1    6    6  503    0 -0.45385582131E+02 -0.69764292650E+02  0.66579137584E+02  0.10658184252E+03  0.00000000000E+00 0. -1.
         -4    1    6    6    0  503 -0.61694714411E+02 -0.31832022187E+03  0.99089188984E+02  0.33904670594E+03  0.00000000000E+00 0.  1.
<mgrwt>
<rscale>  0 0.11776464E+04</rscale>
<asrwt>0</asrwt>
<pdfrwt beam="1">  1        1 0.83670895E-01 0.11776464E+04</pdfrwt>
<pdfrwt beam="2">  1       -2 0.98077344E-01 0.11776464E+04</pdfrwt>
<totfact> 0.29559989E+01</totfact>
</mgrwt>
</event>
<event>
12    4  0.4183215E-008  0.2516519E+04  0.7818608E-02  0.8397124E-01
          1   -1    0    0  501    0  0.00000000000E+00  0.00000000000E+00  0.13862260418E+04  0.13862260418E+04  0.00000000000E+00 0. -1.
         -4   -1    0    0    0  501 -0.00000000000E+00 -0.00000000000E+00 -0.11421062031E+04  0.11421062031E+04  0.00000000000E+00 0.  1.
        -24    2    1    2    0    0  0.14527150370E+03 -0.10151911119E+04 -0.27819638959E+03  0.10656111687E+04  0.80106978747E+02 0.  0.
        254    2    1    2    0    0 -0.14527150370E+03  0.10151911119E+04  0.52231622828E+03  0.14627210762E+04  0.90278563396E+03 0.  0.
         23    2    4    4    0    0 -0.12123035477E+03  0.87164916615E+03  0.76057973425E+03  0.11661265480E+04  0.83069405087E+02 0.  0.
         23    2    4    4    0    0 -0.24041148938E+02  0.14354194579E+03 -0.23826350597E+03  0.29659452819E+03  0.10008270995E+03 0.  0.
          3    1    3    3  502    0  0.93525017324E+02 -0.50035376135E+03 -0.17283386882E+03  0.53756149562E+03  0.00000000000E+00 0. -1.
         -4    1    3    3    0  502  0.51746486381E+02 -0.51483735059E+03 -0.10536252077E+03  0.52804967304E+03  0.00000000000E+00 0.  1.
         11    1    5    5    0    0 -0.11877264180E+03  0.58017121728E+03  0.49635777961E+03  0.77270733604E+03  0.00000000000E+00 0.  1.
        -11    1    5    5    0    0 -0.24577129651E+01  0.29147794887E+03  0.26422195463E+03  0.39341921196E+03  0.00000000000E+00 0. -1.
          1    1    6    6  503    0 -0.60902509768E+02  0.63333014653E+02 -0.10777718544E+03  0.13905433522E+03  0.00000000000E+00 0. -1.
         -1    1    6    6    0  503  0.36861360830E+02  0.80208931138E+02 -0.13048632053E+03  0.15754019297E+03  0.00000000000E+00 0.  1.
<mgrwt>
<rscale>  0 0.25165193E+04</rscale>
<asrwt>0</asrwt>
<pdfrwt beam="1">  1        1 0.21326554E+00 0.25165193E+04</pdfrwt>
<pdfrwt beam="2">  1       -4 0.17570865E+00 0.25165193E+04</pdfrwt>
<totfact> 0.65264971E-01</totfact>
</mgrwt>
</event>
<event>
12    4  0.4183215E-008  0.3688401E+04  0.7818608E-02  0.8070537E-01
          1   -1    0    0  501    0  0.00000000000E+00  0.00000000000E+00  0.17564184449E+04  0.17564184449E+04  0.00000000000E+00 0. -1.
         -2   -1    0    0    0  501 -0.00000000000E+00 -0.00000000000E+00 -0.19363695411E+04  0.19363695411E+04  0.00000000000E+00 0.  1.
        -24    2    1    2    0    0 -0.23788735323E+03  0.83744867049E+02  0.16257967787E+04  0.16467822862E+04  0.71225955687E+02 0.  0.
        254    2    1    2    0    0  0.23788735323E+03 -0.83744867049E+02 -0.18057478749E+04  0.20460056998E+04  0.92833740636E+03 0.  0.
         23    2    4    4    0    0  0.24901823600E+03  0.17575962765E+03 -0.17315927195E+04  0.17608716107E+04  0.96715845787E+02 0.  0.
         23    2    4    4    0    0 -0.11130882768E+02 -0.25950449470E+03 -0.74155155462E+02  0.28513408902E+03  0.91301600838E+02 0.  0.
          3    1    3    3  502    0 -0.19809736820E+03  0.96324324493E+02  0.13540761543E+04  0.13718757868E+04  0.00000000000E+00 0. -1.
         -4    1    3    3    0  502 -0.39789985033E+02 -0.12579457443E+02  0.27172062443E+03  0.27490649938E+03  0.00000000000E+00 0.  1.
         11    1    5    5    0    0  0.71022574792E+02  0.73644541020E+01 -0.50721474459E+03  0.51221600760E+03  0.00000000000E+00 0.  1.
        -11    1    5    5    0    0  0.17799566120E+03  0.16839517355E+03 -0.12243779749E+04  0.12486556031E+04  0.00000000000E+00 0. -1.
          2    1    6    6  503    0 -0.62318118820E+01 -0.16504575330E+03 -0.35523034432E+00  0.16516374405E+03  0.00000000000E+00 0. -1.
         -2    1    6    6    0  503 -0.48990708856E+01 -0.94458741407E+02 -0.73799925118E+02  0.11997034497E+03  0.00000000000E+00 0.  1.
<mgrwt>
<rscale>  0 0.36884008E+04</rscale>
<asrwt>0</asrwt>
<pdfrwt beam="1">  1        1 0.27021822E+00 0.36884008E+04</pdfrwt>
<pdfrwt beam="2">  1       -2 0.29790300E+00 0.36884008E+04</pdfrwt>
<totfact> 0.10076439E-01</totfact>
</mgrwt>
</event>
<event>
12    4  0.4183215E-008  0.1871387E+04  0.7818608E-02  0.8669232E-01
         -4   -1    0    0    0  501 -0.00000000000E+00  0.00000000000E+00  0.75198730749E+03  0.75198730749E+03  0.00000000000E+00 0.  1.
          1   -1    0    0  501    0  0.00000000000E+00 -0.00000000000E+00 -0.11642778854E+04  0.11642778854E+04  0.00000000000E+00 0. -1.
        -24    2    1    2    0    0  0.10681195741E+02  0.69913046428E+03 -0.32929466005E+03  0.77704562594E+03  0.80420380603E+02 0.  0.
        254    2    1    2    0    0 -0.10681195741E+02 -0.69913046428E+03 -0.82995917820E+02  0.11392195669E+04  0.89556429431E+03 0.  0.
         23    2    4    4    0    0  0.41756481686E+03 -0.43875059147E+03  0.41307055425E+02  0.61372182267E+03  0.89920770662E+02 0.  0.
         23    2    4    4    0    0 -0.42824601260E+03 -0.26037987281E+03 -0.12430297325E+03  0.52549774425E+03  0.97490125571E+02 0.  0.
          3    1    3    3  502    0  0.66280804881E+01  0.23222172703E+03 -0.15183730809E+03  0.27753455656E+03  0.00000000000E+00 0. -1.
         -4    1    3    3    0  502  0.40531152525E+01  0.46690873725E+03 -0.17745735197E+03  0.49951106938E+03  0.00000000000E+00 0.  1.
         11    1    5    5    0    0  0.19607679387E+03 -0.19925987941E+03  0.63784468748E+02  0.28673867386E+03  0.00000000000E+00 0. -1.
        -11    1    5    5    0    0  0.22148802299E+03 -0.23949071206E+03 -0.22477413322E+02  0.32698314880E+03  0.00000000000E+00 0.  1.
          3    1    6    6  503    0 -0.37332825918E+03 -0.19751537343E+03 -0.12977118994E+03  0.44184485238E+03  0.00000000000E+00 0. -1.
         -3    1    6    6    0  503 -0.54917753421E+02 -0.62864499385E+02  0.54682166967E+01  0.83652891866E+02  0.00000000000E+00 0.  1.
<mgrwt>
<rscale>  0 0.18713869E+04</rscale>
<asrwt>0</asrwt>
<pdfrwt beam="1">  1        1 0.17911967E+00 0.18713869E+04</pdfrwt>
<pdfrwt beam="2">  1       -4 0.11569036E+00 0.18713869E+04</pdfrwt>
<totfact> 0.30048784E+00</totfact>
</mgrwt>
</event>
<event>
12    4  0.4183215E-008  0.1146240E+04  0.7818608E-02  0.9161259E-01
         -2   -1    0    0    0  501 -0.00000000000E+00  0.00000000000E+00  0.21231945891E+03  0.21231945891E+03  0.00000000000E+00 0.  1.
          1   -1    0    0  501    0  0.00000000000E+00 -0.00000000000E+00 -0.15470387431E+04  0.15470387431E+04  0.00000000000E+00 0. -1.
        -24    2    1    2    0    0  0.93664591497E+02  0.40035465452E+02 -0.53786242114E+03  0.55330495709E+03  0.80464260823E+02 0.  0.
        254    2    1    2    0    0 -0.93664591497E+02 -0.40035465452E+02 -0.79685686303E+03  0.12060532449E+04  0.89955971184E+03 0.  0.
         23    2    4    4    0    0 -0.26016503020E+03  0.35720638304E+03 -0.29981813637E+03  0.54196591681E+03  0.92487280570E+02 0.  0.
         23    2    4    4    0    0  0.16650043870E+03 -0.39724184849E+03 -0.49703872667E+03  0.66408732809E+03  0.91874921691E+02 0.  0.
          1    1    3    3  502    0  0.26875460072E+02  0.99198803055E+01 -0.35727236584E+03  0.35841908121E+03  0.00000000000E+00 0. -1.
         -2    1    3    3    0  502  0.66789131425E+02  0.30115585146E+02 -0.18059005529E+03  0.19488587588E+03  0.00000000000E+00 0.  1.
         11    1    5    5    0    0 -0.16500840247E+03  0.14924953611E+03 -0.15764941245E+03  0.27268394555E+03  0.00000000000E+00 0.  1.
        -11    1    5    5    0    0 -0.95156627731E+02  0.20795684693E+03 -0.14216872391E+03  0.26928197126E+03  0.00000000000E+00 0. -1.
          1    1    6    6  503    0 -0.83462992309E+01 -0.59152917782E+02 -0.70895364157E+02  0.92708581328E+02  0.00000000000E+00 0. -1.
         -1    1    6    6    0  503  0.17484673793E+03 -0.33808893071E+03 -0.42614336251E+03  0.57137874676E+03  0.00000000000E+00 0.  1.
<mgrwt>
<rscale>  0 0.11462398E+04</rscale>
<asrwt>0</asrwt>
<pdfrwt beam="1">  1        1 0.23800596E+00 0.11462398E+04</pdfrwt>
<pdfrwt beam="2">  1       -2 0.32664532E-01 0.11462398E+04</pdfrwt>
<totfact> 0.46230154E+01</totfact>
</mgrwt>
</event>
<event>
12    4  0.4183215E-008  0.1629617E+04  0.7818608E-02  0.8802557E-01
          1   -1    0    0  501    0  0.00000000000E+00  0.00000000000E+00  0.10100679717E+04  0.10100679717E+04  0.00000000000E+00 0. -1.
         -2   -1    0    0    0  501 -0.00000000000E+00 -0.00000000000E+00 -0.65729511417E+03  0.65729511417E+03  0.00000000000E+00 0.  1.
        -24    2    1    2    0    0 -0.22598195849E+03  0.15120010824E+03  0.63123808646E+03  0.69156385611E+03  0.76614143513E+02 0.  0.
        254    2    1    2    0    0  0.22598195849E+03 -0.15120010824E+03 -0.27846522894E+03  0.97579922975E+03  0.89482508612E+03 0.  0.
         23    2    4    4    0    0 -0.93869783419E+02 -0.37742537234E+03  0.11244869925E+03  0.41491927246E+03  0.90839665220E+02 0.  0.
         23    2    4    4    0    0  0.31985174191E+03  0.22622526410E+03 -0.39091392819E+03  0.56087995728E+03  0.91047352041E+02 0.  0.
          3    1    3    3  502    0 -0.12129016020E+03  0.12465660049E+03  0.41021438302E+03  0.44556302702E+03  0.00000000000E+00 0. -1.
         -4    1    3    3    0  502 -0.10469179829E+03  0.26543507750E+02  0.22102370343E+03  0.24600082909E+03  0.00000000000E+00 0.  1.
         11    1    5    5    0    0 -0.11167354407E+03 -0.33480924671E+03  0.10420326520E+03  0.36800344103E+03  0.00000000000E+00 0. -1.
        -11    1    5    5    0    0  0.17803760656E+02 -0.42616125623E+02  0.82454340513E+01  0.46915831436E+02  0.00000000000E+00 0.  1.
          3    1    6    6  503    0  0.25412118373E+03  0.19037279674E+03 -0.26138438726E+03  0.41126776638E+03  0.00000000000E+00 0. -1.
         -3    1    6    6    0  503  0.65730558174E+02  0.35852467355E+02 -0.12952954093E+03  0.14961219090E+03  0.00000000000E+00 0.  1.
<mgrwt>
<rscale>  0 0.16296168E+04</rscale>
<asrwt>0</asrwt>
<pdfrwt beam="1">  1        1 0.15539507E+00 0.16296168E+04</pdfrwt>
<pdfrwt beam="2">  1       -2 0.10112233E+00 0.16296168E+04</pdfrwt>
<totfact> 0.10029891E+01</totfact>
</mgrwt>
</event>
<event>
12    4  0.4183215E-008  0.1324785E+04  0.7818608E-02  0.9010138E-01
         -2   -1    0    0    0  501 -0.00000000000E+00  0.00000000000E+00  0.10681925351E+04  0.10681925351E+04  0.00000000000E+00 0.  1.
          1   -1    0    0  501    0  0.00000000000E+00 -0.00000000000E+00 -0.41075326870E+03  0.41075326870E+03  0.00000000000E+00 0. -1.
        -24    2    1    2    0    0  0.12132015294E+03  0.83254405744E+01  0.50283879614E+03  0.52387301744E+03  0.82511762941E+02 0.  0.
        254    2    1    2    0    0 -0.12132015294E+03 -0.83254405744E+01  0.15460047027E+03  0.95507278639E+03  0.93459875316E+03 0.  0.
         23    2    4    4    0    0  0.21350135434E+03  0.23412529523E+03  0.35664267934E+03  0.48564591813E+03  0.90887154751E+02 0.  0.
         23    2    4    4    0    0 -0.33482150728E+03 -0.24245073581E+03 -0.20204220907E+03  0.46942686825E+03  0.93020048160E+02 0.  0.
          3    1    3    3  502    0  0.13008867023E+02 -0.12489083053E+02  0.14232922917E+02  0.22973548082E+02  0.00000000000E+00 0. -1.
         -4    1    3    3    0  502  0.10831128592E+03  0.20814523627E+02  0.48860587323E+03  0.50089946936E+03  0.00000000000E+00 0.  1.
         11    1    5    5    0    0  0.16244556468E+03  0.11723592506E+03  0.19312551750E+03  0.27826298554E+03  0.00000000000E+00 0. -1.
        -11    1    5    5    0    0  0.51055789663E+02  0.11688937017E+03  0.16351716184E+03  0.20738293260E+03  0.00000000000E+00 0.  1.
          2    1    6    6  503    0 -0.52033972440E+02 -0.86006744673E+02 -0.45863459788E+02  0.11049050349E+03  0.00000000000E+00 0. -1.
         -2    1    6    6    0  503 -0.28278753484E+03 -0.15644399114E+03 -0.15617874928E+03  0.35893636477E+03  0.00000000000E+00 0.  1.
<mgrwt>
<rscale>  0 0.13247846E+04</rscale>
<asrwt>0</asrwt>
<pdfrwt beam="1">  1        1 0.63192811E-01 0.13247846E+04</pdfrwt>
<pdfrwt beam="2">  1       -2 0.16433731E+00 0.13247846E+04</pdfrwt>
<totfact> 0.11604403E+01</totfact>
</mgrwt>
</event>
<event>
12    4  0.4183215E-008  0.1656805E+04  0.7818608E-02  0.8786391E-01
          1   -1    0    0  501    0  0.00000000000E+00  0.00000000000E+00  0.19454755813E+04  0.19454755813E+04  0.00000000000E+00 0. -1.
         -2   -1    0    0    0  501 -0.00000000000E+00 -0.00000000000E+00 -0.35274201461E+03  0.35274201461E+03  0.00000000000E+00 0.  1.
        -24    2    1    2    0    0 -0.37247021243E+02  0.42049123241E+03  0.19068228438E+02  0.42968024563E+03  0.77854344917E+02 0.  0.
        254    2    1    2    0    0  0.37247021243E+02 -0.42049123241E+03  0.15736653383E+04  0.18685373503E+04  0.91477265779E+03 0.  0.
         23    2    4    4    0    0  0.76830881590E+02  0.10222204508E+03  0.12185998085E+04  0.12287531032E+04  0.92175725436E+02 0.  0.
         23    2    4    4    0    0 -0.39583860347E+02 -0.52271327750E+03  0.35506552979E+03  0.63978424716E+03  0.91958142639E+02 0.  0.
          1    1    3    3  502    0  0.23043364933E+02  0.82378965878E+02  0.99024924162E+01  0.86112426760E+02  0.00000000000E+00 0. -1.
         -2    1    3    3    0  502 -0.60290386176E+02  0.33811226654E+03  0.91657360219E+01  0.34356781887E+03  0.00000000000E+00 0.  1.
         11    1    5    5    0    0  0.15366531896E+02  0.71177867088E+02  0.89232384419E+03  0.89529004349E+03  0.00000000000E+00 0. -1.
        -11    1    5    5    0    0  0.61464349694E+02  0.31044177995E+02  0.32627596431E+03  0.33346305966E+03  0.00000000000E+00 0.  1.
          1    1    6    6  503    0  0.13314573716E+02 -0.36930543877E+03  0.23524146921E+03  0.43806658605E+03  0.00000000000E+00 0. -1.
         -1    1    6    6    0  503 -0.52898434063E+02 -0.15340783872E+03  0.11982406058E+03  0.20171766111E+03  0.00000000000E+00 0.  1.
<mgrwt>
<rscale>  0 0.16568053E+04</rscale>
<asrwt>0</asrwt>
<pdfrwt beam="1">  1        1 0.29930393E+00 0.16568053E+04</pdfrwt>
<pdfrwt beam="2">  1       -2 0.54268003E-01 0.16568053E+04</pdfrwt>
<totfact> 0.87002749E+00</totfact>
</mgrwt>
</event>
<event>
12    4  0.4183215E-008  0.2063152E+04  0.7818608E-02  0.8577651E-01
         -2   -1    0    0    0  501 -0.00000000000E+00  0.00000000000E+00  0.35218055483E+03  0.35218055483E+03  0.00000000000E+00 0.  1.
          1   -1    0    0  501    0  0.00000000000E+00 -0.00000000000E+00 -0.30216006052E+04  0.30216006052E+04  0.00000000000E+00 0. -1.
        -24    2    1    2    0    0 -0.17934401270E+03  0.59261145857E+03 -0.17296703749E+03  0.64771291328E+03  0.79131575538E+02 0.  0.
        254    2    1    2    0    0  0.17934401270E+03 -0.59261145857E+03 -0.24964530129E+04  0.27260682468E+04  0.90322634189E+03 0.  0.
         23    2    4    4    0    0  0.25109864747E+03 -0.69541665280E+03 -0.24545799990E+04  0.25650968229E+04  0.90021595566E+02 0.  0.
         23    2    4    4    0    0 -0.71754634772E+02  0.10280519423E+03 -0.41873013896E+02  0.16097142385E+03  0.91873905067E+02 0.  0.
          3    1    3    3  502    0 -0.48757843070E+02  0.20456840974E+03 -0.95740502723E+02  0.23106666870E+03  0.00000000000E+00 0. -1.
         -4    1    3    3    0  502 -0.13058616963E+03  0.38804304883E+03 -0.77226534764E+02  0.41664624457E+03  0.00000000000E+00 0.  1.
         11    1    5    5    0    0  0.13768029357E+03 -0.36385282743E+03 -0.11369901283E+04  0.12017034971E+04  0.00000000000E+00 0. -1.
        -11    1    5    5    0    0  0.11341835390E+03 -0.33156382537E+03 -0.13175898707E+04  0.13633933258E+04  0.00000000000E+00 0.  1.
          1    1    6    6  503    0 -0.40372905772E+02  0.20469191221E+02 -0.55706239237E+02  0.71778439657E+02  0.00000000000E+00 0. -1.
         -1    1    6    6    0  503 -0.31381729000E+02  0.82336003004E+02  0.13833225341E+02  0.89192984192E+02  0.00000000000E+00 0.  1.
<mgrwt>
<rscale>  0 0.20631519E+04</rscale>
<asrwt>0</asrwt>
<pdfrwt beam="1">  1        1 0.46486163E+00 0.20631519E+04</pdfrwt>
<pdfrwt beam="2">  1       -2 0.54181624E-01 0.20631519E+04</pdfrwt>
<totfact> 0.15011224E+00</totfact>
</mgrwt>
</event>
<event>
12    4  0.4183215E-008  0.1291908E+04  0.7818608E-02  0.9036007E-01
          1   -1    0    0  501    0  0.00000000000E+00  0.00000000000E+00  0.51094680492E+03  0.51094680492E+03  0.00000000000E+00 0. -1.
         -2   -1    0    0    0  501 -0.00000000000E+00 -0.00000000000E+00 -0.81663461404E+03  0.81663461404E+03  0.00000000000E+00 0.  1.
        -24    2    1    2    0    0 -0.12062483075E+03  0.25711610381E+03 -0.27796561555E+03  0.40385887059E+03  0.71958761062E+02 0.  0.
        254    2    1    2    0    0  0.12062483075E+03 -0.25711610381E+03 -0.27722193569E+02  0.92372254836E+03  0.87854185199E+03 0.  0.
         23    2    4    4    0    0 -0.98685364022E+02 -0.28234534266E+03  0.35488762394E+03  0.47263077475E+03  0.89313660887E+02 0.  0.
         23    2    4    4    0    0  0.21931019477E+03  0.25229238853E+02 -0.38260981751E+03  0.45109177361E+03  0.91433252944E+02 0.  0.
          3    1    3    3  502    0 -0.46960240142E+02  0.72220360775E+02 -0.44137130375E+02  0.96794271227E+02  0.00000000000E+00 0. -1.
         -4    1    3    3    0  502 -0.73664590610E+02  0.18489574303E+03 -0.23382848518E+03  0.30706459936E+03  0.00000000000E+00 0.  1.
         11    1    5    5    0    0 -0.87607907827E+02 -0.11573453171E+03  0.16716681248E+03  0.22139189357E+03  0.00000000000E+00 0. -1.
        -11    1    5    5    0    0 -0.11077456195E+02 -0.16661081095E+03  0.18772081146E+03  0.25123888118E+03  0.00000000000E+00 0.  1.
          1    1    6    6  503    0  0.57415979568E+02 -0.13132092338E+02 -0.43025739776E+02  0.72940118194E+02  0.00000000000E+00 0. -1.
         -1    1    6    6    0  503  0.16189421521E+03  0.38361331192E+02 -0.33958407773E+03  0.37815165542E+03  0.00000000000E+00 0.  1.
<mgrwt>
<rscale>  0 0.12919084E+04</rscale>
<asrwt>0</asrwt>
<pdfrwt beam="1">  1        1 0.78607201E-01 0.12919084E+04</pdfrwt>
<pdfrwt beam="2">  1       -2 0.12563609E+00 0.12919084E+04</pdfrwt>
<totfact> 0.17499054E+01</totfact>
</mgrwt>
</event>
<event>
12    4  0.4183215E-008  0.1758971E+04  0.7818608E-02  0.8728428E-01
          1   -1    0    0  501    0  0.00000000000E+00  0.00000000000E+00  0.11466182437E+04  0.11466182437E+04  0.00000000000E+00 0. -1.
         -2   -1    0    0    0  501 -0.00000000000E+00 -0.00000000000E+00 -0.67458772004E+03  0.67458772004E+03  0.00000000000E+00 0.  1.
        -24    2    1    2    0    0  0.91509154646E+02 -0.46410856321E+03 -0.27953631648E+03  0.55516082085E+03  0.79324025027E+02 0.  0.
        254    2    1    2    0    0 -0.91509154646E+02  0.46410856321E+03  0.75156684015E+03  0.12660451429E+04  0.90235630701E+03 0.  0.
         23    2    4    4    0    0 -0.92846812732E+02  0.60737382866E+03  0.86219025557E+03  0.10628938521E+04  0.94062775420E+02 0.  0.
         23    2    4    4    0    0  0.13376580863E+01 -0.14326526544E+03 -0.11062341542E+03  0.20315129077E+03  0.92228961233E+02 0.  0.
          3    1    3    3  502    0  0.87113974901E+02 -0.27756153616E+03 -0.14447031680E+03  0.32480905686E+03  0.00000000000E+00 0. -1.
         -4    1    3    3    0  502  0.43951797444E+01 -0.18654702705E+03 -0.13506599968E+03  0.23035176400E+03  0.00000000000E+00 0.  1.
         11    1    5    5    0    0 -0.10461849694E+03  0.57338171029E+03  0.78487575685E+03  0.97762036051E+03  0.00000000000E+00 0.  1.
        -11    1    5    5    0    0  0.11771684207E+02  0.33992118367E+02  0.77314498714E+02  0.85273491611E+02  0.00000000000E+00 0. -1.
          3    1    6    6  503    0 -0.32575202623E+02 -0.10641302104E+03 -0.10456478617E+03  0.15270451657E+03  0.00000000000E+00 0. -1.
         -3    1    6    6    0  503  0.33912860709E+02 -0.36852244404E+02 -0.60586292488E+01  0.50446774203E+02  0.00000000000E+00 0.  1.
<mgrwt>
<rscale>  0 0.17589708E+04</rscale>
<asrwt>0</asrwt>
<pdfrwt beam="1">  1        1 0.17640281E+00 0.17589708E+04</pdfrwt>
<pdfrwt beam="2">  1       -2 0.10378273E+00 0.17589708E+04</pdfrwt>
<totfact> 0.73448906E+00</totfact>
</mgrwt>
</event>
<event>
12    4  0.4183215E-008  0.1815745E+04  0.7818608E-02  0.8697971E-01
          1   -1    0    0  501    0  0.00000000000E+00  0.00000000000E+00  0.54816635899E+03  0.54816635899E+03  0.00000000000E+00 0. -1.
         -2   -1    0    0    0  501 -0.00000000000E+00 -0.00000000000E+00 -0.15036173097E+04  0.15036173097E+04  0.00000000000E+00 0.  1.
        -24    2    1    2    0    0 -0.20768263048E+02  0.61418195977E+03 -0.63970332417E+03  0.89065417715E+03  0.79960739499E+02 0.  0.
        254    2    1    2    0    0  0.20768263048E+02 -0.61418195977E+03 -0.31574762650E+03  0.11611294915E+04  0.93320647872E+03 0.  0.
         23    2    4    4    0    0 -0.37199956737E+03 -0.42975508239E+03  0.62479392432E+02  0.57866315664E+03  0.88737057727E+02 0.  0.
         23    2    4    4    0    0  0.39276783042E+03 -0.18442687738E+03 -0.37822701894E+03  0.58246633485E+03  0.89059034787E+02 0.  0.
          1    1    3    3  502    0 -0.39944354526E+02  0.57178689008E+03 -0.59099250786E+03  0.82329092275E+03  0.00000000000E+00 0. -1.
         -2    1    3    3    0  502  0.19176091478E+02  0.42395069689E+02 -0.48710816311E+02  0.67363254405E+02  0.00000000000E+00 0.  1.
         11    1    5    5    0    0 -0.15457784162E+03 -0.14404168260E+03  0.59927588508E+02  0.21962156386E+03  0.00000000000E+00 0.  1.
        -11    1    5    5    0    0 -0.21742172574E+03 -0.28571339979E+03  0.25518039245E+01  0.35904159278E+03  0.00000000000E+00 0. -1.
          1    1    6    6  503    0  0.26818206755E+03 -0.16897971474E+03 -0.25907962549E+03  0.40938736875E+03  0.00000000000E+00 0. -1.
         -1    1    6    6    0  503  0.12458576286E+03 -0.15447162636E+02 -0.11914739344E+03  0.17307896610E+03  0.00000000000E+00 0.  1.
<mgrwt>
<rscale>  0 0.18157449E+04</rscale>
<asrwt>0</asrwt>
<pdfrwt beam="1">  1        1 0.84333287E-01 0.18157449E+04</pdfrwt>
<pdfrwt beam="2">  1       -2 0.23132574E+00 0.18157449E+04</pdfrwt>
<totfact> 0.26951521E+00</totfact>
</mgrwt>
</event>
<event>
12    4  0.4183215E-008  0.2398023E+04  0.7818608E-02  0.8440244E-01
          1   -1    0    0  501    0  0.00000000000E+00  0.00000000000E+00  0.14203652451E+04  0.14203652451E+04  0.00000000000E+00 0. -1.
         -2   -1    0    0    0  501 -0.00000000000E+00 -0.00000000000E+00 -0.10121541610E+04  0.10121541610E+04  0.00000000000E+00 0.  1.
        -24    2    1    2    0    0  0.58145949542E+03  0.47063977985E+03  0.90238709129E+03  0.11748806321E+04  0.80281317990E+02 0.  0.
        254    2    1    2    0    0 -0.58145949542E+03 -0.47063977985E+03 -0.49417600718E+03  0.12576387739E+04  0.88195714886E+03 0.  0.
         23    2    4    4    0    0 -0.48423737088E+03 -0.68186507425E+03 -0.53962739596E+03  0.99963833216E+03  0.93022888647E+02 0.  0.
         23    2    4    4    0    0 -0.97222124538E+02  0.21122529440E+03  0.45451388774E+02  0.25800044177E+03  0.10212802120E+03 0.  0.
          1    1    3    3  502    0  0.32587746809E+03  0.23034247943E+03  0.52765061131E+03  0.66156552937E+03  0.00000000000E+00 0. -1.
         -2    1    3    3    0  502  0.25558202733E+03  0.24029730042E+03  0.37473647998E+03  0.51331510275E+03  0.00000000000E+00 0.  1.
         11    1    5    5    0    0 -0.10239892216E+02  0.85125712865E+00 -0.80549405528E+01  0.13056113457E+02  0.00000000000E+00 0. -1.
        -11    1    5    5    0    0 -0.47399747866E+03 -0.68271633138E+03 -0.53157245540E+03  0.98658221870E+03  0.00000000000E+00 0.  1.
          1    1    6    6  503    0 -0.46381837832E+02  0.13350177233E+03 -0.22248942975E+02  0.14306996036E+03  0.00000000000E+00 0. -1.
         -1    1    6    6    0  503 -0.50840286706E+02  0.77723522078E+02  0.67700331749E+02  0.11493048140E+03  0.00000000000E+00 0.  1.
<mgrwt>
<rscale>  0 0.23980230E+04</rscale>
<asrwt>0</asrwt>
<pdfrwt beam="1">  1        1 0.21851773E+00 0.23980230E+04</pdfrwt>
<pdfrwt beam="2">  1       -2 0.15571603E+00 0.23980230E+04</pdfrwt>
<totfact> 0.15859684E+00</totfact>
</mgrwt>
</event>
<event>
12    4  0.4183215E-008  0.2017405E+04  0.7818608E-02  0.8598526E-01
         -2   -1    0    0    0  501 -0.00000000000E+00  0.00000000000E+00  0.55213141358E+03  0.55213141358E+03  0.00000000000E+00 0.  1.
          1   -1    0    0  501    0  0.00000000000E+00 -0.00000000000E+00 -0.18428228026E+04  0.18428228026E+04  0.00000000000E+00 0. -1.
        -24    2    1    2    0    0  0.55184394346E+03  0.21737682584E+03 -0.11668921813E+04  0.13114625685E+04  0.80698720776E+02 0.  0.
        254    2    1    2    0    0 -0.55184394346E+03 -0.21737682584E+03 -0.12379920781E+03  0.10834916477E+04  0.89824466852E+03 0.  0.
         23    2    4    4    0    0 -0.65358316247E+03 -0.42472199093E+03  0.38209669218E+02  0.78642911554E+03  0.97216537198E+02 0.  0.
         23    2    4    4    0    0  0.10173921901E+03  0.20734516508E+03 -0.16200887703E+03  0.29706253220E+03  0.93039699230E+02 0.  0.
          1    1    3    3  502    0  0.39921209916E+03  0.17654968251E+03 -0.78548165901E+03  0.89862201573E+03  0.00000000000E+00 0. -1.
         -2    1    3    3    0  502  0.15263184429E+03  0.40827143336E+02 -0.38141052225E+03  0.41284055276E+03  0.00000000000E+00 0.  1.
         11    1    5    5    0    0 -0.40339169168E+03 -0.24673884380E+03 -0.22667758838E+02  0.47341180936E+03  0.00000000000E+00 0.  1.
        -11    1    5    5    0    0 -0.25019147079E+03 -0.17798314713E+03  0.60877428057E+02  0.31301730618E+03  0.00000000000E+00 0. -1.
          4    1    6    6  503    0  0.45090218389E+01  0.32790951927E+02 -0.69291779381E+02  0.76791461088E+02  0.00000000000E+00 0. -1.
         -4    1    6    6    0  503  0.97230197174E+02  0.17455421316E+03 -0.92717097646E+02  0.22027107111E+03  0.00000000000E+00 0.  1.
<mgrwt>
<rscale>  0 0.20174046E+04</rscale>
<asrwt>0</asrwt>
<pdfrwt beam="1">  1        1 0.28351120E+00 0.20174046E+04</pdfrwt>
<pdfrwt beam="2">  1       -2 0.84943295E-01 0.20174046E+04</pdfrwt>
<totfact> 0.37393779E+00</totfact>
</mgrwt>
</event>
<event>
12    4  0.4183215E-008  0.1202538E+04  0.7818608E-02  0.9110638E-01
          1   -1    0    0  501    0  0.00000000000E+00  0.00000000000E+00  0.79916815896E+03  0.79916815896E+03  0.00000000000E+00 0. -1.
         -2   -1    0    0    0  501 -0.00000000000E+00 -0.00000000000E+00 -0.45237615326E+03  0.45237615326E+03  0.00000000000E+00 0.  1.
        -24    2    1    2    0    0  0.11443536642E+03 -0.21024143385E+03  0.94113193582E+02  0.26961598567E+03  0.80861442775E+02 0.  0.
        254    2    1    2    0    0 -0.11443536642E+03  0.21024143385E+03  0.25267881212E+03  0.98192832655E+03  0.91817195709E+03 0.  0.
         23    2    4    4    0    0  0.66177129585E+02  0.48666903973E+03 -0.79835038723E+02  0.50600324219E+03  0.91866647854E+02 0.  0.
         23    2    4    4    0    0 -0.18061249600E+03 -0.27642760588E+03  0.33251385084E+03  0.47592508436E+03  0.83103128216E+02 0.  0.
          3    1    3    3  502    0  0.40448125382E+01 -0.19138137387E+02  0.36679758829E+02  0.41569622549E+02  0.00000000000E+00 0. -1.
         -4    1    3    3    0  502  0.11039055388E+03 -0.19110329646E+03  0.57433434753E+02  0.22804636312E+03  0.00000000000E+00 0.  1.
         11    1    5    5    0    0  0.62049707558E+02  0.19307103897E+03 -0.44155077872E+01  0.20284498763E+03  0.00000000000E+00 0.  1.
        -11    1    5    5    0    0  0.41274220277E+01  0.29359800075E+03 -0.75419530935E+02  0.30315825456E+03  0.00000000000E+00 0. -1.
          3    1    6    6  503    0 -0.14633459570E+03 -0.17867537984E+03  0.18625102622E+03  0.29669538255E+03  0.00000000000E+00 0. -1.
         -3    1    6    6    0  503 -0.34277900306E+02 -0.97752226037E+02  0.14626282462E+03  0.17922970181E+03  0.00000000000E+00 0.  1.
<mgrwt>
<rscale>  0 0.12025383E+04</rscale>
<asrwt>0</asrwt>
<pdfrwt beam="1">  1        1 0.12294895E+00 0.12025383E+04</pdfrwt>
<pdfrwt beam="2">  1       -2 0.69596331E-01 0.12025383E+04</pdfrwt>
<totfact> 0.36153688E+01</totfact>
</mgrwt>
</event>
<event>
12    4  0.4183215E-008  0.1704228E+04  0.7818608E-02  0.8758957E-01
          1   -1    0    0  501    0  0.00000000000E+00  0.00000000000E+00  0.19924829317E+04  0.19924829317E+04  0.00000000000E+00 0. -1.
         -2   -1    0    0    0  501 -0.00000000000E+00 -0.00000000000E+00 -0.36441874006E+03  0.36441874006E+03  0.00000000000E+00 0.  1.
        -24    2    1    2    0    0  0.53427763348E+03  0.29606450107E+03  0.54432407835E+03  0.82211980309E+03  0.80532539581E+02 0.  0.
        254    2    1    2    0    0 -0.53427763348E+03 -0.29606450107E+03  0.10837401133E+04  0.15347818687E+04  0.89886371204E+03 0.  0.
         23    2    4    4    0    0 -0.60726362634E+03  0.12385560803E+03  0.47257639353E+03  0.78419462634E+03  0.86737769983E+02 0.  0.
         23    2    4    4    0    0  0.72985992861E+02 -0.41992010910E+03  0.61116371976E+03  0.75058724233E+03  0.90555302537E+02 0.  0.
          1    1    3    3  502    0  0.36031853495E+02 -0.34578951862E+00  0.38425164943E+02  0.52677389244E+02  0.00000000000E+00 0. -1.
         -2    1    3    3    0  502  0.49824577999E+03  0.29641029059E+03  0.50589891341E+03  0.76944241384E+03  0.00000000000E+00 0.  1.
         11    1    5    5    0    0 -0.25134840505E+03  0.81630070599E+01  0.19602248998E+03  0.31885337066E+03  0.00000000000E+00 0.  1.
        -11    1    5    5    0    0 -0.35591522129E+03  0.11569260097E+03  0.27655390355E+03  0.46534125568E+03  0.00000000000E+00 0. -1.
          4    1    6    6  503    0  0.16875135889E+01 -0.26139349692E+03  0.34917714037E+03  0.43618125050E+03  0.00000000000E+00 0. -1.
         -4    1    6    6    0  503  0.71298479272E+02 -0.15852661218E+03  0.26198657940E+03  0.31440599183E+03  0.00000000000E+00 0.  1.
<mgrwt>
<rscale>  0 0.17042278E+04</rscale>
<asrwt>0</asrwt>
<pdfrwt beam="1">  1        1 0.30653583E+00 0.17042278E+04</pdfrwt>
<pdfrwt beam="2">  1       -2 0.56064423E-01 0.17042278E+04</pdfrwt>
<totfact> 0.75245286E+00</totfact>
</mgrwt>
</event>
<event>
12    4  0.4183215E-008  0.1660617E+04  0.7818608E-02  0.8784150E-01
         -2   -1    0    0    0  501 -0.00000000000E+00  0.00000000000E+00  0.27668247588E+03  0.27668247588E+03  0.00000000000E+00 0.  1.
          1   -1    0    0  501    0  0.00000000000E+00 -0.00000000000E+00 -0.24917088425E+04  0.24917088425E+04  0.00000000000E+00 0. -1.
        -24    2    1    2    0    0  0.21848739032E+02  0.41206905200E+03 -0.10392774102E+03  0.43531653749E+03  0.91767322344E+02 0.  0.
        254    2    1    2    0    0 -0.21848739032E+02 -0.41206905200E+03 -0.21110986256E+04  0.23330747809E+04  0.90345019521E+03 0.  0.
         23    2    4    4    0    0  0.19205129823E+03 -0.49194703439E+02 -0.47353868456E+02  0.22479189951E+03  0.94790238035E+02 0.  0.
         23    2    4    4    0    0 -0.21390003727E+03 -0.36287434856E+03 -0.20637447572E+04  0.21082828814E+04  0.91560179731E+02 0.  0.
          1    1    3    3  502    0  0.44074560245E+02  0.93357753985E+02 -0.26252546958E+02  0.10652433202E+03  0.00000000000E+00 0. -1.
         -2    1    3    3    0  502 -0.22225821212E+02  0.31871129801E+03 -0.77675194065E+02  0.32879220548E+03  0.00000000000E+00 0.  1.
         11    1    5    5    0    0  0.42223708796E+02 -0.50282512239E+02 -0.35119370655E+02  0.74461686905E+02  0.00000000000E+00 0. -1.
        -11    1    5    5    0    0  0.14982758944E+03  0.10878088000E+01 -0.12234497801E+02  0.15033021260E+03  0.00000000000E+00 0.  1.
          3    1    6    6  503    0 -0.18721769731E+03 -0.35706726010E+03 -0.19035632565E+04  0.19457904733E+04  0.00000000000E+00 0. -1.
         -3    1    6    6    0  503 -0.26682339962E+02 -0.58070884622E+01 -0.16018150066E+03  0.16249240812E+03  0.00000000000E+00 0.  1.
<mgrwt>
<rscale>  0 0.16606170E+04</rscale>
<asrwt>0</asrwt>
<pdfrwt beam="1">  1        1 0.38333980E+00 0.16606170E+04</pdfrwt>
<pdfrwt beam="2">  1       -2 0.42566537E-01 0.16606170E+04</pdfrwt>
<totfact> 0.60319206E+00</totfact>
</mgrwt>
</event>
<event>
12    4  0.4183215E-008  0.1411009E+04  0.7818608E-02  0.8945888E-01
         -2   -1    0    0    0  501 -0.00000000000E+00  0.00000000000E+00  0.12147542191E+03  0.12147542191E+03  0.00000000000E+00 0.  1.
          1   -1    0    0  501    0  0.00000000000E+00 -0.00000000000E+00 -0.40974264440E+04  0.40974264440E+04  0.00000000000E+00 0. -1.
        -24    2    1    2    0    0 -0.12404627335E+03 -0.34923138288E+03 -0.17816677644E+04  0.18215476505E+04  0.79660426295E+02 0.  0.
        254    2    1    2    0    0  0.12404627335E+03  0.34923138288E+03 -0.21942832576E+04  0.23973542154E+04  0.89167156654E+03 0.  0.
         23    2    4    4    0    0 -0.79599521244E+02  0.45558349046E+02  0.36205010201E+02  0.13527077569E+03  0.92605253859E+02 0.  0.
         23    2    4    4    0    0  0.20364579459E+03  0.30367303383E+03 -0.22304882678E+04  0.22620834397E+04  0.90855126822E+02 0.  0.
          3    1    3    3  502    0  0.52254265695E+01 -0.16241475257E+02 -0.16546441917E+03  0.16634171038E+03  0.00000000000E+00 0. -1.
         -4    1    3    3    0  502 -0.12927169992E+03 -0.33298990762E+03 -0.16162033453E+04  0.16552059401E+04  0.00000000000E+00 0.  1.
         11    1    5    5    0    0 -0.85557575224E+02  0.18360695985E+01  0.17524585075E+02  0.87353196346E+02  0.00000000000E+00 0. -1.
        -11    1    5    5    0    0  0.59580539806E+01  0.43722279448E+02  0.18680425126E+02  0.47917579345E+02  0.00000000000E+00 0.  1.
          1    1    6    6  503    0  0.18145376342E+03  0.20480225231E+03 -0.15245971570E+04  0.15489563977E+04  0.00000000000E+00 0. -1.
         -1    1    6    6    0  503  0.22192031167E+02  0.98870781524E+02 -0.70589111079E+03  0.71312704197E+03  0.00000000000E+00 0.  1.
<mgrwt>
<rscale>  0 0.14110090E+04</rscale>
<asrwt>0</asrwt>
<pdfrwt beam="1">  1        1 0.63037331E+00 0.14110090E+04</pdfrwt>
<pdfrwt beam="2">  1       -2 0.18688526E-01 0.14110090E+04</pdfrwt>
<totfact> 0.16584976E+00</totfact>
</mgrwt>
</event>
<event>
12    4  0.4183215E-008  0.1983143E+04  0.7818608E-02  0.8614542E-01
          1   -1    0    0  501    0  0.00000000000E+00  0.00000000000E+00  0.90094287428E+03  0.90094287428E+03  0.00000000000E+00 0. -1.
         -2   -1    0    0    0  501 -0.00000000000E+00 -0.00000000000E+00 -0.10913172274E+04  0.10913172274E+04  0.00000000000E+00 0.  1.
        -24    2    1    2    0    0 -0.15323261479E+03  0.37915040889E+03  0.60776553922E+03  0.73680941106E+03  0.79207895888E+02 0.  0.
        254    2    1    2    0    0  0.15323261479E+03 -0.37915040889E+03 -0.79813989235E+03  0.12554506906E+04  0.87857491544E+03 0.  0.
         23    2    4    4    0    0  0.10620763543E+03  0.27180709132E+03 -0.30414324652E+03  0.43143601859E+03  0.92058497785E+02 0.  0.
         23    2    4    4    0    0  0.47024979362E+02 -0.65095750021E+03 -0.49399664582E+03  0.82401467204E+03  0.94923537072E+02 0.  0.
          1    1    3    3  502    0 -0.15049945816E+03  0.37398186112E+03  0.56743197591E+03  0.69605428426E+03  0.00000000000E+00 0. -1.
         -2    1    3    3    0  502 -0.27331566243E+01  0.51685477660E+01  0.40333563306E+02  0.40755126796E+02  0.00000000000E+00 0.  1.
         11    1    5    5    0    0 -0.11776069160E+02  0.76877431096E+02 -0.86790683240E+02  0.11653942644E+03  0.00000000000E+00 0. -1.
        -11    1    5    5    0    0  0.11798370459E+03  0.19492966022E+03 -0.21735256328E+03  0.31489659215E+03  0.00000000000E+00 0.  1.
          4    1    6    6  503    0  0.43437484314E+02 -0.10927300025E+03 -0.96631466437E+02  0.15220066995E+03  0.00000000000E+00 0. -1.
         -4    1    6    6    0  503  0.35874950475E+01 -0.54168449996E+03 -0.39736517938E+03  0.67181400209E+03  0.00000000000E+00 0.  1.
<mgrwt>
<rscale>  0 0.19831434E+04</rscale>
<asrwt>0</asrwt>
<pdfrwt beam="1">  1        1 0.13860660E+00 0.19831434E+04</pdfrwt>
<pdfrwt beam="2">  1       -2 0.16789496E+00 0.19831434E+04</pdfrwt>
<totfact> 0.32622040E+00</totfact>
</mgrwt>
</event>
<event>
12    4  0.4183215E-008  0.1859718E+04  0.7818608E-02  0.8675171E-01
         -2   -1    0    0    0  501 -0.00000000000E+00  0.00000000000E+00  0.25847944274E+03  0.25847944274E+03  0.00000000000E+00 0.  1.
          1   -1    0    0  501    0  0.00000000000E+00 -0.00000000000E+00 -0.33450936729E+04  0.33450936729E+04  0.00000000000E+00 0. -1.
        -24    2    1    2    0    0 -0.82352755854E+01  0.22589813293E+03  0.11600092105E+03  0.26625956540E+03  0.79625098164E+02 0.  0.
        254    2    1    2    0    0  0.82352755854E+01 -0.22589813293E+03 -0.32026151512E+04  0.33373135502E+04  0.91094464134E+03 0.  0.
         23    2    4    4    0    0 -0.61791966898E+02 -0.22180976380E+03 -0.32131940109E+04  0.32227087747E+04  0.90654710759E+02 0.  0.
         23    2    4    4    0    0  0.70027242483E+02 -0.40883691352E+01  0.10578859669E+02  0.11460477552E+03  0.90010070814E+02 0.  0.
          3    1    3    3  502    0 -0.83433250972E+00 -0.22287727163E+01 -0.67085437348E+01  0.71181526816E+01  0.00000000000E+00 0. -1.
         -4    1    3    3    0  502 -0.74009430757E+01  0.22812690565E+03  0.12270946478E+03  0.25914141272E+03  0.00000000000E+00 0.  1.
         11    1    5    5    0    0 -0.58843423041E+01  0.85095979841E+01 -0.11676641602E+03  0.11722386554E+03  0.00000000000E+00 0.  1.
        -11    1    5    5    0    0 -0.55907624593E+02 -0.23031936178E+03 -0.30964275949E+04  0.31054849092E+04  0.00000000000E+00 0. -1.
          3    1    6    6  503    0  0.29549317690E+02  0.40592266751E+02 -0.94206894783E+01  0.51084671734E+02  0.00000000000E+00 0. -1.
         -3    1    6    6    0  503  0.40477924793E+02 -0.44680635886E+02  0.19999549147E+02  0.63520103785E+02  0.00000000000E+00 0.  1.
<mgrwt>
<rscale>  0 0.18597182E+04</rscale>
<asrwt>0</asrwt>
<pdfrwt beam="1">  1        1 0.51462979E+00 0.18597182E+04</pdfrwt>
<pdfrwt beam="2">  1       -2 0.39766068E-01 0.18597182E+04</pdfrwt>
<totfact> 0.16351211E+00</totfact>
</mgrwt>
</event>
<event>
12    4  0.4183215E-008  0.1393710E+04  0.7818608E-02  0.8958384E-01
          1   -1    0    0  501    0  0.00000000000E+00  0.00000000000E+00  0.28092437118E+03  0.28092437118E+03  0.00000000000E+00 0. -1.
         -2   -1    0    0    0  501 -0.00000000000E+00 -0.00000000000E+00 -0.17286027727E+04  0.17286027727E+04  0.00000000000E+00 0.  1.
        -24    2    1    2    0    0 -0.35141116582E+03 -0.18805537324E+03 -0.52049392284E+03  0.66022806128E+03  0.78310524951E+02 0.  0.
        254    2    1    2    0    0  0.35141116582E+03  0.18805537324E+03 -0.92718447871E+03  0.13492990826E+04  0.89559049011E+03 0.  0.
         23    2    4    4    0    0 -0.66678291585E+02 -0.18097969984E+03 -0.71386360048E+03  0.74501337609E+03  0.90796718793E+02 0.  0.
         23    2    4    4    0    0  0.41808945741E+03  0.36903507308E+03 -0.21332087823E+03  0.60428570655E+03  0.93111430484E+02 0.  0.
          1    1    3    3  502    0 -0.20076593173E+03 -0.14326973368E+03 -0.28243035909E+03  0.37496677675E+03  0.00000000000E+00 0. -1.
         -2    1    3    3    0  502 -0.15064523409E+03 -0.44785639568E+02 -0.23806356375E+03  0.28526128453E+03  0.00000000000E+00 0.  1.
         11    1    5    5    0    0 -0.86885463159E+02 -0.11999945162E+03 -0.46760185382E+03  0.49051039316E+03  0.00000000000E+00 0. -1.
        -11    1    5    5    0    0  0.20207171574E+02 -0.60980248222E+02 -0.24626174665E+03  0.25450298293E+03  0.00000000000E+00 0.  1.
          3    1    6    6  503    0  0.40250550855E+03  0.35957199361E+03 -0.22260189870E+03  0.58382729322E+03  0.00000000000E+00 0. -1.
         -3    1    6    6    0  503  0.15583948855E+02  0.94630794741E+01  0.92810204654E+01  0.20458413329E+02  0.00000000000E+00 0.  1.
<mgrwt>
<rscale>  0 0.13937096E+04</rscale>
<asrwt>0</asrwt>
<pdfrwt beam="1">  1        1 0.43219133E-01 0.13937096E+04</pdfrwt>
<pdfrwt beam="2">  1       -2 0.26593889E+00 0.13937096E+04</pdfrwt>
<totfact> 0.41838315E+00</totfact>
</mgrwt>
</event>
<event>
12    4  0.4183215E-008  0.3192779E+04  0.7818608E-02  0.8190727E-01
          1   -1    0    0  501    0  0.00000000000E+00  0.00000000000E+00  0.21093863842E+04  0.21093863842E+04  0.00000000000E+00 0. -1.
         -4   -1    0    0    0  501 -0.00000000000E+00 -0.00000000000E+00 -0.12081523600E+04  0.12081523600E+04  0.00000000000E+00 0.  1.
        -24    2    1    2    0    0  0.13722236726E+04  0.27927558238E+03 -0.41372704746E+02  0.14030448925E+04  0.76358438865E+02 0.  0.
        254    2    1    2    0    0 -0.13722236726E+04 -0.27927558238E+03  0.94260672897E+03  0.19144938517E+04  0.90320905896E+03 0.  0.
         23    2    4    4    0    0 -0.13825650705E+04 -0.21882745852E+03  0.55099744876E+03  0.15076380650E+04  0.10001357907E+03 0.  0.
         23    2    4    4    0    0  0.10341397859E+02 -0.60448123861E+02  0.39160928022E+03  0.40685578667E+03  0.91721767346E+02 0.  0.
          1    1    3    3  502    0  0.53288324702E+03  0.14075044945E+03  0.34707700619E+01  0.55116902146E+03  0.00000000000E+00 0. -1.
         -2    1    3    3    0  502  0.83934042557E+03  0.13852513293E+03 -0.44843474808E+02  0.85187587106E+03  0.00000000000E+00 0.  1.
         11    1    5    5    0    0 -0.54354794684E+02 -0.71836533525E+01  0.17806715320E+01  0.54856352155E+02  0.00000000000E+00 0. -1.
        -11    1    5    5    0    0 -0.13282102758E+04 -0.21164380517E+03  0.54921677723E+03  0.14527817129E+04  0.00000000000E+00 0.  1.
          1    1    6    6  503    0 -0.14452893080E+02  0.13005473367E+02  0.22699149419E+02  0.29887787477E+02  0.00000000000E+00 0. -1.
         -1    1    6    6    0  503  0.24794290939E+02 -0.73453597228E+02  0.36891013080E+03  0.37696799919E+03  0.00000000000E+00 0.  1.
<mgrwt>
<rscale>  0 0.31927794E+04</rscale>
<asrwt>0</asrwt>
<pdfrwt beam="1">  1        1 0.32452098E+00 0.31927794E+04</pdfrwt>
<pdfrwt beam="2">  1       -4 0.18586959E+00 0.31927794E+04</pdfrwt>
<totfact> 0.16814369E-01</totfact>
</mgrwt>
</event>
<event>
12    4  0.6739181E-008  0.2551413E+04  0.7818608E-02  0.8384895E-01
          1   -1    0    0  501    0  0.00000000000E+00  0.00000000000E+00  0.13662619970E+04  0.13662619970E+04  0.00000000000E+00 0. -1.
         -2   -1    0    0    0  501 -0.00000000000E+00 -0.00000000000E+00 -0.11911532175E+04  0.11911532175E+04  0.00000000000E+00 0.  1.
        -24    2    1    2    0    0 -0.80771885093E+02 -0.34099101971E+03  0.11328661142E+04  0.11884915025E+04  0.79545244205E+02 0.  0.
        254    2    1    2    0    0  0.80771885093E+02  0.34099101971E+03 -0.95775733478E+03  0.13689237119E+04  0.91315608952E+03 0.  0.
         23    2    4    4    0    0 -0.32089042739E+02  0.40704895075E+03 -0.20956797904E+02  0.41854016156E+03  0.89543980756E+02 0.  0.
         23    2    4    4    0    0  0.11286092783E+03 -0.66057931047E+02 -0.93680053687E+03  0.95038355037E+03  0.92371032502E+02 0.  0.
          3    1    3    3  502    0 -0.93575025987E+02 -0.24238247182E+03  0.83089139692E+03  0.87056651762E+03  0.00000000000E+00 0. -1.
         -4    1    3    3    0  502  0.12803140895E+02 -0.98608547883E+02  0.30197471732E+03  0.31792498491E+03  0.00000000000E+00 0.  1.
         11    1    5    5    0    0 -0.38689063889E+02  0.40841335120E+03 -0.24410141551E+02  0.41096735164E+03  0.00000000000E+00 0. -1.
        -11    1    5    5    0    0  0.66000211497E+01 -0.13644004492E+01  0.34533436466E+01  0.75728099212E+01  0.00000000000E+00 0.  1.
          4    1    6    6  503    0  0.11087291764E+03 -0.81979020624E+02 -0.89588788941E+03  0.90643724222E+03  0.00000000000E+00 0. -1.
         -4    1    6    6    0  503  0.19880101928E+01  0.15921089577E+02 -0.40912647461E+02  0.43946308151E+02  0.00000000000E+00 0.  1.
<mgrwt>
<rscale>  0 0.25514132E+04</rscale>
<asrwt>0</asrwt>
<pdfrwt beam="1">  1        1 0.21019415E+00 0.25514132E+04</pdfrwt>
<pdfrwt beam="2">  1       -2 0.18325434E+00 0.25514132E+04</pdfrwt>
<totfact> 0.10851311E+00</totfact>
</mgrwt>
</event>
<event>
12    4  0.4183215E-008  0.1190905E+04  0.7818608E-02  0.9120855E-01
          1   -1    0    0  501    0  0.00000000000E+00  0.00000000000E+00  0.13773507413E+03  0.13773507413E+03  0.00000000000E+00 0. -1.
         -2   -1    0    0    0  501 -0.00000000000E+00 -0.00000000000E+00 -0.25742433612E+04  0.25742433612E+04  0.00000000000E+00 0.  1.
        -24    2    1    2    0    0 -0.26436055645E+03 -0.69825531444E+02 -0.47568426433E+03  0.55454033619E+03  0.80482025846E+02 0.  0.
        254    2    1    2    0    0  0.26436055645E+03  0.69825531444E+02 -0.19608240228E+04  0.21574380992E+04  0.85729002961E+03 0.  0.
         23    2    4    4    0    0 -0.32737338083E+02  0.45691700825E+02 -0.18070723635E+04  0.18101989818E+04  0.90279354617E+02 0.  0.
         23    2    4    4    0    0  0.29709789453E+03  0.24133830619E+02 -0.15375165922E+03  0.34723911735E+03  0.89921249944E+02 0.  0.
          3    1    3    3  502    0 -0.18554400646E+03 -0.73343213060E+02 -0.28234239596E+03  0.34572103464E+03  0.00000000000E+00 0. -1.
         -4    1    3    3    0  502 -0.78816549987E+02  0.35176816164E+01 -0.19334186836E+03  0.20881930155E+03  0.00000000000E+00 0.  1.
         11    1    5    5    0    0 -0.50804889359E+02  0.42404304932E+02 -0.17169390449E+04  0.17182138824E+04  0.00000000000E+00 0.  1.
        -11    1    5    5    0    0  0.18067551275E+02  0.32873958927E+01 -0.90133318656E+02  0.91985099406E+02  0.00000000000E+00 0. -1.
          1    1    6    6  503    0  0.11458564996E+01 -0.14141495110E+01 -0.22345224950E+02  0.22419230228E+02  0.00000000000E+00 0. -1.
         -1    1    6    6    0  503  0.29595203803E+03  0.25547980130E+02 -0.13140643427E+03  0.32481988713E+03  0.00000000000E+00 0.  1.
<mgrwt>
<rscale>  0 0.11909049E+04</rscale>
<asrwt>0</asrwt>
<pdfrwt beam="1">  1        1 0.21190015E-01 0.11909049E+04</pdfrwt>
<pdfrwt beam="2">  1       -2 0.39603738E+00 0.11909049E+04</pdfrwt>
<totfact> 0.16827746E+00</totfact>
</mgrwt>
</event>
<event>
12    4  0.4183215E-008  0.2767551E+04  0.7818608E-02  0.8313414E-01
          1   -1    0    0  501    0  0.00000000000E+00  0.00000000000E+00  0.19422488912E+04  0.19422488912E+04  0.00000000000E+00 0. -1.
         -2   -1    0    0    0  501 -0.00000000000E+00 -0.00000000000E+00 -0.98588535383E+03  0.98588535383E+03  0.00000000000E+00 0.  1.
        -24    2    1    2    0    0  0.48445463585E+03 -0.66142884756E+03  0.14017742949E+04  0.16258859840E+04  0.79684656554E+02 0.  0.
        254    2    1    2    0    0 -0.48445463585E+03  0.66142884756E+03 -0.44541075749E+03  0.13022482611E+04  0.90844668310E+03 0.  0.
         23    2    4    4    0    0  0.12321153111E+03  0.32937488531E+03  0.14284946787E+03  0.38893010619E+03  0.84804248446E+02 0.  0.
         23    2    4    4    0    0 -0.60766616696E+03  0.33205396225E+03 -0.58826022536E+03  0.91331815490E+03  0.92638841868E+02 0.  0.
          1    1    3    3  502    0  0.23205891475E+03 -0.32319292033E+03  0.75868890971E+03  0.85668772921E+03  0.00000000000E+00 0. -1.
         -2    1    3    3    0  502  0.25239572109E+03 -0.33823592723E+03  0.64308538520E+03  0.76919825477E+03  0.00000000000E+00 0.  1.
         11    1    5    5    0    0  0.11018773129E+03  0.20746354557E+03  0.65145267181E+02  0.24377523398E+03  0.00000000000E+00 0. -1.
        -11    1    5    5    0    0  0.13023799815E+02  0.12191133974E+03  0.77704200685E+02  0.14515487220E+03  0.00000000000E+00 0.  1.
          4    1    6    6  503    0 -0.53746371381E+03  0.26345308524E+03 -0.52786551367E+03  0.79807065622E+03  0.00000000000E+00 0. -1.
         -4    1    6    6    0  503 -0.70202453143E+02  0.68600877003E+02 -0.60394711688E+02  0.11524749868E+03  0.00000000000E+00 0.  1.
<mgrwt>
<rscale>  0 0.27675511E+04</rscale>
<asrwt>0</asrwt>
<pdfrwt beam="1">  1        1 0.29880752E+00 0.27675511E+04</pdfrwt>
<pdfrwt beam="2">  1       -2 0.15167467E+00 0.27675511E+04</pdfrwt>
<totfact> 0.72394059E-01</totfact>
</mgrwt>
</event>
<event>
12    4  0.4183215E-008  0.2080314E+04  0.7818608E-02  0.8569965E-01
          1   -1    0    0  501    0  0.00000000000E+00  0.00000000000E+00  0.16069459746E+04  0.16069459746E+04  0.00000000000E+00 0. -1.
         -2   -1    0    0    0  501 -0.00000000000E+00 -0.00000000000E+00 -0.67328115315E+03  0.67328115315E+03  0.00000000000E+00 0.  1.
        -24    2    1    2    0    0  0.23557701809E+03 -0.12224807436E+03  0.12718274712E+04  0.13015194622E+04  0.77244227559E+02 0.  0.
        254    2    1    2    0    0 -0.23557701809E+03  0.12224807436E+03 -0.33816264982E+03  0.97870766554E+03  0.87924603708E+03 0.  0.
         23    2    4    4    0    0 -0.83701141145E+00  0.99865791435E+02  0.27879516618E+03  0.31214238536E+03  0.98652152380E+02 0.  0.
         23    2    4    4    0    0 -0.23474000668E+03  0.22382282923E+02 -0.61695781600E+03  0.66656528018E+03  0.89824766581E+02 0.  0.
          3    1    3    3  502    0  0.16623538150E+03 -0.67252760914E+02  0.99041404876E+03  0.10065173242E+04  0.00000000000E+00 0. -1.
         -4    1    3    3    0  502  0.69341636596E+02 -0.54995313443E+02  0.28141342249E+03  0.29500213800E+03  0.00000000000E+00 0.  1.
         11    1    5    5    0    0 -0.37201355188E+02  0.35455350916E+01  0.70521253879E+02  0.79810769296E+02  0.00000000000E+00 0. -1.
        -11    1    5    5    0    0  0.36364343777E+02  0.96320256343E+02  0.20827391230E+03  0.23233161607E+03  0.00000000000E+00 0.  1.
          4    1    6    6  503    0 -0.92229107293E+02  0.38794756861E+02 -0.34334929142E+03  0.35763106312E+03  0.00000000000E+00 0. -1.
         -4    1    6    6    0  503 -0.14251089939E+03 -0.16412473938E+02 -0.27360852458E+03  0.30893421706E+03  0.00000000000E+00 0.  1.
<mgrwt>
<rscale>  0 0.20803139E+04</rscale>
<asrwt>0</asrwt>
<pdfrwt beam="1">  1        1 0.24722246E+00 0.20803139E+04</pdfrwt>
<pdfrwt beam="2">  1       -2 0.10358172E+00 0.20803139E+04</pdfrwt>
<totfact> 0.33901191E+00</totfact>
</mgrwt>
</event>
<event>
12    4  0.4183215E-008  0.1958338E+04  0.7818608E-02  0.8626351E-01
          1   -1    0    0  501    0  0.00000000000E+00  0.00000000000E+00  0.87428556485E+03  0.87428556485E+03  0.00000000000E+00 0. -1.
         -2   -1    0    0    0  501 -0.00000000000E+00 -0.00000000000E+00 -0.10966344359E+04  0.10966344359E+04  0.00000000000E+00 0.  1.
        -24    2    1    2    0    0 -0.11547134412E+03 -0.73069176000E+03  0.13133173514E+03  0.75563953279E+03  0.80616371883E+02 0.  0.
        254    2    1    2    0    0  0.11547134412E+03  0.73069176000E+03 -0.35368060619E+03  0.12152804680E+04  0.89697969050E+03 0.  0.
         23    2    4    4    0    0  0.28934924870E+03  0.33483015370E+03 -0.56699667891E+03  0.72494863441E+03  0.90725239583E+02 0.  0.
         23    2    4    4    0    0 -0.17387790458E+03  0.39586160630E+03  0.21331607271E+03  0.49033183355E+03  0.89339929853E+02 0.  0.
          1    1    3    3  502    0 -0.12554333822E+03 -0.66333552351E+03  0.10828323864E+03  0.68374001367E+03  0.00000000000E+00 0. -1.
         -2    1    3    3    0  502  0.10071994093E+02 -0.67356236487E+02  0.23048496499E+02  0.71899519119E+02  0.00000000000E+00 0.  1.
         11    1    5    5    0    0  0.17531486527E+03  0.24202601494E+03 -0.32273671853E+03  0.43985325210E+03  0.00000000000E+00 0. -1.
        -11    1    5    5    0    0  0.11403438343E+03  0.92804138754E+02 -0.24425996037E+03  0.28509538231E+03  0.00000000000E+00 0.  1.
          1    1    6    6  503    0 -0.20766436111E+02  0.10734305149E+02 -0.16826606009E+01  0.23437182478E+02  0.00000000000E+00 0. -1.
         -1    1    6    6    0  503 -0.15311146847E+03  0.38512730116E+03  0.21499873331E+03  0.46689465107E+03  0.00000000000E+00 0.  1.
<mgrwt>
<rscale>  0 0.19583377E+04</rscale>
<asrwt>0</asrwt>
<pdfrwt beam="1">  1        1 0.13450547E+00 0.19583377E+04</pdfrwt>
<pdfrwt beam="2">  1       -2 0.16871299E+00 0.19583377E+04</pdfrwt>
<totfact> 0.33927825E+00</totfact>
</mgrwt>
</event>
<event>
12    4  0.4183215E-008  0.1453740E+04  0.7818608E-02  0.8915812E-01
          1   -1    0    0  501    0  0.00000000000E+00  0.00000000000E+00  0.24512784802E+04  0.24512784802E+04  0.00000000000E+00 0. -1.
         -2   -1    0    0    0  501 -0.00000000000E+00 -0.00000000000E+00 -0.21553649020E+03  0.21553649020E+03  0.00000000000E+00 0.  1.
        -24    2    1    2    0    0  0.23035621589E+02  0.40775336689E+03  0.41492569726E+03  0.58763022427E+03  0.79702560556E+02 0.  0.
        254    2    1    2    0    0 -0.23035621589E+02 -0.40775336689E+03  0.18208162928E+04  0.20791847462E+04  0.91697534785E+03 0.  0.
         23    2    4    4    0    0  0.37216014267E+03 -0.27303052093E+03  0.48192846303E+03  0.67364856999E+03  0.92187391860E+02 0.  0.
         23    2    4    4    0    0 -0.39519576426E+03 -0.13472284596E+03  0.13388878297E+04  0.14055361762E+04  0.92635762952E+02 0.  0.
          1    1    3    3  502    0  0.28743246987E+02  0.56862212202E+02  0.82531962703E+02  0.10426413713E+03  0.00000000000E+00 0. -1.
         -4    1    3    3    0  502 -0.57076253979E+01  0.35089115469E+03  0.33239373455E+03  0.48336608714E+03  0.00000000000E+00 0.  1.
         11    1    5    5    0    0  0.27579725288E+03 -0.18365309045E+03  0.28593177902E+03  0.43766375744E+03  0.00000000000E+00 0.  1.
        -11    1    5    5    0    0  0.96362889794E+02 -0.89377430479E+02  0.19599668402E+03  0.23598481255E+03  0.00000000000E+00 0. -1.
          1    1    6    6  503    0 -0.47349364981E+00 -0.74908080382E+01  0.59691549429E+01  0.95899537034E+01  0.00000000000E+00 0. -1.
         -1    1    6    6    0  503 -0.39472227061E+03 -0.12723203792E+03  0.13329186748E+04  0.13959462225E+04  0.00000000000E+00 0.  1.
<mgrwt>
<rscale>  0 0.14537399E+04</rscale>
<asrwt>0</asrwt>
<pdfrwt beam="1">  1        1 0.37711975E+00 0.14537399E+04</pdfrwt>
<pdfrwt beam="2">  1       -2 0.33159462E-01 0.14537399E+04</pdfrwt>
<totfact> 0.10630116E+01</totfact>
</mgrwt>
</event>
<event>
12    4  0.4183215E-008  0.1827752E+04  0.7818608E-02  0.8691679E-01
         -2   -1    0    0    0  501 -0.00000000000E+00  0.00000000000E+00  0.23158543004E+04  0.23158543004E+04  0.00000000000E+00 0.  1.
          1   -1    0    0  501    0  0.00000000000E+00 -0.00000000000E+00 -0.36063118202E+03  0.36063118202E+03  0.00000000000E+00 0. -1.
        -24    2    1    2    0    0  0.46696326751E+03 -0.34949034408E+03  0.20409751043E+03  0.62268201178E+03  0.76673986619E+02 0.  0.
        254    2    1    2    0    0 -0.46696326751E+03  0.34949034408E+03  0.17511256080E+04  0.20538034707E+04  0.90081607854E+03 0.  0.
         23    2    4    4    0    0 -0.35008069894E+03  0.64575453822E+03  0.12401779447E+04  0.14442944473E+04  0.91595287116E+02 0.  0.
         23    2    4    4    0    0 -0.11688256857E+03 -0.29626419413E+03  0.51094766332E+03  0.60950902339E+03  0.94866892927E+02 0.  0.
          1    1    3    3  502    0  0.32586484902E+03 -0.27490698771E+03  0.12335478517E+03  0.44382221074E+03  0.00000000000E+00 0. -1.
         -2    1    3    3    0  502  0.14109841849E+03 -0.74583356373E+02  0.80742725259E+02  0.17885980105E+03  0.00000000000E+00 0.  1.
         11    1    5    5    0    0 -0.32249779669E+03  0.62158256265E+03  0.12036528118E+04  0.13925335911E+04  0.00000000000E+00 0.  1.
        -11    1    5    5    0    0 -0.27582902259E+02  0.24171975569E+02  0.36525132882E+02  0.51760856175E+02  0.00000000000E+00 0. -1.
          4    1    6    6  503    0 -0.35807724448E+02 -0.18159337151E+03  0.22837139754E+03  0.29395891026E+03  0.00000000000E+00 0. -1.
         -4    1    6    6    0  503 -0.81074844117E+02 -0.11467082262E+03  0.28257626579E+03  0.31555011313E+03  0.00000000000E+00 0.  1.
<mgrwt>
<rscale>  0 0.18277519E+04</rscale>
<asrwt>0</asrwt>
<pdfrwt beam="1">  1        1 0.55481722E-01 0.18277519E+04</pdfrwt>
<pdfrwt beam="2">  1       -2 0.35628527E+00 0.18277519E+04</pdfrwt>
<totfact> 0.80757753E-01</totfact>
</mgrwt>
</event>
<event>
12    4  0.4183215E-008  0.1825696E+04  0.7818608E-02  0.8692753E-01
          1   -1    0    0  501    0  0.00000000000E+00  0.00000000000E+00  0.11654215129E+04  0.11654215129E+04  0.00000000000E+00 0. -1.
         -2   -1    0    0    0  501 -0.00000000000E+00 -0.00000000000E+00 -0.71501300254E+03  0.71501300254E+03  0.00000000000E+00 0.  1.
        -24    2    1    2    0    0  0.14040037484E+03  0.29442511651E+03 -0.45104686422E+03  0.56297993357E+03  0.84289485637E+02 0.  0.
        254    2    1    2    0    0 -0.14040037484E+03 -0.29442511651E+03  0.90145537453E+03  0.13174545818E+04  0.90369594910E+03 0.  0.
         23    2    4    4    0    0 -0.20675025075E+03 -0.26365703083E+03  0.10642673358E+04  0.11193177608E+04  0.89143656594E+02 0.  0.
         23    2    4    4    0    0  0.66349875909E+02 -0.30768085681E+02 -0.16281196126E+03  0.19813682104E+03  0.86031877770E+02 0.  0.
          3    1    3    3  502    0 -0.10798304360E+02  0.25902836239E+02 -0.48290618590E+02  0.55852879480E+02  0.00000000000E+00 0. -1.
         -4    1    3    3    0  502  0.15119867920E+03  0.26852228027E+03 -0.40275624563E+03  0.50712705409E+03  0.00000000000E+00 0.  1.
         11    1    5    5    0    0  0.77299581831E+01 -0.21089519547E+02  0.84457927105E+02  0.87393715673E+02  0.00000000000E+00 0. -1.
        -11    1    5    5    0    0 -0.21448020894E+03 -0.24256751128E+03  0.97980940868E+03  0.10319240451E+04  0.00000000000E+00 0.  1.
          2    1    6    6  503    0  0.75555368757E+02 -0.49806136468E+02 -0.14255880010E+03  0.16885578599E+03  0.00000000000E+00 0.  1.
         -2    1    6    6    0  503 -0.92054928476E+01  0.19038050787E+02 -0.20253161161E+02  0.29281035046E+02  0.00000000000E+00 0. -1.
<mgrwt>
<rscale>  0 0.18256961E+04</rscale>
<asrwt>0</asrwt>
<pdfrwt beam="1">  1        1 0.17929562E+00 0.18256961E+04</pdfrwt>
<pdfrwt beam="2">  1       -2 0.11000200E+00 0.18256961E+04</pdfrwt>
<totfact> 0.61472555E+00</totfact>
</mgrwt>
</event>
<event>
12    4  0.4183215E-008  0.1376059E+04  0.7818608E-02  0.8971333E-01
         -2   -1    0    0    0  501 -0.00000000000E+00  0.00000000000E+00  0.91537609397E+03  0.91537609397E+03  0.00000000000E+00 0.  1.
          1   -1    0    0  501    0  0.00000000000E+00 -0.00000000000E+00 -0.51714763061E+03  0.51714763061E+03  0.00000000000E+00 0. -1.
        -24    2    1    2    0    0  0.11497244834E+02  0.14407231247E+03  0.49272815395E+03  0.51959649277E+03  0.79438427361E+02 0.  0.
        254    2    1    2    0    0 -0.11497244834E+02 -0.14407231247E+03 -0.94499690588E+02  0.91292723181E+03  0.89644683122E+03 0.  0.
         23    2    4    4    0    0  0.38210204090E+03 -0.17490384369E+02  0.15315207927E+03  0.42216456827E+03  0.91975432101E+02 0.  0.
         23    2    4    4    0    0 -0.39359928574E+03 -0.12658192810E+03 -0.24765176986E+03  0.49076266354E+03  0.92591633276E+02 0.  0.
          3    1    3    3  502    0 -0.28045843947E+02  0.26175048170E+02  0.15578515860E+03  0.16043914157E+03  0.00000000000E+00 0. -1.
         -4    1    3    3    0  502  0.39543088782E+02  0.11789726430E+03  0.33694299536E+03  0.35915735120E+03  0.00000000000E+00 0.  1.
         11    1    5    5    0    0  0.30147139291E+03 -0.30299065567E+02  0.15534707294E+03  0.34049338788E+03  0.00000000000E+00 0.  1.
        -11    1    5    5    0    0  0.80630647989E+02  0.12808681197E+02 -0.21949936661E+01  0.81671180391E+02  0.00000000000E+00 0. -1.
          1    1    6    6  503    0 -0.38576972102E+03 -0.10882571429E+03 -0.24801759100E+03  0.47135341220E+03  0.00000000000E+00 0.  1.
         -1    1    6    6    0  503 -0.78295647198E+01 -0.17756213810E+02  0.36582113427E+00  0.19409251342E+02  0.00000000000E+00 0. -1.
<mgrwt>
<rscale>  0 0.13760590E+04</rscale>
<asrwt>0</asrwt>
<pdfrwt beam="1">  1        1 0.79561174E-01 0.13760590E+04</pdfrwt>
<pdfrwt beam="2">  1       -2 0.14082709E+00 0.13760590E+04</pdfrwt>
<totfact> 0.12772141E+01</totfact>
</mgrwt>
</event>
<event>
12    4  0.4183215E-008  0.2358985E+04  0.7818608E-02  0.8455021E-01
          1   -1    0    0  501    0  0.00000000000E+00  0.00000000000E+00  0.12214067824E+04  0.12214067824E+04  0.00000000000E+00 0. -1.
         -2   -1    0    0    0  501 -0.00000000000E+00 -0.00000000000E+00 -0.11390160996E+04  0.11390160996E+04  0.00000000000E+00 0.  1.
        -24    2    1    2    0    0 -0.58262139176E+02 -0.91622461064E+03  0.35302534249E+03  0.98676396871E+03  0.78830346223E+02 0.  0.
        254    2    1    2    0    0  0.58262139176E+02  0.91622461064E+03 -0.27063465978E+03  0.13736589133E+04  0.98530892464E+03 0.  0.
         23    2    4    4    0    0 -0.52278962576E+01  0.77737515227E+03 -0.60909811718E+03  0.99176047065E+03  0.90823215745E+02 0.  0.
         23    2    4    4    0    0  0.63490035434E+02  0.13884945837E+03  0.33846345740E+03  0.38189844264E+03  0.89323859094E+02 0.  0.
          1    1    3    3  502    0 -0.26538088286E+02 -0.67948552646E+03  0.29326371858E+03  0.74054605490E+03  0.00000000000E+00 0. -1.
         -2    1    3    3    0  502 -0.31724050891E+02 -0.23673908418E+03  0.59761623916E+02  0.24621791380E+03  0.00000000000E+00 0.  1.
         11    1    5    5    0    0 -0.31434406192E+02  0.53649009829E+03 -0.37901217279E+03  0.65761689043E+03  0.00000000000E+00 0. -1.
        -11    1    5    5    0    0  0.26206509934E+02  0.24088505398E+03 -0.23008594439E+03  0.33414358022E+03  0.00000000000E+00 0.  1.
          4    1    6    6  503    0  0.86108252326E+02  0.11341656404E+03  0.28340805045E+03  0.31717198990E+03  0.00000000000E+00 0. -1.
         -4    1    6    6    0  503 -0.22618216892E+02  0.25432894328E+02  0.55055406953E+02  0.64726452738E+02  0.00000000000E+00 0.  1.
<mgrwt>
<rscale>  0 0.23589845E+04</rscale>
<asrwt>0</asrwt>
<pdfrwt beam="1">  1        1 0.18790874E+00 0.23589845E+04</pdfrwt>
<pdfrwt beam="2">  1       -2 0.17523325E+00 0.23589845E+04</pdfrwt>
<totfact> 0.15920274E+00</totfact>
</mgrwt>
</event>
<event>
12    4  0.4183215E-008  0.2723529E+04  0.7818608E-02  0.8327411E-01
         -2   -1    0    0    0  501 -0.00000000000E+00  0.00000000000E+00  0.11724603662E+04  0.11724603662E+04  0.00000000000E+00 0.  1.
          1   -1    0    0  501    0  0.00000000000E+00 -0.00000000000E+00 -0.15816329330E+04  0.15816329330E+04  0.00000000000E+00 0. -1.
        -24    2    1    2    0    0  0.64831763919E+03 -0.29087924776E+03  0.81006170102E+03  0.10803877737E+04  0.78174701423E+02 0.  0.
        254    2    1    2    0    0 -0.64831763919E+03  0.29087924776E+03 -0.12192342678E+04  0.16737055255E+04  0.89990637742E+03 0.  0.
         23    2    4    4    0    0 -0.64139210805E+03  0.56202143921E+03 -0.96502022103E+03  0.12910611544E+04  0.91230164839E+02 0.  0.
         23    2    4    4    0    0 -0.69255311471E+01 -0.27114219146E+03 -0.25421404682E+03  0.38264437111E+03  0.90696649169E+02 0.  0.
          3    1    3    3  502    0  0.27271620583E+03 -0.11502085185E+03  0.28077290825E+03  0.40796734096E+03  0.00000000000E+00 0. -1.
         -4    1    3    3    0  502  0.37560143336E+03 -0.17585839591E+03  0.52928879278E+03  0.67242043270E+03  0.00000000000E+00 0.  1.
         11    1    5    5    0    0 -0.36191948345E+03  0.35294758299E+03 -0.62421307817E+03  0.80324322331E+03  0.00000000000E+00 0. -1.
        -11    1    5    5    0    0 -0.27947262460E+03  0.20907385623E+03 -0.34080714286E+03  0.48781793108E+03  0.00000000000E+00 0.  1.
          2    1    6    6  503    0  0.24147670204E+02 -0.21274809875E+03 -0.22416637085E+03  0.30999262139E+03  0.00000000000E+00 0. -1.
         -2    1    6    6    0  503 -0.31073201351E+02 -0.58394092706E+02 -0.30047675964E+02  0.72651749711E+02  0.00000000000E+00 0.  1.
<mgrwt>
<rscale>  0 0.27235285E+04</rscale>
<asrwt>0</asrwt>
<pdfrwt beam="1">  1        1 0.24332814E+00 0.27235285E+04</pdfrwt>
<pdfrwt beam="2">  1       -2 0.18037852E+00 0.27235285E+04</pdfrwt>
<totfact> 0.79255176E-01</totfact>
</mgrwt>
</event>
<event>
12    4  0.4183215E-008  0.2849988E+04  0.7818608E-02  0.8287915E-01
         -2   -1    0    0    0  501 -0.00000000000E+00  0.00000000000E+00  0.74287604536E+03  0.74287604536E+03  0.00000000000E+00 0.  1.
          1   -1    0    0  501    0  0.00000000000E+00 -0.00000000000E+00 -0.27334410211E+04  0.27334410211E+04  0.00000000000E+00 0. -1.
        -24    2    1    2    0    0  0.23566214854E+03  0.22691156100E+03  0.61484329095E+03  0.70100142201E+03  0.79656866957E+02 0.  0.
        254    2    1    2    0    0 -0.23566214854E+03 -0.22691156100E+03 -0.26054082667E+04  0.27753156444E+04  0.89844264450E+03 0.  0.
         23    2    4    4    0    0  0.11177014537E+03 -0.84943082511E+01 -0.82763425663E+01  0.14458045383E+03  0.90941140947E+02 0.  0.
         23    2    4    4    0    0 -0.34743229391E+03 -0.21841725274E+03 -0.25971319241E+04  0.26307351906E+04  0.85194581630E+02 0.  0.
          1    1    3    3  502    0  0.75484731160E+02  0.35134175752E+02  0.11265503277E+03  0.14008394395E+03  0.00000000000E+00 0. -1.
         -2    1    3    3    0  502  0.16017741738E+03  0.19177738524E+03  0.50218825819E+03  0.56091747806E+03  0.00000000000E+00 0.  1.
         11    1    5    5    0    0  0.40160010688E+02 -0.23251103701E+02  0.36328357089E+02  0.58933774786E+02  0.00000000000E+00 0.  1.
        -11    1    5    5    0    0  0.71610134678E+02  0.14756795450E+02 -0.44604699656E+02  0.85646679048E+02  0.00000000000E+00 0. -1.
          1    1    6    6  503    0 -0.21404894532E+03 -0.97849619129E+02 -0.12897821721E+04  0.13110795363E+04  0.00000000000E+00 0. -1.
         -1    1    6    6    0  503 -0.13338334859E+03 -0.12056763362E+03 -0.13073497520E+04  0.13196556543E+04  0.00000000000E+00 0.  1.
<mgrwt>
<rscale>  0 0.28499880E+04</rscale>
<asrwt>0</asrwt>
<pdfrwt beam="1">  1        1 0.42052939E+00 0.28499880E+04</pdfrwt>
<pdfrwt beam="2">  1       -2 0.11428862E+00 0.28499880E+04</pdfrwt>
<totfact> 0.42172741E-01</totfact>
</mgrwt>
</event>
<event>
12    4  0.4183215E-008  0.1134118E+04  0.7818608E-02  0.9172561E-01
          1   -1    0    0  501    0  0.00000000000E+00  0.00000000000E+00  0.10685269002E+03  0.10685269002E+03  0.00000000000E+00 0. -1.
         -2   -1    0    0    0  501 -0.00000000000E+00 -0.00000000000E+00 -0.30093409330E+04  0.30093409330E+04  0.00000000000E+00 0.  1.
        -24    2    1    2    0    0 -0.19247850489E+02  0.88390802270E+02 -0.10343488950E+04  0.10413646807E+04  0.79870820972E+02 0.  0.
        254    2    1    2    0    0  0.19247850489E+02 -0.88390802270E+02 -0.18681393480E+04  0.20748289423E+04  0.89821328342E+03 0.  0.
         23    2    4    4    0    0 -0.11441979858E+03 -0.46804685149E+03 -0.10299522052E+04  0.11407095854E+04  0.90868408886E+02 0.  0.
         23    2    4    4    0    0  0.13366764907E+03  0.37965604922E+03 -0.83818714278E+03  0.93411935686E+03  0.89529494709E+02 0.  0.
          3    1    3    3  502    0 -0.44948053824E+02  0.50880715794E+02 -0.43201455933E+03  0.43731653783E+03  0.00000000000E+00 0. -1.
         -4    1    3    3    0  502  0.25700203335E+02  0.37510086475E+02 -0.60233433565E+03  0.60404814290E+03  0.00000000000E+00 0.  1.
         11    1    5    5    0    0 -0.12321678396E+03 -0.45672073521E+03 -0.10158692532E+04  0.11206098989E+04  0.00000000000E+00 0.  1.
        -11    1    5    5    0    0  0.87969853829E+01 -0.11326116281E+02 -0.14082951964E+02  0.20099686512E+02  0.00000000000E+00 0. -1.
          4    1    6    6  503    0 -0.13293880739E+02  0.22873288261E+02 -0.55806144693E+02  0.61759536644E+02  0.00000000000E+00 0. -1.
         -4    1    6    6    0  503  0.14696152981E+03  0.35678276096E+03 -0.78238099808E+03  0.87235982022E+03  0.00000000000E+00 0.  1.
<mgrwt>
<rscale>  0 0.11341185E+04</rscale>
<asrwt>0</asrwt>
<pdfrwt beam="1">  1        1 0.16438874E-01 0.11341185E+04</pdfrwt>
<pdfrwt beam="2">  1       -2 0.46297558E+00 0.11341185E+04</pdfrwt>
<totfact> 0.85975658E-01</totfact>
</mgrwt>
</event>
<event>
12    4  0.4183215E-008  0.1169168E+04  0.7818608E-02  0.9140281E-01
         -2   -1    0    0    0  501 -0.00000000000E+00  0.00000000000E+00  0.50827808246E+03  0.50827808246E+03  0.00000000000E+00 0.  1.
          1   -1    0    0  501    0  0.00000000000E+00 -0.00000000000E+00 -0.67234488633E+03  0.67234488633E+03  0.00000000000E+00 0. -1.
        -24    2    1    2    0    0  0.11172655573E+03 -0.14563027438E+03 -0.17084023092E+03  0.26182394930E+03  0.75328585933E+02 0.  0.
        254    2    1    2    0    0 -0.11172655573E+03  0.14563027438E+03  0.67734270440E+01  0.91879901949E+03  0.90025260834E+03 0.  0.
         23    2    4    4    0    0 -0.28912314392E+03  0.44041628260E+03  0.11289158700E+03  0.54704088768E+03  0.94607230401E+02 0.  0.
         23    2    4    4    0    0  0.17739658819E+03 -0.29478600823E+03 -0.10611815995E+03  0.37175813181E+03  0.92599700591E+02 0.  0.
          3    1    3    3  502    0  0.85877586044E+02 -0.62454312688E+02 -0.12283911636E+03  0.16237287171E+03  0.00000000000E+00 0. -1.
         -4    1    3    3    0  502  0.25848969687E+02 -0.83175961687E+02 -0.48001114559E+02  0.99451077598E+02  0.00000000000E+00 0.  1.
         11    1    5    5    0    0 -0.29054645771E+03  0.41630776330E+03  0.12039569985E+03  0.52175139906E+03  0.00000000000E+00 0.  1.
        -11    1    5    5    0    0  0.14233137902E+01  0.24108519298E+02 -0.75041128553E+01  0.25289488620E+02  0.00000000000E+00 0. -1.
          1    1    6    6  503    0  0.83818214003E+02 -0.12241151140E+03  0.82459784310E+00  0.14836020721E+03  0.00000000000E+00 0. -1.
         -1    1    6    6    0  503  0.93578374187E+02 -0.17237449683E+03 -0.10694275780E+03  0.22339792460E+03  0.00000000000E+00 0.  1.
<mgrwt>
<rscale>  0 0.11691675E+04</rscale>
<asrwt>0</asrwt>
<pdfrwt beam="1">  1        1 0.10343768E+00 0.11691675E+04</pdfrwt>
<pdfrwt beam="2">  1       -2 0.78196628E-01 0.11691675E+04</pdfrwt>
<totfact> 0.36600431E+01</totfact>
</mgrwt>
</event>
<event>
12    4  0.4183215E-008  0.1711963E+04  0.7818608E-02  0.8754571E-01
          1   -1    0    0  501    0  0.00000000000E+00  0.00000000000E+00  0.17098672139E+04  0.17098672139E+04  0.00000000000E+00 0. -1.
         -2   -1    0    0    0  501 -0.00000000000E+00 -0.00000000000E+00 -0.42851514637E+03  0.42851514637E+03  0.00000000000E+00 0.  1.
        -24    2    1    2    0    0  0.36914132314E+03  0.24682174219E+03 -0.55315341812E+02  0.45445138261E+03  0.79246345355E+02 0.  0.
        254    2    1    2    0    0 -0.36914132314E+03 -0.24682174219E+03  0.13366674094E+04  0.16839309777E+04  0.92290708387E+03 0.  0.
         23    2    4    4    0    0  0.22228880001E+03 -0.17676506405E+03  0.87471030129E+03  0.92445306143E+03  0.94006133480E+02 0.  0.
         23    2    4    4    0    0 -0.59143012315E+03 -0.70056678138E+02  0.46195710806E+03  0.75947791623E+03  0.93299554325E+02 0.  0.
          1    1    3    3  502    0  0.70060129161E+02  0.77501721325E+02 -0.34945388116E+02  0.11016405338E+03  0.00000000000E+00 0. -1.
         -2    1    3    3    0  502  0.29908119397E+03  0.16932002086E+03 -0.20369953695E+02  0.34428732923E+03  0.00000000000E+00 0.  1.
         11    1    5    5    0    0  0.14580390827E+03 -0.10113913864E+03  0.67128014112E+03  0.69433776571E+03  0.00000000000E+00 0. -1.
        -11    1    5    5    0    0  0.76484891737E+02 -0.75625925408E+02  0.20343016017E+03  0.23011529572E+03  0.00000000000E+00 0.  1.
          3    1    6    6  503    0 -0.29678004511E+03 -0.65995053998E+02  0.19021415152E+03  0.35862956622E+03  0.00000000000E+00 0. -1.
         -3    1    6    6    0  503 -0.29465007803E+03 -0.40616241405E+01  0.27174295654E+03  0.40084835001E+03  0.00000000000E+00 0.  1.
<mgrwt>
<rscale>  0 0.17119626E+04</rscale>
<asrwt>0</asrwt>
<pdfrwt beam="1">  1        1 0.26305649E+00 0.17119626E+04</pdfrwt>
<pdfrwt beam="2">  1       -2 0.65925408E-01 0.17119626E+04</pdfrwt>
<totfact> 0.82922060E+00</totfact>
</mgrwt>
</event>
<event>
12    4  0.4183215E-008  0.1606800E+04  0.7818608E-02  0.8816381E-01
         -2   -1    0    0    0  501 -0.00000000000E+00  0.00000000000E+00  0.38513974529E+03  0.38513974529E+03  0.00000000000E+00 0.  1.
          1   -1    0    0  501    0  0.00000000000E+00 -0.00000000000E+00 -0.16758895298E+04  0.16758895298E+04  0.00000000000E+00 0. -1.
        -24    2    1    2    0    0  0.29626512065E+03 -0.44279152109E+03 -0.64412067761E+03  0.83963164632E+03  0.79072759641E+02 0.  0.
        254    2    1    2    0    0 -0.29626512065E+03  0.44279152109E+03 -0.64662910689E+03  0.12213976288E+04  0.88873258790E+03 0.  0.
         23    2    4    4    0    0 -0.37986345970E+03  0.27195227694E+02 -0.68198399253E+03  0.78642718126E+03  0.91267282927E+02 0.  0.
         23    2    4    4    0    0  0.83598339050E+02  0.41559629339E+03  0.35354885639E+02  0.43497044750E+03  0.90776433540E+02 0.  0.
          1    1    3    3  502    0  0.49494684118E+02 -0.52659335663E+02 -0.12953264196E+03  0.14832880611E+03  0.00000000000E+00 0. -1.
         -2    1    3    3    0  502  0.24677043654E+03 -0.39013218542E+03 -0.51458803565E+03  0.69130284021E+03  0.00000000000E+00 0.  1.
         11    1    5    5    0    0 -0.94120623324E+02  0.96119841898E+01 -0.98967357736E+02  0.13691464448E+03  0.00000000000E+00 0. -1.
        -11    1    5    5    0    0 -0.28574283638E+03  0.17583243504E+02 -0.58301663479E+03  0.64951253678E+03  0.00000000000E+00 0.  1.
          3    1    6    6  503    0  0.81071915716E+02  0.24771231884E+03 -0.10714885013E+02  0.26086175876E+03  0.00000000000E+00 0. -1.
         -3    1    6    6    0  503  0.25264233336E+01  0.16788397455E+03  0.46069770653E+02  0.17410868874E+03  0.00000000000E+00 0.  1.
<mgrwt>
<rscale>  0 0.16068001E+04</rscale>
<asrwt>0</asrwt>
<pdfrwt beam="1">  1        1 0.25782916E+00 0.16068001E+04</pdfrwt>
<pdfrwt beam="2">  1       -2 0.59252268E-01 0.16068001E+04</pdfrwt>
<totfact> 0.11081548E+01</totfact>
</mgrwt>
</event>
<event>
12    4  0.4183215E-008  0.1034102E+04  0.7818608E-02  0.9271913E-01
         -2   -1    0    0    0  501 -0.00000000000E+00  0.00000000000E+00  0.26495404174E+03  0.26495404174E+03  0.00000000000E+00 0.  1.
          1   -1    0    0  501    0  0.00000000000E+00 -0.00000000000E+00 -0.10090124277E+04  0.10090124277E+04  0.00000000000E+00 0. -1.
        -24    2    1    2    0    0  0.78769026006E+02  0.30000521602E+02 -0.18371962070E+03  0.21714128988E+03  0.79327485685E+02 0.  0.
        254    2    1    2    0    0 -0.78769026006E+02 -0.30000521602E+02 -0.56033876529E+03  0.10568251796E+04  0.89207361667E+03 0.  0.
         23    2    4    4    0    0  0.16645514860E+03 -0.37995848488E+03 -0.13201668565E+03  0.44488381809E+03  0.91746605277E+02 0.  0.
         23    2    4    4    0    0 -0.24522417461E+03  0.34995796328E+03 -0.42832207964E+03  0.61194136150E+03  0.91689443963E+02 0.  0.
          1    1    3    3  502    0  0.78532046217E+02 -0.69015235044E+01 -0.12645108042E+03  0.14901271439E+03  0.00000000000E+00 0. -1.
         -2    1    3    3    0  502  0.23697978892E+00  0.36902045107E+02 -0.57268540285E+02  0.68128575494E+02  0.00000000000E+00 0.  1.
         11    1    5    5    0    0 -0.73591644668E+01 -0.89710556548E+01 -0.14706296080E+02  0.18732652925E+02  0.00000000000E+00 0.  1.
        -11    1    5    5    0    0  0.17381431307E+03 -0.37098742922E+03 -0.11731038957E+03  0.42615116516E+03  0.00000000000E+00 0. -1.
          1    1    6    6  503    0 -0.24764703496E+03  0.33900119583E+03 -0.39369074218E+03  0.57553737079E+03  0.00000000000E+00 0. -1.
         -1    1    6    6    0  503  0.24228603553E+01  0.10956767446E+02 -0.34631337459E+02  0.36403990707E+02  0.00000000000E+00 0.  1.
<mgrwt>
<rscale>  0 0.10341024E+04</rscale>
<asrwt>0</asrwt>
<pdfrwt beam="1">  1        1 0.15523268E+00 0.10341024E+04</pdfrwt>
<pdfrwt beam="2">  1       -2 0.40762161E-01 0.10341024E+04</pdfrwt>
<totfact> 0.74395713E+01</totfact>
</mgrwt>
</event>
<event>
12    4  0.4183215E-008  0.1726980E+04  0.7818608E-02  0.8746124E-01
         -2   -1    0    0    0  501 -0.00000000000E+00  0.00000000000E+00  0.54800462518E+03  0.54800462518E+03  0.00000000000E+00 0.  1.
          1   -1    0    0  501    0  0.00000000000E+00 -0.00000000000E+00 -0.13606000091E+04  0.13606000091E+04  0.00000000000E+00 0. -1.
        -24    2    1    2    0    0 -0.42281713131E+03  0.80480584577E+02 -0.79373665592E+03  0.90642270278E+03  0.79578804563E+02 0.  0.
        254    2    1    2    0    0  0.42281713131E+03 -0.80480584577E+02 -0.18858728006E+02  0.10021819315E+04  0.90485441989E+03 0.  0.
         23    2    4    4    0    0  0.18868605829E+03 -0.36226913950E+03  0.29392507606E+03  0.51192547909E+03  0.93991423955E+02 0.  0.
         23    2    4    4    0    0  0.23413107302E+03  0.28178855492E+03 -0.31278380407E+03  0.49025645242E+03  0.91079811241E+02 0.  0.
          3    1    3    3  502    0 -0.22562466172E+03  0.32166949645E+02 -0.49836751178E+03  0.54800673119E+03  0.00000000000E+00 0. -1.
         -4    1    3    3    0  502 -0.19719246958E+03  0.48313634932E+02 -0.29536914414E+03  0.35841597159E+03  0.00000000000E+00 0.  1.
         11    1    5    5    0    0 -0.88496556830E+01 -0.15021498994E+02  0.24473345301E+02  0.30048402087E+02  0.00000000000E+00 0. -1.
        -11    1    5    5    0    0  0.19753571397E+03 -0.34724764050E+03  0.26945173076E+03  0.48187707700E+03  0.00000000000E+00 0.  1.
          1    1    6    6  503    0  0.12434147387E+03  0.80868262594E+02 -0.13135642962E+03  0.19812871983E+03  0.00000000000E+00 0. -1.
         -1    1    6    6    0  503  0.10978959915E+03  0.20092029232E+03 -0.18142737444E+03  0.29212773259E+03  0.00000000000E+00 0.  1.
<mgrwt>
<rscale>  0 0.17269801E+04</rscale>
<asrwt>0</asrwt>
<pdfrwt beam="1">  1        1 0.20932308E+00 0.17269801E+04</pdfrwt>
<pdfrwt beam="2">  1       -2 0.84308404E-01 0.17269801E+04</pdfrwt>
<totfact> 0.83754188E+00</totfact>
</mgrwt>
</event>
<event>
12    4  0.4183215E-008  0.1573307E+04  0.7818608E-02  0.8837117E-01
          1   -1    0    0  501    0  0.00000000000E+00  0.00000000000E+00  0.40076413894E+03  0.40076413894E+03  0.00000000000E+00 0. -1.
         -2   -1    0    0    0  501 -0.00000000000E+00 -0.00000000000E+00 -0.15441092651E+04  0.15441092651E+04  0.00000000000E+00 0.  1.
        -24    2    1    2    0    0 -0.48283268151E+02 -0.11041984327E+03 -0.10265423219E+04  0.10366500935E+04  0.79564200477E+02 0.  0.
        254    2    1    2    0    0  0.48283268151E+02  0.11041984327E+03 -0.11680280421E+03  0.90822331046E+03  0.89258213674E+03 0.  0.
         23    2    4    4    0    0 -0.16676232734E+03 -0.27541387020E+03 -0.27175630176E+03  0.43123379147E+03  0.91916383963E+02 0.  0.
         23    2    4    4    0    0  0.21504559549E+03  0.38583371347E+03  0.15495349755E+03  0.47698951899E+03  0.91630520214E+02 0.  0.
          3    1    3    3  502    0 -0.61028306091E+02 -0.45398419690E+02 -0.45996867086E+03  0.46621523874E+03  0.00000000000E+00 0. -1.
         -4    1    3    3    0  502  0.12745037940E+02 -0.65021423575E+02 -0.56657365104E+03  0.57043485480E+03  0.00000000000E+00 0.  1.
         11    1    5    5    0    0 -0.62823843299E+02 -0.75183800688E+02 -0.34581925595E+02  0.10390066771E+03  0.00000000000E+00 0. -1.
        -11    1    5    5    0    0 -0.10393848404E+03 -0.20023006951E+03 -0.23717437616E+03  0.32733312376E+03  0.00000000000E+00 0.  1.
          2    1    6    6  503    0  0.11124746846E+03  0.28625954815E+03  0.11153313093E+03  0.32674174425E+03  0.00000000000E+00 0.  1.
         -2    1    6    6    0  503  0.10379812704E+03  0.99574165317E+02  0.43420366620E+02  0.15024777473E+03  0.00000000000E+00 0. -1.
<mgrwt>
<rscale>  0 0.15733069E+04</rscale>
<asrwt>0</asrwt>
<pdfrwt beam="1">  1        1 0.61656023E-01 0.15733069E+04</pdfrwt>
<pdfrwt beam="2">  1       -2 0.23755527E+00 0.15733069E+04</pdfrwt>
<totfact> 0.38585537E+00</totfact>
</mgrwt>
</event>
<event>
12    4  0.4183215E-008  0.1135254E+04  0.7818608E-02  0.9171496E-01
         -2   -1    0    0    0  501 -0.00000000000E+00  0.00000000000E+00  0.24753453261E+03  0.24753453261E+03  0.00000000000E+00 0.  1.
          1   -1    0    0  501    0  0.00000000000E+00 -0.00000000000E+00 -0.13016377650E+04  0.13016377650E+04  0.00000000000E+00 0. -1.
        -24    2    1    2    0    0  0.46230844746E+02 -0.15665232714E+02  0.51862740488E+02  0.11453173538E+03  0.89694392452E+02 0.  0.
        254    2    1    2    0    0 -0.46230844746E+02  0.15665232714E+02 -0.11059659729E+04  0.14346405622E+04  0.91249664058E+03 0.  0.
         23    2    4    4    0    0 -0.28963127322E+03 -0.35038913518E+03 -0.52378796811E+03  0.69957664906E+03  0.91623315209E+02 0.  0.
         23    2    4    4    0    0  0.24340042848E+03  0.36605436789E+03 -0.58217800475E+03  0.73506391315E+03  0.90267149968E+02 0.  0.
          3    1    3    3  502    0  0.34456537071E+01 -0.33107674021E+02 -0.12280910345E+02  0.35479731784E+02  0.00000000000E+00 0. -1.
         -4    1    3    3    0  502  0.42785191039E+02  0.17442441307E+02  0.64143650833E+02  0.79052003600E+02  0.00000000000E+00 0.  1.
         11    1    5    5    0    0 -0.11620961792E+02 -0.72507590664E+01 -0.50169253884E+02  0.52005521777E+02  0.00000000000E+00 0. -1.
        -11    1    5    5    0    0 -0.27801031143E+03 -0.34313837611E+03 -0.47361871423E+03  0.64757112728E+03  0.00000000000E+00 0.  1.
          2    1    6    6  503    0  0.13234412947E+03  0.12343347835E+03 -0.25910411605E+03  0.31604704577E+03  0.00000000000E+00 0. -1.
         -2    1    6    6    0  503  0.11105629900E+03  0.24262088955E+03 -0.32307388870E+03  0.41901686738E+03  0.00000000000E+00 0.  1.
<mgrwt>
<rscale>  0 0.11352538E+04</rscale>
<asrwt>0</asrwt>
<pdfrwt beam="1">  1        1 0.20025196E+00 0.11352538E+04</pdfrwt>
<pdfrwt beam="2">  1       -2 0.38082236E-01 0.11352538E+04</pdfrwt>
<totfact> 0.51194042E+01</totfact>
</mgrwt>
</event>
<event>
12    4  0.4183215E-008  0.1785345E+04  0.7818608E-02  0.8714132E-01
         -2   -1    0    0    0  501 -0.00000000000E+00  0.00000000000E+00  0.40239785054E+03  0.40239785054E+03  0.00000000000E+00 0.  1.
          1   -1    0    0  501    0  0.00000000000E+00 -0.00000000000E+00 -0.19802892101E+04  0.19802892101E+04  0.00000000000E+00 0. -1.
        -24    2    1    2    0    0  0.51037871824E+03  0.40894946586E+03 -0.71714946433E+03  0.97413343041E+03  0.83105260878E+02 0.  0.
        254    2    1    2    0    0 -0.51037871824E+03 -0.40894946586E+03 -0.86074189523E+03  0.14085536302E+04  0.90300643263E+03 0.  0.
         23    2    4    4    0    0 -0.34820121261E+03 -0.66716147137E+03 -0.42547543422E+03  0.86932723738E+03  0.91389207157E+02 0.  0.
         23    2    4    4    0    0 -0.16217750563E+03  0.25821200551E+03 -0.43526646101E+03  0.53922639285E+03  0.91286513475E+02 0.  0.
          3    1    3    3  502    0  0.27464315320E+03  0.24324443205E+03 -0.34633430991E+03  0.50452370563E+03  0.00000000000E+00 0. -1.
         -4    1    3    3    0  502  0.23573556504E+03  0.16570503381E+03 -0.37081515442E+03  0.46960972478E+03  0.00000000000E+00 0.  1.
         11    1    5    5    0    0 -0.22045608671E+03 -0.41118513986E+03 -0.21247490315E+03  0.51265942874E+03  0.00000000000E+00 0. -1.
        -11    1    5    5    0    0 -0.12774512590E+03 -0.25597633151E+03 -0.21300053106E+03  0.35666780863E+03  0.00000000000E+00 0.  1.
          2    1    6    6  503    0 -0.10355644763E+03  0.22711674137E+03 -0.31545250508E+03  0.40226388730E+03  0.00000000000E+00 0.  1.
         -2    1    6    6    0  503 -0.58621057997E+02  0.31095264133E+02 -0.11981395593E+03  0.13696250555E+03  0.00000000000E+00 0. -1.
<mgrwt>
<rscale>  0 0.17853449E+04</rscale>
<asrwt>0</asrwt>
<pdfrwt beam="1">  1        1 0.30465988E+00 0.17853449E+04</pdfrwt>
<pdfrwt beam="2">  1       -2 0.61907361E-01 0.17853449E+04</pdfrwt>
<totfact> 0.61790227E+00</totfact>
</mgrwt>
</event>
<event>
12    4  0.4183215E-008  0.1591089E+04  0.7818608E-02  0.8826041E-01
         -2   -1    0    0    0  501 -0.00000000000E+00  0.00000000000E+00  0.60722492429E+03  0.60722492429E+03  0.00000000000E+00 0.  1.
          1   -1    0    0  501    0  0.00000000000E+00 -0.00000000000E+00 -0.10422683451E+04  0.10422683451E+04  0.00000000000E+00 0. -1.
        -24    2    1    2    0    0 -0.10151452211E+03  0.67950028178E+02 -0.68788635619E+03  0.70316538225E+03  0.79570793899E+02 0.  0.
        254    2    1    2    0    0  0.10151452211E+03 -0.67950028178E+02  0.25284293540E+03  0.94632788712E+03  0.90370598949E+03 0.  0.
         23    2    4    4    0    0 -0.25062690215E+03 -0.28406267029E+03  0.33679964121E+03  0.51517669779E+03  0.92019491920E+02 0.  0.
         23    2    4    4    0    0  0.35214142426E+03  0.21611264212E+03 -0.83956705808E+02  0.43115118933E+03  0.90190702654E+02 0.  0.
          1    1    3    3  502    0 -0.39767897979E+02  0.61383254310E+02 -0.23716146274E+03  0.24818329724E+03  0.00000000000E+00 0. -1.
         -2    1    3    3    0  502 -0.61746624127E+02  0.65667738682E+01 -0.45072489345E+03  0.45498208502E+03  0.00000000000E+00 0.  1.
         11    1    5    5    0    0 -0.12976789981E+02  0.63877348882E+01  0.14643419031E+02  0.20582272862E+02  0.00000000000E+00 0.  1.
        -11    1    5    5    0    0 -0.23765011217E+03 -0.29045040518E+03  0.32215622218E+03  0.49459442493E+03  0.00000000000E+00 0. -1.
          4    1    6    6  503    0  0.35301885297E+03  0.22122274069E+03 -0.79106710160E+02  0.42405151001E+03  0.00000000000E+00 0. -1.
         -4    1    6    6    0  503 -0.87742871411E+00 -0.51100985716E+01 -0.48499956480E+01  0.70996793129E+01  0.00000000000E+00 0.  1.
<mgrwt>
<rscale>  0 0.15910893E+04</rscale>
<asrwt>0</asrwt>
<pdfrwt beam="1">  1        1 0.16034897E+00 0.15910893E+04</pdfrwt>
<pdfrwt beam="2">  1       -2 0.93419220E-01 0.15910893E+04</pdfrwt>
<totfact> 0.11448637E+01</totfact>
</mgrwt>
</event>
<event>
12    4  0.4183215E-008  0.1646770E+04  0.7818608E-02  0.8792319E-01
         -2   -1    0    0    0  501 -0.00000000000E+00  0.00000000000E+00  0.38983506868E+03  0.38983506868E+03  0.00000000000E+00 0.  1.
          1   -1    0    0  501    0  0.00000000000E+00 -0.00000000000E+00 -0.17391026141E+04  0.17391026141E+04  0.00000000000E+00 0. -1.
        -24    2    1    2    0    0  0.49877450776E+02  0.18116318126E+03  0.22878176426E+03  0.30680987697E+03  0.80519231288E+02 0.  0.
        254    2    1    2    0    0 -0.49877450776E+02 -0.18116318126E+03 -0.15780493097E+04  0.18221278058E+04  0.89140465477E+03 0.  0.
         23    2    4    4    0    0 -0.21533403812E+03  0.12401807623E+03 -0.74300368758E+02  0.27615288225E+03  0.94818976848E+02 0.  0.
         23    2    4    4    0    0  0.16545658735E+03 -0.30518125749E+03 -0.15037489409E+04  0.15459749235E+04  0.90918120899E+02 0.  0.
          3    1    3    3  502    0 -0.38890371591E+00 -0.68631301902E+01  0.60432825240E+00  0.69006532114E+01  0.00000000000E+00 0. -1.
         -4    1    3    3    0  502  0.50266354492E+02  0.18802631145E+03  0.22817743601E+03  0.29990922376E+03  0.00000000000E+00 0.  1.
         11    1    5    5    0    0 -0.23021015857E+02  0.42450149379E+02  0.12592177517E+02  0.49905363319E+02  0.00000000000E+00 0. -1.
        -11    1    5    5    0    0 -0.19231302227E+03  0.81567926853E+02 -0.86892546275E+02  0.22624751893E+03  0.00000000000E+00 0.  1.
          3    1    6    6  503    0  0.35018248945E+02 -0.63734624753E+02 -0.50501223736E+03  0.51022126576E+03  0.00000000000E+00 0. -1.
         -3    1    6    6    0  503  0.13043833840E+03 -0.24144663273E+03 -0.99873670353E+03  0.10357536578E+04  0.00000000000E+00 0.  1.
<mgrwt>
<rscale>  0 0.16467704E+04</rscale>
<asrwt>0</asrwt>
<pdfrwt beam="1">  1        1 0.26755424E+00 0.16467704E+04</pdfrwt>
<pdfrwt beam="2">  1       -2 0.59974627E-01 0.16467704E+04</pdfrwt>
<totfact> 0.97485686E+00</totfact>
</mgrwt>
</event>
<event>
12    4  0.4183215E-008  0.1463824E+04  0.7818608E-02  0.8908873E-01
         -2   -1    0    0    0  501 -0.00000000000E+00  0.00000000000E+00  0.81570508592E+03  0.81570508592E+03  0.00000000000E+00 0.  1.
          1   -1    0    0  501    0  0.00000000000E+00 -0.00000000000E+00 -0.65672609507E+03  0.65672609507E+03  0.00000000000E+00 0. -1.
        -24    2    1    2    0    0  0.25961449546E+03 -0.26418173154E+03 -0.16268616273E+03  0.41278583210E+03  0.82059015965E+02 0.  0.
        254    2    1    2    0    0 -0.25961449546E+03  0.26418173154E+03  0.32166515358E+03  0.10596453489E+04  0.93924870022E+03 0.  0.
         23    2    4    4    0    0 -0.56196901167E+03  0.14931482571E+03 -0.71730946868E+01  0.58961751427E+03  0.97433426432E+02 0.  0.
         23    2    4    4    0    0  0.30235451621E+03  0.11486690583E+03  0.32883824827E+03  0.47002783463E+03  0.90437338894E+02 0.  0.
          1    1    3    3  502    0  0.18669229976E+03 -0.23473373448E+03 -0.11775125091E+03  0.32221002154E+03  0.00000000000E+00 0. -1.
         -2    1    3    3    0  502  0.72922195701E+02 -0.29447997062E+02 -0.44934911822E+02  0.90575810552E+02  0.00000000000E+00 0.  1.
         11    1    5    5    0    0 -0.48088990983E+03  0.99013844590E+02  0.16699933476E+02  0.49126137094E+03  0.00000000000E+00 0. -1.
        -11    1    5    5    0    0 -0.81079101841E+02  0.50300981118E+02 -0.23873028162E+02  0.98356143328E+02  0.00000000000E+00 0.  1.
          1    1    6    6  503    0  0.29104371075E+03  0.83960715783E+02  0.29817283594E+03  0.42504456644E+03  0.00000000000E+00 0. -1.
         -1    1    6    6    0  503  0.11310805460E+02  0.30906190050E+02  0.30665412328E+02  0.44983268187E+02  0.00000000000E+00 0.  1.
<mgrwt>
<rscale>  0 0.14638235E+04</rscale>
<asrwt>0</asrwt>
<pdfrwt beam="1">  1        1 0.10103478E+00 0.14638235E+04</pdfrwt>
<pdfrwt beam="2">  1       -2 0.12549309E+00 0.14638235E+04</pdfrwt>
<totfact> 0.12089725E+01</totfact>
</mgrwt>
</event>
<event>
12    4  0.4183215E-008  0.2925034E+04  0.7818608E-02  0.8265468E-01
         -2   -1    0    0    0  501 -0.00000000000E+00  0.00000000000E+00  0.18693243505E+04  0.18693243505E+04  0.00000000000E+00 0.  1.
          1   -1    0    0  501    0  0.00000000000E+00 -0.00000000000E+00 -0.11442399289E+04  0.11442399289E+04  0.00000000000E+00 0. -1.
        -24    2    1    2    0    0  0.63816776496E+03 -0.84300579555E+03  0.11602254593E+04  0.15719810769E+04  0.84169602991E+02 0.  0.
        254    2    1    2    0    0 -0.63816776496E+03  0.84300579555E+03 -0.43514103769E+03  0.14415832025E+04  0.87800771038E+03 0.  0.
         23    2    4    4    0    0 -0.20936246023E+03 -0.80759097355E+02 -0.33568150905E+03  0.41386148557E+03  0.90799681501E+02 0.  0.
         23    2    4    4    0    0 -0.42880530474E+03  0.92376489291E+03 -0.99459528632E+02  0.10277217169E+04  0.95415737088E+02 0.  0.
          1    1    3    3  502    0  0.28082185309E+03 -0.33611903177E+03  0.53365123146E+03  0.69037710965E+03  0.00000000000E+00 0. -1.
         -2    1    3    3    0  502  0.35734591187E+03 -0.50688676379E+03  0.62657422786E+03  0.88160396724E+03  0.00000000000E+00 0.  1.
         11    1    5    5    0    0 -0.71427242884E+02 -0.42528976243E+02 -0.20020967624E+03  0.21678210098E+03  0.00000000000E+00 0.  1.
        -11    1    5    5    0    0 -0.13793521734E+03 -0.38230121112E+02 -0.13547183281E+03  0.19707938459E+03  0.00000000000E+00 0. -1.
          3    1    6    6  503    0  0.44326249105E+01  0.16533320880E+02  0.20631467367E+01  0.17241097336E+02  0.00000000000E+00 0. -1.
         -3    1    6    6    0  503 -0.43323792965E+03  0.90723157203E+03 -0.10152267537E+03  0.10104806196E+04  0.00000000000E+00 0.  1.
<mgrwt>
<rscale>  0 0.29250337E+04</rscale>
<asrwt>0</asrwt>
<pdfrwt beam="1">  1        1 0.17603691E+00 0.29250337E+04</pdfrwt>
<pdfrwt beam="2">  1       -2 0.28758836E+00 0.29250337E+04</pdfrwt>
<totfact> 0.33425170E-01</totfact>
</mgrwt>
</event>
<event>
12    4  0.4183215E-008  0.2351298E+04  0.7818608E-02  0.8457965E-01
         -2   -1    0    0    0  501 -0.00000000000E+00  0.00000000000E+00  0.81282715316E+03  0.81282715316E+03  0.00000000000E+00 0.  1.
          1   -1    0    0  501    0  0.00000000000E+00 -0.00000000000E+00 -0.17004237098E+04  0.17004237098E+04  0.00000000000E+00 0. -1.
        -24    2    1    2    0    0 -0.39531894004E+03  0.90501514131E+03 -0.53106964217E+03  0.11241704453E+04  0.79967211733E+02 0.  0.
        254    2    1    2    0    0  0.39531894004E+03 -0.90501514131E+03 -0.35652691450E+03  0.13890804177E+04  0.90945230531E+03 0.  0.
         23    2    4    4    0    0  0.34233893359E+03 -0.50224658517E+03 -0.63802513640E+03  0.88586791096E+03  0.90765099215E+02 0.  0.
         23    2    4    4    0    0  0.52980006452E+02 -0.40276855614E+03  0.28149822189E+03  0.50321250671E+03  0.94615998028E+02 0.  0.
          3    1    3    3  502    0 -0.26231069892E+03  0.64672679873E+03 -0.41006844479E+03  0.80945573343E+03  0.00000000000E+00 0. -1.
         -4    1    3    3    0  502 -0.13300824112E+03  0.25828834257E+03 -0.12100119738E+03  0.31471471189E+03  0.00000000000E+00 0.  1.
         11    1    5    5    0    0  0.21131636756E+03 -0.23374227244E+03 -0.34848478113E+03  0.46982092312E+03  0.00000000000E+00 0. -1.
        -11    1    5    5    0    0  0.13102256602E+03 -0.26850431273E+03 -0.28954035527E+03  0.41604698784E+03  0.00000000000E+00 0.  1.
          4    1    6    6  503    0  0.40781797290E+02 -0.38034784025E+03  0.28557003752E+03  0.47736556317E+03  0.00000000000E+00 0. -1.
         -4    1    6    6    0  503  0.12198209162E+02 -0.22420715891E+02 -0.40718156282E+01  0.25846943539E+02  0.00000000000E+00 0.  1.
<mgrwt>
<rscale>  0 0.23512980E+04</rscale>
<asrwt>0</asrwt>
<pdfrwt beam="1">  1        1 0.26160364E+00 0.23512980E+04</pdfrwt>
<pdfrwt beam="2">  1       -2 0.12505033E+00 0.23512980E+04</pdfrwt>
<totfact> 0.18031565E+00</totfact>
</mgrwt>
</event>
<event>
12    4  0.4183215E-008  0.1589793E+04  0.7818608E-02  0.8826843E-01
         -2   -1    0    0    0  501 -0.00000000000E+00  0.00000000000E+00  0.13546830084E+04  0.13546830084E+04  0.00000000000E+00 0.  1.
          1   -1    0    0  501    0  0.00000000000E+00 -0.00000000000E+00 -0.46642664392E+03  0.46642664392E+03  0.00000000000E+00 0. -1.
        -24    2    1    2    0    0 -0.35264716068E+03 -0.31530133521E+03  0.17777040540E+02  0.47979422216E+03  0.78176214644E+02 0.  0.
        254    2    1    2    0    0  0.35264716068E+03  0.31530133521E+03  0.87047932398E+03  0.13413154302E+04  0.90422225026E+03 0.  0.
         23    2    4    4    0    0 -0.28012156422E+03 -0.20500715282E+02  0.20727286233E+03  0.36085800656E+03  0.91477272428E+02 0.  0.
         23    2    4    4    0    0  0.63276872490E+03  0.33580205049E+03  0.66320646165E+03  0.98045742362E+03  0.91075092301E+02 0.  0.
          3    1    3    3  502    0 -0.35082435957E+03 -0.30764059605E+03  0.27340952931E+02  0.46740560043E+03  0.00000000000E+00 0. -1.
         -4    1    3    3    0  502 -0.18228011077E+01 -0.76607391535E+01 -0.95639123907E+01  0.12388621734E+02  0.00000000000E+00 0.  1.
         11    1    5    5    0    0 -0.72757254439E+01  0.12724012109E+02 -0.27856879163E+01  0.14919675668E+02  0.00000000000E+00 0. -1.
        -11    1    5    5    0    0 -0.27284583878E+03 -0.33224727391E+02  0.21005855024E+03  0.34593833089E+03  0.00000000000E+00 0.  1.
          3    1    6    6  503    0  0.11621223830E+03  0.10343859524E+03  0.15050686783E+03  0.21646511170E+03  0.00000000000E+00 0. -1.
         -3    1    6    6    0  503  0.51655648660E+03  0.23236345525E+03  0.51269959382E+03  0.76399231193E+03  0.00000000000E+00 0.  1.
<mgrwt>
<rscale>  0 0.15897928E+04</rscale>
<asrwt>0</asrwt>
<pdfrwt beam="1">  1        1 0.71757946E-01 0.15897928E+04</pdfrwt>
<pdfrwt beam="2">  1       -2 0.20841277E+00 0.15897928E+04</pdfrwt>
<totfact> 0.47976189E+00</totfact>
</mgrwt>
</event>
<event>
12    4  0.4183215E-008  0.1961377E+04  0.7818608E-02  0.8624894E-01
          1   -1    0    0  501    0  0.00000000000E+00  0.00000000000E+00  0.82288713265E+03  0.82288713265E+03  0.00000000000E+00 0. -1.
         -2   -1    0    0    0  501 -0.00000000000E+00 -0.00000000000E+00 -0.11687504201E+04  0.11687504201E+04  0.00000000000E+00 0.  1.
        -24    2    1    2    0    0  0.60820404220E+03  0.15666324941E+03 -0.53978438924E+03  0.83203132678E+03  0.80333126475E+02 0.  0.
        254    2    1    2    0    0 -0.60820404220E+03 -0.15666324941E+03  0.19392110178E+03  0.11596062260E+04  0.95531443774E+03 0.  0.
         23    2    4    4    0    0 -0.70676574835E+02 -0.39920612183E+03  0.34922577715E+03  0.54269189741E+03  0.90527046551E+02 0.  0.
         23    2    4    4    0    0 -0.53752746737E+03  0.24254287242E+03 -0.15530467537E+03  0.61691432857E+03  0.93278740745E+02 0.  0.
          1    1    3    3  502    0  0.12163339344E+03  0.37303236136E+01 -0.12691682527E+03  0.17583082282E+03  0.00000000000E+00 0. -1.
         -2    1    3    3    0  502  0.48657064876E+03  0.15293292580E+03 -0.41286756396E+03  0.65620050396E+03  0.00000000000E+00 0.  1.
         11    1    5    5    0    0 -0.20774583848E+01 -0.22527803343E+03  0.15742276193E+03  0.27483892401E+03  0.00000000000E+00 0.  1.
        -11    1    5    5    0    0 -0.68599116451E+02 -0.17392808840E+03  0.19180301522E+03  0.26785297340E+03  0.00000000000E+00 0. -1.
          1    1    6    6  503    0 -0.31863795738E+03  0.13338008808E+03 -0.13709041330E+03  0.37163715799E+03  0.00000000000E+00 0. -1.
         -1    1    6    6    0  503 -0.21888950999E+03  0.10916278434E+03 -0.18214262061E+02  0.24527717059E+03  0.00000000000E+00 0.  1.
<mgrwt>
<rscale>  0 0.19613767E+04</rscale>
<asrwt>0</asrwt>
<pdfrwt beam="1">  1        1 0.12659802E+00 0.19613767E+04</pdfrwt>
<pdfrwt beam="2">  1       -2 0.17980776E+00 0.19613767E+04</pdfrwt>
<totfact> 0.31316737E+00</totfact>
</mgrwt>
</event>
<event>
12    4  0.4183215E-008  0.1505465E+04  0.7818608E-02  0.8880827E-01
         -2   -1    0    0    0  501 -0.00000000000E+00  0.00000000000E+00  0.32060550405E+03  0.32060550405E+03  0.00000000000E+00 0.  1.
          1   -1    0    0  501    0  0.00000000000E+00 -0.00000000000E+00 -0.17673006161E+04  0.17673006161E+04  0.00000000000E+00 0. -1.
        -24    2    1    2    0    0  0.76070521846E+02 -0.32440219851E+03 -0.94227471165E+03  0.10028346850E+04  0.82293756980E+02 0.  0.
        254    2    1    2    0    0 -0.76070521846E+02  0.32440219851E+03 -0.50442040042E+03  0.10850714352E+04  0.90106413116E+03 0.  0.
         23    2    4    4    0    0  0.26652293865E+03 -0.18618963589E+03 -0.20741688545E+03  0.39610015305E+03  0.90401933265E+02 0.  0.
         23    2    4    4    0    0 -0.34259346050E+03  0.51059183440E+03 -0.29700351497E+03  0.68897128216E+03  0.91629903447E+02 0.  0.
          3    1    3    3  502    0  0.30134604250E+02 -0.25813322727E+03 -0.76874662633E+03  0.81148766650E+03  0.00000000000E+00 0. -1.
         -2    1    3    3    0  502  0.45935917596E+02 -0.66268971246E+02 -0.17352808532E+03  0.19134701845E+03  0.00000000000E+00 0.  1.
         11    1    5    5    0    0  0.10408085419E+03 -0.82742202999E+02 -0.13735116785E+03  0.19116600031E+03  0.00000000000E+00 0.  1.
        -11    1    5    5    0    0  0.16244208446E+03 -0.10344743289E+03 -0.70065717600E+02  0.20493415274E+03  0.00000000000E+00 0. -1.
          1    1    6    6  503    0 -0.15122459655E+03  0.25600160429E+03 -0.96402678904E+02  0.31256867486E+03  0.00000000000E+00 0. -1.
         -1    1    6    6    0  503 -0.19136886395E+03  0.25459023011E+03 -0.20060083606E+03  0.37640260730E+03  0.00000000000E+00 0.  1.
<mgrwt>
<rscale>  0 0.15054651E+04</rscale>
<asrwt>0</asrwt>
<pdfrwt beam="1">  1        1 0.27189241E+00 0.15054651E+04</pdfrwt>
<pdfrwt beam="2">  1       -2 0.49323922E-01 0.15054651E+04</pdfrwt>
<totfact> 0.14162699E+01</totfact>
</mgrwt>
</event>
<event>
12    4  0.4183215E-008  0.2219267E+04  0.7818608E-02  0.8510451E-01
          1   -1    0    0  501    0  0.00000000000E+00  0.00000000000E+00  0.15324897513E+04  0.15324897513E+04  0.00000000000E+00 0. -1.
         -2   -1    0    0    0  501 -0.00000000000E+00 -0.00000000000E+00 -0.80345528793E+03  0.80345528793E+03  0.00000000000E+00 0.  1.
        -24    2    1    2    0    0 -0.12955046887E+03 -0.84378019677E+03  0.68675424780E+03  0.10984615840E+04  0.78981707799E+02 0.  0.
        254    2    1    2    0    0  0.12955046887E+03  0.84378019677E+03  0.42280215541E+02  0.12374834552E+04  0.89489068654E+03 0.  0.
         23    2    4    4    0    0 -0.23130793397E+03  0.96783679383E+02  0.26301104917E+03  0.37481101128E+03  0.91858811670E+02 0.  0.
         23    2    4    4    0    0  0.36085840283E+03  0.74699651739E+03 -0.22073083362E+03  0.86267244394E+03  0.85200121682E+02 0.  0.
          3    1    3    3  502    0 -0.10714447049E+03 -0.76533303786E+03  0.64613060977E+03  0.10073228684E+04  0.00000000000E+00 0. -1.
         -4    1    3    3    0  502 -0.22405998371E+02 -0.78447158913E+02  0.40623638034E+02  0.91138715548E+02  0.00000000000E+00 0.  1.
         11    1    5    5    0    0 -0.23289963796E+03  0.77734328099E+02  0.22874105448E+03  0.33557016723E+03  0.00000000000E+00 0.  1.
        -11    1    5    5    0    0  0.15917039978E+01  0.19049351283E+02  0.34269994690E+02  0.39240844052E+02  0.00000000000E+00 0. -1.
          2    1    6    6  503    0  0.36495027677E+02  0.15111025822E+03 -0.37392136315E+02  0.15988861449E+03  0.00000000000E+00 0. -1.
         -2    1    6    6    0  503  0.32436337516E+03  0.59588625916E+03 -0.18333869731E+03  0.70278382945E+03  0.00000000000E+00 0.  1.
<mgrwt>
<rscale>  0 0.22192674E+04</rscale>
<asrwt>0</asrwt>
<pdfrwt beam="1">  1        1 0.23576765E+00 0.22192674E+04</pdfrwt>
<pdfrwt beam="2">  1       -2 0.12360851E+00 0.22192674E+04</pdfrwt>
<totfact> 0.24477546E+00</totfact>
</mgrwt>
</event>
<event>
12    4  0.4183215E-008  0.1521482E+04  0.7818608E-02  0.8870292E-01
          1   -1    0    0  501    0  0.00000000000E+00  0.00000000000E+00  0.85414990771E+03  0.85414990771E+03  0.00000000000E+00 0. -1.
         -4   -1    0    0    0  501 -0.00000000000E+00 -0.00000000000E+00 -0.67754734005E+03  0.67754734005E+03  0.00000000000E+00 0.  1.
        -24    2    1    2    0    0 -0.27041625009E+03 -0.32606800096E+03 -0.20215241662E+03  0.47581102068E+03  0.78007937378E+02 0.  0.
        254    2    1    2    0    0  0.27041625009E+03  0.32606800096E+03  0.37875498428E+03  0.10558862271E+04  0.88994106371E+03 0.  0.
         23    2    4    4    0    0 -0.23520239708E+03 -0.10293934262E+03 -0.25030669823E+02  0.27425260929E+03  0.93119726252E+02 0.  0.
         23    2    4    4    0    0  0.50561864717E+03  0.42900734357E+03  0.40378565410E+03  0.78163361780E+03  0.90613138141E+02 0.  0.
          3    1    3    3  502    0 -0.10711325740E+03 -0.83874075900E+02 -0.40430044870E+02  0.14192497683E+03  0.00000000000E+00 0. -1.
         -4    1    3    3    0  502 -0.16330299269E+03 -0.24219392506E+03 -0.16172237174E+03  0.33388604385E+03  0.00000000000E+00 0.  1.
         11    1    5    5    0    0 -0.23764341641E+03 -0.85924310647E+02 -0.33808630133E+02  0.25495176797E+03  0.00000000000E+00 0.  1.
        -11    1    5    5    0    0  0.24410193216E+01 -0.17015031971E+02  0.87779603095E+01  0.19300841316E+02  0.00000000000E+00 0. -1.
          2    1    6    6  503    0  0.48481647138E+03  0.38088505125E+03  0.36575481817E+03  0.71686611037E+03  0.00000000000E+00 0.  1.
         -2    1    6    6    0  503  0.20802175792E+02  0.48122292327E+02  0.38030835926E+02  0.64767507423E+02  0.00000000000E+00 0. -1.
<mgrwt>
<rscale>  0 0.15214822E+04</rscale>
<asrwt>0</asrwt>
<pdfrwt beam="1">  1        1 0.13140768E+00 0.15214822E+04</pdfrwt>
<pdfrwt beam="2">  1       -4 0.10423805E+00 0.15214822E+04</pdfrwt>
<totfact> 0.69487356E+00</totfact>
</mgrwt>
</event>
<event>
12    4  0.4183215E-008  0.2751038E+04  0.7818608E-02  0.8318632E-01
         -2   -1    0    0    0  501 -0.00000000000E+00  0.00000000000E+00  0.19777197497E+04  0.19777197497E+04  0.00000000000E+00 0.  1.
          1   -1    0    0  501    0  0.00000000000E+00 -0.00000000000E+00 -0.95668411156E+03  0.95668411156E+03  0.00000000000E+00 0. -1.
        -24    2    1    2    0    0 -0.52395836112E+03  0.75561283348E+03 -0.42232036257E+03  0.10148658963E+04  0.78199620069E+02 0.  0.
        254    2    1    2    0    0  0.52395836112E+03 -0.75561283348E+03  0.14433560007E+04  0.19195379650E+04  0.86940573715E+03 0.  0.
         23    2    4    4    0    0  0.92636114662E+02 -0.66588640140E+03  0.41045164576E+03  0.79302973070E+03  0.91866484461E+02 0.  0.
         23    2    4    4    0    0  0.43132224646E+03 -0.89726432084E+02  0.10329043550E+04  0.11265082343E+04  0.89664276254E+02 0.  0.
          3    1    3    3  502    0 -0.49172850952E+03  0.70412916608E+03 -0.41449133196E+03  0.95362354935E+03  0.00000000000E+00 0. -1.
         -4    1    3    3    0  502 -0.32229851610E+02  0.51483667396E+02 -0.78290306033E+01  0.61242346979E+02  0.00000000000E+00 0.  1.
         11    1    5    5    0    0  0.10537226150E+03 -0.58531700196E+03  0.33880254762E+03  0.68446071658E+03  0.00000000000E+00 0.  1.
        -11    1    5    5    0    0 -0.12736146837E+02 -0.80569399439E+02  0.71649098143E+02  0.10856901412E+03  0.00000000000E+00 0. -1.
          3    1    6    6  503    0  0.61914451425E+02  0.18490890023E+02  0.14333908532E+03  0.15723042228E+03  0.00000000000E+00 0. -1.
         -3    1    6    6    0  503  0.36940779504E+03 -0.10821732211E+03  0.88956526965E+03  0.96927781198E+03  0.00000000000E+00 0.  1.
<mgrwt>
<rscale>  0 0.27510384E+04</rscale>
<asrwt>0</asrwt>
<pdfrwt beam="1">  1        1 0.14718217E+00 0.27510384E+04</pdfrwt>
<pdfrwt beam="2">  1       -2 0.30426458E+00 0.27510384E+04</pdfrwt>
<totfact> 0.37367047E-01</totfact>
</mgrwt>
</event>
<event>
12    4  0.4183215E-008  0.1611635E+04  0.7818608E-02  0.8813432E-01
         -4   -1    0    0    0  501 -0.00000000000E+00  0.00000000000E+00  0.13505666491E+04  0.13505666491E+04  0.00000000000E+00 0.  1.
          3   -1    0    0  501    0  0.00000000000E+00 -0.00000000000E+00 -0.48079224196E+03  0.48079224196E+03  0.00000000000E+00 0. -1.
        -24    2    1    2    0    0  0.50519706555E+02 -0.27057494090E+03  0.83681599522E+03  0.88475050536E+03  0.82215615829E+02 0.  0.
        254    2    1    2    0    0 -0.50519706555E+02  0.27057494090E+03  0.32958411954E+02  0.94660838573E+03  0.90510670068E+03 0.  0.
         23    2    4    4    0    0  0.35824072184E+03  0.62542019017E+02  0.22661965171E+03  0.43916332302E+03  0.96229095466E+02 0.  0.
         23    2    4    4    0    0 -0.40876042840E+03  0.20803292188E+03 -0.19366123975E+03  0.50744506271E+03  0.98148007977E+02 0.  0.
          1    1    3    3  502    0 -0.14212892983E+02 -0.71564893482E+01  0.51938385169E+02  0.54321427823E+02  0.00000000000E+00 0. -1.
         -2    1    3    3    0  502  0.64732599537E+02 -0.26341845155E+03  0.78487761005E+03  0.83042907754E+03  0.00000000000E+00 0.  1.
         11    1    5    5    0    0  0.12631817810E+03  0.41325051773E+02  0.13340393164E+03  0.18830998646E+03  0.00000000000E+00 0. -1.
        -11    1    5    5    0    0  0.23192254374E+03  0.21216967244E+02  0.93215720066E+02  0.25085333656E+03  0.00000000000E+00 0.  1.
          2    1    6    6  503    0 -0.12647327193E+02  0.33997714632E+02 -0.17874846849E+02  0.40438961846E+02  0.00000000000E+00 0. -1.
         -2    1    6    6    0  503 -0.39611310121E+03  0.17403520725E+03 -0.17578639290E+03  0.46700610086E+03  0.00000000000E+00 0.  1.
<mgrwt>
<rscale>  0 0.16116352E+04</rscale>
<asrwt>0</asrwt>
<pdfrwt beam="1">  1        3 0.73968038E-01 0.16116352E+04</pdfrwt>
<pdfrwt beam="2">  1       -4 0.20777948E+00 0.16116352E+04</pdfrwt>
<totfact> 0.44362451E-01</totfact>
</mgrwt>
</event>
<event>
12    4  0.4183215E-008  0.1424367E+04  0.7818608E-02  0.8936367E-01
         -2   -1    0    0    0  501 -0.00000000000E+00  0.00000000000E+00  0.37865278428E+03  0.37865278428E+03  0.00000000000E+00 0.  1.
          1   -1    0    0  501    0  0.00000000000E+00 -0.00000000000E+00 -0.13394993547E+04  0.13394993547E+04  0.00000000000E+00 0. -1.
        -24    2    1    2    0    0  0.90707741305E+02  0.51052969282E+02 -0.77194362536E+03  0.78291488012E+03  0.78895175832E+02 0.  0.
        254    2    1    2    0    0 -0.90707741305E+02 -0.51052969282E+02 -0.18890294503E+03  0.93523725883E+03  0.91002753127E+03 0.  0.
         23    2    4    4    0    0 -0.31002294630E+03 -0.19446287462E+03  0.22345343553E+03  0.43824129246E+03  0.90520471311E+02 0.  0.
         23    2    4    4    0    0  0.21931520500E+03  0.14340990534E+03 -0.41235638055E+03  0.49699596637E+03  0.91113368489E+02 0.  0.
          1    1    3    3  502    0  0.34839031631E+02  0.44947372813E+02 -0.58361747517E+03  0.58638160081E+03  0.00000000000E+00 0. -1.
         -4    1    3    3    0  502  0.55868709674E+02  0.61055964695E+01 -0.18832615020E+03  0.19653327931E+03  0.00000000000E+00 0.  1.
         11    1    5    5    0    0 -0.82791431780E+02 -0.70441685238E+02  0.23693041346E+02  0.11125561740E+03  0.00000000000E+00 0. -1.
        -11    1    5    5    0    0 -0.22723151452E+03 -0.12402118939E+03  0.19976039418E+03  0.32698567506E+03  0.00000000000E+00 0.  1.
          3    1    6    6  503    0  0.11748296283E+03  0.10905355895E+03 -0.18024955553E+03  0.24121531366E+03  0.00000000000E+00 0. -1.
         -3    1    6    6    0  503  0.10183224217E+03  0.34356346395E+02 -0.23210682502E+03  0.25578065272E+03  0.00000000000E+00 0.  1.
<mgrwt>
<rscale>  0 0.14243668E+04</rscale>
<asrwt>0</asrwt>
<pdfrwt beam="1">  1        1 0.20607682E+00 0.14243668E+04</pdfrwt>
<pdfrwt beam="2">  1       -2 0.58254275E-01 0.14243668E+04</pdfrwt>
<totfact> 0.19950223E+01</totfact>
</mgrwt>
</event>
<event>
12    4  0.4183215E-008  0.1363433E+04  0.7818608E-02  0.8980721E-01
          1   -1    0    0  501    0  0.00000000000E+00  0.00000000000E+00  0.22316508478E+04  0.22316508478E+04  0.00000000000E+00 0. -1.
         -2   -1    0    0    0  501 -0.00000000000E+00 -0.00000000000E+00 -0.20824840098E+03  0.20824840098E+03  0.00000000000E+00 0.  1.
        -24    2    1    2    0    0  0.99903120977E+02  0.36333287376E+03  0.62172369364E+03  0.73133408845E+03  0.79484507645E+02 0.  0.
        254    2    1    2    0    0 -0.99903120977E+02 -0.36333287376E+03  0.14016787531E+04  0.17085651603E+04  0.90138791273E+03 0.  0.
         23    2    4    4    0    0 -0.19616718014E+03  0.24784015224E+03  0.66629766848E+03  0.74317905588E+03  0.91957721007E+02 0.  0.
         23    2    4    4    0    0  0.96264059165E+02 -0.61117302600E+03  0.73538108467E+03  0.96538610442E+03  0.91573763237E+02 0.  0.
          1    1    3    3  502    0  0.87156241179E+02  0.30379105010E+03  0.45632933898E+03  0.55508709056E+03  0.00000000000E+00 0. -1.
         -2    1    3    3    0  502  0.12746879798E+02  0.59541823661E+02  0.16539435466E+03  0.17624699788E+03  0.00000000000E+00 0.  1.
         11    1    5    5    0    0 -0.19537012119E+03  0.23703037577E+03  0.58105645676E+03  0.65725146575E+03  0.00000000000E+00 0.  1.
        -11    1    5    5    0    0 -0.79705895683E+00  0.10809776471E+02  0.85241211718E+02  0.85927590130E+02  0.00000000000E+00 0. -1.
          1    1    6    6  503    0 -0.40651496722E+01 -0.10854795457E+02  0.10929718823E+01  0.11642448789E+02  0.00000000000E+00 0. -1.
         -1    1    6    6    0  503  0.10032920884E+03 -0.60031823054E+03  0.73428811279E+03  0.95374365563E+03  0.00000000000E+00 0.  1.
<mgrwt>
<rscale>  0 0.13634335E+04</rscale>
<asrwt>0</asrwt>
<pdfrwt beam="1">  1        1 0.34333088E+00 0.13634335E+04</pdfrwt>
<pdfrwt beam="2">  1       -2 0.32038217E-01 0.13634335E+04</pdfrwt>
<totfact> 0.16162870E+01</totfact>
</mgrwt>
</event>
<event>
12    4  0.4183215E-008  0.1920333E+04  0.7818608E-02  0.8644801E-01
         -2   -1    0    0    0  501 -0.00000000000E+00  0.00000000000E+00  0.71561559547E+03  0.71561559547E+03  0.00000000000E+00 0.  1.
          1   -1    0    0  501    0  0.00000000000E+00 -0.00000000000E+00 -0.12882891698E+04  0.12882891698E+04  0.00000000000E+00 0. -1.
        -24    2    1    2    0    0  0.21013841075E+03  0.62598793391E+03 -0.56865270553E+03  0.87510727654E+03  0.80173567155E+02 0.  0.
        254    2    1    2    0    0 -0.21013841075E+03 -0.62598793391E+03 -0.40208688379E+01  0.11287974888E+04  0.91550453751E+03 0.  0.
         23    2    4    4    0    0  0.12123395726E+03 -0.73973182221E+03 -0.79364190813E+02  0.75932581116E+03  0.91521426576E+02 0.  0.
         23    2    4    4    0    0 -0.33137236802E+03  0.11374388830E+03  0.75343321975E+02  0.36947167761E+03  0.89929894818E+02 0.  0.
          1    1    3    3  502    0  0.16087988476E+03  0.47649468963E+03 -0.47599450122E+03  0.69245959576E+03  0.00000000000E+00 0. -1.
         -2    1    3    3    0  502  0.49258525994E+02  0.14949324428E+03 -0.92658204306E+02  0.18264768078E+03  0.00000000000E+00 0.  1.
         11    1    5    5    0    0  0.12700641002E+03 -0.58620973807E+03 -0.42376665561E+02  0.60130546894E+03  0.00000000000E+00 0. -1.
        -11    1    5    5    0    0 -0.57724527621E+01 -0.15352208414E+03 -0.36987525251E+02  0.15802034221E+03  0.00000000000E+00 0.  1.
          2    1    6    6  503    0 -0.62358497672E+02  0.29937760735E+02 -0.20010117469E+02  0.72008725519E+02  0.00000000000E+00 0.  1.
         -2    1    6    6    0  503 -0.26901387034E+03  0.83806127565E+02  0.95353439444E+02  0.29746295209E+03  0.00000000000E+00 0. -1.
<mgrwt>
<rscale>  0 0.19203331E+04</rscale>
<asrwt>0</asrwt>
<pdfrwt beam="1">  1        1 0.19819833E+00 0.19203331E+04</pdfrwt>
<pdfrwt beam="2">  1       -2 0.11009471E+00 0.19203331E+04</pdfrwt>
<totfact> 0.49548363E+00</totfact>
</mgrwt>
</event>
<event>
12    4  0.4183215E-008  0.2068935E+04  0.7818608E-02  0.8575052E-01
         -2   -1    0    0    0  501 -0.00000000000E+00  0.00000000000E+00  0.62380289554E+03  0.62380289554E+03  0.00000000000E+00 0.  1.
          1   -1    0    0  501    0  0.00000000000E+00 -0.00000000000E+00 -0.17154834104E+04  0.17154834104E+04  0.00000000000E+00 0. -1.
        -24    2    1    2    0    0 -0.17093305351E+03  0.79401663340E+03 -0.68473624000E+03  0.10654503231E+04  0.81487114301E+02 0.  0.
        254    2    1    2    0    0  0.17093305351E+03 -0.79401663340E+03 -0.40694427483E+03  0.12738359828E+04  0.89295797508E+03 0.  0.
         23    2    4    4    0    0  0.47704850619E+03 -0.52200216593E+03 -0.46330643108E+03  0.85038291097E+03  0.91851552499E+02 0.  0.
         23    2    4    4    0    0 -0.30611545268E+03 -0.27201446747E+03  0.56362156259E+02  0.42345307179E+03  0.91854615941E+02 0.  0.
          3    1    3    3  502    0 -0.16779017360E+03  0.62524341438E+03 -0.55033829129E+03  0.84967941274E+03  0.00000000000E+00 0. -1.
         -4    1    3    3    0  502 -0.31428799112E+01  0.16877321902E+03 -0.13439794871E+03  0.21577091039E+03  0.00000000000E+00 0.  1.
         11    1    5    5    0    0  0.44066810290E+03 -0.47914446581E+03 -0.45337719225E+03  0.79329608249E+03  0.00000000000E+00 0.  1.
        -11    1    5    5    0    0  0.36380403287E+02 -0.42857700115E+02 -0.99292388299E+01  0.57086828483E+02  0.00000000000E+00 0. -1.
          3    1    6    6  503    0 -0.31990756622E+02 -0.15973843197E+01 -0.80940475818E+01  0.33037459833E+02  0.00000000000E+00 0. -1.
         -3    1    6    6    0  503 -0.27412469605E+03 -0.27041708315E+03  0.64456203840E+02  0.39041561196E+03  0.00000000000E+00 0.  1.
<mgrwt>
<rscale>  0 0.20689355E+04</rscale>
<asrwt>0</asrwt>
<pdfrwt beam="1">  1        1 0.26392052E+00 0.20689355E+04</pdfrwt>
<pdfrwt beam="2">  1       -2 0.95969677E-01 0.20689355E+04</pdfrwt>
<totfact> 0.34275570E+00</totfact>
</mgrwt>
</event>
<event>
12    4  0.4183215E-008  0.1989341E+04  0.7818608E-02  0.8611620E-01
         -4   -1    0    0    0  501 -0.00000000000E+00  0.00000000000E+00  0.32293201688E+03  0.32293201688E+03  0.00000000000E+00 0.  1.
          1   -1    0    0  501    0  0.00000000000E+00 -0.00000000000E+00 -0.30637078338E+04  0.30637078338E+04  0.00000000000E+00 0. -1.
        -24    2    1    2    0    0  0.17601328975E+02  0.39356666432E+03  0.68422313823E+02  0.40778868703E+03  0.80034206433E+02 0.  0.
        254    2    1    2    0    0 -0.17601328975E+02 -0.39356666432E+03 -0.28091981307E+04  0.29788511636E+04  0.90926101387E+03 0.  0.
         23    2    4    4    0    0 -0.32694783260E+03 -0.38415654890E+03 -0.24176455485E+04  0.24716602015E+04  0.98096964771E+02 0.  0.
         23    2    4    4    0    0  0.30934650362E+03 -0.94101154110E+01 -0.39155258224E+03  0.50719096208E+03  0.90252079094E+02 0.  0.
          3    1    3    3  502    0  0.72212229926E+01  0.31241237856E+02  0.28899168134E+02  0.43166224332E+02  0.00000000000E+00 0. -1.
         -4    1    3    3    0  502  0.10380105983E+02  0.36232542646E+03  0.39523145689E+02  0.36462246270E+03  0.00000000000E+00 0.  1.
         11    1    5    5    0    0 -0.16232515661E+03 -0.17216256860E+03 -0.90711834664E+03  0.93747165361E+03  0.00000000000E+00 0. -1.
        -11    1    5    5    0    0 -0.16462267599E+03 -0.21199398030E+03 -0.15105272018E+04  0.15341885479E+04  0.00000000000E+00 0.  1.
          2    1    6    6  503    0  0.23291679259E+03  0.29346155524E+02 -0.31031298478E+03  0.38910869643E+03  0.00000000000E+00 0.  1.
         -2    1    6    6    0  503  0.76429711031E+02 -0.38756270935E+02 -0.81239597454E+02  0.11808226564E+03  0.00000000000E+00 0. -1.
<mgrwt>
<rscale>  0 0.19893409E+04</rscale>
<asrwt>0</asrwt>
<pdfrwt beam="1">  1        1 0.47133967E+00 0.19893409E+04</pdfrwt>
<pdfrwt beam="2">  1       -4 0.49681849E-01 0.19893409E+04</pdfrwt>
<totfact> 0.97239183E-01</totfact>
</mgrwt>
</event>
<event>
12    4  0.4183215E-008  0.3444389E+04  0.7818608E-02  0.8127097E-01
          1   -1    0    0  501    0  0.00000000000E+00  0.00000000000E+00  0.93069327932E+03  0.93069327932E+03  0.00000000000E+00 0. -1.
         -2   -1    0    0    0  501 -0.00000000000E+00 -0.00000000000E+00 -0.31868215432E+04  0.31868215432E+04  0.00000000000E+00 0.  1.
        -24    2    1    2    0    0  0.12550937310E+04  0.25038025278E+03 -0.22043733630E+04  0.25501449372E+04  0.77632031604E+02 0.  0.
        254    2    1    2    0    0 -0.12550937310E+04 -0.25038025278E+03 -0.51754900797E+02  0.15673698853E+04  0.90333783430E+03 0.  0.
         23    2    4    4    0    0 -0.10894922793E+03  0.24259829431E+03 -0.13716209498E+03  0.31300821016E+03  0.91852232722E+02 0.  0.
         23    2    4    4    0    0 -0.11461445031E+04 -0.49297854710E+03  0.85407194186E+02  0.12543616751E+04  0.97230413531E+02 0.  0.
          3    1    3    3  502    0  0.42487144457E+03  0.61811725931E+02 -0.79735640771E+03  0.90560127804E+03  0.00000000000E+00 0. -1.
         -4    1    3    3    0  502  0.83022228647E+03  0.18856852685E+03 -0.14070169553E+04  0.16445436591E+04  0.00000000000E+00 0.  1.
         11    1    5    5    0    0 -0.87200007170E+02  0.20081622488E+03 -0.14851962369E+03  0.26455448597E+03  0.00000000000E+00 0.  1.
        -11    1    5    5    0    0 -0.21749220759E+02  0.41782069432E+02  0.11357528703E+02  0.48453724190E+02  0.00000000000E+00 0. -1.
          3    1    6    6  503    0 -0.26737429874E+03 -0.15492092841E+03  0.78599562603E+00  0.30901476902E+03  0.00000000000E+00 0. -1.
         -3    1    6    6    0  503 -0.87877020437E+03 -0.33805761868E+03  0.84621198560E+02  0.94534690611E+03  0.00000000000E+00 0.  1.
<mgrwt>
<rscale>  0 0.34443887E+04</rscale>
<asrwt>0</asrwt>
<pdfrwt beam="1">  1        1 0.14318358E+00 0.34443887E+04</pdfrwt>
<pdfrwt beam="2">  1       -2 0.49028024E+00 0.34443887E+04</pdfrwt>
<totfact> 0.23418587E-02</totfact>
</mgrwt>
</event>
<event>
12    4  0.4183215E-008  0.1839851E+04  0.7818608E-02  0.8685390E-01
          1   -1    0    0  501    0  0.00000000000E+00  0.00000000000E+00  0.11370360766E+04  0.11370360766E+04  0.00000000000E+00 0. -1.
         -2   -1    0    0    0  501 -0.00000000000E+00 -0.00000000000E+00 -0.74427068486E+03  0.74427068486E+03  0.00000000000E+00 0.  1.
        -24    2    1    2    0    0 -0.11493735726E+02  0.67221075031E+03 -0.32269633688E+02  0.67758371601E+03  0.77967712268E+02 0.  0.
        254    2    1    2    0    0  0.11493735726E+02 -0.67221075031E+03  0.42503502544E+03  0.12037230455E+04  0.90349045293E+03 0.  0.
         23    2    4    4    0    0 -0.38621046162E+03 -0.16618767445E+03  0.34032070151E+03  0.54854413474E+03  0.91135196690E+02 0.  0.
         23    2    4    4    0    0  0.39770419735E+03 -0.50602307586E+03  0.84714323930E+02  0.65517891072E+03  0.88627910301E+02 0.  0.
          3    1    3    3  502    0 -0.17601880563E+02  0.57864648240E+03 -0.53709556110E+02  0.58140028742E+03  0.00000000000E+00 0. -1.
         -2    1    3    3    0  502  0.61081448374E+01  0.93564267904E+02  0.21439922422E+02  0.96183428590E+02  0.00000000000E+00 0.  1.
         11    1    5    5    0    0 -0.14334996279E+03 -0.10054917773E+03  0.17471275218E+03  0.24735378458E+03  0.00000000000E+00 0.  1.
        -11    1    5    5    0    0 -0.24286049884E+03 -0.65638496717E+02  0.16560794933E+03  0.30119035016E+03  0.00000000000E+00 0. -1.
          3    1    6    6  503    0  0.12928211134E+03 -0.23486760370E+03  0.31518836889E+02  0.26994461035E+03  0.00000000000E+00 0. -1.
         -3    1    6    6    0  503  0.26842208600E+03 -0.27115547217E+03  0.53195487041E+02  0.38523430037E+03  0.00000000000E+00 0.  1.
<mgrwt>
<rscale>  0 0.18398507E+04</rscale>
<asrwt>0</asrwt>
<pdfrwt beam="1">  1        1 0.17492863E+00 0.18398507E+04</pdfrwt>
<pdfrwt beam="2">  1       -2 0.11450318E+00 0.18398507E+04</pdfrwt>
<totfact> 0.58454750E+00</totfact>
</mgrwt>
</event>
<event>
12    4  0.4183215E-008  0.1790358E+04  0.7818608E-02  0.8711444E-01
         -2   -1    0    0    0  501 -0.00000000000E+00  0.00000000000E+00  0.37531886973E+03  0.37531886973E+03  0.00000000000E+00 0.  1.
          1   -1    0    0  501    0  0.00000000000E+00 -0.00000000000E+00 -0.21351045753E+04  0.21351045753E+04  0.00000000000E+00 0. -1.
        -24    2    1    2    0    0 -0.17570935007E+03 -0.40821642844E+03  0.71485509585E+02  0.45711728695E+03  0.79571400603E+02 0.  0.
        254    2    1    2    0    0  0.17570935007E+03  0.40821642844E+03 -0.18312712151E+04  0.20533061581E+04  0.81547378083E+03 0.  0.
         23    2    4    4    0    0 -0.15351088866E+03  0.11118315809E+03 -0.14397838093E+04  0.14549661669E+04  0.89564735764E+02 0.  0.
         23    2    4    4    0    0  0.32922023874E+03  0.29703327035E+03 -0.39148740588E+03  0.59833999115E+03  0.90186621837E+02 0.  0.
          1    1    3    3  502    0 -0.32610719737E+02 -0.21521982787E+02  0.88829097911E+01  0.40069450598E+02  0.00000000000E+00 0. -1.
         -2    1    3    3    0  502 -0.14309863034E+03 -0.38669444566E+03  0.62602599794E+02  0.41704783635E+03  0.00000000000E+00 0.  1.
         11    1    5    5    0    0 -0.92487981501E+02  0.23913582558E+02 -0.87774961232E+03  0.88293276532E+03  0.00000000000E+00 0.  1.
        -11    1    5    5    0    0 -0.61022907164E+02  0.87269575535E+02 -0.56203419695E+03  0.57203340160E+03  0.00000000000E+00 0. -1.
          3    1    6    6  503    0  0.24051237706E+03  0.22796873579E+03 -0.23760340719E+03  0.40776381291E+03  0.00000000000E+00 0.  1.
         -3    1    6    6    0  503  0.88707861679E+02  0.69064534563E+02 -0.15388399869E+03  0.19057617824E+03  0.00000000000E+00 0. -1.
<mgrwt>
<rscale>  0 0.17903575E+04</rscale>
<asrwt>0</asrwt>
<pdfrwt beam="1">  1        1 0.32847763E+00 0.17903575E+04</pdfrwt>
<pdfrwt beam="2">  1       -2 0.57741365E-01 0.17903575E+04</pdfrwt>
<totfact> 0.56191415E+00</totfact>
</mgrwt>
</event>
<event>
12    4  0.4183215E-008  0.2760169E+04  0.7818608E-02  0.8315742E-01
         -2   -1    0    0    0  501 -0.00000000000E+00  0.00000000000E+00  0.16178173978E+04  0.16178173978E+04  0.00000000000E+00 0.  1.
          1   -1    0    0  501    0  0.00000000000E+00 -0.00000000000E+00 -0.11772855166E+04  0.11772855166E+04  0.00000000000E+00 0. -1.
        -24    2    1    2    0    0  0.32647178277E+03  0.72554769004E+03 -0.75799380719E+03  0.11019414277E+04  0.81957445261E+02 0.  0.
        254    2    1    2    0    0 -0.32647178277E+03 -0.72554769004E+03  0.11985256883E+04  0.16931614867E+04  0.89293265086E+03 0.  0.
         23    2    4    4    0    0 -0.42886742106E+03 -0.14355950582E+03  0.14977828533E+03  0.48600123994E+03  0.96057659306E+02 0.  0.
         23    2    4    4    0    0  0.10239563829E+03 -0.58198818422E+03  0.10487474030E+04  0.12071602468E+04  0.90386020538E+02 0.  0.
          3    1    3    3  502    0  0.75007341283E+02  0.13386360574E+03 -0.18865979435E+03  0.24318323173E+03  0.00000000000E+00 0. -1.
         -4    1    3    3    0  502  0.25146444149E+03  0.59168408430E+03 -0.56933401284E+03  0.85875819596E+03  0.00000000000E+00 0.  1.
         11    1    5    5    0    0 -0.32667763924E+03 -0.10561340635E+03  0.15538101478E+03  0.37684974637E+03  0.00000000000E+00 0. -1.
        -11    1    5    5    0    0 -0.10218978182E+03 -0.37946099465E+02 -0.56027294490E+01  0.10915149358E+03  0.00000000000E+00 0.  1.
          3    1    6    6  503    0  0.99762514036E+02 -0.58496765900E+03  0.10373317340E+04  0.11950719006E+04  0.00000000000E+00 0. -1.
         -3    1    6    6    0  503  0.26331242582E+01  0.29794747785E+01  0.11415669041E+02  0.12088346164E+02  0.00000000000E+00 0.  1.
<mgrwt>
<rscale>  0 0.27601688E+04</rscale>
<asrwt>0</asrwt>
<pdfrwt beam="1">  1        1 0.18112085E+00 0.27601688E+04</pdfrwt>
<pdfrwt beam="2">  1       -2 0.24889498E+00 0.27601688E+04</pdfrwt>
<totfact> 0.55255885E-01</totfact>
</mgrwt>
</event>
<event>
12    4  0.4183215E-008  0.1261336E+04  0.7818608E-02  0.9060801E-01
          1   -1    0    0  501    0  0.00000000000E+00  0.00000000000E+00  0.75330550532E+03  0.75330550532E+03  0.00000000000E+00 0. -1.
         -2   -1    0    0    0  501 -0.00000000000E+00 -0.00000000000E+00 -0.52799571951E+03  0.52799571951E+03  0.00000000000E+00 0.  1.
        -24    2    1    2    0    0  0.43254920626E+02 -0.10264890144E+03  0.36956356809E+03  0.39397926798E+03  0.78959784775E+02 0.  0.
        254    2    1    2    0    0 -0.43254920626E+02  0.10264890144E+03 -0.14425378228E+03  0.88732195686E+03  0.86840273854E+03 0.  0.
         23    2    4    4    0    0  0.34437906693E+03 -0.15740020775E+03  0.11394968301E+01  0.39073028904E+03  0.96421435274E+02 0.  0.
         23    2    4    4    0    0 -0.38763398756E+03  0.26004910919E+03 -0.14539327911E+03  0.49659166782E+03  0.87054186807E+02 0.  0.
          3    1    3    3  502    0  0.42927392919E+02 -0.48597919418E+02  0.29404857114E+03  0.30111307017E+03  0.00000000000E+00 0. -1.
         -4    1    3    3    0  502  0.32752770776E+00 -0.54050982020E+02  0.75514996947E+02  0.92866197810E+02  0.00000000000E+00 0.  1.
         11    1    5    5    0    0  0.91304478137E+02 -0.87684588026E+02 -0.16376156958E+02  0.12764510653E+03  0.00000000000E+00 0.  1.
        -11    1    5    5    0    0  0.25307458879E+03 -0.69715619721E+02  0.17515653788E+02  0.26308518251E+03  0.00000000000E+00 0. -1.
          4    1    6    6  503    0 -0.24556140078E+03  0.21317967989E+03 -0.10258871432E+03  0.34098448906E+03  0.00000000000E+00 0. -1.
         -4    1    6    6    0  503 -0.14207258678E+03  0.46869429293E+02 -0.42804564791E+02  0.15560717876E+03  0.00000000000E+00 0.  1.
<mgrwt>
<rscale>  0 0.12613359E+04</rscale>
<asrwt>0</asrwt>
<pdfrwt beam="1">  1        1 0.11589316E+00 0.12613359E+04</pdfrwt>
<pdfrwt beam="2">  1       -2 0.81230110E-01 0.12613359E+04</pdfrwt>
<totfact> 0.28044641E+01</totfact>
</mgrwt>
</event>
<event>
12    4  0.4183215E-008  0.1792683E+04  0.7818608E-02  0.8710201E-01
         -2   -1    0    0    0  501 -0.00000000000E+00  0.00000000000E+00  0.24361207680E+03  0.24361207680E+03  0.00000000000E+00 0.  1.
          1   -1    0    0  501    0  0.00000000000E+00 -0.00000000000E+00 -0.32979795812E+04  0.32979795812E+04  0.00000000000E+00 0. -1.
        -24    2    1    2    0    0  0.23837309597E+03 -0.71580827652E+02  0.73391047426E+02  0.27588712527E+03  0.93711857700E+02 0.  0.
        254    2    1    2    0    0 -0.23837309597E+03  0.71580827652E+02 -0.31277585518E+04  0.32657045327E+04  0.90554237271E+03 0.  0.
         23    2    4    4    0    0 -0.45539341622E+02 -0.37564414312E+03 -0.19424866253E+04  0.19810583233E+04  0.90307457595E+02 0.  0.
         23    2    4    4    0    0 -0.19283375435E+03  0.44722497077E+03 -0.11852719265E+04  0.12846462094E+04  0.90836734408E+02 0.  0.
          3    1    3    3  502    0  0.70639370538E+02 -0.21232267431E+01 -0.17578291362E+02  0.72824618701E+02  0.00000000000E+00 0. -1.
         -4    1    3    3    0  502  0.16773372544E+03 -0.69457600909E+02  0.90969338788E+02  0.20306250656E+03  0.00000000000E+00 0.  1.
         11    1    5    5    0    0 -0.47387546032E+02 -0.13841664132E+03 -0.90855279710E+03  0.92025699195E+03  0.00000000000E+00 0. -1.
        -11    1    5    5    0    0  0.18482044102E+01 -0.23722750180E+03 -0.10339338282E+04  0.10608013313E+04  0.00000000000E+00 0.  1.
          3    1    6    6  503    0 -0.24824750684E+01 -0.17894615109E+01 -0.36630611067E+02  0.36758217069E+02  0.00000000000E+00 0. -1.
         -3    1    6    6    0  503 -0.19035127928E+03  0.44901443228E+03 -0.11486413155E+04  0.12478879924E+04  0.00000000000E+00 0.  1.
<mgrwt>
<rscale>  0 0.17926825E+04</rscale>
<asrwt>0</asrwt>
<pdfrwt beam="1">  1        1 0.50738143E+00 0.17926825E+04</pdfrwt>
<pdfrwt beam="2">  1       -2 0.37478784E-01 0.17926825E+04</pdfrwt>
<totfact> 0.20059960E+00</totfact>
</mgrwt>
</event>
<event>
12    4  0.4183215E-008  0.1209543E+04  0.7818608E-02  0.9104545E-01
          1   -1    0    0  501    0  0.00000000000E+00  0.00000000000E+00  0.11257129159E+04  0.11257129159E+04  0.00000000000E+00 0. -1.
         -2   -1    0    0    0  501 -0.00000000000E+00 -0.00000000000E+00 -0.32490369314E+03  0.32490369314E+03  0.00000000000E+00 0.  1.
        -24    2    1    2    0    0  0.12929983130E+03 -0.14491319837E+03 -0.30187883935E+02  0.21267470476E+03  0.81246170819E+02 0.  0.
        254    2    1    2    0    0 -0.12929983130E+03  0.14491319837E+03  0.83099710671E+03  0.12379419043E+04  0.89678630990E+03 0.  0.
         23    2    4    4    0    0  0.26452306377E+03 -0.51802498473E+02  0.72042367988E+03  0.77506665341E+03  0.95195002969E+02 0.  0.
         23    2    4    4    0    0 -0.39382289507E+03  0.19671569684E+03  0.11057342683E+03  0.46287525089E+03  0.90738509471E+02 0.  0.
          1    1    3    3  502    0  0.26508824006E+02 -0.75672965006E+02 -0.37511003591E+02  0.88522261456E+02  0.00000000000E+00 0. -1.
         -2    1    3    3    0  502  0.10279100730E+03 -0.69240233361E+02  0.73231196564E+01  0.12415244330E+03  0.00000000000E+00 0.  1.
         11    1    5    5    0    0  0.17660063594E+03  0.10546668249E+02  0.48084591739E+03  0.51235906657E+03  0.00000000000E+00 0. -1.
        -11    1    5    5    0    0  0.87922427829E+02 -0.62349166722E+02  0.23957776248E+03  0.26270758684E+03  0.00000000000E+00 0.  1.
          3    1    6    6  503    0 -0.16932788823E+03  0.62215835256E+02  0.43840935579E+01  0.18044933961E+03  0.00000000000E+00 0. -1.
         -3    1    6    6    0  503 -0.22449500684E+03  0.13449986158E+03  0.10618933327E+03  0.28242591128E+03  0.00000000000E+00 0.  1.
<mgrwt>
<rscale>  0 0.12095425E+04</rscale>
<asrwt>0</asrwt>
<pdfrwt beam="1">  1        1 0.17318660E+00 0.12095425E+04</pdfrwt>
<pdfrwt beam="2">  1       -2 0.49985184E-01 0.12095425E+04</pdfrwt>
<totfact> 0.39822453E+01</totfact>
</mgrwt>
</event>
<event>
12    4  0.4183215E-008  0.1414838E+04  0.7818608E-02  0.8943148E-01
         -2   -1    0    0    0  501 -0.00000000000E+00  0.00000000000E+00  0.62884007068E+03  0.62884007068E+03  0.00000000000E+00 0.  1.
          1   -1    0    0  501    0  0.00000000000E+00 -0.00000000000E+00 -0.79581661845E+03  0.79581661845E+03  0.00000000000E+00 0. -1.
        -24    2    1    2    0    0  0.34777238918E+03  0.16514517604E+03 -0.22079657442E+03  0.45108461795E+03  0.80669953700E+02 0.  0.
        254    2    1    2    0    0 -0.34777238918E+03 -0.16514517604E+03  0.53820026649E+02  0.97357207119E+03  0.89259588767E+03 0.  0.
         23    2    4    4    0    0 -0.39703297990E+03  0.48537738767E+02  0.38556041750E+03  0.56304326933E+03  0.91486547536E+02 0.  0.
         23    2    4    4    0    0  0.49260590726E+02 -0.21368291481E+03 -0.33174039085E+03  0.41052880186E+03  0.10195693384E+03 0.  0.
          3    1    3    3  502    0  0.32085679537E+03  0.15519100538E+03 -0.22584446191E+03  0.42194674103E+03  0.00000000000E+00 0. -1.
         -4    1    3    3    0  502  0.26915593806E+02  0.99541706582E+01  0.50478874889E+01  0.29137876922E+02  0.00000000000E+00 0.  1.
         11    1    5    5    0    0 -0.33944715852E+03  0.23895896520E+02  0.28170485085E+03  0.44176125938E+03  0.00000000000E+00 0. -1.
        -11    1    5    5    0    0 -0.57585821386E+02  0.24641842247E+02  0.10385556664E+03  0.12128200995E+03  0.00000000000E+00 0.  1.
          4    1    6    6  503    0  0.70207208947E+02 -0.13887578208E+03 -0.26859785088E+03  0.31041962008E+03  0.00000000000E+00 0. -1.
         -4    1    6    6    0  503 -0.20946618221E+02 -0.74807132730E+02 -0.63142539965E+02  0.10010918177E+03  0.00000000000E+00 0.  1.
<mgrwt>
<rscale>  0 0.14148376E+04</rscale>
<asrwt>0</asrwt>
<pdfrwt beam="1">  1        1 0.12243333E+00 0.14148376E+04</pdfrwt>
<pdfrwt beam="2">  1       -2 0.96744626E-01 0.14148376E+04</pdfrwt>
<totfact> 0.16990415E+01</totfact>
</mgrwt>
</event>
<event>
12    4  0.4183215E-008  0.1605333E+04  0.7818608E-02  0.8817278E-01
          1   -1    0    0  501    0  0.00000000000E+00  0.00000000000E+00  0.94043137521E+03  0.94043137521E+03  0.00000000000E+00 0. -1.
         -2   -1    0    0    0  501 -0.00000000000E+00 -0.00000000000E+00 -0.68508312933E+03  0.68508312933E+03  0.00000000000E+00 0.  1.
        -24    2    1    2    0    0 -0.28314482746E+03 -0.30037004935E+03 -0.27438015966E+03  0.50235068473E+03  0.81722570734E+02 0.  0.
        254    2    1    2    0    0  0.28314482746E+03  0.30037004935E+03  0.52972840554E+03  0.11231638198E+04  0.90027308226E+03 0.  0.
         23    2    4    4    0    0  0.37159680007E+02  0.86549541367E+02 -0.24511481636E+03  0.27772995895E+03  0.90448836203E+02 0.  0.
         23    2    4    4    0    0  0.24598514745E+03  0.21382050799E+03  0.77484322190E+03  0.84543386086E+03  0.90268998860E+02 0.  0.
          1    1    3    3  502    0 -0.89647689005E+02 -0.15120241910E+03 -0.10060939939E+03  0.20253673971E+03  0.00000000000E+00 0. -1.
         -2    1    3    3    0  502 -0.19349713845E+03 -0.14916763026E+03 -0.17377076026E+03  0.29981394502E+03  0.00000000000E+00 0.  1.
         11    1    5    5    0    0  0.84571602671E+01  0.78720557776E+02 -0.90349933251E+02  0.12013142892E+03  0.00000000000E+00 0. -1.
        -11    1    5    5    0    0  0.28702519740E+02  0.78289835913E+01 -0.15476488311E+03  0.15759853003E+03  0.00000000000E+00 0.  1.
          2    1    6    6  503    0  0.28685407623E+02  0.55284654361E+02  0.88113171348E+02  0.10790355223E+03  0.00000000000E+00 0. -1.
         -2    1    6    6    0  503  0.21729973983E+03  0.15853585362E+03  0.68673005056E+03  0.73753030863E+03  0.00000000000E+00 0.  1.
<mgrwt>
<rscale>  0 0.16053332E+04</rscale>
<asrwt>0</asrwt>
<pdfrwt beam="1">  1        1 0.14468175E+00 0.16053332E+04</pdfrwt>
<pdfrwt beam="2">  1       -2 0.10539740E+00 0.16053332E+04</pdfrwt>
<totfact> 0.10330683E+01</totfact>
</mgrwt>
</event>
<event>
12    4  0.4183215E-008  0.1610277E+04  0.7818608E-02  0.8814259E-01
         -4   -1    0    0    0  501 -0.00000000000E+00  0.00000000000E+00  0.15684016958E+03  0.15684016958E+03  0.00000000000E+00 0.  1.
          3   -1    0    0  501    0  0.00000000000E+00 -0.00000000000E+00 -0.41331740248E+04  0.41331740248E+04  0.00000000000E+00 0. -1.
        -24    2    1    2    0    0 -0.52396787657E+03 -0.15207122778E+03 -0.15239165541E+04  0.16206041100E+04  0.79799896418E+02 0.  0.
        254    2    1    2    0    0  0.52396787657E+03  0.15207122778E+03 -0.24524173011E+04  0.26694100843E+04  0.90207072105E+03 0.  0.
         23    2    4    4    0    0 -0.12935771466E+03  0.21619955787E+03 -0.13989118834E+04  0.14245889342E+04  0.94992141962E+02 0.  0.
         23    2    4    4    0    0  0.65332559123E+03 -0.64128330089E+02 -0.10535054177E+04  0.12448211501E+04  0.93590916541E+02 0.  0.
          1    1    3    3  502    0  0.17963925477E+01  0.39326320897E+00 -0.21245983002E+02  0.21325418538E+02  0.00000000000E+00 0. -1.
         -2    1    3    3    0  502 -0.52576426911E+03 -0.15246449099E+03 -0.15026705711E+04  0.15992786915E+04  0.00000000000E+00 0.  1.
         11    1    5    5    0    0 -0.12946367678E+03  0.15264570996E+03 -0.11709668876E+04  0.11879499183E+04  0.00000000000E+00 0.  1.
        -11    1    5    5    0    0  0.10596211920E+00  0.63553847909E+02 -0.22794499573E+03  0.23663901599E+03  0.00000000000E+00 0. -1.
          3    1    6    6  503    0  0.12462789287E+03  0.22210578937E+02 -0.17794970433E+03  0.21838387937E+03  0.00000000000E+00 0. -1.
         -3    1    6    6    0  503  0.52869769836E+03 -0.86338909026E+02 -0.87555571337E+03  0.10264372707E+04  0.00000000000E+00 0.  1.
<mgrwt>
<rscale>  0 0.16102766E+04</rscale>
<asrwt>0</asrwt>
<pdfrwt beam="1">  1        3 0.63587283E+00 0.16102766E+04</pdfrwt>
<pdfrwt beam="2">  1       -4 0.24129261E-01 0.16102766E+04</pdfrwt>
<totfact> 0.27366529E-02</totfact>
</mgrwt>
</event>
<event>
12    4  0.4183215E-008  0.1112620E+04  0.7818608E-02  0.9192978E-01
          1   -1    0    0  501    0  0.00000000000E+00  0.00000000000E+00  0.14161222677E+04  0.14161222677E+04  0.00000000000E+00 0. -1.
         -2   -1    0    0    0  501 -0.00000000000E+00 -0.00000000000E+00 -0.21854113391E+03  0.21854113391E+03  0.00000000000E+00 0.  1.
        -24    2    1    2    0    0  0.62679971486E+02  0.57908761039E+02 -0.14165910978E+02  0.11661276529E+03  0.78202688990E+02 0.  0.
        254    2    1    2    0    0 -0.62679971486E+02 -0.57908761039E+02  0.12117470448E+04  0.15180506363E+04  0.91042002971E+03 0.  0.
         23    2    4    4    0    0  0.24590000935E+03 -0.13215482185E+03  0.11433842621E+04  0.11802767890E+04  0.88283726153E+02 0.  0.
         23    2    4    4    0    0 -0.30857998084E+03  0.74246060813E+02  0.68362782637E+02  0.33777384729E+03  0.93185941773E+02 0.  0.
          1    1    3    3  502    0 -0.10490699908E+01  0.38529581312E+02  0.18119607764E+02  0.42590484494E+02  0.00000000000E+00 0. -1.
         -2    1    3    3    0  502  0.63729041477E+02  0.19379179728E+02 -0.32285518742E+02  0.74022280801E+02  0.00000000000E+00 0.  1.
         11    1    5    5    0    0  0.35252213065E+02 -0.52947041998E+02  0.17849156014E+03  0.18948705714E+03  0.00000000000E+00 0.  1.
        -11    1    5    5    0    0  0.21064779629E+03 -0.79207779854E+02  0.96489270197E+03  0.99078973188E+03  0.00000000000E+00 0. -1.
          4    1    6    6  503    0 -0.28141989413E+03  0.36106661207E+02  0.63085849633E+02  0.29065559038E+03  0.00000000000E+00 0. -1.
         -4    1    6    6    0  503 -0.27160086705E+02  0.38139399606E+02  0.52769330036E+01  0.47118256908E+02  0.00000000000E+00 0.  1.
<mgrwt>
<rscale>  0 0.11126203E+04</rscale>
<asrwt>0</asrwt>
<pdfrwt beam="1">  1        1 0.21786496E+00 0.11126203E+04</pdfrwt>
<pdfrwt beam="2">  1       -2 0.33621714E-01 0.11126203E+04</pdfrwt>
<totfact> 0.54070549E+01</totfact>
</mgrwt>
</event>
<event>
12    4  0.4183215E-008  0.1657129E+04  0.7818608E-02  0.8786200E-01
         -2   -1    0    0    0  501 -0.00000000000E+00  0.00000000000E+00  0.40329430779E+03  0.40329430779E+03  0.00000000000E+00 0.  1.
          1   -1    0    0  501    0  0.00000000000E+00 -0.00000000000E+00 -0.17022774294E+04  0.17022774294E+04  0.00000000000E+00 0. -1.
        -24    2    1    2    0    0  0.43067184681E+02  0.24552202782E+03 -0.11209080341E+04  0.11505004563E+04  0.71278541462E+02 0.  0.
        254    2    1    2    0    0 -0.43067184681E+02 -0.24552202782E+03 -0.17807508752E+03  0.95507128092E+03  0.90460741004E+03 0.  0.
         23    2    4    4    0    0  0.35339989601E+03 -0.33492845034E+03  0.16437712669E+02  0.49558675766E+03  0.90925698394E+02 0.  0.
         23    2    4    4    0    0 -0.39646708069E+03  0.89406422521E+02 -0.19451280019E+03  0.45948452326E+03  0.90061885480E+02 0.  0.
          3    1    3    3  502    0  0.59674848844E+02  0.18884158003E+03 -0.79596567872E+03  0.82023386399E+03  0.00000000000E+00 0. -1.
         -4    1    3    3    0  502 -0.16607664163E+02  0.56680447785E+02 -0.32494235540E+03  0.33026659232E+03  0.00000000000E+00 0.  1.
         11    1    5    5    0    0  0.13891751362E+03 -0.19107091899E+03 -0.64003448926E+01  0.23631998665E+03  0.00000000000E+00 0.  1.
        -11    1    5    5    0    0  0.21448238239E+03 -0.14385753135E+03  0.22838057562E+02  0.25926677102E+03  0.00000000000E+00 0. -1.
          3    1    6    6  503    0 -0.34596897880E+03  0.62894717079E+02 -0.19571798996E+03  0.40243733838E+03  0.00000000000E+00 0. -1.
         -3    1    6    6    0  503 -0.50498101890E+02  0.26511705442E+02  0.12051897711E+01  0.57047184877E+02  0.00000000000E+00 0.  1.
<mgrwt>
<rscale>  0 0.16571286E+04</rscale>
<asrwt>0</asrwt>
<pdfrwt beam="1">  1        1 0.26188884E+00 0.16571286E+04</pdfrwt>
<pdfrwt beam="2">  1       -2 0.62045278E-01 0.16571286E+04</pdfrwt>
<totfact> 0.96016298E+00</totfact>
</mgrwt>
</event>
<event>
12    4  0.4183215E-008  0.1485008E+04  0.7818608E-02  0.8894484E-01
          1   -1    0    0  501    0  0.00000000000E+00  0.00000000000E+00  0.12181262789E+04  0.12181262789E+04  0.00000000000E+00 0. -1.
         -2   -1    0    0    0  501 -0.00000000000E+00 -0.00000000000E+00 -0.45259030826E+03  0.45259030826E+03  0.00000000000E+00 0.  1.
        -24    2    1    2    0    0 -0.43684112821E+02 -0.25364902918E+03  0.66159384858E+03  0.71435803610E+03  0.79717322792E+02 0.  0.
        254    2    1    2    0    0  0.43684112821E+02  0.25364902918E+03  0.10394212201E+03  0.95635855101E+03  0.91518936928E+03 0.  0.
         23    2    4    4    0    0  0.29484829234E+03  0.49631198879E+03  0.11263779498E+03  0.59569865079E+03  0.94384871594E+02 0.  0.
         23    2    4    4    0    0 -0.25116417951E+03 -0.24266295962E+03 -0.86956729659E+01  0.36065990022E+03  0.89616917233E+02 0.  0.
          1    1    3    3  502    0 -0.53082142836E+02 -0.23332313671E+03  0.53888038838E+03  0.58961807384E+03  0.00000000000E+00 0. -1.
         -2    1    3    3    0  502  0.93980300147E+01 -0.20325892464E+02  0.12271346020E+03  0.12473996226E+03  0.00000000000E+00 0.  1.
         11    1    5    5    0    0  0.82408475875E+02  0.76756007036E+02  0.41773240677E+02  0.12011513289E+03  0.00000000000E+00 0.  1.
        -11    1    5    5    0    0  0.21243981646E+03  0.41955598176E+03  0.70864554300E+02  0.47558351790E+03  0.00000000000E+00 0. -1.
          2    1    6    6  503    0 -0.35081115036E+01  0.79104102681E-01  0.12742302376E+02  0.13216632461E+02  0.00000000000E+00 0.  1.
         -2    1    6    6    0  503 -0.24765606801E+03 -0.24274206372E+03 -0.21437975341E+02  0.34744326776E+03  0.00000000000E+00 0. -1.
<mgrwt>
<rscale>  0 0.14850079E+04</rscale>
<asrwt>0</asrwt>
<pdfrwt beam="1">  1        1 0.18740404E+00 0.14850079E+04</pdfrwt>
<pdfrwt beam="2">  1       -2 0.69629279E-01 0.14850079E+04</pdfrwt>
<totfact> 0.16558090E+01</totfact>
</mgrwt>
</event>
<event>
12    4  0.4183215E-008  0.1930624E+04  0.7818608E-02  0.8639761E-01
          1   -1    0    0  501    0  0.00000000000E+00  0.00000000000E+00  0.18924690255E+04  0.18924690255E+04  0.00000000000E+00 0. -1.
         -2   -1    0    0    0  501 -0.00000000000E+00 -0.00000000000E+00 -0.49238722294E+03  0.49238722294E+03  0.00000000000E+00 0.  1.
        -24    2    1    2    0    0 -0.41957108766E+03  0.52149195734E+03  0.99367303265E+03  0.12007255052E+04  0.79761417773E+02 0.  0.
        254    2    1    2    0    0  0.41957108766E+03 -0.52149195734E+03  0.40640876993E+03  0.11841307433E+04  0.88825884164E+03 0.  0.
         23    2    4    4    0    0  0.91251650385E+02 -0.20344669572E+03 -0.27030494500E+03  0.36250225043E+03  0.92874628279E+02 0.  0.
         23    2    4    4    0    0  0.32831943727E+03 -0.31804526163E+03  0.67671371493E+03  0.82162849286E+03  0.90473681105E+02 0.  0.
          1    1    3    3  502    0 -0.30324963001E+03  0.36573039710E+03  0.76569955177E+03  0.90111867423E+03  0.00000000000E+00 0. -1.
         -2    1    3    3    0  502 -0.11632145765E+03  0.15576156024E+03  0.22797348088E+03  0.29960683093E+03  0.00000000000E+00 0.  1.
         11    1    5    5    0    0  0.97286095666E+02 -0.18523269280E+03 -0.27208893865E+03  0.34323188288E+03  0.00000000000E+00 0. -1.
        -11    1    5    5    0    0 -0.60344452809E+01 -0.18214002912E+02  0.17839936482E+01  0.19270367544E+02  0.00000000000E+00 0.  1.
          4    1    6    6  503    0  0.13020127123E+02 -0.31796826700E+02  0.92520610177E+02  0.98694605760E+02  0.00000000000E+00 0.  1.
         -4    1    6    6    0  503  0.31529931015E+03 -0.28624843493E+03  0.58419310475E+03  0.72293388710E+03  0.00000000000E+00 0. -1.
<mgrwt>
<rscale>  0 0.19306243E+04</rscale>
<asrwt>0</asrwt>
<pdfrwt beam="1">  1        1 0.29114908E+00 0.19306243E+04</pdfrwt>
<pdfrwt beam="2">  1       -2 0.75751882E-01 0.19306243E+04</pdfrwt>
<totfact> 0.45114818E+00</totfact>
</mgrwt>
</event>
<event>
12    4  0.4183215E-008  0.1317130E+04  0.7818608E-02  0.9016090E-01
         -2   -1    0    0    0  501 -0.00000000000E+00  0.00000000000E+00  0.17573125040E+03  0.17573125040E+03  0.00000000000E+00 0.  1.
          1   -1    0    0  501    0  0.00000000000E+00 -0.00000000000E+00 -0.24680166808E+04  0.24680166808E+04  0.00000000000E+00 0. -1.
        -24    2    1    2    0    0  0.30387444021E+03 -0.18409733588E+03 -0.51246233288E+03  0.62961272623E+03  0.86965728387E+02 0.  0.
        254    2    1    2    0    0 -0.30387444021E+03  0.18409733588E+03 -0.17798230975E+04  0.20141352050E+04  0.87334922048E+03 0.  0.
         23    2    4    4    0    0 -0.10920946356E+03 -0.27732903193E+03 -0.12138600528E+04  0.12529960806E+04  0.87777281627E+02 0.  0.
         23    2    4    4    0    0 -0.19466497665E+03  0.46142636782E+03 -0.56596304468E+03  0.76113912439E+03  0.90608237375E+02 0.  0.
          1    1    3    3  502    0  0.25768495354E+02  0.33775450070E+01 -0.68046821295E+02  0.72840874867E+02  0.00000000000E+00 0. -1.
         -2    1    3    3    0  502  0.27810594485E+03 -0.18747488089E+03 -0.44441551159E+03  0.55677185136E+03  0.00000000000E+00 0.  1.
         11    1    5    5    0    0 -0.38972377532E+02 -0.19040256525E+03 -0.66225163338E+03  0.69018056259E+03  0.00000000000E+00 0.  1.
        -11    1    5    5    0    0 -0.70237086027E+02 -0.86926466686E+02 -0.55160841946E+03  0.56281551798E+03  0.00000000000E+00 0. -1.
          4    1    6    6  503    0 -0.17756424239E+02  0.62434522110E+01 -0.10601450882E+02  0.21602362326E+02  0.00000000000E+00 0. -1.
         -4    1    6    6    0  503 -0.17690855241E+03  0.45518291561E+03 -0.55536159380E+03  0.73953676206E+03  0.00000000000E+00 0.  1.
<mgrwt>
<rscale>  0 0.13171297E+04</rscale>
<asrwt>0</asrwt>
<pdfrwt beam="1">  1        1 0.37969485E+00 0.13171297E+04</pdfrwt>
<pdfrwt beam="2">  1       -2 0.27035579E-01 0.13171297E+04</pdfrwt>
<totfact> 0.15338047E+01</totfact>
</mgrwt>
</event>
<event>
12    4  0.4183215E-008  0.1154753E+04  0.7818608E-02  0.9153410E-01
          1   -1    0    0  501    0  0.00000000000E+00  0.00000000000E+00  0.11434087181E+04  0.11434087181E+04  0.00000000000E+00 0. -1.
         -2   -1    0    0    0  501 -0.00000000000E+00 -0.00000000000E+00 -0.29155228357E+03  0.29155228357E+03  0.00000000000E+00 0.  1.
        -24    2    1    2    0    0  0.62587430053E+02  0.20751408427E+03  0.23200168637E+03  0.32735982705E+03  0.79752067784E+02 0.  0.
        254    2    1    2    0    0 -0.62587430053E+02 -0.20751408427E+03  0.61985474816E+03  0.11076011746E+04  0.89195357033E+03 0.  0.
         23    2    4    4    0    0 -0.19631401727E+03 -0.30415988521E+03 -0.79902290343E+02  0.38190349154E+03  0.91724978591E+02 0.  0.
         23    2    4    4    0    0  0.13372658722E+03  0.96645800945E+02  0.69975703851E+03  0.72569768308E+03  0.98762357798E+02 0.  0.
          3    1    3    3  502    0  0.51777864555E+02  0.21238886673E+03  0.21489341727E+03  0.30654389368E+03  0.00000000000E+00 0. -1.
         -4    1    3    3    0  502  0.10809565498E+02 -0.48747824595E+01  0.17108269100E+02  0.20815933365E+02  0.00000000000E+00 0.  1.
         11    1    5    5    0    0 -0.15953955547E+03 -0.20367634028E+03 -0.91158848062E+02  0.27431160553E+03  0.00000000000E+00 0.  1.
        -11    1    5    5    0    0 -0.36774461806E+02 -0.10048354493E+03  0.11256557719E+02  0.10759188601E+03  0.00000000000E+00 0. -1.
          4    1    6    6  503    0  0.56842620540E+02  0.88002988642E+00  0.11623907949E+03  0.12939621928E+03  0.00000000000E+00 0. -1.
         -4    1    6    6    0  503  0.76883966681E+02  0.95765771058E+02  0.58351795901E+03  0.59630146380E+03  0.00000000000E+00 0.  1.
<mgrwt>
<rscale>  0 0.11547527E+04</rscale>
<asrwt>0</asrwt>
<pdfrwt beam="1">  1        1 0.17590903E+00 0.11547527E+04</pdfrwt>
<pdfrwt beam="2">  1       -2 0.44854198E-01 0.11547527E+04</pdfrwt>
<totfact> 0.48269433E+01</totfact>
</mgrwt>
</event>
<event>
12    4  0.4183215E-008  0.1394040E+04  0.7818608E-02  0.8958144E-01
          1   -1    0    0  501    0  0.00000000000E+00  0.00000000000E+00  0.27484075266E+03  0.27484075266E+03  0.00000000000E+00 0. -1.
         -2   -1    0    0    0  501 -0.00000000000E+00 -0.00000000000E+00 -0.17677031964E+04  0.17677031964E+04  0.00000000000E+00 0.  1.
        -24    2    1    2    0    0 -0.25431518339E+03 -0.49991381965E+01 -0.89718832966E+03  0.93607208162E+03  0.81134697991E+02 0.  0.
        254    2    1    2    0    0  0.25431518339E+03  0.49991381965E+01 -0.59567411409E+03  0.11064718675E+04  0.89707922693E+03 0.  0.
         23    2    4    4    0    0 -0.25204973129E+03  0.16519059728E+03 -0.15774740590E+02  0.31426262078E+03  0.87722014956E+02 0.  0.
         23    2    4    4    0    0  0.50636491468E+03 -0.16019145908E+03 -0.57989937350E+03  0.79220924667E+03  0.96153402167E+02 0.  0.
          3    1    3    3  502    0 -0.10767603755E+03  0.29961307604E+02 -0.29977699983E+03  0.31993445992E+03  0.00000000000E+00 0. -1.
         -4    1    3    3    0  502 -0.14663914584E+03 -0.34960445801E+02 -0.59741132983E+03  0.61613762170E+03  0.00000000000E+00 0.  1.
         11    1    5    5    0    0 -0.23814102615E+02  0.84583290597E+01 -0.27238473545E+02  0.37156281500E+02  0.00000000000E+00 0. -1.
        -11    1    5    5    0    0 -0.22823562868E+03  0.15673226822E+03  0.11463732954E+02  0.27710633928E+03  0.00000000000E+00 0.  1.
          3    1    6    6  503    0  0.17177175455E+03 -0.10254893124E+03 -0.22427232084E+03  0.30053268184E+03  0.00000000000E+00 0. -1.
         -3    1    6    6    0  503  0.33459316013E+03 -0.57642527837E+02 -0.35562705266E+03  0.49167656483E+03  0.00000000000E+00 0.  1.
<mgrwt>
<rscale>  0 0.13940400E+04</rscale>
<asrwt>0</asrwt>
<pdfrwt beam="1">  1        1 0.42283191E-01 0.13940400E+04</pdfrwt>
<pdfrwt beam="2">  1       -2 0.27195435E+00 0.13940400E+04</pdfrwt>
<totfact> 0.39570308E+00</totfact>
</mgrwt>
</event>
<event>
12    4  0.4183215E-008  0.3820864E+04  0.7818608E-02  0.8041692E-01
          1   -1    0    0  501    0  0.00000000000E+00  0.00000000000E+00  0.26307622117E+04  0.26307622117E+04  0.00000000000E+00 0. -1.
         -4   -1    0    0    0  501 -0.00000000000E+00 -0.00000000000E+00 -0.13873358256E+04  0.13873358256E+04  0.00000000000E+00 0.  1.
        -24    2    1    2    0    0 -0.16171163589E+04 -0.67378676679E+03  0.13569487073E+03  0.17590739297E+04  0.82909993461E+02 0.  0.
        254    2    1    2    0    0  0.16171163589E+04  0.67378676679E+03  0.11077315153E+04  0.22590241075E+04  0.89836901275E+03 0.  0.
         23    2    4    4    0    0  0.58240350243E+03 -0.11300231347E+03  0.94153367564E+02  0.60820808983E+03  0.95335520269E+02 0.  0.
         23    2    4    4    0    0  0.10347128565E+04  0.78678908026E+03  0.10135781477E+04  0.16508160177E+04  0.90471600737E+02 0.  0.
          1    1    3    3  502    0 -0.22488921762E+03 -0.63596567858E+02  0.13631563049E+02  0.23410575208E+03  0.00000000000E+00 0. -1.
         -2    1    3    3    0  502 -0.13922271413E+04 -0.61019019893E+03  0.12206330769E+03  0.15249681777E+04  0.00000000000E+00 0.  1.
         11    1    5    5    0    0  0.89258399305E+02 -0.32851937683E+02 -0.16377018033E+02  0.96511752526E+02  0.00000000000E+00 0. -1.
        -11    1    5    5    0    0  0.49314510312E+03 -0.80150375785E+02  0.11053038560E+03  0.51169633731E+03  0.00000000000E+00 0.  1.
          2    1    6    6  503    0  0.40627747439E+03  0.35329320605E+03  0.45375875931E+03  0.70411255300E+03  0.00000000000E+00 0.  1.
         -2    1    6    6    0  503  0.62843538208E+03  0.43349587421E+03  0.55981938842E+03  0.94670346469E+03  0.00000000000E+00 0. -1.
<mgrwt>
<rscale>  0 0.38208641E+04</rscale>
<asrwt>0</asrwt>
<pdfrwt beam="1">  1        1 0.40473265E+00 0.38208641E+04</pdfrwt>
<pdfrwt beam="2">  1       -4 0.21343628E+00 0.38208641E+04</pdfrwt>
<totfact> 0.45770705E-02</totfact>
</mgrwt>
</event>
<event>
12    4  0.4183215E-008  0.1645508E+04  0.7818608E-02  0.8793069E-01
          1   -1    0    0  501    0  0.00000000000E+00  0.00000000000E+00  0.31545149161E+04  0.31545149161E+04  0.00000000000E+00 0. -1.
         -2   -1    0    0    0  501 -0.00000000000E+00 -0.00000000000E+00 -0.21458887598E+03  0.21458887598E+03  0.00000000000E+00 0.  1.
        -24    2    1    2    0    0 -0.56420998625E+03  0.91578197119E+02  0.10030541415E+04  0.11573115079E+04  0.80825990274E+02 0.  0.
        254    2    1    2    0    0  0.56420998625E+03 -0.91578197119E+02  0.19368718986E+04  0.22117922842E+04  0.90212686582E+03 0.  0.
         23    2    4    4    0    0  0.21190809903E+00 -0.24594062819E+03  0.98038413635E+02  0.28005509509E+03  0.91282464026E+02 0.  0.
         23    2    4    4    0    0  0.56399807815E+03  0.15436243107E+03  0.18388334850E+04  0.19317371891E+04  0.91533545929E+02 0.  0.
          1    1    3    3  502    0 -0.17843118344E+03 -0.93806034389E+00  0.26661963007E+03  0.32081863150E+03  0.00000000000E+00 0. -1.
         -2    1    3    3    0  502 -0.38577880281E+03  0.92516257463E+02  0.73643451141E+03  0.83649287635E+03  0.00000000000E+00 0.  1.
         11    1    5    5    0    0  0.32485190293E+02 -0.47797427516E+02  0.42572170076E+02  0.71779323837E+02  0.00000000000E+00 0. -1.
        -11    1    5    5    0    0 -0.32273282194E+02 -0.19814320067E+03  0.55466243559E+02  0.20827577125E+03  0.00000000000E+00 0.  1.
          3    1    6    6  503    0  0.28809112386E+02  0.96471322119E+01  0.18429305281E+03  0.18678051673E+03  0.00000000000E+00 0. -1.
         -3    1    6    6    0  503  0.53518896576E+03  0.14471529886E+03  0.16545404322E+04  0.17449566724E+04  0.00000000000E+00 0.  1.
<mgrwt>
<rscale>  0 0.16455076E+04</rscale>
<asrwt>0</asrwt>
<pdfrwt beam="1">  1        1 0.48530995E+00 0.16455076E+04</pdfrwt>
<pdfrwt beam="2">  1       -2 0.33013676E-01 0.16455076E+04</pdfrwt>
<totfact> 0.33240822E+00</totfact>
</mgrwt>
</event>
<event>
12    4  0.4183215E-008  0.3085755E+04  0.7818608E-02  0.8219658E-01
         -2   -1    0    0    0  501 -0.00000000000E+00  0.00000000000E+00  0.48060801365E+04  0.48060801365E+04  0.00000000000E+00 0.  1.
          1   -1    0    0  501    0  0.00000000000E+00 -0.00000000000E+00 -0.49530418093E+03  0.49530418093E+03  0.00000000000E+00 0. -1.
        -24    2    1    2    0    0  0.78524476555E+03 -0.69614576301E+03  0.35884010977E+04  0.37396593536E+04  0.84860931918E+02 0.  0.
        254    2    1    2    0    0 -0.78524476555E+03  0.69614576301E+03  0.72237485778E+03  0.15617249637E+04  0.90328908001E+03 0.  0.
         23    2    4    4    0    0 -0.37857051867E+03  0.13083772257E+02  0.65100994619E+03  0.75872621507E+03  0.91458715748E+02 0.  0.
         23    2    4    4    0    0 -0.40667424688E+03  0.68306199076E+03  0.71364911590E+02  0.80299874868E+03  0.88070502963E+02 0.  0.
          1    1    3    3  502    0  0.99217627277E+02 -0.12496754042E+03  0.50118539570E+03  0.52597321661E+03  0.00000000000E+00 0. -1.
         -2    1    3    3    0  502  0.68602713827E+03 -0.57117822259E+03  0.30872157020E+04  0.32136861370E+04  0.00000000000E+00 0.  1.
         11    1    5    5    0    0 -0.36497882797E+03  0.14758277347E+02  0.64920625234E+03  0.74491349141E+03  0.00000000000E+00 0.  1.
        -11    1    5    5    0    0 -0.13591690691E+02 -0.16745050898E+01  0.18036938582E+01  0.13812723652E+02  0.00000000000E+00 0. -1.
          3    1    6    6  503    0 -0.25661687592E+02  0.63132426956E+02  0.29144250520E+02  0.74118910420E+02  0.00000000000E+00 0. -1.
         -3    1    6    6    0  503 -0.38101255929E+03  0.61992956380E+03  0.42220661070E+02  0.72887983826E+03  0.00000000000E+00 0.  1.
<mgrwt>
<rscale>  0 0.30857554E+04</rscale>
<asrwt>0</asrwt>
<pdfrwt beam="1">  1        1 0.76200647E-01 0.30857554E+04</pdfrwt>
<pdfrwt beam="2">  1       -2 0.73939691E+00 0.30857554E+04</pdfrwt>
<totfact> 0.52954866E-03</totfact>
</mgrwt>
</event>
<event>
12    4  0.4183215E-008  0.1329651E+04  0.7818608E-02  0.9006377E-01
          1   -1    0    0  501    0  0.00000000000E+00  0.00000000000E+00  0.59550444703E+03  0.59550444703E+03  0.00000000000E+00 0. -1.
         -2   -1    0    0    0  501 -0.00000000000E+00 -0.00000000000E+00 -0.74221561142E+03  0.74221561142E+03  0.00000000000E+00 0.  1.
        -24    2    1    2    0    0 -0.17753979707E+02  0.33671819417E+03  0.76005497115E+02  0.35500169029E+03  0.80963068381E+02 0.  0.
        254    2    1    2    0    0  0.17753979707E+02 -0.33671819417E+03 -0.22271666151E+03  0.98271836815E+03  0.89578922393E+03 0.  0.
         23    2    4    4    0    0  0.13702593992E+03 -0.43603289411E+03 -0.47903416880E+03  0.66861751129E+03  0.93138867140E+02 0.  0.
         23    2    4    4    0    0 -0.11927196021E+03  0.99314699941E+02  0.25631750729E+03  0.31410085686E+03  0.94188500461E+02 0.  0.
          3    1    3    3  502    0 -0.17653488885E+02  0.34123360456E+03  0.72530782668E+02  0.34930321067E+03  0.00000000000E+00 0. -1.
         -4    1    3    3    0  502 -0.10049082156E+00 -0.45154103982E+01  0.34747144469E+01  0.56984796180E+01  0.00000000000E+00 0.  1.
         11    1    5    5    0    0  0.68295015313E+02 -0.14371693245E+03 -0.22328761253E+03  0.27418264660E+03  0.00000000000E+00 0. -1.
        -11    1    5    5    0    0  0.68730924604E+02 -0.29231596165E+03 -0.25574655627E+03  0.39443486469E+03  0.00000000000E+00 0.  1.
          2    1    6    6  503    0 -0.72247288442E+02  0.11158406369E+03  0.18558046401E+03  0.22827786265E+03  0.00000000000E+00 0.  1.
         -2    1    6    6    0  503 -0.47024671768E+02 -0.12269363750E+02  0.70737043287E+02  0.85822994207E+02  0.00000000000E+00 0. -1.
<mgrwt>
<rscale>  0 0.13296506E+04</rscale>
<asrwt>0</asrwt>
<pdfrwt beam="1">  1        1 0.91616069E-01 0.13296506E+04</pdfrwt>
<pdfrwt beam="2">  1       -2 0.11418702E+00 0.13296506E+04</pdfrwt>
<totfact> 0.17817402E+01</totfact>
</mgrwt>
</event>
<event>
12    4  0.4183215E-008  0.1972384E+04  0.7818608E-02  0.8619642E-01
          1   -1    0    0  501    0  0.00000000000E+00  0.00000000000E+00  0.94078086847E+03  0.94078086847E+03  0.00000000000E+00 0. -1.
         -2   -1    0    0    0  501 -0.00000000000E+00 -0.00000000000E+00 -0.10337953403E+04  0.10337953403E+04  0.00000000000E+00 0.  1.
        -24    2    1    2    0    0 -0.64362084361E+03 -0.34269325599E+03 -0.29272713629E+03  0.79003132251E+03  0.82303439705E+02 0.  0.
        254    2    1    2    0    0  0.64362084361E+03  0.34269325599E+03  0.19971266448E+03  0.11845448862E+04  0.91190733144E+03 0.  0.
         23    2    4    4    0    0  0.28695574679E+01 -0.17809268731E+03 -0.18110027034E+03  0.27070575514E+03  0.93589840883E+02 0.  0.
         23    2    4    4    0    0  0.64075128614E+03  0.52078594330E+03  0.38081293482E+03  0.91383913110E+03  0.91122207927E+02 0.  0.
          3    1    3    3  502    0 -0.35170133659E+02  0.39084595394E+00 -0.11093640503E+02  0.36880346009E+02  0.00000000000E+00 0. -1.
         -4    1    3    3    0  502 -0.60845070995E+03 -0.34308410195E+03 -0.28163349579E+03  0.75315097650E+03  0.00000000000E+00 0.  1.
         11    1    5    5    0    0 -0.35182553682E+02 -0.77032033924E+02 -0.41769857956E+02  0.94427047861E+02  0.00000000000E+00 0.  1.
        -11    1    5    5    0    0  0.38052111149E+02 -0.10106065338E+03 -0.13933041238E+03  0.17627870728E+03  0.00000000000E+00 0. -1.
          4    1    6    6  503    0  0.58626319062E+03  0.46486817187E+03  0.37105034199E+03  0.83515585503E+03  0.00000000000E+00 0. -1.
         -4    1    6    6    0  503  0.54488095520E+02  0.55917771425E+02  0.97625928249E+01  0.78683276070E+02  0.00000000000E+00 0.  1.
<mgrwt>
<rscale>  0 0.19723842E+04</rscale>
<asrwt>0</asrwt>
<pdfrwt beam="1">  1        1 0.14473552E+00 0.19723842E+04</pdfrwt>
<pdfrwt beam="2">  1       -2 0.15904544E+00 0.19723842E+04</pdfrwt>
<totfact> 0.35173432E+00</totfact>
</mgrwt>
</event>
<event>
12    4  0.4183215E-008  0.1372282E+04  0.7818608E-02  0.8974130E-01
          1   -1    0    0  501    0  0.00000000000E+00  0.00000000000E+00  0.75819701524E+03  0.75819701524E+03  0.00000000000E+00 0. -1.
         -2   -1    0    0    0  501 -0.00000000000E+00 -0.00000000000E+00 -0.62093260676E+03  0.62093260676E+03  0.00000000000E+00 0.  1.
        -24    2    1    2    0    0  0.38736935876E+03 -0.13187788713E+03 -0.68149714526E+02  0.42248742409E+03  0.80027762063E+02 0.  0.
        254    2    1    2    0    0 -0.38736935876E+03  0.13187788713E+03  0.20541412301E+03  0.95664219791E+03  0.83995388901E+03 0.  0.
         23    2    4    4    0    0 -0.38361262453E+03  0.42654357733E+03  0.26985850263E+03  0.64063792032E+03  0.92169758861E+02 0.  0.
         23    2    4    4    0    0 -0.37567342333E+01 -0.29466569020E+03 -0.64444379613E+02  0.31600427759E+03  0.94146924338E+02 0.  0.
          1    1    3    3  502    0  0.20352068795E+03 -0.95363171879E+02 -0.53889250582E+01  0.22481958431E+03  0.00000000000E+00 0. -1.
         -2    1    3    3    0  502  0.18384867081E+03 -0.36514715251E+02 -0.62760789468E+02  0.19766783978E+03  0.00000000000E+00 0.  1.
         11    1    5    5    0    0 -0.29113099478E+03  0.37422767307E+03  0.20863490696E+03  0.51800784919E+03  0.00000000000E+00 0. -1.
        -11    1    5    5    0    0 -0.92481629746E+02  0.52315904254E+02  0.61223595670E+02  0.12263007113E+03  0.00000000000E+00 0.  1.
          4    1    6    6  503    0 -0.11574451993E+01 -0.17521199097E+03 -0.85036440916E+02  0.19476082189E+03  0.00000000000E+00 0. -1.
         -4    1    6    6    0  503 -0.25992890339E+01 -0.11945369923E+03  0.20592061303E+02  0.12124345571E+03  0.00000000000E+00 0.  1.
<mgrwt>
<rscale>  0 0.13722817E+04</rscale>
<asrwt>0</asrwt>
<pdfrwt beam="1">  1        1 0.11664569E+00 0.13722817E+04</pdfrwt>
<pdfrwt beam="2">  1       -2 0.95528094E-01 0.13722817E+04</pdfrwt>
<totfact> 0.18961538E+01</totfact>
</mgrwt>
</event>
<event>
12    4  0.4183215E-008  0.2014341E+04  0.7818608E-02  0.8599945E-01
          1   -1    0    0  501    0  0.00000000000E+00  0.00000000000E+00  0.12625249883E+04  0.12625249883E+04  0.00000000000E+00 0. -1.
         -2   -1    0    0    0  501 -0.00000000000E+00 -0.00000000000E+00 -0.80346328215E+03  0.80346328215E+03  0.00000000000E+00 0.  1.
        -24    2    1    2    0    0 -0.33594401796E+03 -0.71646278191E+03  0.23090104214E+03  0.82787197831E+03  0.76677376957E+02 0.  0.
        254    2    1    2    0    0  0.33594401796E+03  0.71646278191E+03  0.22816066398E+03  0.12381162921E+04  0.92449843868E+03 0.  0.
         23    2    4    4    0    0  0.53069849206E+03  0.63843614461E+03 -0.96375765833E+02  0.84113190989E+03  0.94725927685E+02 0.  0.
         23    2    4    4    0    0 -0.19475447410E+03  0.78026637300E+02  0.32453642981E+03  0.39698438221E+03  0.90858374052E+02 0.  0.
          1    1    3    3  502    0 -0.33196908966E+03 -0.71589837568E+03  0.22470955990E+03  0.82049274653E+03  0.00000000000E+00 0. -1.
         -2    1    3    3    0  502 -0.39749283003E+01 -0.56440622980E+00  0.61914822336E+01  0.73792317781E+01  0.00000000000E+00 0.  1.
         11    1    5    5    0    0  0.23223341666E+03  0.22164635534E+03 -0.64956887736E+02  0.32753452324E+03  0.00000000000E+00 0. -1.
        -11    1    5    5    0    0  0.29846507540E+03  0.41678978927E+03 -0.31418878097E+02  0.51359738665E+03  0.00000000000E+00 0.  1.
          2    1    6    6  503    0 -0.19667840246E+03  0.80746864609E+02  0.27629411231E+03  0.34862714558E+03  0.00000000000E+00 0. -1.
         -2    1    6    6    0  503  0.19239283564E+01 -0.27202273080E+01  0.48242317504E+02  0.48357236636E+02  0.00000000000E+00 0.  1.
<mgrwt>
<rscale>  0 0.20143411E+04</rscale>
<asrwt>0</asrwt>
<pdfrwt beam="1">  1        1 0.19423461E+00 0.20143411E+04</pdfrwt>
<pdfrwt beam="2">  1       -2 0.12360974E+00 0.20143411E+04</pdfrwt>
<totfact> 0.38578644E+00</totfact>
</mgrwt>
</event>
<event>
12    4  0.4183215E-008  0.1244819E+04  0.7818608E-02  0.9074506E-01
          1   -1    0    0  501    0  0.00000000000E+00  0.00000000000E+00  0.11490474898E+04  0.11490474898E+04  0.00000000000E+00 0. -1.
         -2   -1    0    0    0  501 -0.00000000000E+00 -0.00000000000E+00 -0.33714329591E+03  0.33714329591E+03  0.00000000000E+00 0.  1.
        -24    2    1    2    0    0  0.59893002129E+02 -0.19116948710E+03 -0.74023824008E+02  0.22977937337E+03  0.84770805143E+02 0.  0.
        254    2    1    2    0    0 -0.59893002129E+02  0.19116948710E+03  0.88592801786E+03  0.12564114123E+04  0.86808308337E+03 0.  0.
         23    2    4    4    0    0 -0.38458555976E+03  0.26581687256E+03  0.74294330115E+03  0.88253673711E+03  0.91332804190E+02 0.  0.
         23    2    4    4    0    0  0.32469255763E+03 -0.74647385465E+02  0.14298471672E+03  0.37387467519E+03  0.91324445789E+02 0.  0.
          3    1    3    3  502    0  0.44857672378E+02 -0.55217465649E+02 -0.58528383690E+02  0.92123563658E+02  0.00000000000E+00 0. -1.
         -4    1    3    3    0  502  0.15035329752E+02 -0.13595202145E+03 -0.15495440318E+02  0.13765580971E+03  0.00000000000E+00 0.  1.
         11    1    5    5    0    0 -0.28076454560E+03  0.21561495265E+03  0.48953287392E+03  0.60411999845E+03  0.00000000000E+00 0.  1.
        -11    1    5    5    0    0 -0.10382101415E+03  0.50201919918E+02  0.25341042722E+03  0.27841673867E+03  0.00000000000E+00 0. -1.
          1    1    6    6  503    0  0.54503322868E+02  0.18514477786E+02  0.91270747832E+01  0.58281228414E+02  0.00000000000E+00 0. -1.
         -1    1    6    6    0  503  0.27018923476E+03 -0.93161863251E+02  0.13385764193E+03  0.31559344678E+03  0.00000000000E+00 0.  1.
<mgrwt>
<rscale>  0 0.12448191E+04</rscale>
<asrwt>0</asrwt>
<pdfrwt beam="1">  1        1 0.17677653E+00 0.12448191E+04</pdfrwt>
<pdfrwt beam="2">  1       -2 0.51868200E-01 0.12448191E+04</pdfrwt>
<totfact> 0.35378187E+01</totfact>
</mgrwt>
</event>
<event>
12    4  0.4183215E-008  0.1292332E+04  0.7818608E-02  0.9035668E-01
          1   -1    0    0  501    0  0.00000000000E+00  0.00000000000E+00  0.16558263721E+04  0.16558263721E+04  0.00000000000E+00 0. -1.
         -2   -1    0    0    0  501 -0.00000000000E+00 -0.00000000000E+00 -0.25215835757E+03  0.25215835757E+03  0.00000000000E+00 0.  1.
        -24    2    1    2    0    0  0.13439454797E+03 -0.76544971487E+02  0.80485752560E+03  0.82350035849E+03  0.80225785982E+02 0.  0.
        254    2    1    2    0    0 -0.13439454797E+03  0.76544971487E+02  0.59881048897E+03  0.10844843712E+04  0.89084865299E+03 0.  0.
         23    2    4    4    0    0 -0.13034120729E+03  0.45518882360E+03  0.18611643706E+03  0.51683155991E+03  0.91048545970E+02 0.  0.
         23    2    4    4    0    0 -0.40533406826E+01 -0.37864385211E+03  0.41269405191E+03  0.56765281132E+03  0.92334919707E+02 0.  0.
          3    1    3    3  502    0  0.86364158837E+02 -0.33385115660E+02  0.63622446653E+03  0.64292682763E+03  0.00000000000E+00 0. -1.
         -4    1    3    3    0  502  0.48030389133E+02 -0.43159855827E+02  0.16863305907E+03  0.18057353086E+03  0.00000000000E+00 0.  1.
         11    1    5    5    0    0 -0.50577414879E+02  0.32737101928E+03  0.12036590620E+03  0.35244547172E+03  0.00000000000E+00 0.  1.
        -11    1    5    5    0    0 -0.79763792409E+02  0.12781780432E+03  0.65750530865E+02  0.16438608819E+03  0.00000000000E+00 0. -1.
          1    1    6    6  503    0  0.27494084160E+02 -0.91808278802E+02  0.14648289833E+03  0.17504834825E+03  0.00000000000E+00 0. -1.
         -1    1    6    6    0  503 -0.31547424842E+02 -0.28683557331E+03  0.26621115358E+03  0.39260446307E+03  0.00000000000E+00 0.  1.
<mgrwt>
<rscale>  0 0.12923319E+04</rscale>
<asrwt>0</asrwt>
<pdfrwt beam="1">  1        1 0.25474251E+00 0.12923319E+04</pdfrwt>
<pdfrwt beam="2">  1       -2 0.38793595E-01 0.12923319E+04</pdfrwt>
<totfact> 0.27683518E+01</totfact>
</mgrwt>
</event>
<event>
12    4  0.4183215E-008  0.1158475E+04  0.7818608E-02  0.9150001E-01
          1   -1    0    0  501    0  0.00000000000E+00  0.00000000000E+00  0.10468460103E+04  0.10468460103E+04  0.00000000000E+00 0. -1.
         -2   -1    0    0    0  501 -0.00000000000E+00 -0.00000000000E+00 -0.32050159574E+03  0.32050159574E+03  0.00000000000E+00 0.  1.
        -24    2    1    2    0    0  0.51918017142E+02  0.17038971563E+03 -0.15894174035E+02  0.19549578630E+03  0.78980010091E+02 0.  0.
        254    2    1    2    0    0 -0.51918017142E+02 -0.17038971563E+03  0.74223858863E+03  0.11718518198E+04  0.88915152216E+03 0.  0.
         23    2    4    4    0    0 -0.34476224454E+03 -0.27049338541E+03  0.10960889544E+03  0.46012320408E+03  0.87587534259E+02 0.  0.
         23    2    4    4    0    0  0.29284422740E+03  0.10010366978E+03  0.63262969319E+03  0.71172861570E+03  0.10275605807E+03 0.  0.
          3    1    3    3  502    0  0.19752027225E+02  0.25695520371E+02  0.25902679963E+02  0.41489169381E+02  0.00000000000E+00 0. -1.
         -4    1    3    3    0  502  0.32165989917E+02  0.14469419526E+03 -0.41796853998E+02  0.15400661691E+03  0.00000000000E+00 0.  1.
         11    1    5    5    0    0 -0.47482554106E+02 -0.40401243770E+02  0.49109549225E+02  0.79363727657E+02  0.00000000000E+00 0. -1.
        -11    1    5    5    0    0 -0.29727969043E+03 -0.23009214164E+03  0.60499346214E+02  0.38075947642E+03  0.00000000000E+00 0.  1.
          1    1    6    6  503    0  0.89425238804E+02  0.77792925010E+02  0.27943011740E+03  0.30352891629E+03  0.00000000000E+00 0. -1.
         -1    1    6    6    0  503  0.20341898860E+03  0.22310744769E+02  0.35319957579E+03  0.40819969940E+03  0.00000000000E+00 0.  1.
<mgrwt>
<rscale>  0 0.11584745E+04</rscale>
<asrwt>0</asrwt>
<pdfrwt beam="1">  1        1 0.16105323E+00 0.11584745E+04</pdfrwt>
<pdfrwt beam="2">  1       -2 0.49307938E-01 0.11584745E+04</pdfrwt>
<totfact> 0.47147774E+01</totfact>
</mgrwt>
</event>
<event>
12    4  0.4183215E-008  0.1903795E+04  0.7818608E-02  0.8652969E-01
         -2   -1    0    0    0  501 -0.00000000000E+00  0.00000000000E+00  0.10279261158E+04  0.10279261158E+04  0.00000000000E+00 0.  1.
          1   -1    0    0  501    0  0.00000000000E+00 -0.00000000000E+00 -0.88149257034E+03  0.88149257034E+03  0.00000000000E+00 0. -1.
        -24    2    1    2    0    0  0.25834347875E+03 -0.66560728862E+03 -0.13400198309E+03  0.73082669164E+03  0.79854280143E+02 0.  0.
        254    2    1    2    0    0 -0.25834347875E+03  0.66560728862E+03  0.28043552857E+03  0.11785919945E+04  0.89479639481E+03 0.  0.
         23    2    4    4    0    0 -0.54448089596E+03  0.22569111174E+03  0.52077403890E+02  0.59875506955E+03  0.91649622653E+02 0.  0.
         23    2    4    4    0    0  0.28613741721E+03  0.43991617687E+03  0.22835812468E+03  0.57983692496E+03  0.93072886703E+02 0.  0.
          1    1    3    3  502    0  0.10214622024E+03 -0.28127885806E+03 -0.16756235161E+02  0.29972056606E+03  0.00000000000E+00 0. -1.
         -2    1    3    3    0  502  0.15619725851E+03 -0.38432843055E+03 -0.11724574793E+03  0.43110612557E+03  0.00000000000E+00 0.  1.
         11    1    5    5    0    0 -0.68096699631E+02 -0.42831705954E-01 -0.62256636347E+01  0.68380707973E+02  0.00000000000E+00 0. -1.
        -11    1    5    5    0    0 -0.47638419633E+03  0.22573394345E+03  0.58303067525E+02  0.53037436158E+03  0.00000000000E+00 0.  1.
          2    1    6    6  503    0  0.54153546892E+02  0.15950682333E+03  0.85098436084E+02  0.18872407677E+03  0.00000000000E+00 0. -1.
         -2    1    6    6    0  503  0.23198387031E+03  0.28040935355E+03  0.14325968860E+03  0.39111284819E+03  0.00000000000E+00 0.  1.
<mgrwt>
<rscale>  0 0.19037954E+04</rscale>
<asrwt>0</asrwt>
<pdfrwt beam="1">  1        1 0.13561424E+00 0.19037954E+04</pdfrwt>
<pdfrwt beam="2">  1       -2 0.15814248E+00 0.19037954E+04</pdfrwt>
<totfact> 0.40158039E+00</totfact>
</mgrwt>
</event>
<event>
12    4  0.4183215E-008  0.1318033E+04  0.7818608E-02  0.9015386E-01
         -2   -1    0    0    0  501 -0.00000000000E+00  0.00000000000E+00  0.27344432720E+03  0.27344432720E+03  0.00000000000E+00 0.  1.
          1   -1    0    0  501    0  0.00000000000E+00 -0.00000000000E+00 -0.15882665083E+04  0.15882665083E+04  0.00000000000E+00 0. -1.
        -24    2    1    2    0    0 -0.15705743382E+02 -0.28134105140E+03 -0.67835912991E+03  0.73901766914E+03  0.81095922156E+02 0.  0.
        254    2    1    2    0    0  0.15705743382E+02  0.28134105140E+03 -0.63646305123E+03  0.11226931664E+04  0.88088323444E+03 0.  0.
         23    2    4    4    0    0  0.33447010295E+03  0.85073676587E+02  0.24288484453E+02  0.35779443677E+03  0.91209365156E+02 0.  0.
         23    2    4    4    0    0 -0.31876435957E+03  0.19626737481E+03 -0.66075153569E+03  0.76489872963E+03  0.91355762416E+02 0.  0.
          1    1    3    3  502    0 -0.86670125847E+01 -0.26399541992E+03 -0.66631177587E+03  0.71675664036E+03  0.00000000000E+00 0. -1.
         -2    1    3    3    0  502 -0.70387307970E+01 -0.17345631482E+02 -0.12047354041E+02  0.22261028776E+02  0.00000000000E+00 0.  1.
         11    1    5    5    0    0  0.97591732866E+01  0.52461271349E+01 -0.17604387865E+02  0.20800908279E+02  0.00000000000E+00 0. -1.
        -11    1    5    5    0    0  0.32471092966E+03  0.79827549452E+02  0.41892872318E+02  0.33699352849E+03  0.00000000000E+00 0.  1.
          3    1    6    6  503    0 -0.25284370084E+02  0.47624832586E+02 -0.12607538989E+03  0.13712194568E+03  0.00000000000E+00 0. -1.
         -3    1    6    6    0  503 -0.29347998948E+03  0.14864254223E+03 -0.53467614579E+03  0.62777678395E+03  0.00000000000E+00 0.  1.
<mgrwt>
<rscale>  0 0.13180326E+04</rscale>
<asrwt>0</asrwt>
<pdfrwt beam="1">  1        1 0.24434868E+00 0.13180326E+04</pdfrwt>
<pdfrwt beam="2">  1       -2 0.42068360E-01 0.13180326E+04</pdfrwt>
<totfact> 0.26214218E+01</totfact>
</mgrwt>
</event>
<event>
12    4  0.4183215E-008  0.2403828E+04  0.7818608E-02  0.8438072E-01
         -2   -1    0    0    0  501 -0.00000000000E+00  0.00000000000E+00  0.78463258793E+03  0.78463258793E+03  0.00000000000E+00 0.  1.
          1   -1    0    0  501    0  0.00000000000E+00 -0.00000000000E+00 -0.18411124638E+04  0.18411124638E+04  0.00000000000E+00 0. -1.
        -24    2    1    2    0    0 -0.81744793241E+03  0.62483737036E+03 -0.38667832259E+03  0.11020762616E+04  0.80056851938E+02 0.  0.
        254    2    1    2    0    0  0.81744793241E+03 -0.62483737036E+03 -0.66980155328E+03  0.15236687902E+04  0.90237996419E+03 0.  0.
         23    2    4    4    0    0  0.47472911243E+03  0.65372177876E+02 -0.55525779850E+03  0.73906959939E+03  0.90947227081E+02 0.  0.
         23    2    4    4    0    0  0.34271881998E+03 -0.69020954824E+03 -0.11454375478E+03  0.78459919079E+03  0.92898914861E+02 0.  0.
          3    1    3    3  502    0 -0.50597748752E+03  0.39424011153E+03 -0.28170649697E+03  0.70056907857E+03  0.00000000000E+00 0. -1.
         -4    1    3    3    0  502 -0.31147044488E+03  0.23059725883E+03 -0.10497182561E+03  0.40150718299E+03  0.00000000000E+00 0.  1.
         11    1    5    5    0    0  0.44184651902E+03  0.76182745116E+02 -0.48348472056E+03  0.65938579909E+03  0.00000000000E+00 0. -1.
        -11    1    5    5    0    0  0.32882593414E+02 -0.10810567240E+02 -0.71773077934E+02  0.79683800297E+02  0.00000000000E+00 0.  1.
          2    1    6    6  503    0  0.24945263509E+03 -0.57398379583E+03 -0.74306992074E+02  0.63024244866E+03  0.00000000000E+00 0. -1.
         -2    1    6    6    0  503  0.93266184884E+02 -0.11622575241E+03 -0.40236762705E+02  0.15435674212E+03  0.00000000000E+00 0.  1.
<mgrwt>
<rscale>  0 0.24038276E+04</rscale>
<asrwt>0</asrwt>
<pdfrwt beam="1">  1        1 0.28324807E+00 0.24038276E+04</pdfrwt>
<pdfrwt beam="2">  1       -2 0.12071271E+00 0.24038276E+04</pdfrwt>
<totfact> 0.15730201E+00</totfact>
</mgrwt>
</event>
<event>
12    4  0.4183215E-008  0.2913324E+04  0.7818608E-02  0.8268924E-01
          1   -1    0    0  501    0  0.00000000000E+00  0.00000000000E+00  0.24540156072E+04  0.24540156072E+04  0.00000000000E+00 0. -1.
         -2   -1    0    0    0  501 -0.00000000000E+00 -0.00000000000E+00 -0.86464971151E+03  0.86464971151E+03  0.00000000000E+00 0.  1.
        -24    2    1    2    0    0  0.10768428240E+04  0.68593690517E+03  0.11182112749E+04  0.16991516247E+04  0.81362662833E+02 0.  0.
        254    2    1    2    0    0 -0.10768428240E+04 -0.68593690517E+03  0.47115462087E+03  0.16195136941E+04  0.87791686567E+03 0.  0.
         23    2    4    4    0    0 -0.92769097958E+02 -0.37731135857E+03 -0.13306195928E+03  0.42074852231E+03  0.91399492250E+02 0.  0.
         23    2    4    4    0    0 -0.98407372606E+03 -0.30862554661E+03  0.60421658015E+03  0.11987651718E+04  0.91156102248E+02 0.  0.
          1    1    3    3  502    0  0.49635901978E+03  0.27889777898E+03  0.46435952607E+03  0.73470131148E+03  0.00000000000E+00 0. -1.
         -2    1    3    3    0  502  0.58048380424E+03  0.40703912619E+03  0.65385174878E+03  0.96445031319E+03  0.00000000000E+00 0.  1.
         11    1    5    5    0    0 -0.39165492887E+02 -0.30829273848E+03 -0.91375840436E+02  0.32392575175E+03  0.00000000000E+00 0. -1.
        -11    1    5    5    0    0 -0.53603605071E+02 -0.69018620084E+02 -0.41686118840E+02  0.96822770559E+02  0.00000000000E+00 0.  1.
          4    1    6    6  503    0 -0.49247147204E+02 -0.17438430562E+01  0.46641237154E+02  0.67850773759E+02  0.00000000000E+00 0.  1.
         -4    1    6    6    0  503 -0.93482657885E+03 -0.30688170355E+03  0.55757534299E+03  0.11309143980E+04  0.00000000000E+00 0. -1.
<mgrwt>
<rscale>  0 0.29133238E+04</rscale>
<asrwt>0</asrwt>
<pdfrwt beam="1">  1        1 0.37754086E+00 0.29133238E+04</pdfrwt>
<pdfrwt beam="2">  1       -2 0.13302303E+00 0.29133238E+04</pdfrwt>
<totfact> 0.45029152E-01</totfact>
</mgrwt>
</event>
<event>
12    4  0.4183215E-008  0.2844631E+04  0.7818608E-02  0.8289545E-01
         -2   -1    0    0    0  501 -0.00000000000E+00  0.00000000000E+00  0.23426001779E+04  0.23426001779E+04  0.00000000000E+00 0.  1.
          1   -1    0    0  501    0  0.00000000000E+00 -0.00000000000E+00 -0.86356227001E+03  0.86356227001E+03  0.00000000000E+00 0. -1.
        -24    2    1    2    0    0 -0.64097169589E+03  0.36791311218E+03  0.18264184107E+04  0.19719195182E+04  0.80359207762E+02 0.  0.
        254    2    1    2    0    0  0.64097169589E+03 -0.36791311218E+03 -0.34738050281E+03  0.12342429297E+04  0.92546076242E+03 0.  0.
         23    2    4    4    0    0 -0.17549825066E+03  0.97525223777E+02  0.20348957328E+02  0.22088756933E+03  0.89813322867E+02 0.  0.
         23    2    4    4    0    0  0.81646994655E+03 -0.46543833596E+03 -0.36772946014E+03  0.10133553604E+04  0.91695759872E+02 0.  0.
          3    1    3    3  502    0 -0.43859351709E+01  0.13156376899E+02  0.23549622492E+02  0.27329679836E+02  0.00000000000E+00 0. -1.
         -4    1    3    3    0  502 -0.63658576072E+03  0.35475673528E+03  0.18028687882E+04  0.19445898384E+04  0.00000000000E+00 0.  1.
         11    1    5    5    0    0 -0.14886508760E+03  0.10546220191E+03  0.40102044822E+02  0.18679203500E+03  0.00000000000E+00 0.  1.
        -11    1    5    5    0    0 -0.26633163052E+02 -0.79369781329E+01 -0.19753087494E+02  0.34095534335E+02  0.00000000000E+00 0. -1.
          1    1    6    6  503    0  0.20391403981E+03 -0.90241424527E+02 -0.53587238143E+02  0.22933827074E+03  0.00000000000E+00 0. -1.
         -1    1    6    6    0  503  0.61255590674E+03 -0.37519691143E+03 -0.31414222199E+03  0.78401708965E+03  0.00000000000E+00 0.  1.
<mgrwt>
<rscale>  0 0.28446308E+04</rscale>
<asrwt>0</asrwt>
<pdfrwt beam="1">  1        1 0.13285573E+00 0.28446308E+04</pdfrwt>
<pdfrwt beam="2">  1       -2 0.36040002E+00 0.28446308E+04</pdfrwt>
<totfact> 0.19727026E-01</totfact>
</mgrwt>
</event>
<event>
12    4  0.4183215E-008  0.3263607E+04  0.7818608E-02  0.8172218E-01
         -4   -1    0    0    0  501 -0.00000000000E+00  0.00000000000E+00  0.15417225770E+04  0.15417225770E+04  0.00000000000E+00 0.  1.
          1   -1    0    0  501    0  0.00000000000E+00 -0.00000000000E+00 -0.17271479863E+04  0.17271479863E+04  0.00000000000E+00 0. -1.
        -24    2    1    2    0    0 -0.13364244916E+04 -0.68554974663E+03 -0.15693951221E+03  0.15123277568E+04  0.80599978178E+02 0.  0.
        254    2    1    2    0    0  0.13364244916E+04  0.68554974663E+03 -0.28485897053E+02  0.17565428065E+04  0.91028693705E+03 0.  0.
         23    2    4    4    0    0  0.10735945777E+04  0.17581296815E+03 -0.27399874861E+03  0.11256258430E+04  0.91884205515E+02 0.  0.
         23    2    4    4    0    0  0.26282991394E+03  0.50973677847E+03  0.24551285156E+03  0.63091696346E+03  0.94172753547E+02 0.  0.
          1    1    3    3  502    0 -0.92427580984E+03 -0.48538381813E+03 -0.73053701154E+02  0.10465276235E+04  0.00000000000E+00 0. -1.
         -2    1    3    3    0  502 -0.41214868181E+03 -0.20016592849E+03 -0.83885811057E+02  0.46580013326E+03  0.00000000000E+00 0.  1.
         11    1    5    5    0    0  0.86066031932E+03  0.12801318901E+03 -0.18291000890E+03  0.88914545107E+03  0.00000000000E+00 0. -1.
        -11    1    5    5    0    0  0.21293425839E+03  0.47799779140E+02 -0.91088739712E+02  0.23648039197E+03  0.00000000000E+00 0.  1.
          3    1    6    6  503    0  0.16808516552E+03  0.39726403835E+03  0.15569756989E+03  0.45859903217E+03  0.00000000000E+00 0. -1.
         -3    1    6    6    0  503  0.94744748423E+02  0.11247274012E+03  0.89815281665E+02  0.17231793129E+03  0.00000000000E+00 0.  1.
<mgrwt>
<rscale>  0 0.32636072E+04</rscale>
<asrwt>0</asrwt>
<pdfrwt beam="1">  1        1 0.26571507E+00 0.32636072E+04</pdfrwt>
<pdfrwt beam="2">  1       -4 0.23718809E+00 0.32636072E+04</pdfrwt>
<totfact> 0.13990676E-01</totfact>
</mgrwt>
</event>
<event>
12    4  0.4183215E-008  0.2366998E+04  0.7818608E-02  0.8451964E-01
          1   -1    0    0  501    0  0.00000000000E+00  0.00000000000E+00  0.25921787096E+04  0.25921787096E+04  0.00000000000E+00 0. -1.
         -2   -1    0    0    0  501 -0.00000000000E+00 -0.00000000000E+00 -0.54034445762E+03  0.54034445762E+03  0.00000000000E+00 0.  1.
        -24    2    1    2    0    0 -0.91363407444E+03 -0.66580704001E+02  0.14340167269E+04  0.17035197892E+04  0.80096734412E+02 0.  0.
        254    2    1    2    0    0  0.91363407444E+03  0.66580704001E+02  0.61781752510E+03  0.14290033781E+04  0.90619641810E+03 0.  0.
         23    2    4    4    0    0  0.81069162397E+03  0.34953127907E+03  0.66371747278E+03  0.11088847543E+04  0.98546894489E+02 0.  0.
         23    2    4    4    0    0  0.10294245047E+03 -0.28295057507E+03 -0.45899947680E+02  0.32011862380E+03  0.98544163029E+02 0.  0.
          3    1    3    3  502    0 -0.75979336790E+03 -0.81620722326E+02  0.12187169378E+04  0.14384779730E+04  0.00000000000E+00 0. -1.
         -4    1    3    3    0  502 -0.15384070654E+03  0.15040018325E+02  0.21529978911E+03  0.26504181619E+03  0.00000000000E+00 0.  1.
         11    1    5    5    0    0  0.72284209766E+03  0.30597436432E+03  0.54848008663E+03  0.95757580128E+03  0.00000000000E+00 0. -1.
        -11    1    5    5    0    0  0.87849526306E+02  0.43556914755E+02  0.11523738615E+03  0.15130895301E+03  0.00000000000E+00 0.  1.
          3    1    6    6  503    0  0.10345443381E+03 -0.27513820587E+03 -0.63615346118E+02  0.30075033577E+03  0.00000000000E+00 0. -1.
         -3    1    6    6    0  503 -0.51198333922E+00 -0.78123691975E+01  0.17715398438E+02  0.19368288030E+02  0.00000000000E+00 0.  1.
<mgrwt>
<rscale>  0 0.23669976E+04</rscale>
<asrwt>0</asrwt>
<pdfrwt beam="1">  1        1 0.39879672E+00 0.23669976E+04</pdfrwt>
<pdfrwt beam="2">  1       -2 0.83129918E-01 0.23669976E+04</pdfrwt>
<totfact> 0.11697606E+00</totfact>
</mgrwt>
</event>
<event>
12    4  0.4183215E-008  0.1005874E+04  0.7818608E-02  0.9302126E-01
          1   -1    0    0  501    0  0.00000000000E+00  0.00000000000E+00  0.10254502679E+04  0.10254502679E+04  0.00000000000E+00 0. -1.
         -2   -1    0    0    0  501 -0.00000000000E+00 -0.00000000000E+00 -0.24666773965E+03  0.24666773965E+03  0.00000000000E+00 0.  1.
        -24    2    1    2    0    0  0.16576737284E+02 -0.14321569861E+02 -0.44221665905E+02  0.94926086709E+02  0.81089522258E+02 0.  0.
        254    2    1    2    0    0 -0.16576737284E+02  0.14321569861E+02  0.82300419418E+03  0.11771919209E+04  0.84140657197E+03 0.  0.
         23    2    4    4    0    0 -0.92701944481E+02  0.39556016224E+03  0.27021209568E+03  0.49654216232E+03  0.92076326237E+02 0.  0.
         23    2    4    4    0    0  0.76125207197E+02 -0.38123859237E+03  0.55279209850E+03  0.68064975855E+03  0.81037510866E+02 0.  0.
          3    1    3    3  502    0  0.38955824569E+01  0.30563171580E+02 -0.23013670860E+00  0.30811296348E+02  0.00000000000E+00 0. -1.
         -4    1    3    3    0  502  0.12681154827E+02 -0.44884741441E+02 -0.43991529196E+02  0.64114790361E+02  0.00000000000E+00 0.  1.
         11    1    5    5    0    0  0.48028439542E+01  0.68652600312E+02  0.81556221902E+02  0.10671299907E+03  0.00000000000E+00 0.  1.
        -11    1    5    5    0    0 -0.97504788435E+02  0.32690756192E+03  0.18865587378E+03  0.38982916325E+03  0.00000000000E+00 0. -1.
          4    1    6    6  503    0  0.38899386424E+02 -0.16332023820E+03  0.30814378193E+03  0.35091203002E+03  0.00000000000E+00 0. -1.
         -4    1    6    6    0  503  0.37225820772E+02 -0.21791835417E+03  0.24464831657E+03  0.32973772853E+03  0.00000000000E+00 0.  1.
<mgrwt>
<rscale>  0 0.10058737E+04</rscale>
<asrwt>0</asrwt>
<pdfrwt beam="1">  1        1 0.15776158E+00 0.10058737E+04</pdfrwt>
<pdfrwt beam="2">  1       -2 0.37948884E-01 0.10058737E+04</pdfrwt>
<totfact> 0.83207345E+01</totfact>
</mgrwt>
</event>
<event>
12    4  0.4183215E-008  0.1490263E+04  0.7818608E-02  0.8890954E-01
         -2   -1    0    0    0  501 -0.00000000000E+00  0.00000000000E+00  0.31875147583E+03  0.31875147583E+03  0.00000000000E+00 0.  1.
          1   -1    0    0  501    0  0.00000000000E+00 -0.00000000000E+00 -0.17418623774E+04  0.17418623774E+04  0.00000000000E+00 0. -1.
        -24    2    1    2    0    0 -0.21160825743E+03  0.26450262171E+03 -0.36855172999E+01  0.34798445447E+03  0.79623526744E+02 0.  0.
        254    2    1    2    0    0  0.21160825743E+03 -0.26450262171E+03 -0.14194253842E+04  0.17126293987E+04  0.89643256549E+03 0.  0.
         23    2    4    4    0    0  0.43166038746E+02  0.22752439301E+03 -0.10202062800E+04  0.10510014077E+04  0.10075936238E+03 0.  0.
         23    2    4    4    0    0  0.16844221868E+03 -0.49202701473E+03 -0.39921910428E+03  0.66162799099E+03  0.88951340483E+02 0.  0.
          1    1    3    3  502    0 -0.29770293073E+02  0.62668385351E+02 -0.28885020397E+02  0.75152786213E+02  0.00000000000E+00 0. -1.
         -2    1    3    3    0  502 -0.18183796436E+03  0.20183423636E+03  0.25199503097E+02  0.27283166826E+03  0.00000000000E+00 0.  1.
         11    1    5    5    0    0  0.72099687144E+02  0.19866563114E+03 -0.87417915887E+03  0.89936399733E+03  0.00000000000E+00 0. -1.
        -11    1    5    5    0    0 -0.28933648398E+02  0.28858761871E+02 -0.14602712108E+03  0.15163741042E+03  0.00000000000E+00 0.  1.
          3    1    6    6  503    0  0.14408114279E+03 -0.39601668807E+03 -0.27695223412E+03  0.50427287546E+03  0.00000000000E+00 0. -1.
         -3    1    6    6    0  503  0.24361075899E+02 -0.96010326656E+02 -0.12226687016E+03  0.15735511553E+03  0.00000000000E+00 0.  1.
<mgrwt>
<rscale>  0 0.14902633E+04</rscale>
<asrwt>0</asrwt>
<pdfrwt beam="1">  1        1 0.26797882E+00 0.14902633E+04</pdfrwt>
<pdfrwt beam="2">  1       -2 0.49038690E-01 0.14902633E+04</pdfrwt>
<totfact> 0.14931893E+01</totfact>
</mgrwt>
</event>
<event>
12    4  0.4183215E-008  0.1580446E+04  0.7818608E-02  0.8832652E-01
          1   -1    0    0  501    0  0.00000000000E+00  0.00000000000E+00  0.17329644040E+04  0.17329644040E+04  0.00000000000E+00 0. -1.
         -2   -1    0    0    0  501 -0.00000000000E+00 -0.00000000000E+00 -0.36033772597E+03  0.36033772597E+03  0.00000000000E+00 0.  1.
        -24    2    1    2    0    0 -0.52077159870E+03 -0.53419742356E+02  0.57971921299E+03  0.78374870055E+03  0.64272333258E+02 0.  0.
        254    2    1    2    0    0  0.52077159870E+03  0.53419742356E+02  0.79290746500E+03  0.13095534294E+04  0.90120542024E+03 0.  0.
         23    2    4    4    0    0 -0.50913616268E+02 -0.18321029094E+03  0.62821736297E+03  0.66152645432E+03  0.82474163196E+02 0.  0.
         23    2    4    4    0    0  0.57168521497E+03  0.23663003329E+03  0.16469010202E+03  0.64802697506E+03  0.99991864853E+02 0.  0.
          1    1    3    3  502    0 -0.11217908283E+03 -0.26017070726E+02  0.16221249480E+03  0.19893196843E+03  0.00000000000E+00 0. -1.
         -2    1    3    3    0  502 -0.40859251587E+03 -0.27402671630E+02  0.41750671819E+03  0.58481673212E+03  0.00000000000E+00 0.  1.
         11    1    5    5    0    0  0.39327744316E+01 -0.73524503975E+02  0.14045783603E+03  0.15858664226E+03  0.00000000000E+00 0. -1.
        -11    1    5    5    0    0 -0.54846390700E+02 -0.10968578696E+03  0.48775952694E+03  0.50293981206E+03  0.00000000000E+00 0.  1.
          3    1    6    6  503    0  0.28090237385E+03  0.10709660450E+03  0.29124109405E+02  0.30203317712E+03  0.00000000000E+00 0.  1.
         -3    1    6    6    0  503  0.29078284111E+03  0.12953342879E+03  0.13556599262E+03  0.34599379794E+03  0.00000000000E+00 0. -1.
<mgrwt>
<rscale>  0 0.15804461E+04</rscale>
<asrwt>0</asrwt>
<pdfrwt beam="1">  1        1 0.26660990E+00 0.15804461E+04</pdfrwt>
<pdfrwt beam="2">  1       -2 0.55436574E-01 0.15804461E+04</pdfrwt>
<totfact> 0.11675499E+01</totfact>
</mgrwt>
</event>
<event>
12    4  0.4183215E-008  0.1302932E+04  0.7818608E-02  0.9027243E-01
          1   -1    0    0  501    0  0.00000000000E+00  0.00000000000E+00  0.94337481459E+03  0.94337481459E+03  0.00000000000E+00 0. -1.
         -2   -1    0    0    0  501 -0.00000000000E+00 -0.00000000000E+00 -0.44988285149E+03  0.44988285149E+03  0.00000000000E+00 0.  1.
        -24    2    1    2    0    0 -0.52178022123E+02 -0.14220080448E+03  0.45230680101E+03  0.48351329018E+03  0.79120444566E+02 0.  0.
        254    2    1    2    0    0  0.52178022123E+02  0.14220080448E+03  0.41185162091E+02  0.90974437590E+03  0.89609988121E+03 0.  0.
         23    2    4    4    0    0 -0.93047289317E+02  0.22826912145E+03 -0.37134569437E+03  0.45535275963E+03  0.93187558780E+02 0.  0.
         23    2    4    4    0    0  0.14522531144E+03 -0.86068316970E+02  0.41253085647E+03  0.45439161627E+03  0.88271666640E+02 0.  0.
          1    1    3    3  502    0 -0.54023999079E+02 -0.13958290295E+03  0.45521326179E+03  0.47918795162E+03  0.00000000000E+00 0. -1.
         -4    1    3    3    0  502  0.18459769556E+01 -0.26179015337E+01 -0.29064607771E+01  0.43253385543E+01  0.00000000000E+00 0.  1.
         11    1    5    5    0    0 -0.19996920330E+02  0.23255848304E+02 -0.78114847960E+01  0.31650127926E+02  0.00000000000E+00 0.  1.
        -11    1    5    5    0    0 -0.73050368987E+02  0.20501327315E+03 -0.36353420958E+03  0.42370263170E+03  0.00000000000E+00 0. -1.
          4    1    6    6  503    0  0.70854718204E+01 -0.40315900618E+02  0.56499240339E+02  0.69769190281E+02  0.00000000000E+00 0.  1.
         -4    1    6    6    0  503  0.13813983962E+03 -0.45752416352E+02  0.35603161613E+03  0.38462242599E+03  0.00000000000E+00 0. -1.
<mgrwt>
<rscale>  0 0.13029323E+04</rscale>
<asrwt>0</asrwt>
<pdfrwt beam="1">  1        1 0.14513459E+00 0.13029323E+04</pdfrwt>
<pdfrwt beam="2">  1       -2 0.69212746E-01 0.13029323E+04</pdfrwt>
<totfact> 0.27530669E+01</totfact>
</mgrwt>
</event>
<event>
12    4  0.4183215E-008  0.1488859E+04  0.7818608E-02  0.8891895E-01
         -4   -1    0    0    0  501 -0.00000000000E+00  0.00000000000E+00  0.38026174918E+03  0.38026174918E+03  0.00000000000E+00 0.  1.
          1   -1    0    0  501    0  0.00000000000E+00 -0.00000000000E+00 -0.14573525603E+04  0.14573525603E+04  0.00000000000E+00 0. -1.
        -24    2    1    2    0    0 -0.18304019719E+02  0.66407585240E+02  0.22179515389E+03  0.24590371716E+03  0.80811777050E+02 0.  0.
        254    2    1    2    0    0  0.18304019719E+02 -0.66407585240E+02 -0.12988859650E+04  0.15917105923E+04  0.91743820231E+03 0.  0.
         23    2    4    4    0    0 -0.31439678333E+03  0.16043407735E+03 -0.10454646909E+04  0.11071375398E+04  0.90402884667E+02 0.  0.
         23    2    4    4    0    0  0.33270080305E+03 -0.22684166259E+03 -0.25342127416E+03  0.48457305257E+03  0.91878924913E+02 0.  0.
          1    1    3    3  502    0  0.31008873983E+01 -0.10299607331E+02  0.55925188767E+00  0.10770802036E+02  0.00000000000E+00 0. -1.
         -2    1    3    3    0  502 -0.21404907117E+02  0.76707192571E+02  0.22123590201E+03  0.23513291513E+03  0.00000000000E+00 0.  1.
         11    1    5    5    0    0 -0.17583468089E+02  0.34882589877E+02 -0.75041141509E+02  0.84599919300E+02  0.00000000000E+00 0. -1.
        -11    1    5    5    0    0 -0.29681331524E+03  0.12555148747E+03 -0.97042354935E+03  0.10225376205E+04  0.00000000000E+00 0.  1.
          1    1    6    6  503    0  0.25033383066E+03 -0.14422711905E+03 -0.22025151972E+03  0.36328944463E+03  0.00000000000E+00 0. -1.
         -1    1    6    6    0  503  0.82366972387E+02 -0.82614543534E+02 -0.33169754441E+02  0.12128360793E+03  0.00000000000E+00 0.  1.
<mgrwt>
<rscale>  0 0.14888592E+04</rscale>
<asrwt>0</asrwt>
<pdfrwt beam="1">  1        1 0.22420809E+00 0.14888592E+04</pdfrwt>
<pdfrwt beam="2">  1       -4 0.58501808E-01 0.14888592E+04</pdfrwt>
<totfact> 0.92143015E+00</totfact>
</mgrwt>
</event>
<event>
12    4  0.4183215E-008  0.1401132E+04  0.7818608E-02  0.8952999E-01
         -2   -1    0    0    0  501 -0.00000000000E+00  0.00000000000E+00  0.77023966615E+03  0.77023966615E+03  0.00000000000E+00 0.  1.
          1   -1    0    0  501    0  0.00000000000E+00 -0.00000000000E+00 -0.63719508775E+03  0.63719508775E+03  0.00000000000E+00 0. -1.
        -24    2    1    2    0    0 -0.32761131884E+03 -0.19039100464E+03 -0.11311602907E+03  0.40364018477E+03  0.80945981056E+02 0.  0.
        254    2    1    2    0    0  0.32761131884E+03  0.19039100464E+03  0.24616060747E+03  0.10037945691E+04  0.89634289280E+03 0.  0.
         23    2    4    4    0    0 -0.14943229899E+03  0.12297020157E+03 -0.23412658751E+03  0.31733070841E+03  0.91825035064E+02 0.  0.
         23    2    4    4    0    0  0.47704361783E+03  0.67420803068E+02  0.48028719498E+03  0.68646386072E+03  0.91873088592E+02 0.  0.
          1    1    3    3  502    0 -0.26108859076E+03 -0.16276558450E+03 -0.58346956756E+02  0.31315212770E+03  0.00000000000E+00 0. -1.
         -2    1    3    3    0  502 -0.66522728083E+02 -0.27625420131E+02 -0.54769072318E+02  0.90488057066E+02  0.00000000000E+00 0.  1.
         11    1    5    5    0    0 -0.13805469825E+03  0.11297467363E+03 -0.15363711238E+03  0.23542884040E+03  0.00000000000E+00 0.  1.
        -11    1    5    5    0    0 -0.11377600746E+02  0.99955279396E+01 -0.80489475130E+02  0.81901868014E+02  0.00000000000E+00 0. -1.
          1    1    6    6  503    0  0.96680214418E+02  0.38779415125E+02  0.14547895746E+03  0.17892745447E+03  0.00000000000E+00 0. -1.
         -1    1    6    6    0  503  0.38036340341E+03  0.28641387944E+02  0.33480823752E+03  0.50753640625E+03  0.00000000000E+00 0.  1.
<mgrwt>
<rscale>  0 0.14011323E+04</rscale>
<asrwt>0</asrwt>
<pdfrwt beam="1">  1        1 0.98030014E-01 0.14011323E+04</pdfrwt>
<pdfrwt beam="2">  1       -2 0.11849841E+00 0.14011323E+04</pdfrwt>
<totfact> 0.14662185E+01</totfact>
</mgrwt>
</event>
<event>
12    4  0.4183215E-008  0.1344078E+04  0.7818608E-02  0.8995323E-01
          3   -1    0    0  501    0  0.00000000000E+00  0.00000000000E+00  0.97261072739E+03  0.97261072739E+03  0.00000000000E+00 0. -1.
         -4   -1    0    0    0  501 -0.00000000000E+00 -0.00000000000E+00 -0.46435496754E+03  0.46435496754E+03  0.00000000000E+00 0.  1.
        -24    2    1    2    0    0 -0.19000638751E+03 -0.30501465110E+03  0.10108064890E+03  0.38212959920E+03  0.81666200613E+02 0.  0.
        254    2    1    2    0    0  0.19000638751E+03  0.30501465110E+03  0.40717511095E+03  0.10548360957E+04  0.90429599866E+03 0.  0.
         23    2    4    4    0    0  0.41842280127E+03  0.47164598567E+02 -0.94291980710E+02  0.43946918970E+03  0.83306969016E+02 0.  0.
         23    2    4    4    0    0 -0.22841641376E+03  0.25785005254E+03  0.50146709166E+03  0.61536690603E+03  0.92447159791E+02 0.  0.
          1    1    3    3  502    0 -0.63130955789E+02 -0.69240521453E+02  0.59969124431E+02  0.11124775627E+03  0.00000000000E+00 0. -1.
         -2    1    3    3    0  502 -0.12687543172E+03 -0.23577412965E+03  0.41111524466E+02  0.27088184293E+03  0.00000000000E+00 0.  1.
         11    1    5    5    0    0  0.38993051096E+03  0.55968189581E+02 -0.10517271011E+03  0.40772483438E+03  0.00000000000E+00 0. -1.
        -11    1    5    5    0    0  0.28492290314E+02 -0.88035910138E+01  0.10880729402E+02  0.31744355316E+02  0.00000000000E+00 0.  1.
          3    1    6    6  503    0 -0.23164731445E+03  0.26290883981E+03  0.48963880903E+03  0.60210273180E+03  0.00000000000E+00 0. -1.
         -3    1    6    6    0  503  0.32309006909E+01 -0.50587872687E+01  0.11828282639E+02  0.13264174234E+02  0.00000000000E+00 0.  1.
<mgrwt>
<rscale>  0 0.13440783E+04</rscale>
<asrwt>0</asrwt>
<pdfrwt beam="1">  1        3 0.14963242E+00 0.13440783E+04</pdfrwt>
<pdfrwt beam="2">  1       -4 0.71439226E-01 0.13440783E+04</pdfrwt>
<totfact> 0.13040510E+00</totfact>
</mgrwt>
</event>
<event>
12    4  0.4183215E-008  0.1377626E+04  0.7818608E-02  0.8970175E-01
          1   -1    0    0  501    0  0.00000000000E+00  0.00000000000E+00  0.63749808445E+03  0.63749808445E+03  0.00000000000E+00 0. -1.
         -2   -1    0    0    0  501 -0.00000000000E+00 -0.00000000000E+00 -0.74425805679E+03  0.74425805679E+03  0.00000000000E+00 0.  1.
        -24    2    1    2    0    0 -0.18717077548E+03 -0.24546790956E+03  0.20843624038E+03  0.38096618861E+03  0.80013603466E+02 0.  0.
        254    2    1    2    0    0  0.18717077548E+03  0.24546790956E+03 -0.31519621272E+03  0.10007899526E+04  0.89830088665E+03 0.  0.
         23    2    4    4    0    0  0.16240646655E+03  0.55838838958E+03 -0.71001508409E+02  0.59280120190E+03  0.90546103075E+02 0.  0.
         23    2    4    4    0    0  0.24764308931E+02 -0.31292048002E+03 -0.24419470431E+03  0.40798875074E+03  0.91056407243E+02 0.  0.
          1    1    3    3  502    0 -0.16227306332E+03 -0.24044931543E+03  0.20528375712E+03  0.35537282016E+03  0.00000000000E+00 0. -1.
         -4    1    3    3    0  502 -0.24897712159E+02 -0.50185941309E+01  0.31524832611E+01  0.25593368448E+02  0.00000000000E+00 0.  1.
         11    1    5    5    0    0  0.65794538255E+02  0.13252529002E+03 -0.47848204239E+02  0.15550345465E+03  0.00000000000E+00 0.  1.
        -11    1    5    5    0    0  0.96611928298E+02  0.42586309956E+03 -0.23153304170E+02  0.43729774725E+03  0.00000000000E+00 0. -1.
          2    1    6    6  503    0  0.11605289611E+02 -0.32873052140E+01  0.19516439424E+01  0.12218757572E+02  0.00000000000E+00 0. -1.
         -2    1    6    6    0  503  0.13159019320E+02 -0.30963317480E+03 -0.24614634826E+03  0.39576999316E+03  0.00000000000E+00 0.  1.
<mgrwt>
<rscale>  0 0.13776256E+04</rscale>
<asrwt>0</asrwt>
<pdfrwt beam="1">  1        1 0.98076628E-01 0.13776256E+04</pdfrwt>
<pdfrwt beam="2">  1       -2 0.11450124E+00 0.13776256E+04</pdfrwt>
<totfact> 0.15967850E+01</totfact>
</mgrwt>
</event>
<event>
12    4  0.4183215E-008  0.1025248E+04  0.7818608E-02  0.9281279E-01
         -2   -1    0    0    0  501 -0.00000000000E+00  0.00000000000E+00  0.34228917104E+03  0.34228917104E+03  0.00000000000E+00 0.  1.
          1   -1    0    0  501    0  0.00000000000E+00 -0.00000000000E+00 -0.76772266458E+03  0.76772266458E+03  0.00000000000E+00 0. -1.
        -24    2    1    2    0    0  0.28251737218E+02 -0.10660587517E+03  0.41841021771E+01  0.13484248938E+03  0.77472685219E+02 0.  0.
        254    2    1    2    0    0 -0.28251737218E+02  0.10660587517E+03 -0.42961759572E+03  0.97516934624E+03  0.86845898119E+03 0.  0.
         23    2    4    4    0    0 -0.82919181284E+02 -0.55633123052E+02 -0.66021998351E+03  0.67379930411E+03  0.90246554443E+02 0.  0.
         23    2    4    4    0    0  0.54667444066E+02  0.16223899822E+03  0.23060238779E+03  0.30137004212E+03  0.91303992512E+02 0.  0.
          3    1    3    3  502    0  0.26226755966E+02 -0.49935867826E+01  0.18109591864E+02  0.32260439473E+02  0.00000000000E+00 0. -1.
         -4    1    3    3    0  502  0.20249812513E+01 -0.10161228839E+03 -0.13925489687E+02  0.10258204991E+03  0.00000000000E+00 0.  1.
         11    1    5    5    0    0 -0.37690460941E+02 -0.46739094247E+02 -0.56313938072E+03  0.56633124220E+03  0.00000000000E+00 0. -1.
        -11    1    5    5    0    0 -0.45228720343E+02 -0.88940288052E+01 -0.97080602791E+02  0.10746806191E+03  0.00000000000E+00 0.  1.
          3    1    6    6  503    0  0.44656304926E+02  0.97850710321E+02  0.20472055757E+03  0.23125625131E+03  0.00000000000E+00 0. -1.
         -3    1    6    6    0  503  0.10011139141E+02  0.64388287903E+02  0.25881830220E+02  0.70113790808E+02  0.00000000000E+00 0.  1.
<mgrwt>
<rscale>  0 0.10252476E+04</rscale>
<asrwt>0</asrwt>
<pdfrwt beam="1">  1        1 0.11811118E+00 0.10252476E+04</pdfrwt>
<pdfrwt beam="2">  1       -2 0.52659873E-01 0.10252476E+04</pdfrwt>
<totfact> 0.70459246E+01</totfact>
</mgrwt>
</event>
<event>
12    4  0.4183215E-008  0.1681708E+04  0.7818608E-02  0.8771866E-01
         -2   -1    0    0    0  501 -0.00000000000E+00  0.00000000000E+00  0.45971746782E+03  0.45971746782E+03  0.00000000000E+00 0.  1.
          1   -1    0    0  501    0  0.00000000000E+00 -0.00000000000E+00 -0.15379785617E+04  0.15379785617E+04  0.00000000000E+00 0. -1.
        -24    2    1    2    0    0  0.15901891709E+03  0.54465396124E+03 -0.15657185380E+03  0.59427700706E+03  0.81947923863E+02 0.  0.
        254    2    1    2    0    0 -0.15901891709E+03 -0.54465396124E+03 -0.92168924007E+03  0.14034190225E+04  0.89338622322E+03 0.  0.
         23    2    4    4    0    0 -0.13952744352E+03 -0.37114971263E+02  0.14124943811E+03  0.22167156627E+03  0.91331544050E+02 0.  0.
         23    2    4    4    0    0 -0.19491473568E+02 -0.50753898998E+03 -0.10629386782E+04  0.11817474562E+04  0.93341698851E+02 0.  0.
          1    1    3    3  502    0  0.80803323724E+02  0.30590618230E+03 -0.12843773306E+03  0.34147330902E+03  0.00000000000E+00 0. -1.
         -2    1    3    3    0  502  0.78215593368E+02  0.23874777894E+03 -0.28134120738E+02  0.25280369804E+03  0.00000000000E+00 0.  1.
         11    1    5    5    0    0 -0.47297790147E+02 -0.30421150751E+01 -0.25588293732E+01  0.47464544922E+02  0.00000000000E+00 0.  1.
        -11    1    5    5    0    0 -0.92229653378E+02 -0.34072856188E+02  0.14380826748E+03  0.17420702135E+03  0.00000000000E+00 0. -1.
          3    1    6    6  503    0 -0.15150201051E+02 -0.49880389106E+03 -0.10599429533E+04  0.11715433899E+04  0.00000000000E+00 0. -1.
         -3    1    6    6    0  503 -0.43412725171E+01 -0.87350989134E+01 -0.29957249035E+01  0.10204066238E+02  0.00000000000E+00 0.  1.
<mgrwt>
<rscale>  0 0.16817082E+04</rscale>
<asrwt>0</asrwt>
<pdfrwt beam="1">  1        1 0.23661209E+00 0.16817082E+04</pdfrwt>
<pdfrwt beam="2">  1       -2 0.70725764E-01 0.16817082E+04</pdfrwt>
<totfact> 0.93591416E+00</totfact>
</mgrwt>
</event>
<event>
12    4  0.4183215E-008  0.3124280E+04  0.7818608E-02  0.8209106E-01
         -2   -1    0    0    0  501 -0.00000000000E+00  0.00000000000E+00  0.18331486005E+04  0.18331486005E+04  0.00000000000E+00 0.  1.
          1   -1    0    0  501    0  0.00000000000E+00 -0.00000000000E+00 -0.13311968087E+04  0.13311968087E+04  0.00000000000E+00 0. -1.
        -24    2    1    2    0    0  0.41443266180E+03 -0.12175673173E+04  0.86648384756E+03  0.15533013579E+04  0.87899072907E+02 0.  0.
        254    2    1    2    0    0 -0.41443266180E+03  0.12175673173E+04 -0.36453205577E+03  0.16110440514E+04  0.89908548677E+03 0.  0.
         23    2    4    4    0    0  0.26749877790E+03  0.27374553458E+03 -0.16216110286E+03  0.42568250534E+03  0.91745071765E+02 0.  0.
         23    2    4    4    0    0 -0.68193143969E+03  0.94382178269E+03 -0.20237095291E+03  0.11853615460E+04  0.91093063939E+02 0.  0.
          1    1    3    3  502    0  0.40648148405E+03 -0.11507458529E+04  0.80388920019E+03  0.14613969553E+04  0.00000000000E+00 0. -1.
         -2    1    3    3    0  502  0.79511777426E+01 -0.66821464412E+02  0.62594647362E+02  0.91904402572E+02  0.00000000000E+00 0.  1.
         11    1    5    5    0    0  0.22006739857E+03  0.16543043332E+03 -0.11111283419E+03  0.29688878406E+03  0.00000000000E+00 0.  1.
        -11    1    5    5    0    0  0.47431379328E+02  0.10831510126E+03 -0.51048268672E+02  0.12879372128E+03  0.00000000000E+00 0. -1.
          2    1    6    6  503    0 -0.43139132880E+03  0.53345464035E+03 -0.14427010612E+03  0.70106076440E+03  0.00000000000E+00 0. -1.
         -2    1    6    6    0  503 -0.25054011090E+03  0.41036714235E+03 -0.58100846796E+02  0.48430078163E+03  0.00000000000E+00 0.  1.
<mgrwt>
<rscale>  0 0.31242801E+04</rscale>
<asrwt>0</asrwt>
<pdfrwt beam="1">  1        1 0.20479951E+00 0.31242801E+04</pdfrwt>
<pdfrwt beam="2">  1       -2 0.28202286E+00 0.31242801E+04</pdfrwt>
<totfact> 0.26006428E-01</totfact>
</mgrwt>
</event>
<event>
12    4  0.4183215E-008  0.1306189E+04  0.7818608E-02  0.9024672E-01
          1   -1    0    0  501    0  0.00000000000E+00  0.00000000000E+00  0.84971108665E+03  0.84971108665E+03  0.00000000000E+00 0. -1.
         -2   -1    0    0    0  501 -0.00000000000E+00 -0.00000000000E+00 -0.50197341023E+03  0.50197341023E+03  0.00000000000E+00 0.  1.
        -24    2    1    2    0    0  0.13281954730E+03 -0.16439365121E+02  0.40786425559E+03  0.43615768080E+03  0.77259217338E+02 0.  0.
        254    2    1    2    0    0 -0.13281954730E+03  0.16439365121E+02 -0.60126579160E+02  0.91552681608E+03  0.90369400826E+03 0.  0.
         23    2    4    4    0    0 -0.12770031078E+03 -0.67077744514E+02 -0.46320725006E+03  0.49364434025E+03  0.91197505258E+02 0.  0.
         23    2    4    4    0    0 -0.51192365212E+01  0.83517109636E+02  0.40308067090E+03  0.42188247583E+03  0.92246853485E+02 0.  0.
          3    1    3    3  502    0  0.55863278610E+02 -0.28670440736E+02  0.27545872648E+03  0.28252470699E+03  0.00000000000E+00 0. -1.
         -4    1    3    3    0  502  0.76956268694E+02  0.12231075614E+02  0.13240552911E+03  0.15363297381E+03  0.00000000000E+00 0.  1.
         11    1    5    5    0    0 -0.41649820701E+02  0.15138170762E+02 -0.70248889878E+02  0.83058884579E+02  0.00000000000E+00 0.  1.
        -11    1    5    5    0    0 -0.86050490081E+02 -0.82215915276E+02 -0.39295836018E+03  0.41058545567E+03  0.00000000000E+00 0. -1.
          4    1    6    6  503    0 -0.42794286823E+02  0.14764165351E+02  0.12425780929E+03  0.13224724849E+03  0.00000000000E+00 0. -1.
         -4    1    6    6    0  503  0.37675050301E+02  0.68752944285E+02  0.27882286161E+03  0.28963522735E+03  0.00000000000E+00 0.  1.
<mgrwt>
<rscale>  0 0.13061889E+04</rscale>
<asrwt>0</asrwt>
<pdfrwt beam="1">  1        1 0.13072478E+00 0.13061889E+04</pdfrwt>
<pdfrwt beam="2">  1       -2 0.77226679E-01 0.13061889E+04</pdfrwt>
<totfact> 0.25804042E+01</totfact>
</mgrwt>
</event>
<event>
12    4  0.4183215E-008  0.1317772E+04  0.7818608E-02  0.9015590E-01
         -2   -1    0    0    0  501 -0.00000000000E+00  0.00000000000E+00  0.32064945540E+03  0.32064945540E+03  0.00000000000E+00 0.  1.
          1   -1    0    0  501    0  0.00000000000E+00 -0.00000000000E+00 -0.13539099413E+04  0.13539099413E+04  0.00000000000E+00 0. -1.
        -24    2    1    2    0    0 -0.37536424384E+02 -0.25617303156E+03  0.11298738863E+02  0.27111952962E+03  0.79652574263E+02 0.  0.
        254    2    1    2    0    0  0.37536424384E+02  0.25617303156E+03 -0.10445592247E+04  0.14034398670E+04  0.90083621218E+03 0.  0.
         23    2    4    4    0    0  0.31096350755E+02  0.53215831251E+03 -0.33442341185E+03  0.63598963501E+03  0.92110503458E+02 0.  0.
         23    2    4    4    0    0  0.64400736299E+01 -0.27598528095E+03 -0.71013581288E+03  0.76745023203E+03  0.92074079187E+02 0.  0.
          3    1    3    3  502    0 -0.10908575471E+02 -0.72576268657E+01 -0.14399516830E+02  0.19468339720E+02  0.00000000000E+00 0. -1.
         -4    1    3    3    0  502 -0.26627848913E+02 -0.24891540470E+03  0.25698255692E+02  0.25165118990E+03  0.00000000000E+00 0.  1.
         11    1    5    5    0    0  0.20884194809E+02  0.45379376026E+03 -0.31997687552E+03  0.55565288383E+03  0.00000000000E+00 0. -1.
        -11    1    5    5    0    0  0.10212155946E+02  0.78364552253E+02 -0.14446536332E+02  0.80336751185E+02  0.00000000000E+00 0.  1.
          3    1    6    6  503    0  0.32564910104E+02 -0.21907577017E+03 -0.47466442290E+03  0.52379478883E+03  0.00000000000E+00 0. -1.
         -3    1    6    6    0  503 -0.26124836474E+02 -0.56909510777E+02 -0.23547138998E+03  0.24365544320E+03  0.00000000000E+00 0.  1.
<mgrwt>
<rscale>  0 0.13177716E+04</rscale>
<asrwt>0</asrwt>
<pdfrwt beam="1">  1        1 0.20829384E+00 0.13177716E+04</pdfrwt>
<pdfrwt beam="2">  1       -2 0.49330685E-01 0.13177716E+04</pdfrwt>
<totfact> 0.27722523E+01</totfact>
</mgrwt>
</event>
<event>
12    4  0.4183215E-008  0.1564654E+04  0.7818608E-02  0.8842562E-01
         -2   -1    0    0    0  501 -0.00000000000E+00  0.00000000000E+00  0.18750935504E+04  0.18750935504E+04  0.00000000000E+00 0.  1.
          1   -1    0    0  501    0  0.00000000000E+00 -0.00000000000E+00 -0.32640264852E+03  0.32640264852E+03  0.00000000000E+00 0. -1.
        -24    2    1    2    0    0 -0.39641590901E+03 -0.31368479131E+03  0.35552248468E+03  0.62313248054E+03  0.79712796779E+02 0.  0.
        254    2    1    2    0    0  0.39641590901E+03  0.31368479131E+03  0.11931684172E+04  0.15783637184E+04  0.90113119717E+03 0.  0.
         23    2    4    4    0    0  0.63419013232E+03  0.34450229422E+03  0.64031621778E+03  0.96923244644E+03  0.92345664941E+02 0.  0.
         23    2    4    4    0    0 -0.23777422331E+03 -0.30817502907E+02  0.55285219944E+03  0.60913127196E+03  0.88932852771E+02 0.  0.
          3    1    3    3  502    0 -0.37063279132E+03 -0.26471662464E+03  0.30459914847E+03  0.54792718368E+03  0.00000000000E+00 0. -1.
         -4    1    3    3    0  502 -0.25783117691E+02 -0.48968166677E+02  0.50923336215E+02  0.75205296867E+02  0.00000000000E+00 0.  1.
         11    1    5    5    0    0  0.42020515122E+03  0.20661189054E+03  0.46660854422E+03  0.66104793772E+03  0.00000000000E+00 0.  1.
        -11    1    5    5    0    0  0.21398498111E+03  0.13789040368E+03  0.17370767356E+03  0.30818450873E+03  0.00000000000E+00 0. -1.
          1    1    6    6  503    0 -0.22183414675E+03 -0.29924338653E+02  0.42554378782E+03  0.48082571693E+03  0.00000000000E+00 0. -1.
         -1    1    6    6    0  503 -0.15940076555E+02 -0.89316425364E+00  0.12730841162E+03  0.12830555503E+03  0.00000000000E+00 0.  1.
<mgrwt>
<rscale>  0 0.15646540E+04</rscale>
<asrwt>0</asrwt>
<pdfrwt beam="1">  1        1 0.50215793E-01 0.15646540E+04</pdfrwt>
<pdfrwt beam="2">  1       -2 0.28847592E+00 0.15646540E+04</pdfrwt>
<totfact> 0.24733974E+00</totfact>
</mgrwt>
</event>
<event>
12    4  0.4183215E-008  0.1388991E+04  0.7818608E-02  0.8961826E-01
          1   -1    0    0  501    0  0.00000000000E+00  0.00000000000E+00  0.93307182706E+03  0.93307182706E+03  0.00000000000E+00 0. -1.
         -2   -1    0    0    0  501 -0.00000000000E+00 -0.00000000000E+00 -0.51692062896E+03  0.51692062896E+03  0.00000000000E+00 0.  1.
        -24    2    1    2    0    0  0.24881375261E+03  0.26937297583E+03 -0.46079920575E+02  0.37982342030E+03  0.87592168192E+02 0.  0.
        254    2    1    2    0    0 -0.24881375261E+03 -0.26937297583E+03  0.46223111867E+03  0.10701690357E+04  0.89282365244E+03 0.  0.
         23    2    4    4    0    0 -0.29216005305E+03 -0.54136790421E+03  0.47122746073E+03  0.77957543820E+03  0.85122498763E+02 0.  0.
         23    2    4    4    0    0  0.43346300436E+02  0.27199492837E+03 -0.89963420555E+01  0.29059359753E+03  0.92214759837E+02 0.  0.
          3    1    3    3  502    0  0.16380336055E+03  0.19685073461E+03  0.68468316881E+01  0.25618085750E+03  0.00000000000E+00 0. -1.
         -4    1    3    3    0  502  0.85010392066E+02  0.72522241220E+02 -0.52926752263E+02  0.12364256280E+03  0.00000000000E+00 0.  1.
         11    1    5    5    0    0 -0.25267617193E+03 -0.51472999632E+03  0.43501528165E+03  0.71974336554E+03  0.00000000000E+00 0. -1.
        -11    1    5    5    0    0 -0.39483881121E+02 -0.26637907889E+02  0.36212179073E+02  0.59832072656E+02  0.00000000000E+00 0.  1.
          3    1    6    6  503    0  0.51211417949E+02  0.27394362311E+03 -0.16996071315E+02  0.27920706369E+03  0.00000000000E+00 0. -1.
         -3    1    6    6    0  503 -0.78651175125E+01 -0.19486947406E+01  0.79997292593E+01  0.11386533840E+02  0.00000000000E+00 0.  1.
<mgrwt>
<rscale>  0 0.13889911E+04</rscale>
<asrwt>0</asrwt>
<pdfrwt beam="1">  1        1 0.14354951E+00 0.13889911E+04</pdfrwt>
<pdfrwt beam="2">  1       -2 0.79526251E-01 0.13889911E+04</pdfrwt>
<totfact> 0.20495433E+01</totfact>
</mgrwt>
</event>
<event>
12    4  0.4183215E-008  0.1665011E+04  0.7818608E-02  0.8781575E-01
         -2   -1    0    0    0  501 -0.00000000000E+00  0.00000000000E+00  0.67204322585E+03  0.67204322585E+03  0.00000000000E+00 0.  1.
          1   -1    0    0  501    0  0.00000000000E+00 -0.00000000000E+00 -0.10312815154E+04  0.10312815154E+04  0.00000000000E+00 0. -1.
        -24    2    1    2    0    0  0.26041018996E+03 -0.28971596395E+02  0.41038486797E+03  0.49401231186E+03  0.83544024177E+02 0.  0.
        254    2    1    2    0    0 -0.26041018996E+03  0.28971596395E+02 -0.76962315756E+03  0.12093124294E+04  0.89524517697E+03 0.  0.
         23    2    4    4    0    0 -0.39475212655E+03 -0.33014963010E+03 -0.32319645590E+03  0.61453376283E+03  0.91475553502E+02 0.  0.
         23    2    4    4    0    0  0.13434193659E+03  0.35912122649E+03 -0.44642670167E+03  0.59477866660E+03  0.86307885155E+02 0.  0.
          3    1    3    3  502    0  0.53240951677E+02 -0.19782493831E+02  0.39808073700E+02  0.69358696133E+02  0.00000000000E+00 0. -1.
         -4    1    3    3    0  502  0.20716923829E+03 -0.91891025635E+01  0.37057679427E+03  0.42465361572E+03  0.00000000000E+00 0.  1.
         11    1    5    5    0    0 -0.34818320635E+03 -0.32416269034E+03 -0.29496784910E+03  0.55974907502E+03  0.00000000000E+00 0.  1.
        -11    1    5    5    0    0 -0.46568920202E+02 -0.59869397602E+01 -0.28228606800E+02  0.54784687809E+02  0.00000000000E+00 0. -1.
          2    1    6    6  503    0  0.13608846055E+02  0.92913251159E+02 -0.64905942345E+02  0.11415276731E+03  0.00000000000E+00 0. -1.
         -2    1    6    6    0  503  0.12073309053E+03  0.26620797533E+03 -0.38152075932E+03  0.48062589929E+03  0.00000000000E+00 0.  1.
<mgrwt>
<rscale>  0 0.16650114E+04</rscale>
<asrwt>0</asrwt>
<pdfrwt beam="1">  1        1 0.15865869E+00 0.16650114E+04</pdfrwt>
<pdfrwt beam="2">  1       -2 0.10339127E+00 0.16650114E+04</pdfrwt>
<totfact> 0.91316661E+00</totfact>
</mgrwt>
</event>
<event>
12    4  0.4183215E-008  0.4310382E+04  0.7818608E-02  0.7944701E-01
          1   -1    0    0  501    0  0.00000000000E+00  0.00000000000E+00  0.29555217446E+04  0.29555217446E+04  0.00000000000E+00 0. -1.
         -2   -1    0    0    0  501 -0.00000000000E+00 -0.00000000000E+00 -0.15715829398E+04  0.15715829398E+04  0.00000000000E+00 0.  1.
        -24    2    1    2    0    0 -0.13729481857E+04 -0.10170211562E+03  0.22696915298E+04  0.26561743048E+04  0.91827316642E+02 0.  0.
        254    2    1    2    0    0  0.13729481857E+04  0.10170211562E+03 -0.88575272503E+03  0.18709303796E+04  0.90581044063E+03 0.  0.
         23    2    4    4    0    0  0.10532626090E+04 -0.32035590475E+03 -0.66989021408E+03  0.12920698249E+04  0.93281854734E+02 0.  0.
         23    2    4    4    0    0  0.31968557674E+03  0.42205802038E+03 -0.21586251095E+03  0.57886055464E+03  0.90283318207E+02 0.  0.
          3    1    3    3  502    0 -0.91042218213E+03 -0.92746374619E+02  0.14385942740E+04  0.17049996847E+04  0.00000000000E+00 0. -1.
         -4    1    3    3    0  502 -0.46252600358E+03 -0.89557410059E+01  0.83109725583E+03  0.95117462011E+03  0.00000000000E+00 0.  1.
         11    1    5    5    0    0  0.49768503097E+03 -0.17107758791E+03 -0.27029815267E+03  0.59162405501E+03  0.00000000000E+00 0. -1.
        -11    1    5    5    0    0  0.55557757801E+03 -0.14927831684E+03 -0.39959206141E+03  0.70044576992E+03  0.00000000000E+00 0.  1.
          1    1    6    6  503    0  0.22478033426E+03  0.28555109766E+03 -0.19166039160E+03  0.41085196087E+03  0.00000000000E+00 0. -1.
         -1    1    6    6    0  503  0.94905242476E+02  0.13650692272E+03 -0.24202119358E+02  0.16800859377E+03  0.00000000000E+00 0.  1.
<mgrwt>
<rscale>  0 0.43103817E+04</rscale>
<asrwt>0</asrwt>
<pdfrwt beam="1">  1        1 0.45469565E+00 0.43103817E+04</pdfrwt>
<pdfrwt beam="2">  1       -2 0.24178199E+00 0.43103817E+04</pdfrwt>
<totfact> 0.31235169E-02</totfact>
</mgrwt>
</event>
<event>
12    4  0.4183215E-008  0.1255829E+04  0.7818608E-02  0.9065345E-01
          3   -1    0    0  501    0  0.00000000000E+00  0.00000000000E+00  0.89928036259E+03  0.89928036259E+03  0.00000000000E+00 0. -1.
         -4   -1    0    0    0  501 -0.00000000000E+00 -0.00000000000E+00 -0.43843601543E+03  0.43843601543E+03  0.00000000000E+00 0.  1.
        -24    2    1    2    0    0 -0.32967458502E+02 -0.84960284627E+02 -0.17586672508E+03  0.21314788253E+03  0.78726180855E+02 0.  0.
        254    2    1    2    0    0  0.32967458502E+02  0.84960284627E+02  0.63671107224E+03  0.11245684955E+04  0.92246854053E+03 0.  0.
         23    2    4    4    0    0  0.43796672113E+03  0.11925231470E+03  0.15762438998E+03  0.48962182885E+03  0.94064465111E+02 0.  0.
         23    2    4    4    0    0 -0.40499926263E+03 -0.34292030073E+02  0.47908668225E+03  0.63494666664E+03  0.91830682827E+02 0.  0.
          3    1    3    3  502    0  0.23181431514E+02 -0.32220867648E+02 -0.86433457237E+02  0.95112068682E+02  0.00000000000E+00 0. -1.
         -4    1    3    3    0  502 -0.56148890016E+02 -0.52739416979E+02 -0.89433267843E+02  0.11803581385E+03  0.00000000000E+00 0.  1.
         11    1    5    5    0    0  0.37325430373E+03  0.64778657269E+02  0.12426900367E+03  0.39869516546E+03  0.00000000000E+00 0. -1.
        -11    1    5    5    0    0  0.64712417397E+02  0.54473657431E+02  0.33355386316E+02  0.90926663392E+02  0.00000000000E+00 0.  1.
          1    1    6    6  503    0 -0.33641181736E+03  0.57506554899E+01  0.37143271211E+03  0.50116687892E+03  0.00000000000E+00 0. -1.
         -1    1    6    6    0  503 -0.68587445267E+02 -0.40042685563E+02  0.10765397014E+03  0.13377978772E+03  0.00000000000E+00 0.  1.
<mgrwt>
<rscale>  0 0.12558294E+04</rscale>
<asrwt>0</asrwt>
<pdfrwt beam="1">  1        3 0.13835082E+00 0.12558294E+04</pdfrwt>
<pdfrwt beam="2">  1       -4 0.67451695E-01 0.12558294E+04</pdfrwt>
<totfact> 0.18202215E+00</totfact>
</mgrwt>
</event>
<event>
12    4  0.4183215E-008  0.1229964E+04  0.7818608E-02  0.9087026E-01
         -2   -1    0    0    0  501 -0.00000000000E+00  0.00000000000E+00  0.99360944780E+03  0.99360944780E+03  0.00000000000E+00 0.  1.
          1   -1    0    0  501    0  0.00000000000E+00 -0.00000000000E+00 -0.38063540097E+03  0.38063540097E+03  0.00000000000E+00 0. -1.
        -24    2    1    2    0    0 -0.78691920170E+02 -0.76976423295E+02  0.44131668785E+03  0.46147641786E+03  0.77988955747E+02 0.  0.
        254    2    1    2    0    0  0.78691920170E+02  0.76976423295E+02  0.17165735898E+03  0.91276843091E+03  0.88969779787E+03 0.  0.
         23    2    4    4    0    0  0.36530913013E+03  0.33062227850E+03  0.11600072698E+03  0.51525602328E+03  0.96284730185E+02 0.  0.
         23    2    4    4    0    0 -0.28661720996E+03 -0.25364585521E+03  0.55656632000E+02  0.39751240763E+03  0.91830325224E+02 0.  0.
          1    1    3    3  502    0 -0.61761093163E+02 -0.47747304062E+02  0.15883669850E+03  0.17698399494E+03  0.00000000000E+00 0. -1.
         -2    1    3    3    0  502 -0.16930827007E+02 -0.29229119233E+02  0.28247998935E+03  0.28449242292E+03  0.00000000000E+00 0.  1.
         11    1    5    5    0    0  0.44199189221E+02  0.80013166943E+02  0.44627682557E+02  0.10172170497E+03  0.00000000000E+00 0. -1.
        -11    1    5    5    0    0  0.32110994091E+03  0.25060911156E+03  0.71373044423E+02  0.41353431830E+03  0.00000000000E+00 0.  1.
          4    1    6    6  503    0  0.43862357146E+01 -0.67055859914E+00  0.77870639307E+01  0.89625374331E+01  0.00000000000E+00 0. -1.
         -4    1    6    6    0  503 -0.29100344567E+03 -0.25297529661E+03  0.47869568069E+02  0.38854987020E+03  0.00000000000E+00 0.  1.
<mgrwt>
<rscale>  0 0.12299641E+04</rscale>
<asrwt>0</asrwt>
<pdfrwt beam="1">  1        1 0.58559293E-01 0.12299641E+04</pdfrwt>
<pdfrwt beam="2">  1       -2 0.15286299E+00 0.12299641E+04</pdfrwt>
<totfact> 0.15737351E+01</totfact>
</mgrwt>
</event>
<event>
12    4  0.4183215E-008  0.1663467E+04  0.7818608E-02  0.8782479E-01
          1   -1    0    0  501    0  0.00000000000E+00  0.00000000000E+00  0.20447833784E+04  0.20447833784E+04  0.00000000000E+00 0. -1.
         -2   -1    0    0    0  501 -0.00000000000E+00 -0.00000000000E+00 -0.33831505775E+03  0.33831505775E+03  0.00000000000E+00 0.  1.
        -24    2    1    2    0    0  0.45084626275E+03 -0.19688188269E+03  0.10594463143E+04  0.11708427601E+04  0.80133935262E+02 0.  0.
        254    2    1    2    0    0 -0.45084626275E+03  0.19688188269E+03  0.64702200629E+03  0.12122556760E+04  0.89938952576E+03 0.  0.
         23    2    4    4    0    0  0.14778372005E+03 -0.22558464429E+03  0.14356913886E+03  0.31876952382E+03  0.90958518202E+02 0.  0.
         23    2    4    4    0    0 -0.59862998280E+03  0.42246652698E+03  0.50345286743E+03  0.89348615220E+03  0.89537096899E+02 0.  0.
          1    1    3    3  502    0  0.23278856475E+03 -0.84292580281E+02  0.44563069455E+03  0.50978669156E+03  0.00000000000E+00 0. -1.
         -2    1    3    3    0  502  0.21805769801E+03 -0.11258930241E+03  0.61381561980E+03  0.66105606856E+03  0.00000000000E+00 0.  1.
         11    1    5    5    0    0  0.30855359740E+02 -0.12682792344E+03  0.52629405455E+02  0.14073816010E+03  0.00000000000E+00 0. -1.
        -11    1    5    5    0    0  0.11692836031E+03 -0.98756720844E+02  0.90939733404E+02  0.17803136372E+03  0.00000000000E+00 0.  1.
          3    1    6    6  503    0 -0.29040213374E+03  0.15206877364E+03  0.21084647702E+03  0.38976216860E+03  0.00000000000E+00 0. -1.
         -3    1    6    6    0  503 -0.30822784906E+03  0.27039775333E+03  0.29260639041E+03  0.50372398360E+03  0.00000000000E+00 0.  1.
<mgrwt>
<rscale>  0 0.16634675E+04</rscale>
<asrwt>0</asrwt>
<pdfrwt beam="1">  1        1 0.31458205E+00 0.16634675E+04</pdfrwt>
<pdfrwt beam="2">  1       -2 0.52048471E-01 0.16634675E+04</pdfrwt>
<totfact> 0.81183678E+00</totfact>
</mgrwt>
</event>
<event>
12    4  0.4183215E-008  0.2512551E+04  0.7818608E-02  0.8398528E-01
         -2   -1    0    0    0  501 -0.00000000000E+00  0.00000000000E+00  0.61894803593E+03  0.61894803593E+03  0.00000000000E+00 0.  1.
          1   -1    0    0  501    0  0.00000000000E+00 -0.00000000000E+00 -0.25498555979E+04  0.25498555979E+04  0.00000000000E+00 0. -1.
        -24    2    1    2    0    0 -0.70573055481E+03 -0.59164228627E+03 -0.15784681117E+04  0.18291942249E+04  0.79332981771E+02 0.  0.
        254    2    1    2    0    0  0.70573055481E+03  0.59164228627E+03 -0.35243945033E+03  0.13396094089E+04  0.90677648375E+03 0.  0.
         23    2    4    4    0    0  0.79664745640E+03  0.30713710833E+03 -0.49996343407E+03  0.99393722074E+03  0.94696305428E+02 0.  0.
         23    2    4    4    0    0 -0.90916901587E+02  0.28450517795E+03  0.14752398375E+03  0.34567218820E+03  0.92286817288E+02 0.  0.
          3    1    3    3  502    0 -0.67048306455E+03 -0.58155573722E+03 -0.15100510207E+04  0.17515732073E+04  0.00000000000E+00 0. -1.
         -4    1    3    3    0  502 -0.35247490267E+02 -0.10086549049E+02 -0.68417090982E+02  0.77621017645E+02  0.00000000000E+00 0.  1.
         11    1    5    5    0    0  0.61114639425E+03  0.25321305567E+03 -0.34379271409E+03  0.74552679162E+03  0.00000000000E+00 0. -1.
        -11    1    5    5    0    0  0.18550106215E+03  0.53924052654E+02 -0.15617071998E+03  0.24841042912E+03  0.00000000000E+00 0.  1.
          4    1    6    6  503    0 -0.43074121711E+02  0.39195281394E+02  0.62403352905E+01  0.58571254291E+02  0.00000000000E+00 0. -1.
         -4    1    6    6    0  503 -0.47842779876E+02  0.24530989655E+03  0.14128364846E+03  0.28710093391E+03  0.00000000000E+00 0.  1.
<mgrwt>
<rscale>  0 0.25125510E+04</rscale>
<asrwt>0</asrwt>
<pdfrwt beam="1">  1        1 0.39228548E+00 0.25125510E+04</pdfrwt>
<pdfrwt beam="2">  1       -2 0.95222774E-01 0.25125510E+04</pdfrwt>
<totfact> 0.90433511E-01</totfact>
</mgrwt>
</event>
<event>
12    4  0.4183215E-008  0.2083091E+04  0.7818608E-02  0.8568729E-01
          1   -1    0    0  501    0  0.00000000000E+00  0.00000000000E+00  0.17831207090E+04  0.17831207090E+04  0.00000000000E+00 0. -1.
         -2   -1    0    0    0  501 -0.00000000000E+00 -0.00000000000E+00 -0.60838098098E+03  0.60838098098E+03  0.00000000000E+00 0.  1.
        -24    2    1    2    0    0  0.10927969259E+03 -0.75491838656E+03  0.47900566937E+02  0.76840235213E+03  0.79397033143E+02 0.  0.
        254    2    1    2    0    0 -0.10927969259E+03  0.75491838656E+03  0.11268391610E+04  0.16230993378E+04  0.88478310561E+03 0.  0.
         23    2    4    4    0    0 -0.40817679736E+03  0.44302390706E+03  0.98700811902E+03  0.11598922204E+04  0.91029971467E+02 0.  0.
         23    2    4    4    0    0  0.29889710477E+03  0.31189447950E+03  0.13983104202E+03  0.46320711745E+03  0.91599496533E+02 0.  0.
          3    1    3    3  502    0  0.56193971784E+02 -0.36419575882E+03  0.62752440214E+02  0.37381035561E+03  0.00000000000E+00 0. -1.
         -4    1    3    3    0  502  0.53085720807E+02 -0.39072262774E+03 -0.14851873277E+02  0.39459199652E+03  0.00000000000E+00 0.  1.
         11    1    5    5    0    0 -0.16267960444E+03  0.14666651252E+03  0.28647643294E+03  0.36061678583E+03  0.00000000000E+00 0.  1.
        -11    1    5    5    0    0 -0.24549719292E+03  0.29635739454E+03  0.70053168608E+03  0.79927543452E+03  0.00000000000E+00 0. -1.
          3    1    6    6  503    0  0.11467927211E+03  0.17152791209E+03  0.36225275124E+02  0.20948849762E+03  0.00000000000E+00 0. -1.
         -3    1    6    6    0  503  0.18421783266E+03  0.14036656741E+03  0.10360576689E+03  0.25371861983E+03  0.00000000000E+00 0.  1.
<mgrwt>
<rscale>  0 0.20830907E+04</rscale>
<asrwt>0</asrwt>
<pdfrwt beam="1">  1        1 0.27432626E+00 0.20830907E+04</pdfrwt>
<pdfrwt beam="2">  1       -2 0.93597075E-01 0.20830907E+04</pdfrwt>
<totfact> 0.32645695E+00</totfact>
</mgrwt>
</event>
<event>
12    4  0.4183215E-008  0.2135722E+04  0.7818608E-02  0.8545669E-01
         -2   -1    0    0    0  501 -0.00000000000E+00  0.00000000000E+00  0.60457336404E+03  0.60457336404E+03  0.00000000000E+00 0.  1.
          1   -1    0    0  501    0  0.00000000000E+00 -0.00000000000E+00 -0.18861687589E+04  0.18861687589E+04  0.00000000000E+00 0. -1.
        -24    2    1    2    0    0  0.13196120274E+03 -0.84848459104E+03 -0.73118379818E+03  0.11304580244E+04  0.77238189560E+02 0.  0.
        254    2    1    2    0    0 -0.13196120274E+03  0.84848459104E+03 -0.55041159664E+03  0.13602840985E+04  0.90004446705E+03 0.  0.
         23    2    4    4    0    0  0.45474944242E+01  0.54196063559E+03 -0.77230144888E+03  0.94780940654E+03  0.90283624993E+02 0.  0.
         23    2    4    4    0    0 -0.13650869716E+03  0.30652395545E+03  0.22188985225E+03  0.41247469196E+03  0.91152099890E+02 0.  0.
          3    1    3    3  502    0  0.90628872013E+01 -0.27102367056E+02 -0.92961639881E+01  0.30051503945E+02  0.00000000000E+00 0. -1.
         -4    1    3    3    0  502  0.12289831554E+03 -0.82138222398E+03 -0.72188763419E+03  0.11004065204E+04  0.00000000000E+00 0.  1.
         11    1    5    5    0    0 -0.15007802292E+02  0.69346437818E+02 -0.15189037010E+03  0.16764500320E+03  0.00000000000E+00 0. -1.
        -11    1    5    5    0    0  0.19555296716E+02  0.47261419777E+03 -0.62041107878E+03  0.78016440334E+03  0.00000000000E+00 0.  1.
          2    1    6    6  503    0 -0.12112184311E+03  0.30914640794E+03  0.21361720822E+03  0.39480921224E+03  0.00000000000E+00 0. -1.
         -2    1    6    6    0  503 -0.15386854058E+02 -0.26224524869E+01  0.82726440217E+01  0.17665479726E+02  0.00000000000E+00 0.  1.
<mgrwt>
<rscale>  0 0.21357223E+04</rscale>
<asrwt>0</asrwt>
<pdfrwt beam="1">  1        1 0.29017981E+00 0.21357223E+04</pdfrwt>
<pdfrwt beam="2">  1       -2 0.93011287E-01 0.21357223E+04</pdfrwt>
<totfact> 0.28069742E+00</totfact>
</mgrwt>
</event>
<event>
12    4  0.4183215E-008  0.1429842E+04  0.7818608E-02  0.8932496E-01
         -2   -1    0    0    0  501 -0.00000000000E+00  0.00000000000E+00  0.12604986184E+04  0.12604986184E+04  0.00000000000E+00 0.  1.
          1   -1    0    0  501    0  0.00000000000E+00 -0.00000000000E+00 -0.40548412936E+03  0.40548412936E+03  0.00000000000E+00 0. -1.
        -24    2    1    2    0    0 -0.20622526470E+03 -0.33907739435E+03  0.74462901691E+02  0.41011600626E+03  0.71750091991E+02 0.  0.
        254    2    1    2    0    0  0.20622526470E+03  0.33907739435E+03  0.78055158734E+03  0.12558667415E+04  0.90024338526E+03 0.  0.
         23    2    4    4    0    0  0.50285377130E+03 -0.70201679385E+01  0.32972399655E+03  0.60828474357E+03  0.91548988463E+02 0.  0.
         23    2    4    4    0    0 -0.29662850660E+03  0.34609756229E+03  0.45082759079E+03  0.64758199792E+03  0.91350609523E+02 0.  0.
          1    1    3    3  502    0 -0.13279385493E+03 -0.27415792742E+03  0.46203535392E+02  0.30810962945E+03  0.00000000000E+00 0. -1.
         -2    1    3    3    0  502 -0.73431409763E+02 -0.64919466935E+02  0.28259366298E+02  0.10200637681E+03  0.00000000000E+00 0.  1.
         11    1    5    5    0    0  0.30044744332E+02  0.25262092822E+01 -0.26402536113E+01  0.30266141717E+02  0.00000000000E+00 0. -1.
        -11    1    5    5    0    0  0.47280902697E+03 -0.95463772207E+01  0.33236425017E+03  0.57801860185E+03  0.00000000000E+00 0.  1.
          3    1    6    6  503    0 -0.21103397223E+03  0.29477916684E+03  0.38005513332E+03  0.52523518446E+03  0.00000000000E+00 0. -1.
         -3    1    6    6    0  503 -0.85594534373E+02  0.51318395448E+02  0.70772457473E+02  0.12234681346E+03  0.00000000000E+00 0.  1.
<mgrwt>
<rscale>  0 0.14298422E+04</rscale>
<asrwt>0</asrwt>
<pdfrwt beam="1">  1        1 0.62382174E-01 0.14298422E+04</pdfrwt>
<pdfrwt beam="2">  1       -2 0.19392286E+00 0.14298422E+04</pdfrwt>
<totfact> 0.73008212E+00</totfact>
</mgrwt>
</event>
<event>
12    4  0.4183215E-008  0.1936416E+04  0.7818608E-02  0.8636939E-01
         -2   -1    0    0    0  501 -0.00000000000E+00  0.00000000000E+00  0.37029260912E+03  0.37029260912E+03  0.00000000000E+00 0.  1.
          1   -1    0    0  501    0  0.00000000000E+00 -0.00000000000E+00 -0.25315834301E+04  0.25315834301E+04  0.00000000000E+00 0. -1.
        -24    2    1    2    0    0  0.64381250095E+03 -0.25612532062E+03 -0.12818147959E+04  0.14593202200E+04  0.80446362493E+02 0.  0.
        254    2    1    2    0    0 -0.64381250095E+03  0.25612532062E+03 -0.87947602507E+03  0.14425558192E+04  0.90961227819E+03 0.  0.
         23    2    4    4    0    0 -0.63397353462E+03  0.10621053914E+03 -0.11744426741E+03  0.65960882763E+03  0.89930686193E+02 0.  0.
         23    2    4    4    0    0 -0.98389663276E+01  0.14991478148E+03 -0.76203175767E+03  0.78294699158E+03  0.98703317930E+02 0.  0.
          1    1    3    3  502    0  0.44593053686E+03 -0.20070339957E+03 -0.83819073215E+03  0.97041207833E+03  0.00000000000E+00 0. -1.
         -2    1    3    3    0  502  0.19788196409E+03 -0.55421921049E+02 -0.44362406371E+03  0.48890814162E+03  0.00000000000E+00 0.  1.
         11    1    5    5    0    0 -0.98601077775E+02 -0.14939128408E+02 -0.26814313108E+02  0.10326837601E+03  0.00000000000E+00 0.  1.
        -11    1    5    5    0    0 -0.53537245685E+03  0.12114966755E+03 -0.90629954298E+02  0.55634045163E+03  0.00000000000E+00 0. -1.
          4    1    6    6  503    0  0.23705050440E+02  0.66856080603E+02 -0.52103207831E+03  0.52583846527E+03  0.00000000000E+00 0. -1.
         -4    1    6    6    0  503 -0.33544016768E+02  0.83058700875E+02 -0.24099967936E+03  0.25710852631E+03  0.00000000000E+00 0.  1.
<mgrwt>
<rscale>  0 0.19364159E+04</rscale>
<asrwt>0</asrwt>
<pdfrwt beam="1">  1        1 0.38947437E+00 0.19364159E+04</pdfrwt>
<pdfrwt beam="2">  1       -2 0.56968095E-01 0.19364159E+04</pdfrwt>
<totfact> 0.30506085E+00</totfact>
</mgrwt>
</event>
<event>
12    4  0.4183215E-008  0.2082899E+04  0.7818608E-02  0.8568814E-01
          1   -1    0    0  501    0  0.00000000000E+00  0.00000000000E+00  0.11452721132E+04  0.11452721132E+04  0.00000000000E+00 0. -1.
         -2   -1    0    0    0  501 -0.00000000000E+00 -0.00000000000E+00 -0.94703909290E+03  0.94703909290E+03  0.00000000000E+00 0.  1.
        -24    2    1    2    0    0 -0.16342906164E+03 -0.36895394692E+03  0.84060940528E+03  0.93532596338E+03  0.73310383883E+02 0.  0.
        254    2    1    2    0    0  0.16342906164E+03  0.36895394692E+03 -0.64237638501E+03  0.11569852427E+04  0.87357389994E+03 0.  0.
         23    2    4    4    0    0  0.48627619966E+03  0.50321366448E+02 -0.29165098367E+03  0.57656181995E+03  0.91468320598E+02 0.  0.
         23    2    4    4    0    0 -0.32284713803E+03  0.31863258047E+03 -0.35072540134E+03  0.58042342274E+03  0.90144587488E+02 0.  0.
          1    1    3    3  502    0 -0.10938615086E+03 -0.29906914190E+03  0.70353682214E+03  0.77225108724E+03  0.00000000000E+00 0. -1.
         -2    1    3    3    0  502 -0.54042910780E+02 -0.69884805022E+02  0.13707258314E+03  0.16307487614E+03  0.00000000000E+00 0.  1.
         11    1    5    5    0    0  0.27435676951E+03 -0.53886925037E+01 -0.12644034366E+03  0.30213876860E+03  0.00000000000E+00 0.  1.
        -11    1    5    5    0    0  0.21191943015E+03  0.55710058952E+02 -0.16521064001E+03  0.27442305136E+03  0.00000000000E+00 0. -1.
          4    1    6    6  503    0 -0.11595244458E+02  0.16438813593E+02  0.34226752589E+01  0.20405856814E+02  0.00000000000E+00 0. -1.
         -4    1    6    6    0  503 -0.31125189357E+03  0.30219376688E+03 -0.35414807660E+03  0.56001756593E+03  0.00000000000E+00 0.  1.
<mgrwt>
<rscale>  0 0.20828994E+04</rscale>
<asrwt>0</asrwt>
<pdfrwt beam="1">  1        1 0.17619571E+00 0.20828994E+04</pdfrwt>
<pdfrwt beam="2">  1       -2 0.14569832E+00 0.20828994E+04</pdfrwt>
<totfact> 0.30651743E+00</totfact>
</mgrwt>
</event>
<event>
12    4  0.4183215E-008  0.1412979E+04  0.7818608E-02  0.8944477E-01
          1   -1    0    0  501    0  0.00000000000E+00  0.00000000000E+00  0.22467112211E+04  0.22467112211E+04  0.00000000000E+00 0. -1.
         -2   -1    0    0    0  501 -0.00000000000E+00 -0.00000000000E+00 -0.22215909542E+03  0.22215909542E+03  0.00000000000E+00 0.  1.
        -24    2    1    2    0    0 -0.11061073049E+03  0.36549772235E+03  0.89613404790E+03  0.97721828732E+03  0.77948896940E+02 0.  0.
        254    2    1    2    0    0  0.11061073049E+03 -0.36549772235E+03  0.11284180778E+04  0.14916520292E+04  0.89770546349E+03 0.  0.
         23    2    4    4    0    0 -0.86363069575E+02 -0.28188982181E+03  0.12064144390E+04  0.12452739759E+04  0.91383943415E+02 0.  0.
         23    2    4    4    0    0  0.19697380006E+03 -0.83607900547E+02 -0.77996361213E+02  0.24637805325E+03  0.93966769747E+02 0.  0.
          1    1    3    3  502    0 -0.62950382817E+01  0.73528689794E+02  0.24794231405E+03  0.25869187623E+03  0.00000000000E+00 0. -1.
         -2    1    3    3    0  502 -0.10431569221E+03  0.29196903256E+03  0.64819173385E+03  0.71852641110E+03  0.00000000000E+00 0.  1.
         11    1    5    5    0    0 -0.52334136442E+02 -0.16200403856E+03  0.50637010757E+03  0.53422360130E+03  0.00000000000E+00 0. -1.
        -11    1    5    5    0    0 -0.34028933133E+02 -0.11988578325E+03  0.70004433141E+03  0.71105037463E+03  0.00000000000E+00 0.  1.
          4    1    6    6  503    0  0.17051768408E+03 -0.29291621624E+02 -0.52535200034E+02  0.18081544991E+03  0.00000000000E+00 0. -1.
         -4    1    6    6    0  503  0.26456115979E+02 -0.54316278923E+02 -0.25461161178E+02  0.65562603345E+02  0.00000000000E+00 0.  1.
<mgrwt>
<rscale>  0 0.14129789E+04</rscale>
<asrwt>0</asrwt>
<pdfrwt beam="1">  1        1 0.34564787E+00 0.14129789E+04</pdfrwt>
<pdfrwt beam="2">  1       -2 0.34178324E-01 0.14129789E+04</pdfrwt>
<totfact> 0.13904823E+01</totfact>
</mgrwt>
</event>
<event>
12    4  0.4183215E-008  0.1091561E+04  0.7818608E-02  0.9213456E-01
         -2   -1    0    0    0  501 -0.00000000000E+00  0.00000000000E+00  0.49682465839E+03  0.49682465839E+03  0.00000000000E+00 0.  1.
          1   -1    0    0  501    0  0.00000000000E+00 -0.00000000000E+00 -0.59956083131E+03  0.59956083131E+03  0.00000000000E+00 0. -1.
        -24    2    1    2    0    0  0.10356059828E+03 -0.35654130325E+01  0.98648897506E+02  0.16289279655E+03  0.77877779254E+02 0.  0.
        254    2    1    2    0    0 -0.10356059828E+03  0.35654130325E+01 -0.20138507042E+03  0.93349269315E+03  0.90560209358E+03 0.  0.
         23    2    4    4    0    0  0.21622733932E+02  0.38807265459E+03  0.11062763048E+03  0.41472931905E+03  0.93241662325E+02 0.  0.
         23    2    4    4    0    0 -0.12518333221E+03 -0.38450724155E+03 -0.31201270090E+03  0.51876337410E+03  0.90812043889E+02 0.  0.
          3    1    3    3  502    0  0.18551892285E+02  0.31513240040E+02  0.18878139648E+02  0.41153871772E+02  0.00000000000E+00 0. -1.
         -4    1    3    3    0  502  0.85008705995E+02 -0.35078653073E+02  0.79770757857E+02  0.12173892478E+03  0.00000000000E+00 0.  1.
         11    1    5    5    0    0 -0.10798760247E+02  0.86094634100E+02 -0.11207096470E+02  0.87489989456E+02  0.00000000000E+00 0.  1.
        -11    1    5    5    0    0  0.32421494179E+02  0.30197802049E+03  0.12183472695E+03  0.32723932959E+03  0.00000000000E+00 0. -1.
          2    1    6    6  503    0 -0.11618357847E+03 -0.38655688000E+03 -0.29697072942E+03  0.50111521581E+03  0.00000000000E+00 0. -1.
         -2    1    6    6    0  503 -0.89997537374E+01  0.20496384461E+01 -0.15041971485E+02  0.17648158296E+02  0.00000000000E+00 0.  1.
<mgrwt>
<rscale>  0 0.10915615E+04</rscale>
<asrwt>0</asrwt>
<pdfrwt beam="1">  1        1 0.92240128E-01 0.10915615E+04</pdfrwt>
<pdfrwt beam="2">  1       -2 0.76434563E-01 0.10915615E+04</pdfrwt>
<totfact> 0.45822585E+01</totfact>
</mgrwt>
</event>
<event>
12    4  0.4183215E-008  0.1416908E+04  0.7818608E-02  0.8941670E-01
          1   -1    0    0  501    0  0.00000000000E+00  0.00000000000E+00  0.76041268982E+03  0.76041268982E+03  0.00000000000E+00 0. -1.
         -2   -1    0    0    0  501 -0.00000000000E+00 -0.00000000000E+00 -0.66004553981E+03  0.66004553981E+03  0.00000000000E+00 0.  1.
        -24    2    1    2    0    0 -0.32477637368E+02 -0.21713489563E+03 -0.27909068460E+03  0.36424532183E+03  0.81121417744E+02 0.  0.
        254    2    1    2    0    0  0.32477637368E+02  0.21713489563E+03  0.37945783461E+03  0.10562129078E+04  0.96093449232E+03 0.  0.
         23    2    4    4    0    0 -0.20132119094E+02  0.56918908465E+03  0.37537833782E+03  0.68830168769E+03  0.92026085813E+02 0.  0.
         23    2    4    4    0    0  0.52609756462E+02 -0.35205418902E+03  0.40794967899E+01  0.36791122011E+03  0.92909015196E+02 0.  0.
          1    1    3    3  502    0 -0.15831960543E+02 -0.18153511505E+00 -0.12793592043E+02  0.20355832751E+02  0.00000000000E+00 0. -1.
         -2    1    3    3    0  502 -0.16645676825E+02 -0.21695336052E+03 -0.26629709255E+03  0.34388948908E+03  0.00000000000E+00 0.  1.
         11    1    5    5    0    0 -0.40062318143E+02  0.27845361273E+03  0.14301709487E+03  0.31558721964E+03  0.00000000000E+00 0.  1.
        -11    1    5    5    0    0  0.19930199048E+02  0.29073547192E+03  0.23236124295E+03  0.37271446805E+03  0.00000000000E+00 0. -1.
          3    1    6    6  503    0 -0.25165052972E+02 -0.50353636227E+02 -0.11431096225E+01  0.56303421494E+02  0.00000000000E+00 0. -1.
         -3    1    6    6    0  503  0.77774809434E+02 -0.30170055279E+03  0.52226064124E+01  0.31160779861E+03  0.00000000000E+00 0.  1.
<mgrwt>
<rscale>  0 0.14169079E+04</rscale>
<asrwt>0</asrwt>
<pdfrwt beam="1">  1        1 0.11698657E+00 0.14169079E+04</pdfrwt>
<pdfrwt beam="2">  1       -2 0.10154547E+00 0.14169079E+04</pdfrwt>
<totfact> 0.16281151E+01</totfact>
</mgrwt>
</event>
<event>
12    4  0.4183215E-008  0.3427283E+04  0.7818608E-02  0.8131243E-01
          1   -1    0    0  501    0  0.00000000000E+00  0.00000000000E+00  0.14450674199E+04  0.14450674199E+04  0.00000000000E+00 0. -1.
         -2   -1    0    0    0  501 -0.00000000000E+00 -0.00000000000E+00 -0.20321313698E+04  0.20321313698E+04  0.00000000000E+00 0.  1.
        -24    2    1    2    0    0  0.12236924952E+04 -0.94620032570E+03  0.10168018820E+03  0.15522476006E+04  0.80096029465E+02 0.  0.
        254    2    1    2    0    0 -0.12236924952E+04  0.94620032570E+03 -0.68874413818E+03  0.19249511891E+04  0.91561466426E+03 0.  0.
         23    2    4    4    0    0  0.94179336492E+01  0.41618018345E+03 -0.30340592893E+02  0.42724220201E+03  0.91217898623E+02 0.  0.
         23    2    4    4    0    0 -0.12331104288E+04  0.53002014225E+03 -0.65840354529E+03  0.14977089871E+04  0.90301166594E+02 0.  0.
          3    1    3    3  502    0  0.11949269616E+04 -0.93273616153E+03  0.90454840779E+02  0.15185615788E+04  0.00000000000E+00 0. -1.
         -4    1    3    3    0  502  0.28765533595E+02 -0.13464164178E+02  0.11225347425E+02  0.33686021802E+02  0.00000000000E+00 0.  1.
         11    1    5    5    0    0 -0.32879168693E+02  0.21214782666E+03 -0.41161499610E+02  0.21859096309E+03  0.00000000000E+00 0. -1.
        -11    1    5    5    0    0  0.42297102342E+02  0.20403235679E+03  0.10820906717E+02  0.20865123893E+03  0.00000000000E+00 0.  1.
          2    1    6    6  503    0 -0.21669851491E+01  0.18201851040E+00  0.26316930447E+01  0.34139073884E+01  0.00000000000E+00 0. -1.
         -2    1    6    6    0  503 -0.12309434437E+04  0.52983812374E+03 -0.66103523834E+03  0.14942950797E+04  0.00000000000E+00 0.  1.
<mgrwt>
<rscale>  0 0.34272828E+04</rscale>
<asrwt>0</asrwt>
<pdfrwt beam="1">  1        1 0.22231806E+00 0.34272828E+04</pdfrwt>
<pdfrwt beam="2">  1       -2 0.31263560E+00 0.34272828E+04</pdfrwt>
<totfact> 0.13687610E-01</totfact>
</mgrwt>
</event>
<event>
12    4  0.4183215E-008  0.1176737E+04  0.7818608E-02  0.9133466E-01
          1   -1    0    0  501    0  0.00000000000E+00  0.00000000000E+00  0.15814185063E+04  0.15814185063E+04  0.00000000000E+00 0. -1.
         -2   -1    0    0    0  501 -0.00000000000E+00 -0.00000000000E+00 -0.21890302196E+03  0.21890302196E+03  0.00000000000E+00 0.  1.
        -24    2    1    2    0    0 -0.24461133970E+03 -0.14938853825E+03  0.55557707420E+03  0.63040850537E+03  0.81224105976E+02 0.  0.
        254    2    1    2    0    0  0.24461133970E+03  0.14938853825E+03  0.80693841016E+03  0.11699130229E+04  0.79711682992E+03 0.  0.
         23    2    4    4    0    0  0.13108321679E+03  0.41754431254E+03  0.72811588206E+03  0.85434163341E+03  0.90668771988E+02 0.  0.
         23    2    4    4    0    0  0.11352812291E+03 -0.26815577429E+03  0.78822528094E+02  0.31557138950E+03  0.92607542674E+02 0.  0.
          1    1    3    3  502    0 -0.57015323182E+02 -0.78985312171E+02  0.19029263056E+03  0.21377724824E+03  0.00000000000E+00 0. -1.
         -2    1    3    3    0  502 -0.18759601652E+03 -0.70403226076E+02  0.36528444364E+03  0.41663125713E+03  0.00000000000E+00 0.  1.
         11    1    5    5    0    0  0.36761094070E+02  0.14984774251E+03  0.34140531348E+03  0.37465092025E+03  0.00000000000E+00 0.  1.
        -11    1    5    5    0    0  0.94322122717E+02  0.26769657004E+03  0.38671056858E+03  0.47969071316E+03  0.00000000000E+00 0. -1.
          4    1    6    6  503    0  0.96744341239E+02 -0.24259445642E+03  0.37028656194E+02  0.26378525210E+03  0.00000000000E+00 0. -1.
         -4    1    6    6    0  503  0.16783781674E+02 -0.25561317875E+02  0.41793871900E+02  0.51786137403E+02  0.00000000000E+00 0.  1.
<mgrwt>
<rscale>  0 0.11767367E+04</rscale>
<asrwt>0</asrwt>
<pdfrwt beam="1">  1        1 0.24329515E+00 0.11767367E+04</pdfrwt>
<pdfrwt beam="2">  1       -2 0.33677389E-01 0.11767367E+04</pdfrwt>
<totfact> 0.41226378E+01</totfact>
</mgrwt>
</event>
<event>
12    4  0.4183215E-008  0.1714545E+04  0.7818608E-02  0.8753112E-01
          1   -1    0    0  501    0  0.00000000000E+00  0.00000000000E+00  0.87229506591E+03  0.87229506591E+03  0.00000000000E+00 0. -1.
         -2   -1    0    0    0  501 -0.00000000000E+00 -0.00000000000E+00 -0.84250836884E+03  0.84250836884E+03  0.00000000000E+00 0.  1.
        -24    2    1    2    0    0 -0.94912444497E+02 -0.52922913354E+03  0.31727043887E+03  0.62919400943E+03  0.78311699116E+02 0.  0.
        254    2    1    2    0    0  0.94912444497E+02  0.52922913354E+03 -0.28748374180E+03  0.10856094253E+04  0.89822551435E+03 0.  0.
         23    2    4    4    0    0  0.44893771233E+03  0.10874989631E+03 -0.28535005220E+02  0.47092746745E+03  0.87102374107E+02 0.  0.
         23    2    4    4    0    0 -0.35402526784E+03  0.42047923722E+03 -0.25894873658E+03  0.61468195786E+03  0.92966563568E+02 0.  0.
          3    1    3    3  502    0 -0.85005957431E+02 -0.49296379731E+03  0.31577869120E+03  0.59157036781E+03  0.00000000000E+00 0. -1.
         -4    1    3    3    0  502 -0.99064870653E+01 -0.36265336231E+02  0.14917476727E+01  0.37623641623E+02  0.00000000000E+00 0.  1.
         11    1    5    5    0    0  0.42345912606E+03  0.12285161195E+03 -0.27858711863E+02  0.44179888844E+03  0.00000000000E+00 0. -1.
        -11    1    5    5    0    0  0.25478586275E+02 -0.14101715638E+02 -0.67629335679E+00  0.29128579011E+02  0.00000000000E+00 0.  1.
          1    1    6    6  503    0 -0.30602747491E+03  0.39895651173E+03 -0.21807252937E+03  0.54806454156E+03  0.00000000000E+00 0. -1.
         -1    1    6    6    0  503 -0.47997792928E+02  0.21522725494E+02 -0.40876207215E+02  0.66617416303E+02  0.00000000000E+00 0.  1.
<mgrwt>
<rscale>  0 0.17145447E+04</rscale>
<asrwt>0</asrwt>
<pdfrwt beam="1">  1        1 0.13419924E+00 0.17145447E+04</pdfrwt>
<pdfrwt beam="2">  1       -2 0.12961667E+00 0.17145447E+04</pdfrwt>
<totfact> 0.69894281E+00</totfact>
</mgrwt>
</event>
<event>
12    4  0.4183215E-008  0.1143208E+04  0.7818608E-02  0.9164072E-01
          1   -1    0    0  501    0  0.00000000000E+00  0.00000000000E+00  0.28189695257E+04  0.28189695257E+04  0.00000000000E+00 0. -1.
         -2   -1    0    0    0  501 -0.00000000000E+00 -0.00000000000E+00 -0.11590448031E+03  0.11590448031E+03  0.00000000000E+00 0.  1.
        -24    2    1    2    0    0 -0.17759433914E+03  0.94536539133E+02  0.53782967695E+03  0.58002846360E+03  0.81825122349E+02 0.  0.
        254    2    1    2    0    0  0.17759433914E+03 -0.94536539133E+02  0.21652353684E+04  0.23548455424E+04  0.90364618152E+03 0.  0.
         23    2    4    4    0    0  0.29984450662E+03 -0.15497007759E+03  0.21646788201E+04  0.21927574586E+04  0.91806454770E+02 0.  0.
         23    2    4    4    0    0 -0.12225016748E+03  0.60433538453E+02  0.55654829146E+00  0.16208808373E+03  0.87606627168E+02 0.  0.
          3    1    3    3  502    0 -0.16194022115E+03  0.52583799881E+02  0.45597004954E+03  0.48672207399E+03  0.00000000000E+00 0. -1.
         -4    1    3    3    0  502 -0.15654117990E+02  0.41952739252E+02  0.81859627415E+02  0.93306389606E+02  0.00000000000E+00 0.  1.
         11    1    5    5    0    0  0.15812426974E+02 -0.99888683638E+01  0.33309956946E+03  0.33362423999E+03  0.00000000000E+00 0.  1.
        -11    1    5    5    0    0  0.28403207965E+03 -0.14498120922E+03  0.18315792506E+04  0.18591332186E+04  0.00000000000E+00 0. -1.
          2    1    6    6  503    0 -0.96676613471E+02  0.35144268674E+02 -0.37721099662E+02  0.10956444940E+03  0.00000000000E+00 0. -1.
         -2    1    6    6    0  503 -0.25573554007E+02  0.25289269780E+02  0.38277647954E+02  0.52523634332E+02  0.00000000000E+00 0.  1.
<mgrwt>
<rscale>  0 0.11432081E+04</rscale>
<asrwt>0</asrwt>
<pdfrwt beam="1">  1        1 0.43368757E+00 0.11432081E+04</pdfrwt>
<pdfrwt beam="2">  1       -2 0.17831461E-01 0.11432081E+04</pdfrwt>
<totfact> 0.18630709E+01</totfact>
</mgrwt>
</event>
<event>
12    4  0.4183215E-008  0.3440485E+04  0.7818608E-02  0.8128041E-01
         -2   -1    0    0    0  501 -0.00000000000E+00  0.00000000000E+00  0.27039961737E+04  0.27039961737E+04  0.00000000000E+00 0.  1.
          1   -1    0    0  501    0  0.00000000000E+00 -0.00000000000E+00 -0.10943929055E+04  0.10943929055E+04  0.00000000000E+00 0. -1.
        -24    2    1    2    0    0 -0.78306909805E+03  0.50737687238E+03 -0.68537787903E+03  0.11606332933E+04  0.81843152099E+02 0.  0.
        254    2    1    2    0    0  0.78306909805E+03 -0.50737687238E+03  0.22949811472E+04  0.26377557859E+04  0.90564265422E+03 0.  0.
         23    2    4    4    0    0  0.62280965959E+03 -0.50831867688E+02  0.19133193922E+04  0.20148182832E+04  0.90696564406E+02 0.  0.
         23    2    4    4    0    0  0.16025943846E+03 -0.45654500469E+03  0.38166175497E+03  0.62293750271E+03  0.90934086846E+02 0.  0.
          3    1    3    3  502    0 -0.42692723387E+03  0.22994488476E+03 -0.34037317911E+03  0.59244865947E+03  0.00000000000E+00 0. -1.
         -4    1    3    3    0  502 -0.35614186418E+03  0.27743198761E+03 -0.34500469992E+03  0.56818463385E+03  0.00000000000E+00 0.  1.
         11    1    5    5    0    0  0.34743535667E+03  0.80323441662E+00  0.11679448590E+04  0.12185266373E+04  0.00000000000E+00 0.  1.
        -11    1    5    5    0    0  0.27537430292E+03 -0.51635102105E+02  0.74537453319E+03  0.79629164583E+03  0.00000000000E+00 0. -1.
          3    1    6    6  503    0  0.11764336424E+02 -0.48572641595E+02  0.79782671284E+02  0.94143378739E+02  0.00000000000E+00 0. -1.
         -3    1    6    6    0  503  0.14849510204E+03 -0.40797236309E+03  0.30187908368E+03  0.52879412397E+03  0.00000000000E+00 0.  1.
<mgrwt>
<rscale>  0 0.34404850E+04</rscale>
<asrwt>0</asrwt>
<pdfrwt beam="1">  1        1 0.16836814E+00 0.34404850E+04</pdfrwt>
<pdfrwt beam="2">  1       -2 0.41599941E+00 0.34404850E+04</pdfrwt>
<totfact> 0.53629279E-02</totfact>
</mgrwt>
</event>
<event>
12    4  0.4183215E-008  0.1956651E+04  0.7818608E-02  0.8627160E-01
          1   -1    0    0  501    0  0.00000000000E+00  0.00000000000E+00  0.69133908723E+03  0.69133908723E+03  0.00000000000E+00 0. -1.
         -2   -1    0    0    0  501 -0.00000000000E+00 -0.00000000000E+00 -0.13844452813E+04  0.13844452813E+04  0.00000000000E+00 0.  1.
        -24    2    1    2    0    0  0.51626797642E+03  0.10000486458E+03 -0.87801149671E+03  0.10264882033E+04  0.78995232491E+02 0.  0.
        254    2    1    2    0    0 -0.51626797642E+03 -0.10000486458E+03  0.18490530259E+03  0.10492961653E+04  0.88898755621E+03 0.  0.
         23    2    4    4    0    0 -0.40386424875E+03  0.21965380630E+03  0.41773133188E+03  0.62800562256E+03  0.92398432302E+02 0.  0.
         23    2    4    4    0    0 -0.11240372767E+03 -0.31965867088E+03 -0.23282602929E+03  0.42129054270E+03  0.91986398968E+02 0.  0.
          1    1    3    3  502    0  0.70029224884E+02 -0.54988073912E+01 -0.83173329868E+02  0.10886749755E+03  0.00000000000E+00 0. -1.
         -2    1    3    3    0  502  0.44623875153E+03  0.10550367197E+03 -0.79483816684E+03  0.91762070576E+03  0.00000000000E+00 0.  1.
         11    1    5    5    0    0 -0.18274614047E+02  0.37770921240E+02  0.28553442160E+02  0.50753355250E+02  0.00000000000E+00 0.  1.
        -11    1    5    5    0    0 -0.38558963470E+03  0.18188288506E+03  0.38917788972E+03  0.57725226731E+03  0.00000000000E+00 0. -1.
          1    1    6    6  503    0 -0.57655103608E+02 -0.25949839530E+03 -0.20366868614E+03  0.33487977223E+03  0.00000000000E+00 0. -1.
         -1    1    6    6    0  503 -0.54748624061E+02 -0.60160275580E+02 -0.29157343150E+02  0.86410770474E+02  0.00000000000E+00 0.  1.
<mgrwt>
<rscale>  0 0.19566514E+04</rscale>
<asrwt>0</asrwt>
<pdfrwt beam="1">  1        1 0.10635986E+00 0.19566514E+04</pdfrwt>
<pdfrwt beam="2">  1       -2 0.21299158E+00 0.19566514E+04</pdfrwt>
<totfact> 0.24790353E+00</totfact>
</mgrwt>
</event>
<event>
12    4  0.4183215E-008  0.1392646E+04  0.7818608E-02  0.8959159E-01
          1   -1    0    0  501    0  0.00000000000E+00  0.00000000000E+00  0.45484297044E+03  0.45484297044E+03  0.00000000000E+00 0. -1.
         -2   -1    0    0    0  501 -0.00000000000E+00 -0.00000000000E+00 -0.10660062614E+04  0.10660062614E+04  0.00000000000E+00 0.  1.
        -24    2    1    2    0    0  0.34194563638E+03  0.96833660240E+01  0.48951117534E+02  0.35459233632E+03  0.79491680397E+02 0.  0.
        254    2    1    2    0    0 -0.34194563638E+03 -0.96833660240E+01 -0.66011440845E+03  0.11662568955E+04  0.89854522879E+03 0.  0.
         23    2    4    4    0    0  0.20221679809E+03 -0.18782182348E+03 -0.47565378737E+03  0.55764739843E+03  0.92495538986E+02 0.  0.
         23    2    4    4    0    0 -0.54416243446E+03  0.17813845746E+03 -0.18446062108E+03  0.60860949705E+03  0.92378212023E+02 0.  0.
          3    1    3    3  502    0  0.34568800488E+03  0.57102869190E+01  0.48399384054E+02  0.34910643717E+03  0.00000000000E+00 0. -1.
         -4    1    3    3    0  502 -0.37423685067E+01  0.39730791050E+01  0.55173347944E+00  0.54858991466E+01  0.00000000000E+00 0.  1.
         11    1    5    5    0    0  0.11353994436E+03 -0.52931462063E+02 -0.16094590466E+03  0.20395255053E+03  0.00000000000E+00 0.  1.
        -11    1    5    5    0    0  0.88676853729E+02 -0.13489036142E+03 -0.31470788271E+03  0.35369484790E+03  0.00000000000E+00 0. -1.
          2    1    6    6  503    0 -0.44483822046E+03  0.16307755136E+03 -0.18367879638E+03  0.50814685907E+03  0.00000000000E+00 0. -1.
         -2    1    6    6    0  503 -0.99324214001E+02  0.15060906098E+02 -0.78182470415E+00  0.10046263798E+03  0.00000000000E+00 0.  1.
<mgrwt>
<rscale>  0 0.13926456E+04</rscale>
<asrwt>0</asrwt>
<pdfrwt beam="1">  1        1 0.69975842E-01 0.13926456E+04</pdfrwt>
<pdfrwt beam="2">  1       -2 0.16400096E+00 0.13926456E+04</pdfrwt>
<totfact> 0.10122546E+01</totfact>
</mgrwt>
</event>
<event>
12    4  0.4183215E-008  0.1902515E+04  0.7818608E-02  0.8653605E-01
         -2   -1    0    0    0  501 -0.00000000000E+00  0.00000000000E+00  0.33812007299E+03  0.33812007299E+03  0.00000000000E+00 0.  1.
          1   -1    0    0  501    0  0.00000000000E+00 -0.00000000000E+00 -0.26762421885E+04  0.26762421885E+04  0.00000000000E+00 0. -1.
        -24    2    1    2    0    0 -0.17940811912E+03 -0.12410270395E+03  0.20029218446E+03  0.30631354369E+03  0.78244958648E+02 0.  0.
        254    2    1    2    0    0  0.17940811912E+03  0.12410270395E+03 -0.25384142999E+04  0.27080487178E+04  0.91781912452E+03 0.  0.
         23    2    4    4    0    0  0.19310243065E+03 -0.37342146739E+03 -0.99260033801E+03  0.10815851866E+04  0.88537810421E+02 0.  0.
         23    2    4    4    0    0 -0.13694311532E+02  0.49752417135E+03 -0.15458139619E+04  0.16264635311E+04  0.90138659904E+02 0.  0.
          1    1    3    3  502    0 -0.43250708938E+02 -0.33686752040E+02  0.10142704713E+03  0.11529469622E+03  0.00000000000E+00 0. -1.
         -2    1    3    3    0  502 -0.13615741019E+03 -0.90415951915E+02  0.98865137334E+02  0.19101884747E+03  0.00000000000E+00 0.  1.
         11    1    5    5    0    0  0.11834631842E+03 -0.16269365548E+03 -0.55152495122E+03  0.58707312018E+03  0.00000000000E+00 0.  1.
        -11    1    5    5    0    0  0.74756112232E+02 -0.21072781191E+03 -0.44107538679E+03  0.49451206644E+03  0.00000000000E+00 0. -1.
          3    1    6    6  503    0  0.30858057498E+02  0.30722409426E+03 -0.10083878904E+04  0.10546018212E+04  0.00000000000E+00 0. -1.
         -3    1    6    6    0  503 -0.44552369029E+02  0.19030007708E+03 -0.53742607156E+03  0.57186170995E+03  0.00000000000E+00 0.  1.
<mgrwt>
<rscale>  0 0.19025154E+04</rscale>
<asrwt>0</asrwt>
<pdfrwt beam="1">  1        1 0.41172958E+00 0.19025154E+04</pdfrwt>
<pdfrwt beam="2">  1       -2 0.52018471E-01 0.19025154E+04</pdfrwt>
<totfact> 0.29279616E+00</totfact>
</mgrwt>
</event>
<event>
12    4  0.4183215E-008  0.1996345E+04  0.7818608E-02  0.8608331E-01
         -2   -1    0    0    0  501 -0.00000000000E+00  0.00000000000E+00  0.16461604983E+04  0.16461604983E+04  0.00000000000E+00 0.  1.
          1   -1    0    0  501    0  0.00000000000E+00 -0.00000000000E+00 -0.60525582931E+03  0.60525582931E+03  0.00000000000E+00 0. -1.
        -24    2    1    2    0    0  0.39184867221E+03  0.27690794303E+03  0.11222400795E+04  0.12229061229E+04  0.76506199811E+02 0.  0.
        254    2    1    2    0    0 -0.39184867221E+03 -0.27690794303E+03 -0.81335410533E+02  0.10285102047E+04  0.90608741371E+03 0.  0.
         23    2    4    4    0    0 -0.50253392252E+03 -0.37237274138E+03 -0.34008206092E+03  0.71771931651E+03  0.90903285565E+02 0.  0.
         23    2    4    4    0    0  0.11068525031E+03  0.95464798350E+02  0.25874665039E+03  0.31079088817E+03  0.90974692754E+02 0.  0.
          1    1    3    3  502    0  0.25281469715E+02  0.42826749226E+02  0.91057865693E+02  0.10375364121E+03  0.00000000000E+00 0. -1.
         -2    1    3    3    0  502  0.36656720250E+03  0.23408119380E+03  0.10311822138E+04  0.11191524817E+04  0.00000000000E+00 0.  1.
         11    1    5    5    0    0 -0.98151909535E+02 -0.31606525375E+02 -0.60276455028E+02  0.11944044885E+03  0.00000000000E+00 0.  1.
        -11    1    5    5    0    0 -0.40438201298E+03 -0.34076621600E+03 -0.27980560589E+03  0.59827886765E+03  0.00000000000E+00 0. -1.
          3    1    6    6  503    0  0.14278080800E+02  0.70623972953E+02  0.96441819640E+02  0.12038535510E+03  0.00000000000E+00 0. -1.
         -3    1    6    6    0  503  0.96407169507E+02  0.24840825397E+02  0.16230483075E+03  0.19040553307E+03  0.00000000000E+00 0.  1.
<mgrwt>
<rscale>  0 0.19963449E+04</rscale>
<asrwt>0</asrwt>
<pdfrwt beam="1">  1        1 0.93116282E-01 0.19963449E+04</pdfrwt>
<pdfrwt beam="2">  1       -2 0.25325546E+00 0.19963449E+04</pdfrwt>
<totfact> 0.16861792E+00</totfact>
</mgrwt>
</event>
<event>
12    4  0.4183215E-008  0.1644491E+04  0.7818608E-02  0.8793673E-01
         -2   -1    0    0    0  501 -0.00000000000E+00  0.00000000000E+00  0.73932377173E+03  0.73932377173E+03  0.00000000000E+00 0.  1.
          1   -1    0    0  501    0  0.00000000000E+00 -0.00000000000E+00 -0.91446708509E+03  0.91446708509E+03  0.00000000000E+00 0. -1.
        -24    2    1    2    0    0  0.53714031294E+03  0.19902759767E+03  0.63930982899E+01  0.57856327057E+03  0.81011640705E+02 0.  0.
        254    2    1    2    0    0 -0.53714031294E+03 -0.19902759767E+03 -0.18153641165E+03  0.10752275863E+04  0.89164297400E+03 0.  0.
         23    2    4    4    0    0 -0.53595477680E+03 -0.50418647331E+03 -0.12391889654E+03  0.75173408218E+03  0.91086303866E+02 0.  0.
         23    2    4    4    0    0 -0.11855361322E+01  0.30515887564E+03 -0.57617515106E+02  0.32349350407E+03  0.90581036933E+02 0.  0.
          3    1    3    3  502    0  0.30822798364E+03  0.14863700511E+03 -0.19465449074E+02  0.34274823543E+03  0.00000000000E+00 0. -1.
         -4    1    3    3    0  502  0.22891232930E+03  0.50390592558E+02  0.25858547364E+02  0.23581503513E+03  0.00000000000E+00 0.  1.
         11    1    5    5    0    0 -0.23821486576E+03 -0.17258576962E+03 -0.24929679758E+02  0.29521798569E+03  0.00000000000E+00 0.  1.
        -11    1    5    5    0    0 -0.29773991104E+03 -0.33160070369E+03 -0.98989216782E+02  0.45651609649E+03  0.00000000000E+00 0. -1.
          2    1    6    6  503    0  0.62640410721E+01  0.42017410818E+02  0.22831280902E+02  0.48228294704E+02  0.00000000000E+00 0. -1.
         -2    1    6    6    0  503 -0.74495772043E+01  0.26314146482E+03 -0.80448796008E+02  0.27526520937E+03  0.00000000000E+00 0.  1.
<mgrwt>
<rscale>  0 0.16444905E+04</rscale>
<asrwt>0</asrwt>
<pdfrwt beam="1">  1        1 0.14068724E+00 0.16444905E+04</pdfrwt>
<pdfrwt beam="2">  1       -2 0.11374212E+00 0.16444905E+04</pdfrwt>
<totfact> 0.89856222E+00</totfact>
</mgrwt>
</event>
<event>
12    4  0.4183215E-008  0.1160910E+04  0.7818608E-02  0.9147777E-01
          1   -1    0    0  501    0  0.00000000000E+00  0.00000000000E+00  0.72984604681E+03  0.72984604681E+03  0.00000000000E+00 0. -1.
         -2   -1    0    0    0  501 -0.00000000000E+00 -0.00000000000E+00 -0.46164231410E+03  0.46164231410E+03  0.00000000000E+00 0.  1.
        -24    2    1    2    0    0 -0.80446043121E+02 -0.18292690824E+03 -0.41456401770E+02  0.21865440779E+03  0.78468447071E+02 0.  0.
        254    2    1    2    0    0  0.80446043121E+02  0.18292690824E+03  0.30966013448E+03  0.97283395312E+03  0.90032365394E+03 0.  0.
         23    2    4    4    0    0  0.17762790306E+03  0.24370483834E+03  0.58268530892E+03  0.66253319202E+03  0.92110483225E+02 0.  0.
         23    2    4    4    0    0 -0.97181859934E+02 -0.60777930100E+02 -0.27302517444E+03  0.31030076110E+03  0.92766080935E+02 0.  0.
          1    1    3    3  502    0 -0.88761265382E+02 -0.18526893217E+03 -0.36367573786E+02  0.20862823367E+03  0.00000000000E+00 0. -1.
         -2    1    3    3    0  502  0.83152222613E+01  0.23420239269E+01 -0.50888279845E+01  0.10026174125E+02  0.00000000000E+00 0.  1.
         11    1    5    5    0    0  0.79125612221E+02  0.17497604085E+03  0.31145698488E+03  0.36590016509E+03  0.00000000000E+00 0. -1.
        -11    1    5    5    0    0  0.98502290835E+02  0.68728797492E+02  0.27122832404E+03  0.29663302693E+03  0.00000000000E+00 0.  1.
          3    1    6    6  503    0 -0.47916442513E+02 -0.75865075455E+02 -0.12738581320E+03  0.15581604712E+03  0.00000000000E+00 0. -1.
         -3    1    6    6    0  503 -0.49265417421E+02  0.15087145355E+02 -0.14563936125E+03  0.15448471398E+03  0.00000000000E+00 0.  1.
<mgrwt>
<rscale>  0 0.11609097E+04</rscale>
<asrwt>0</asrwt>
<pdfrwt beam="1">  1        1 0.11228401E+00 0.11609097E+04</pdfrwt>
<pdfrwt beam="2">  1       -2 0.71021895E-01 0.11609097E+04</pdfrwt>
<totfact> 0.40010978E+01</totfact>
</mgrwt>
</event>
<event>
12    4  0.4183215E-008  0.2173137E+04  0.7818608E-02  0.8529693E-01
         -2   -1    0    0    0  501 -0.00000000000E+00  0.00000000000E+00  0.43626510578E+03  0.43626510578E+03  0.00000000000E+00 0.  1.
          1   -1    0    0  501    0  0.00000000000E+00 -0.00000000000E+00 -0.27062245996E+04  0.27062245996E+04  0.00000000000E+00 0. -1.
        -24    2    1    2    0    0  0.43100791043E+03 -0.74054350699E+03 -0.13283458368E+04  0.15827213871E+04  0.79572749687E+02 0.  0.
        254    2    1    2    0    0 -0.43100791043E+03  0.74054350699E+03 -0.94161365703E+03  0.15597683183E+04  0.90114839119E+03 0.  0.
         23    2    4    4    0    0 -0.67457337864E+03  0.65086069101E+03 -0.58345576384E+03  0.11083062370E+04  0.96193577129E+02 0.  0.
         23    2    4    4    0    0  0.24356546821E+03  0.89682815979E+02 -0.35815789319E+03  0.45146208129E+03  0.90409012842E+02 0.  0.
          1    1    3    3  502    0  0.40152979212E+03 -0.69277935304E+03 -0.11998426458E+04  0.14424949846E+04  0.00000000000E+00 0. -1.
         -2    1    3    3    0  502  0.29478118306E+02 -0.47764153954E+02 -0.12850319098E+03  0.14022640249E+03  0.00000000000E+00 0.  1.
         11    1    5    5    0    0 -0.42889169121E+03  0.47595513744E+03 -0.39283952064E+03  0.75153460640E+03  0.00000000000E+00 0. -1.
        -11    1    5    5    0    0 -0.24568168742E+03  0.17490555357E+03 -0.19061624320E+03  0.35677163057E+03  0.00000000000E+00 0.  1.
          3    1    6    6  503    0  0.56634401899E+02  0.77901445747E+01 -0.14735300232E+03  0.15805394371E+03  0.00000000000E+00 0. -1.
         -3    1    6    6    0  503  0.18693106631E+03  0.81892671404E+02 -0.21080489087E+03  0.29340813758E+03  0.00000000000E+00 0.  1.
<mgrwt>
<rscale>  0 0.21731372E+04</rscale>
<asrwt>0</asrwt>
<pdfrwt beam="1">  1        1 0.41634225E+00 0.21731372E+04</pdfrwt>
<pdfrwt beam="2">  1       -2 0.67117708E-01 0.21731372E+04</pdfrwt>
<totfact> 0.15898840E+00</totfact>
</mgrwt>
</event>
<event>
12    4  0.4183215E-008  0.1959391E+04  0.7818608E-02  0.8625846E-01
          1   -1    0    0  501    0  0.00000000000E+00  0.00000000000E+00  0.64274809090E+03  0.64274809090E+03  0.00000000000E+00 0. -1.
         -2   -1    0    0    0  501 -0.00000000000E+00 -0.00000000000E+00 -0.14932802504E+04  0.14932802504E+04  0.00000000000E+00 0.  1.
        -24    2    1    2    0    0 -0.67699698753E+03  0.26340979942E+03 -0.12369789719E+03  0.74127865021E+03  0.80518469530E+02 0.  0.
        254    2    1    2    0    0  0.67699698753E+03 -0.26340979942E+03 -0.72683426230E+03  0.13947496911E+04  0.94304242341E+03 0.  0.
         23    2    4    4    0    0 -0.13375796443E+03 -0.15286328923E+02 -0.48167852813E+03  0.50729153574E+03  0.84885999294E+02 0.  0.
         23    2    4    4    0    0  0.81075495196E+03 -0.24812347050E+03 -0.24515573417E+03  0.88745815534E+03  0.92691934595E+02 0.  0.
          1    1    3    3  502    0 -0.65934440493E+03  0.26770437681E+03 -0.11402240037E+03  0.72069534858E+03  0.00000000000E+00 0. -1.
         -2    1    3    3    0  502 -0.17652582605E+02 -0.42945773944E+01 -0.96754968148E+01  0.20583301636E+02  0.00000000000E+00 0.  1.
         11    1    5    5    0    0  0.30781876553E+01  0.16813028584E+02 -0.77808765952E+02  0.79664027191E+02  0.00000000000E+00 0.  1.
        -11    1    5    5    0    0 -0.13683615208E+03 -0.32099357507E+02 -0.40386976218E+03  0.42762750855E+03  0.00000000000E+00 0. -1.
          2    1    6    6  503    0  0.34793753608E+03 -0.81125962414E+02 -0.14367586263E+03  0.38507753024E+03  0.00000000000E+00 0. -1.
         -2    1    6    6    0  503  0.46281741587E+03 -0.16699750808E+03 -0.10147987154E+03  0.50238062509E+03  0.00000000000E+00 0.  1.
<mgrwt>
<rscale>  0 0.19593908E+04</rscale>
<asrwt>0</asrwt>
<pdfrwt beam="1">  1        1 0.98884323E-01 0.19593908E+04</pdfrwt>
<pdfrwt beam="2">  1       -2 0.22973542E+00 0.19593908E+04</pdfrwt>
<totfact> 0.21656741E+00</totfact>
</mgrwt>
</event>
<event>
12    4  0.4183215E-008  0.1537486E+04  0.7818608E-02  0.8859901E-01
         -2   -1    0    0    0  501 -0.00000000000E+00  0.00000000000E+00  0.82050053037E+03  0.82050053037E+03  0.00000000000E+00 0.  1.
          1   -1    0    0  501    0  0.00000000000E+00 -0.00000000000E+00 -0.72025035381E+03  0.72025035381E+03  0.00000000000E+00 0. -1.
        -24    2    1    2    0    0  0.35509207146E+03 -0.15633543412E+03 -0.27844390703E+03  0.48415361193E+03  0.79640212274E+02 0.  0.
        254    2    1    2    0    0 -0.35509207146E+03  0.15633543412E+03  0.37869408359E+03  0.10565972723E+04  0.90689439276E+03 0.  0.
         23    2    4    4    0    0 -0.51377659380E+03  0.26762913696E+03  0.53340634144E+03  0.79297859784E+03  0.93279087981E+02 0.  0.
         23    2    4    4    0    0  0.15868452234E+03 -0.11129370284E+03 -0.15471225785E+03  0.26361867441E+03  0.89397185879E+02 0.  0.
          1    1    3    3  502    0  0.20418235539E+03 -0.64289709585E+02 -0.11307719166E+03  0.24209513065E+03  0.00000000000E+00 0. -1.
         -2    1    3    3    0  502  0.15090971607E+03 -0.92045724532E+02 -0.16536671536E+03  0.24205848128E+03  0.00000000000E+00 0.  1.
         11    1    5    5    0    0 -0.55666098921E+01  0.20713502033E+02  0.14995775898E+02  0.26170777729E+02  0.00000000000E+00 0. -1.
        -11    1    5    5    0    0 -0.50820998391E+03  0.24691563493E+03  0.51841056555E+03  0.76680782011E+03  0.00000000000E+00 0.  1.
          2    1    6    6  503    0  0.66151179962E+02 -0.60789817358E+01 -0.82711966952E+02  0.10608582425E+03  0.00000000000E+00 0. -1.
         -2    1    6    6    0  503  0.92533342382E+02 -0.10521472111E+03 -0.72000290903E+02  0.15753285016E+03  0.00000000000E+00 0.  1.
<mgrwt>
<rscale>  0 0.15374860E+04</rscale>
<asrwt>0</asrwt>
<pdfrwt beam="1">  1        1 0.11080775E+00 0.15374860E+04</pdfrwt>
<pdfrwt beam="2">  1       -2 0.12623085E+00 0.15374860E+04</pdfrwt>
<totfact> 0.10300870E+01</totfact>
</mgrwt>
</event>
<event>
12    4  0.4183215E-008  0.2947870E+04  0.7818608E-02  0.8258776E-01
          1   -1    0    0  501    0  0.00000000000E+00  0.00000000000E+00  0.16072486209E+04  0.16072486209E+04  0.00000000000E+00 0. -1.
         -2   -1    0    0    0  501 -0.00000000000E+00 -0.00000000000E+00 -0.13516791567E+04  0.13516791567E+04  0.00000000000E+00 0.  1.
        -24    2    1    2    0    0 -0.15305449058E+03  0.12848130344E+04  0.44151844210E+03  0.13694986436E+04  0.80111108220E+02 0.  0.
        254    2    1    2    0    0  0.15305449058E+03 -0.12848130344E+04 -0.18594897793E+03  0.15894291341E+04  0.90417793579E+03 0.  0.
         23    2    4    4    0    0 -0.26230567932E+03 -0.77592679947E+03  0.16266356891E+03  0.84007363221E+03  0.91638438136E+02 0.  0.
         23    2    4    4    0    0  0.41536016990E+03 -0.50888623490E+03 -0.34861254684E+03  0.74935550189E+03  0.92269656937E+02 0.  0.
          3    1    3    3  502    0 -0.51509347327E+02  0.60207162291E+03  0.16962696939E+03  0.62762788396E+03  0.00000000000E+00 0. -1.
         -4    1    3    3    0  502 -0.10154514325E+03  0.68274141145E+03  0.27189147271E+03  0.74187075961E+03  0.00000000000E+00 0.  1.
         11    1    5    5    0    0 -0.16939397216E+03 -0.49286554504E+03  0.14810284631E+03  0.54179813250E+03  0.00000000000E+00 0. -1.
        -11    1    5    5    0    0 -0.92911707157E+02 -0.28306125443E+03  0.14560722605E+02  0.29827549971E+03  0.00000000000E+00 0.  1.
          4    1    6    6  503    0  0.21485774874E+03 -0.23982911749E+03 -0.12142461701E+03  0.34413049183E+03  0.00000000000E+00 0.  1.
         -4    1    6    6    0  503  0.20050242116E+03 -0.26905711741E+03 -0.22718792983E+03  0.40522501006E+03  0.00000000000E+00 0. -1.
<mgrwt>
<rscale>  0 0.29478701E+04</rscale>
<asrwt>0</asrwt>
<pdfrwt beam="1">  1        1 0.24726902E+00 0.29478701E+04</pdfrwt>
<pdfrwt beam="2">  1       -2 0.20795064E+00 0.29478701E+04</pdfrwt>
<totfact> 0.48905029E-01</totfact>
</mgrwt>
</event>
<event>
12    4  0.4183215E-008  0.2227942E+04  0.7818608E-02  0.8506887E-01
          1   -1    0    0  501    0  0.00000000000E+00  0.00000000000E+00  0.69540484814E+03  0.69540484814E+03  0.00000000000E+00 0. -1.
         -2   -1    0    0    0  501 -0.00000000000E+00 -0.00000000000E+00 -0.17844733117E+04  0.17844733117E+04  0.00000000000E+00 0.  1.
        -24    2    1    2    0    0  0.24463632096E+03  0.89131911936E+03 -0.30417286084E+03  0.97625003516E+03  0.79033535955E+02 0.  0.
        254    2    1    2    0    0 -0.24463632096E+03 -0.89131911936E+03 -0.78489560272E+03  0.15036281247E+04  0.88912301066E+03 0.  0.
         23    2    4    4    0    0  0.25701867231E+03 -0.15690173563E+03 -0.45050082493E+03  0.54908648838E+03  0.88703020826E+02 0.  0.
         23    2    4    4    0    0 -0.50165499327E+03 -0.73441738373E+03 -0.33439477779E+03  0.95454163630E+03  0.91122127997E+02 0.  0.
          1    1    3    3  502    0  0.82864494069E+02  0.29602147820E+03 -0.14070103257E+03  0.33807102878E+03  0.00000000000E+00 0. -1.
         -2    1    3    3    0  502  0.16177182689E+03  0.59529764116E+03 -0.16347182827E+03  0.63817900638E+03  0.00000000000E+00 0.  1.
         11    1    5    5    0    0  0.29820620085E+01 -0.27741298987E+02 -0.54149281559E+02  0.60914834455E+02  0.00000000000E+00 0.  1.
        -11    1    5    5    0    0  0.25403661030E+03 -0.12916043664E+03 -0.39635154337E+03  0.48817165393E+03  0.00000000000E+00 0. -1.
          1    1    6    6  503    0 -0.32465693712E+03 -0.53757165550E+03 -0.21124114312E+03  0.66257696320E+03  0.00000000000E+00 0. -1.
         -1    1    6    6    0  503 -0.17699805615E+03 -0.19684572823E+03 -0.12315363467E+03  0.29196467310E+03  0.00000000000E+00 0.  1.
<mgrwt>
<rscale>  0 0.22279420E+04</rscale>
<asrwt>0</asrwt>
<pdfrwt beam="1">  1        1 0.10698536E+00 0.22279420E+04</pdfrwt>
<pdfrwt beam="2">  1       -2 0.27453435E+00 0.22279420E+04</pdfrwt>
<totfact> 0.99738201E-01</totfact>
</mgrwt>
</event>
<event>
12    4  0.4183215E-008  0.1457376E+04  0.7818608E-02  0.8913303E-01
         -2   -1    0    0    0  501 -0.00000000000E+00  0.00000000000E+00  0.59031105380E+03  0.59031105380E+03  0.00000000000E+00 0.  1.
          1   -1    0    0  501    0  0.00000000000E+00 -0.00000000000E+00 -0.89950202096E+03  0.89950202096E+03  0.00000000000E+00 0. -1.
        -24    2    1    2    0    0 -0.42917011136E+03 -0.12287686748E+03 -0.16654341982E+03  0.48253859540E+03  0.76295978361E+02 0.  0.
        254    2    1    2    0    0  0.42917011136E+03  0.12287686748E+03 -0.14264754734E+03  0.10072744794E+04  0.89160969319E+03 0.  0.
         23    2    4    4    0    0  0.93689399837E+02 -0.33892289577E+03  0.10364582360E+03  0.37830688183E+03  0.93419522414E+02 0.  0.
         23    2    4    4    0    0  0.33548071153E+03  0.46179976325E+03 -0.24629337094E+03  0.62896759754E+03  0.95569268303E+02 0.  0.
          1    1    3    3  502    0 -0.56622949643E+02  0.43680414846E+01 -0.50204525619E+01  0.57012657863E+02  0.00000000000E+00 0. -1.
         -2    1    3    3    0  502 -0.37254716172E+03 -0.12724490896E+03 -0.16152296725E+03  0.42552593753E+03  0.00000000000E+00 0.  1.
         11    1    5    5    0    0  0.25675247958E+02 -0.25275429481E+03  0.72296347379E+02  0.26414146540E+03  0.00000000000E+00 0. -1.
        -11    1    5    5    0    0  0.68014151879E+02 -0.86168600968E+02  0.31349476222E+02  0.11416541643E+03  0.00000000000E+00 0.  1.
          3    1    6    6  503    0  0.58305981557E+01 -0.45209783004E+01 -0.55121533355E+01  0.92097206277E+01  0.00000000000E+00 0. -1.
         -3    1    6    6    0  503  0.32965011337E+03  0.46632074155E+03 -0.24078121761E+03  0.61975787692E+03  0.00000000000E+00 0.  1.
<mgrwt>
<rscale>  0 0.14573757E+04</rscale>
<asrwt>0</asrwt>
<pdfrwt beam="1">  1        1 0.13838492E+00 0.14573757E+04</pdfrwt>
<pdfrwt beam="2">  1       -2 0.90817086E-01 0.14573757E+04</pdfrwt>
<totfact> 0.16036608E+01</totfact>
</mgrwt>
</event>
<event>
12    4  0.4183215E-008  0.2553841E+04  0.7818608E-02  0.8384052E-01
          1   -1    0    0  501    0  0.00000000000E+00  0.00000000000E+00  0.12613370127E+04  0.12613370127E+04  0.00000000000E+00 0. -1.
         -2   -1    0    0    0  501 -0.00000000000E+00 -0.00000000000E+00 -0.12926963762E+04  0.12926963762E+04  0.00000000000E+00 0.  1.
        -24    2    1    2    0    0  0.34465069534E+02 -0.46045938622E+03  0.10054600068E+04  0.11092682915E+04  0.79470936774E+02 0.  0.
        254    2    1    2    0    0 -0.34465069534E+02  0.46045938622E+03 -0.10368193704E+04  0.14447650974E+04  0.89394691810E+03 0.  0.
         23    2    4    4    0    0 -0.11968143955E+03  0.65161846157E+03 -0.42804399075E+03  0.79426144014E+03  0.93270096186E+02 0.  0.
         23    2    4    4    0    0  0.85216370021E+02 -0.19115907535E+03 -0.60877537967E+03  0.65050365725E+03  0.93508948233E+02 0.  0.
          3    1    3    3  502    0  0.40381895608E+02 -0.41863445246E+03  0.95467875882E+03  0.10432147597E+04  0.00000000000E+00 0. -1.
         -4    1    3    3    0  502 -0.59168260742E+01 -0.41824933760E+02  0.50781248029E+02  0.66053531822E+02  0.00000000000E+00 0.  1.
         11    1    5    5    0    0 -0.13554493175E+03  0.56899710403E+03 -0.37483773033E+03  0.69471825727E+03  0.00000000000E+00 0. -1.
        -11    1    5    5    0    0  0.15863492192E+02  0.82621357540E+02 -0.53206260421E+02  0.99543182862E+02  0.00000000000E+00 0.  1.
          3    1    6    6  503    0  0.73484079261E+02 -0.57870150501E+02 -0.21029474704E+03  0.23015808666E+03  0.00000000000E+00 0. -1.
         -3    1    6    6    0  503  0.11732290761E+02 -0.13328892485E+03 -0.39848063263E+03  0.42034557059E+03  0.00000000000E+00 0.  1.
<mgrwt>
<rscale>  0 0.25538409E+04</rscale>
<asrwt>0</asrwt>
<pdfrwt beam="1">  1        1 0.19405185E+00 0.25538409E+04</pdfrwt>
<pdfrwt beam="2">  1       -2 0.19887636E+00 0.25538409E+04</pdfrwt>
<totfact> 0.10124027E+00</totfact>
</mgrwt>
</event>
<event>
12    4  0.4183215E-008  0.1668264E+04  0.7818608E-02  0.8779674E-01
          1   -1    0    0  501    0  0.00000000000E+00  0.00000000000E+00  0.75672427494E+03  0.75672427494E+03  0.00000000000E+00 0. -1.
         -2   -1    0    0    0  501 -0.00000000000E+00 -0.00000000000E+00 -0.91945807833E+03  0.91945807833E+03  0.00000000000E+00 0.  1.
        -24    2    1    2    0    0  0.28471674044E+03  0.13634506854E+03 -0.55895748543E+03  0.64689269111E+03  0.79894200695E+02 0.  0.
        254    2    1    2    0    0 -0.28471674044E+03 -0.13634506854E+03  0.39622368203E+03  0.10292896622E+04  0.89598571552E+03 0.  0.
         23    2    4    4    0    0 -0.89233396722E+02  0.29303936443E+03  0.44291932112E+03  0.54619444163E+03  0.91193063629E+02 0.  0.
         23    2    4    4    0    0 -0.19548334371E+03 -0.42938443297E+03 -0.46695639087E+02  0.48309522052E+03  0.92821228359E+02 0.  0.
          1    1    3    3  502    0  0.98039714835E+02  0.13824234849E+02 -0.13125374935E+03  0.16440937283E+03  0.00000000000E+00 0. -1.
         -2    1    3    3    0  502  0.18667702560E+03  0.12252083369E+03 -0.42770373608E+03  0.48248331829E+03  0.00000000000E+00 0.  1.
         11    1    5    5    0    0 -0.81435371938E+02  0.13103387830E+03  0.25420278970E+03  0.29735610866E+03  0.00000000000E+00 0. -1.
        -11    1    5    5    0    0 -0.77980247840E+01  0.16200548613E+03  0.18871653142E+03  0.24883833298E+03  0.00000000000E+00 0.  1.
          1    1    6    6  503    0 -0.12766727740E+02 -0.54194864387E+02  0.22553520039E+02  0.60072738653E+02  0.00000000000E+00 0. -1.
         -1    1    6    6    0  503 -0.18271661597E+03 -0.37518956858E+03 -0.69249159125E+02  0.42302248186E+03  0.00000000000E+00 0.  1.
<mgrwt>
<rscale>  0 0.16682641E+04</rscale>
<asrwt>0</asrwt>
<pdfrwt beam="1">  1        1 0.11641912E+00 0.16682641E+04</pdfrwt>
<pdfrwt beam="2">  1       -2 0.14145509E+00 0.16682641E+04</pdfrwt>
<totfact> 0.70537413E+00</totfact>
</mgrwt>
</event>
<event>
12    4  0.4183215E-008  0.2686756E+04  0.7818608E-02  0.8339315E-01
         -2   -1    0    0    0  501 -0.00000000000E+00  0.00000000000E+00  0.55103157930E+03  0.55103157930E+03  0.00000000000E+00 0.  1.
          1   -1    0    0  501    0  0.00000000000E+00 -0.00000000000E+00 -0.32750650094E+04  0.32750650094E+04  0.00000000000E+00 0. -1.
        -24    2    1    2    0    0 -0.68126523951E+03 -0.95988320729E+03 -0.11863104591E+04  0.16730836369E+04  0.79863962689E+02 0.  0.
        254    2    1    2    0    0  0.68126523951E+03  0.95988320729E+03 -0.15377229710E+04  0.21530129517E+04  0.94094353539E+03 0.  0.
         23    2    4    4    0    0  0.63760836258E+03  0.74815621122E+03 -0.53324488912E+03  0.11215426753E+04  0.85004236554E+02 0.  0.
         23    2    4    4    0    0  0.43656876933E+02  0.21172699607E+03 -0.10044780818E+04  0.10314702765E+04  0.90666811051E+02 0.  0.
          1    1    3    3  502    0 -0.40258794137E+02 -0.47884143298E+02 -0.89816829218E+02  0.10945649590E+03  0.00000000000E+00 0. -1.
         -2    1    3    3    0  502 -0.64100644538E+03 -0.91199906399E+03 -0.10964936299E+04  0.15636271410E+04  0.00000000000E+00 0.  1.
         11    1    5    5    0    0  0.61668041967E+03  0.73893598089E+03 -0.51126047789E+03  0.10898203522E+04  0.00000000000E+00 0. -1.
        -11    1    5    5    0    0  0.20927942912E+02  0.92202303248E+01 -0.21984411224E+02  0.31722323034E+02  0.00000000000E+00 0.  1.
          1    1    6    6  503    0  0.30320854201E+02  0.19152831643E+03 -0.97091522550E+03  0.99009031169E+03  0.00000000000E+00 0. -1.
         -1    1    6    6    0  503  0.13336022732E+02  0.20198679640E+02 -0.33562856336E+02  0.41379964801E+02  0.00000000000E+00 0.  1.
<mgrwt>
<rscale>  0 0.26867558E+04</rscale>
<asrwt>0</asrwt>
<pdfrwt beam="1">  1        1 0.50385615E+00 0.26867558E+04</pdfrwt>
<pdfrwt beam="2">  1       -2 0.84774089E-01 0.26867558E+04</pdfrwt>
<totfact> 0.34768473E-01</totfact>
</mgrwt>
</event>
<event>
12    4  0.4183215E-008  0.2457967E+04  0.7818608E-02  0.8418115E-01
          1   -1    0    0  501    0  0.00000000000E+00  0.00000000000E+00  0.20744541026E+04  0.20744541026E+04  0.00000000000E+00 0. -1.
         -2   -1    0    0    0  501 -0.00000000000E+00 -0.00000000000E+00 -0.72809508662E+03  0.72809508662E+03  0.00000000000E+00 0.  1.
        -24    2    1    2    0    0  0.61229913886E+03 -0.60969850317E+03  0.12781837378E+04  0.15449018638E+04  0.79533646895E+02 0.  0.
        254    2    1    2    0    0 -0.61229913886E+03  0.60969850317E+03  0.68175278170E+02  0.12576473254E+04  0.91125541223E+03 0.  0.
         23    2    4    4    0    0 -0.76037653079E+03  0.70653648071E+03 -0.16881214636E+02  0.10420072702E+04  0.90154914057E+02 0.  0.
         23    2    4    4    0    0  0.14807739192E+03 -0.96837977535E+02  0.85056492806E+02  0.21564005524E+03  0.89227342011E+02 0.  0.
          3    1    3    3  502    0  0.45938032395E+03 -0.43469061642E+03  0.87686323861E+03  0.10811453895E+04  0.00000000000E+00 0. -1.
         -4    1    3    3    0  502  0.15291881492E+03 -0.17500788675E+03  0.40132049917E+03  0.46375647428E+03  0.00000000000E+00 0.  1.
         11    1    5    5    0    0 -0.18540129257E+03  0.12871216681E+03  0.15295174991E+02  0.22621760221E+03  0.00000000000E+00 0. -1.
        -11    1    5    5    0    0 -0.57497523822E+03  0.57782431390E+03 -0.32176389627E+02  0.81578966796E+03  0.00000000000E+00 0.  1.
          1    1    6    6  503    0  0.13605319544E+02  0.16907989530E+02  0.55608055528E+01  0.22403289674E+02  0.00000000000E+00 0. -1.
         -1    1    6    6    0  503  0.13447207238E+03 -0.11374596706E+03  0.79495687253E+02  0.19323676556E+03  0.00000000000E+00 0.  1.
<mgrwt>
<rscale>  0 0.24579665E+04</rscale>
<asrwt>0</asrwt>
<pdfrwt beam="1">  1        1 0.31914678E+00 0.24579665E+04</pdfrwt>
<pdfrwt beam="2">  1       -2 0.11201463E+00 0.24579665E+04</pdfrwt>
<totfact> 0.13065391E+00</totfact>
</mgrwt>
</event>
<event>
12    4  0.4183215E-008  0.2324963E+04  0.7818608E-02  0.8468143E-01
          1   -1    0    0  501    0  0.00000000000E+00  0.00000000000E+00  0.65922583490E+03  0.65922583490E+03  0.00000000000E+00 0. -1.
         -2   -1    0    0    0  501 -0.00000000000E+00 -0.00000000000E+00 -0.20499244816E+04  0.20499244816E+04  0.00000000000E+00 0.  1.
        -24    2    1    2    0    0  0.13225159533E+03  0.16992639910E+03  0.53004663409E+03  0.57751219187E+03  0.78774563611E+02 0.  0.
        254    2    1    2    0    0 -0.13225159533E+03 -0.16992639910E+03 -0.19207452807E+04  0.21316381246E+04  0.89902902907E+03 0.  0.
         23    2    4    4    0    0 -0.24173073359E+02  0.21365785186E+03 -0.15870606127E+04  0.16038939597E+04  0.86489482304E+02 0.  0.
         23    2    4    4    0    0 -0.10807852197E+03 -0.38358425096E+03 -0.33368466804E+03  0.52774416485E+03  0.91381624801E+02 0.  0.
          1    1    3    3  502    0  0.95343110210E+02  0.15860875718E+03  0.38127310138E+03  0.42381154344E+03  0.00000000000E+00 0. -1.
         -4    1    3    3    0  502  0.36908485118E+02  0.11317641916E+02  0.14877353271E+03  0.15370064842E+03  0.00000000000E+00 0.  1.
         11    1    5    5    0    0 -0.53965005946E+02  0.16925984722E+03 -0.11671880306E+04  0.11806307706E+04  0.00000000000E+00 0. -1.
        -11    1    5    5    0    0  0.29791932587E+02  0.44398004641E+02 -0.41987258210E+03  0.42326318912E+03  0.00000000000E+00 0.  1.
          3    1    6    6  503    0 -0.47138623910E+02 -0.19245560389E+03 -0.22417545673E+03  0.29919198641E+03  0.00000000000E+00 0. -1.
         -3    1    6    6    0  503 -0.60939898059E+02 -0.19112864707E+03 -0.10950921131E+03  0.22855217843E+03  0.00000000000E+00 0.  1.
<mgrwt>
<rscale>  0 0.23249629E+04</rscale>
<asrwt>0</asrwt>
<pdfrwt beam="1">  1        1 0.10141936E+00 0.23249629E+04</pdfrwt>
<pdfrwt beam="2">  1       -2 0.31537299E+00 0.23249629E+04</pdfrwt>
<totfact> 0.60311537E-01</totfact>
</mgrwt>
</event>
<event>
12    4  0.4183215E-008  0.1195776E+04  0.7818608E-02  0.9116562E-01
         -4   -1    0    0    0  501 -0.00000000000E+00  0.00000000000E+00  0.28560636212E+03  0.28560636212E+03  0.00000000000E+00 0.  1.
          1   -1    0    0  501    0  0.00000000000E+00 -0.00000000000E+00 -0.12516173808E+04  0.12516173808E+04  0.00000000000E+00 0. -1.
        -24    2    1    2    0    0 -0.21271210915E+03 -0.82693781492E+01 -0.37382432166E+03  0.43729738367E+03  0.78546510471E+02 0.  0.
        254    2    1    2    0    0  0.21271210915E+03  0.82693781492E+01 -0.59218669699E+03  0.10999263592E+04  0.90212975098E+03 0.  0.
         23    2    4    4    0    0  0.11010538557E+03 -0.10074187905E+02 -0.82029613527E+03  0.83281058136E+03  0.91994726374E+02 0.  0.
         23    2    4    4    0    0  0.10260672358E+03  0.18343566055E+02  0.22810943829E+03  0.26711577785E+03  0.91936373670E+02 0.  0.
          1    1    3    3  502    0 -0.15902007796E+03 -0.64106030564E+01 -0.33540975723E+03  0.37125218689E+03  0.00000000000E+00 0. -1.
         -2    1    3    3    0  502 -0.53692031180E+02 -0.18587750928E+01 -0.38414564436E+02  0.66045196782E+02  0.00000000000E+00 0.  1.
         11    1    5    5    0    0  0.44612421795E+02  0.36800753073E+02 -0.23563167159E+03  0.24262491270E+03  0.00000000000E+00 0. -1.
        -11    1    5    5    0    0  0.65492963773E+02 -0.46874940978E+02 -0.58466446368E+03  0.59018566866E+03  0.00000000000E+00 0.  1.
          1    1    6    6  503    0  0.24824470704E+02 -0.24106698446E+02  0.13169843066E+03  0.13616851286E+03  0.00000000000E+00 0. -1.
         -1    1    6    6    0  503  0.77782252873E+02  0.42450264501E+02  0.96411007630E+02  0.13094726500E+03  0.00000000000E+00 0.  1.
<mgrwt>
<rscale>  0 0.11957757E+04</rscale>
<asrwt>0</asrwt>
<pdfrwt beam="1">  1        1 0.19255653E+00 0.11957757E+04</pdfrwt>
<pdfrwt beam="2">  1       -4 0.43939439E-01 0.11957757E+04</pdfrwt>
<totfact> 0.23971863E+01</totfact>
</mgrwt>
</event>
<event>
12    4  0.4183215E-008  0.1428648E+04  0.7818608E-02  0.8933339E-01
         -2   -1    0    0    0  501 -0.00000000000E+00  0.00000000000E+00  0.85930271309E+03  0.85930271309E+03  0.00000000000E+00 0.  1.
          1   -1    0    0  501    0  0.00000000000E+00 -0.00000000000E+00 -0.59380588727E+03  0.59380588727E+03  0.00000000000E+00 0. -1.
        -24    2    1    2    0    0 -0.26838468122E+03  0.17148841288E+03  0.25713167637E+03  0.41688231709E+03  0.78965526910E+02 0.  0.
        254    2    1    2    0    0  0.26838468122E+03 -0.17148841288E+03  0.83651494522E+01  0.10362262833E+04  0.98603058854E+03 0.  0.
         23    2    4    4    0    0  0.14461288963E+03 -0.53504408372E+03 -0.19171800606E+03  0.59361941981E+03  0.91886682169E+02 0.  0.
         23    2    4    4    0    0  0.12377179159E+03  0.36355567084E+03  0.20008315551E+03  0.44260686346E+03  0.91517125573E+02 0.  0.
          3    1    3    3  502    0 -0.22975276440E+02  0.38858240996E+02  0.15208598624E+02  0.47635361790E+02  0.00000000000E+00 0. -1.
         -4    1    3    3    0  502 -0.24540940478E+03  0.13263017188E+03  0.24192307775E+03  0.36924695530E+03  0.00000000000E+00 0.  1.
         11    1    5    5    0    0  0.12201504555E+02 -0.15734278905E+03 -0.23869847002E+02  0.15961014872E+03  0.00000000000E+00 0.  1.
        -11    1    5    5    0    0  0.13241138508E+03 -0.37770129467E+03 -0.16784815905E+03  0.43400927108E+03  0.00000000000E+00 0. -1.
          2    1    6    6  503    0  0.83475959891E+02  0.30376453303E+03  0.12617545864E+03  0.33935434839E+03  0.00000000000E+00 0. -1.
         -2    1    6    6    0  503  0.40295831702E+02  0.59791137808E+02  0.73907696868E+02  0.10325251507E+03  0.00000000000E+00 0.  1.
<mgrwt>
<rscale>  0 0.14286483E+04</rscale>
<asrwt>0</asrwt>
<pdfrwt beam="1">  1        1 0.91354752E-01 0.14286483E+04</pdfrwt>
<pdfrwt beam="2">  1       -2 0.13220042E+00 0.14286483E+04</pdfrwt>
<totfact> 0.12312079E+01</totfact>
</mgrwt>
</event>
<event>
12    4  0.4183215E-008  0.2138423E+04  0.7818608E-02  0.8544504E-01
         -2   -1    0    0    0  501 -0.00000000000E+00  0.00000000000E+00  0.69725234021E+03  0.69725234021E+03  0.00000000000E+00 0.  1.
          1   -1    0    0  501    0  0.00000000000E+00 -0.00000000000E+00 -0.16395969073E+04  0.16395969073E+04  0.00000000000E+00 0. -1.
        -24    2    1    2    0    0 -0.43367570498E+03  0.76384129995E+03 -0.40205813310E+03  0.96932064723E+03  0.80022660186E+02 0.  0.
        254    2    1    2    0    0  0.43367570498E+03 -0.76384129995E+03 -0.54028643401E+03  0.13675286003E+04  0.89816306606E+03 0.  0.
         23    2    4    4    0    0  0.44125268204E+03 -0.73127337041E+03 -0.43621891058E+02  0.86042659935E+03  0.94691033425E+02 0.  0.
         23    2    4    4    0    0 -0.75769770573E+01 -0.32567929547E+02 -0.49666454295E+03  0.50710200094E+03  0.96740325207E+02 0.  0.
          1    1    3    3  502    0 -0.38884280138E+03  0.71346505203E+03 -0.38801484636E+03  0.90043690820E+03  0.00000000000E+00 0. -1.
         -2    1    3    3    0  502 -0.44832903598E+02  0.50376247927E+02 -0.14043286746E+02  0.68883739031E+02  0.00000000000E+00 0.  1.
         11    1    5    5    0    0  0.41028236408E+03 -0.67867682189E+03 -0.15456180742E+02  0.79320409754E+03  0.00000000000E+00 0.  1.
        -11    1    5    5    0    0  0.30970317962E+02 -0.52596548522E+02 -0.28165710316E+02  0.67222501804E+02  0.00000000000E+00 0. -1.
          4    1    6    6  503    0  0.23312509858E+02  0.25801180292E+02 -0.13184217987E+03  0.13635077709E+03  0.00000000000E+00 0. -1.
         -4    1    6    6    0  503 -0.30889486916E+02 -0.58369109839E+02 -0.36482236308E+03  0.37075122385E+03  0.00000000000E+00 0.  1.
<mgrwt>
<rscale>  0 0.21384226E+04</rscale>
<asrwt>0</asrwt>
<pdfrwt beam="1">  1        1 0.25224568E+00 0.21384226E+04</pdfrwt>
<pdfrwt beam="2">  1       -2 0.10726959E+00 0.21384226E+04</pdfrwt>
<totfact> 0.29453701E+00</totfact>
</mgrwt>
</event>
<event>
12    4  0.4183215E-008  0.1101654E+04  0.7818608E-02  0.9203582E-01
         -2   -1    0    0    0  501 -0.00000000000E+00  0.00000000000E+00  0.58833337574E+03  0.58833337574E+03  0.00000000000E+00 0.  1.
          1   -1    0    0  501    0  0.00000000000E+00 -0.00000000000E+00 -0.51571141540E+03  0.51571141540E+03  0.00000000000E+00 0. -1.
        -24    2    1    2    0    0 -0.14681629059E+03  0.10015708086E+03  0.29536189950E+02  0.19677805930E+03  0.79137564244E+02 0.  0.
        254    2    1    2    0    0  0.14681629059E+03 -0.10015708086E+03  0.43085770394E+02  0.90726673184E+03  0.88864507823E+03 0.  0.
         23    2    4    4    0    0 -0.19176046625E+03 -0.62565975202E+02 -0.32781672758E+03  0.39579442755E+03  0.92210868806E+02 0.  0.
         23    2    4    4    0    0  0.33857675685E+03 -0.37591105663E+02  0.37090249797E+03  0.51147230429E+03  0.89375296096E+02 0.  0.
          1    1    3    3  502    0  0.77299811051E+01  0.10984436757E+01  0.92317349255E+01  0.12090662353E+02  0.00000000000E+00 0. -1.
         -2    1    3    3    0  502 -0.15454627170E+03  0.99058637189E+02  0.20304455024E+02  0.18468739695E+03  0.00000000000E+00 0.  1.
         11    1    5    5    0    0 -0.12951086224E+03 -0.12766417900E+02 -0.13681239682E+03  0.18882181227E+03  0.00000000000E+00 0.  1.
        -11    1    5    5    0    0 -0.62249604013E+02 -0.49799557302E+02 -0.19100433076E+03  0.20697261528E+03  0.00000000000E+00 0. -1.
          1    1    6    6  503    0  0.73610555249E+02 -0.60799040916E+00  0.13956633560E+03  0.15778987778E+03  0.00000000000E+00 0. -1.
         -1    1    6    6    0  503  0.26496620160E+03 -0.36983115254E+02  0.23133616237E+03  0.35368242651E+03  0.00000000000E+00 0.  1.
<mgrwt>
<rscale>  0 0.11016537E+04</rscale>
<asrwt>0</asrwt>
<pdfrwt beam="1">  1        1 0.79340218E-01 0.11016537E+04</pdfrwt>
<pdfrwt beam="2">  1       -2 0.90512827E-01 0.11016537E+04</pdfrwt>
<totfact> 0.38606791E+01</totfact>
</mgrwt>
</event>
<event>
12    4  0.4183215E-008  0.1634087E+04  0.7818608E-02  0.8799877E-01
         -2   -1    0    0    0  501 -0.00000000000E+00  0.00000000000E+00  0.55221638465E+03  0.55221638465E+03  0.00000000000E+00 0.  1.
          1   -1    0    0  501    0  0.00000000000E+00 -0.00000000000E+00 -0.12088738848E+04  0.12088738848E+04  0.00000000000E+00 0. -1.
        -24    2    1    2    0    0 -0.76258417780E+01  0.52420221387E+03 -0.45084559149E+03  0.69611454471E+03  0.80421374684E+02 0.  0.
        254    2    1    2    0    0  0.76258417780E+01 -0.52420221387E+03 -0.20581190861E+03  0.10649757247E+04  0.90386317436E+03 0.  0.
         23    2    4    4    0    0 -0.98961338291E+02 -0.62140633252E+03  0.16457314553E+03  0.65696420999E+03  0.92620064824E+02 0.  0.
         23    2    4    4    0    0  0.10658718007E+03  0.97204118650E+02 -0.37038505414E+03  0.40801151470E+03  0.92080617717E+02 0.  0.
          3    1    3    3  502    0  0.14512503409E+02  0.48189402696E+03 -0.41875379702E+03  0.63858218617E+03  0.00000000000E+00 0. -1.
         -4    1    3    3    0  502 -0.22138345187E+02  0.42308186911E+02 -0.32091794469E+02  0.57532358543E+02  0.00000000000E+00 0.  1.
         11    1    5    5    0    0  0.17266338404E+02 -0.12219828002E+03  0.28848224266E+02  0.12673896845E+03  0.00000000000E+00 0. -1.
        -11    1    5    5    0    0 -0.11622767669E+03 -0.49920805250E+03  0.13572492126E+03  0.53022524154E+03  0.00000000000E+00 0.  1.
          2    1    6    6  503    0  0.26240295086E+02 -0.13450529207E+02 -0.34668827297E+02  0.45512607136E+02  0.00000000000E+00 0. -1.
         -2    1    6    6    0  503  0.80346884983E+02  0.11065464786E+03 -0.33571622684E+03  0.36249890756E+03  0.00000000000E+00 0.  1.
<mgrwt>
<rscale>  0 0.16340869E+04</rscale>
<asrwt>0</asrwt>
<pdfrwt beam="1">  1        1 0.18598060E+00 0.16340869E+04</pdfrwt>
<pdfrwt beam="2">  1       -2 0.84956367E-01 0.16340869E+04</pdfrwt>
<totfact> 0.10657792E+01</totfact>
</mgrwt>
</event>
<event>
12    4  0.4183215E-008  0.2364433E+04  0.7818608E-02  0.8452941E-01
          1   -1    0    0  501    0  0.00000000000E+00  0.00000000000E+00  0.37586297375E+04  0.37586297375E+04  0.00000000000E+00 0. -1.
         -2   -1    0    0    0  501 -0.00000000000E+00 -0.00000000000E+00 -0.37184722411E+03  0.37184722411E+03  0.00000000000E+00 0.  1.
        -24    2    1    2    0    0  0.23494387776E+03 -0.56389063015E+03  0.28536488605E+04  0.29194064220E+04  0.80316680961E+02 0.  0.
        254    2    1    2    0    0 -0.23494387776E+03  0.56389063015E+03  0.53313365292E+03  0.12110705397E+04  0.89960496424E+03 0.  0.
         23    2    4    4    0    0 -0.22130478498E+03 -0.90763008261E+02  0.48384345354E+03  0.54677875002E+03  0.87457317692E+02 0.  0.
         23    2    4    4    0    0 -0.13639092784E+02  0.65465363841E+03  0.49290199388E+02  0.66429178964E+03  0.10048207248E+03 0.  0.
          3    1    3    3  502    0  0.20528078430E+03 -0.47014214011E+03  0.25141420537E+04  0.25659470178E+04  0.00000000000E+00 0. -1.
         -4    1    3    3    0  502  0.29663093461E+02 -0.93748490046E+02  0.33950680680E+03  0.35345940412E+03  0.00000000000E+00 0.  1.
         11    1    5    5    0    0 -0.17366923347E+03 -0.70747496406E+02  0.44252848204E+03  0.48062216794E+03  0.00000000000E+00 0.  1.
        -11    1    5    5    0    0 -0.47635551504E+02 -0.20015511855E+02  0.41314971499E+02  0.66156582076E+02  0.00000000000E+00 0. -1.
          3    1    6    6  503    0 -0.11163913063E+02  0.45973196780E+01 -0.18841448156E+01  0.12219586932E+02  0.00000000000E+00 0. -1.
         -3    1    6    6    0  503 -0.24751797213E+01  0.65005631874E+03  0.51174344203E+02  0.65207220271E+03  0.00000000000E+00 0.  1.
<mgrwt>
<rscale>  0 0.23644332E+04</rscale>
<asrwt>0</asrwt>
<pdfrwt beam="1">  1        1 0.57825070E+00 0.23644332E+04</pdfrwt>
<pdfrwt beam="2">  1       -2 0.57207268E-01 0.23644332E+04</pdfrwt>
<totfact> 0.35014232E-01</totfact>
</mgrwt>
</event>
<event>
12    4  0.4183215E-008  0.1229077E+04  0.7818608E-02  0.9087779E-01
         -4   -1    0    0    0  501 -0.00000000000E+00  0.00000000000E+00  0.18362716765E+03  0.18362716765E+03  0.00000000000E+00 0.  1.
          1   -1    0    0  501    0  0.00000000000E+00 -0.00000000000E+00 -0.20566550935E+04  0.20566550935E+04  0.00000000000E+00 0. -1.
        -24    2    1    2    0    0  0.27176264683E+03 -0.12044884388E+02 -0.30015320279E+03  0.41267220379E+03  0.78780627003E+02 0.  0.
        254    2    1    2    0    0 -0.27176264683E+03  0.12044884388E+02 -0.15728747230E+04  0.18276100573E+04  0.89006944216E+03 0.  0.
         23    2    4    4    0    0  0.39117790550E+02 -0.17134677807E+03 -0.14068768405E+04  0.14207107722E+04  0.90701344239E+02 0.  0.
         23    2    4    4    0    0 -0.31088043738E+03  0.18339166246E+03 -0.16599788251E+03  0.40689928517E+03  0.87935107172E+02 0.  0.
          1    1    3    3  502    0 -0.44657567790E+01 -0.49259477390E+01 -0.47081433998E+01  0.81470583041E+01  0.00000000000E+00 0. -1.
         -2    1    3    3    0  502  0.27622840361E+03 -0.71189366495E+01 -0.29544505939E+03  0.40452514549E+03  0.00000000000E+00 0.  1.
         11    1    5    5    0    0  0.17840978753E+02 -0.88513291490E+01 -0.40746400084E+03  0.40795043636E+03  0.00000000000E+00 0.  1.
        -11    1    5    5    0    0  0.21276811797E+02 -0.16249544892E+03 -0.99941283968E+03  0.10127603358E+04  0.00000000000E+00 0. -1.
          1    1    6    6  503    0 -0.19371754968E+03  0.10899537555E+03 -0.14778690906E+03  0.26692218236E+03  0.00000000000E+00 0. -1.
         -1    1    6    6    0  503 -0.11716288769E+03  0.74396286907E+02 -0.18210973458E+02  0.13997710282E+03  0.00000000000E+00 0.  1.
<mgrwt>
<rscale>  0 0.12290773E+04</rscale>
<asrwt>0</asrwt>
<pdfrwt beam="1">  1        1 0.31640849E+00 0.12290773E+04</pdfrwt>
<pdfrwt beam="2">  1       -4 0.28250333E-01 0.12290773E+04</pdfrwt>
<totfact> 0.16202757E+01</totfact>
</mgrwt>
</event>
<event>
12    4  0.4183215E-008  0.1373901E+04  0.7818608E-02  0.8972930E-01
          1   -1    0    0  501    0  0.00000000000E+00  0.00000000000E+00  0.37279998276E+03  0.37279998276E+03  0.00000000000E+00 0. -1.
         -2   -1    0    0    0  501 -0.00000000000E+00 -0.00000000000E+00 -0.12658297113E+04  0.12658297113E+04  0.00000000000E+00 0.  1.
        -24    2    1    2    0    0 -0.16528932187E+03  0.34533208464E+03 -0.30391450149E+03  0.49535162914E+03  0.80214734752E+02 0.  0.
        254    2    1    2    0    0  0.16528932187E+03 -0.34533208464E+03 -0.58911522703E+03  0.11432780649E+04  0.90191638989E+03 0.  0.
         23    2    4    4    0    0 -0.23421990282E+03  0.88540065341E+02 -0.45918372074E+03  0.53206498006E+03  0.97699271022E+02 0.  0.
         23    2    4    4    0    0  0.39950922469E+03 -0.43387214998E+03 -0.12993150629E+03  0.61121308484E+03  0.94056236409E+02 0.  0.
          3    1    3    3  502    0 -0.11179975140E+02  0.61622177569E+02 -0.83703678601E+02  0.10453989872E+03  0.00000000000E+00 0. -1.
         -4    1    3    3    0  502 -0.15410934673E+03  0.28370990707E+03 -0.22021082289E+03  0.39081173043E+03  0.00000000000E+00 0.  1.
         11    1    5    5    0    0 -0.19358901157E+03  0.39539644471E+02 -0.39503856500E+03  0.44169622675E+03  0.00000000000E+00 0. -1.
        -11    1    5    5    0    0 -0.40630891254E+02  0.49000420870E+02 -0.64145155745E+02  0.90368753312E+02  0.00000000000E+00 0.  1.
          4    1    6    6  503    0  0.13047656846E+03 -0.12243531900E+03  0.23095540746E+01  0.17894098551E+03  0.00000000000E+00 0. -1.
         -4    1    6    6    0  503  0.26903265624E+03 -0.31143683099E+03 -0.13224106036E+03  0.43227209933E+03  0.00000000000E+00 0.  1.
<mgrwt>
<rscale>  0 0.13739014E+04</rscale>
<asrwt>0</asrwt>
<pdfrwt beam="1">  1        1 0.57353842E-01 0.13739014E+04</pdfrwt>
<pdfrwt beam="2">  1       -2 0.19474304E+00 0.13739014E+04</pdfrwt>
<totfact> 0.80952666E+00</totfact>
</mgrwt>
</event>
<event>
12    4  0.4183215E-008  0.1868535E+04  0.7818608E-02  0.8670679E-01
         -4   -1    0    0    0  501 -0.00000000000E+00  0.00000000000E+00  0.70976227950E+03  0.70976227950E+03  0.00000000000E+00 0.  1.
          1   -1    0    0  501    0  0.00000000000E+00 -0.00000000000E+00 -0.12297857246E+04  0.12297857246E+04  0.00000000000E+00 0. -1.
        -24    2    1    2    0    0 -0.67892771396E+03 -0.78380607122E+02 -0.41003607603E+03  0.80042915672E+03  0.73965471133E+02 0.  0.
        254    2    1    2    0    0  0.67892771396E+03  0.78380607122E+02 -0.10998736906E+03  0.11391188474E+04  0.90465914395E+03 0.  0.
         23    2    4    4    0    0  0.78450645557E+03 -0.20290728756E+03 -0.35448914349E+02  0.81630735133E+03  0.92083223952E+02 0.  0.
         23    2    4    4    0    0 -0.10557874160E+03  0.28128789469E+03 -0.74538454714E+02  0.32281149604E+03  0.91550698357E+02 0.  0.
          3    1    3    3  502    0 -0.27790486505E+03 -0.47666830637E+02 -0.13095570729E+03  0.31089007388E+03  0.00000000000E+00 0. -1.
         -4    1    3    3    0  502 -0.40102284891E+03 -0.30713776485E+02 -0.27908036875E+03  0.48953908284E+03  0.00000000000E+00 0.  1.
         11    1    5    5    0    0  0.78624414801E+03 -0.20471136894E+03 -0.37105907076E+02  0.81330403491E+03  0.00000000000E+00 0.  1.
        -11    1    5    5    0    0 -0.17376924423E+01  0.18040813793E+01  0.16569927267E+01  0.30033164242E+01  0.00000000000E+00 0. -1.
          1    1    6    6  503    0 -0.41353427539E+02  0.39572498001E+02 -0.41141573901E+02  0.70489131575E+02  0.00000000000E+00 0. -1.
         -1    1    6    6    0  503 -0.64225314065E+02  0.24171539669E+03 -0.33396880813E+02  0.25232236447E+03  0.00000000000E+00 0.  1.
<mgrwt>
<rscale>  0 0.18685347E+04</rscale>
<asrwt>0</asrwt>
<pdfrwt beam="1">  1        1 0.18919780E+00 0.18685347E+04</pdfrwt>
<pdfrwt beam="2">  1       -4 0.10919420E+00 0.18685347E+04</pdfrwt>
<totfact> 0.31037855E+00</totfact>
</mgrwt>
</event>
<event>
12    4  0.5162096E-008  0.1309591E+04  0.7818608E-02  0.9021994E-01
         -2   -1    0    0    0  501 -0.00000000000E+00  0.00000000000E+00  0.16816016505E+03  0.16816016505E+03  0.00000000000E+00 0.  1.
          1   -1    0    0  501    0  0.00000000000E+00 -0.00000000000E+00 -0.25496939742E+04  0.25496939742E+04  0.00000000000E+00 0. -1.
        -24    2    1    2    0    0  0.77986878270E+02 -0.25780058312E+03 -0.10264048170E+04  0.10641136083E+04  0.79295834149E+02 0.  0.
        254    2    1    2    0    0 -0.77986878270E+02  0.25780058312E+03 -0.13551289922E+04  0.16537405310E+04  0.90881244727E+03 0.  0.
         23    2    4    4    0    0  0.49800971418E+02  0.29752591490E+03 -0.27752943812E+02  0.31642663045E+03  0.91399014116E+02 0.  0.
         23    2    4    4    0    0 -0.12778784969E+03 -0.39725331780E+02 -0.13273760484E+04  0.13373139005E+04  0.92592969860E+02 0.  0.
          3    1    3    3  502    0  0.83749118350E+02 -0.25096654887E+03 -0.91867435654E+03  0.95601291666E+03  0.00000000000E+00 0. -1.
         -4    1    3    3    0  502 -0.57622400802E+01 -0.68340342495E+01 -0.10773046041E+03  0.10810069165E+03  0.00000000000E+00 0.  1.
         11    1    5    5    0    0 -0.25975600454E+02  0.10242264243E+03 -0.15146146937E+02  0.10674518850E+03  0.00000000000E+00 0. -1.
        -11    1    5    5    0    0  0.75776571872E+02  0.19510327247E+03 -0.12606796876E+02  0.20968144195E+03  0.00000000000E+00 0.  1.
          3    1    6    6  503    0  0.95970348746E+01 -0.19857334449E+01 -0.20803789937E+02  0.22996606085E+02  0.00000000000E+00 0. -1.
         -3    1    6    6    0  503 -0.13738488456E+03 -0.37739598335E+02 -0.13065722585E+04  0.13143172944E+04  0.00000000000E+00 0.  1.
<mgrwt>
<rscale>  0 0.13095907E+04</rscale>
<asrwt>0</asrwt>
<pdfrwt beam="1">  1        1 0.39226063E+00 0.13095907E+04</pdfrwt>
<pdfrwt beam="2">  1       -2 0.25870793E-01 0.13095907E+04</pdfrwt>
<totfact> 0.14609516E+01</totfact>
</mgrwt>
</event>
<event>
12    4  0.4183215E-008  0.1308852E+04  0.7818608E-02  0.9022575E-01
         -2   -1    0    0    0  501 -0.00000000000E+00  0.00000000000E+00  0.26709050872E+03  0.26709050872E+03  0.00000000000E+00 0.  1.
          1   -1    0    0  501    0  0.00000000000E+00 -0.00000000000E+00 -0.16034764229E+04  0.16034764229E+04  0.00000000000E+00 0. -1.
        -24    2    1    2    0    0  0.17506228079E+03 -0.22019615826E+03 -0.60872641496E+03  0.67531681381E+03  0.79823558458E+02 0.  0.
        254    2    1    2    0    0 -0.17506228079E+03  0.22019615826E+03 -0.72765949920E+03  0.11952501178E+04  0.90553925759E+03 0.  0.
         23    2    4    4    0    0 -0.11519668817E+03 -0.25311974738E+03  0.30739801973E+02  0.29454200285E+03  0.92033540309E+02 0.  0.
         23    2    4    4    0    0 -0.59865592628E+02  0.47331590563E+03 -0.75839930118E+03  0.90070811495E+03  0.92161665567E+02 0.  0.
          1    1    3    3  502    0  0.91979406407E+02 -0.91927474117E+02 -0.36673012555E+03  0.38910391502E+03  0.00000000000E+00 0. -1.
         -2    1    3    3    0  502  0.83082874387E+02 -0.12826868414E+03 -0.24199628941E+03  0.28621289879E+03  0.00000000000E+00 0.  1.
         11    1    5    5    0    0  0.13265093787E+02 -0.55736988686E+02  0.24723058925E+01  0.57347074183E+02  0.00000000000E+00 0. -1.
        -11    1    5    5    0    0 -0.12846178195E+03 -0.19738275869E+03  0.28267496080E+02  0.23719492867E+03  0.00000000000E+00 0.  1.
          2    1    6    6  503    0  0.24868974184E+02  0.93180330979E+02 -0.15032485245E+03  0.17860179512E+03  0.00000000000E+00 0. -1.
         -2    1    6    6    0  503 -0.84734566812E+02  0.38013557465E+03 -0.60807444873E+03  0.72210631982E+03  0.00000000000E+00 0.  1.
<mgrwt>
<rscale>  0 0.13088519E+04</rscale>
<asrwt>0</asrwt>
<pdfrwt beam="1">  1        1 0.24668868E+00 0.13088519E+04</pdfrwt>
<pdfrwt beam="2">  1       -2 0.41090847E-01 0.13088519E+04</pdfrwt>
<totfact> 0.26825792E+01</totfact>
</mgrwt>
</event>
<event>
12    4  0.4183215E-008  0.1329721E+04  0.7818608E-02  0.9006323E-01
          1   -1    0    0  501    0  0.00000000000E+00  0.00000000000E+00  0.11123117049E+04  0.11123117049E+04  0.00000000000E+00 0. -1.
         -2   -1    0    0    0  501 -0.00000000000E+00 -0.00000000000E+00 -0.39740584088E+03  0.39740584088E+03  0.00000000000E+00 0.  1.
        -24    2    1    2    0    0 -0.49467195465E+01  0.32330121240E+03  0.23385483022E+02  0.33369101158E+03  0.79086449012E+02 0.  0.
        254    2    1    2    0    0  0.49467195465E+01 -0.32330121240E+03  0.69152038097E+03  0.11760265342E+04  0.89458919499E+03 0.  0.
         23    2    4    4    0    0 -0.38453425848E+03 -0.28038839552E+03  0.16049050356E+03  0.51042218256E+03  0.91045891904E+02 0.  0.
         23    2    4    4    0    0  0.38948097803E+03 -0.42912816882E+02  0.53102987740E+03  0.66560435160E+03  0.86599538537E+02 0.  0.
          1    1    3    3  502    0  0.13374666253E+01  0.16776590994E+02  0.21233586497E+02  0.27094427801E+02  0.00000000000E+00 0. -1.
         -2    1    3    3    0  502 -0.62841861718E+01  0.30652462141E+03  0.21518965245E+01  0.30659658378E+03  0.00000000000E+00 0.  1.
         11    1    5    5    0    0 -0.19718058014E+03 -0.11617382041E+03  0.11868935789E+03  0.25780554960E+03  0.00000000000E+00 0.  1.
        -11    1    5    5    0    0 -0.18735367834E+03 -0.16421457511E+03  0.41801145675E+02  0.25261663296E+03  0.00000000000E+00 0. -1.
          1    1    6    6  503    0  0.33060519250E+03 -0.28972302812E+02  0.49247363467E+03  0.59385980541E+03  0.00000000000E+00 0. -1.
         -1    1    6    6    0  503  0.58875785529E+02 -0.13940514070E+02  0.38556242736E+02  0.71744546191E+02  0.00000000000E+00 0.  1.
<mgrwt>
<rscale>  0 0.13297205E+04</rscale>
<asrwt>0</asrwt>
<pdfrwt beam="1">  1        1 0.17112488E+00 0.13297205E+04</pdfrwt>
<pdfrwt beam="2">  1       -2 0.61139361E-01 0.13297205E+04</pdfrwt>
<totfact> 0.26551956E+01</totfact>
</mgrwt>
</event>
<event>
12    4  0.4183215E-008  0.2416399E+04  0.7818608E-02  0.8433389E-01
          1   -1    0    0  501    0  0.00000000000E+00  0.00000000000E+00  0.11198720657E+04  0.11198720657E+04  0.00000000000E+00 0. -1.
         -2   -1    0    0    0  501 -0.00000000000E+00 -0.00000000000E+00 -0.13034935383E+04  0.13034935383E+04  0.00000000000E+00 0.  1.
        -24    2    1    2    0    0  0.67784519472E+03  0.50043025816E+03 -0.69182591581E+03  0.10931068908E+04  0.79718414482E+02 0.  0.
        254    2    1    2    0    0 -0.67784519472E+03 -0.50043025816E+03  0.50820444319E+03  0.13302587133E+04  0.89521613976E+03 0.  0.
         23    2    4    4    0    0 -0.46098155606E+03  0.15373707994E+03  0.48661409611E+02  0.49674365456E+03  0.90814320363E+02 0.  0.
         23    2    4    4    0    0 -0.21686363866E+03 -0.65416733810E+03  0.45954303358E+03  0.83351505871E+03  0.92751330931E+02 0.  0.
          1    1    3    3  502    0  0.93793121586E+02  0.10423519706E+03 -0.12649414094E+03  0.18884621694E+03  0.00000000000E+00 0. -1.
         -2    1    3    3    0  502  0.58405207313E+03  0.39619506110E+03 -0.56533177487E+03  0.90426067384E+03  0.00000000000E+00 0.  1.
         11    1    5    5    0    0 -0.28047399955E+03  0.13954293105E+03  0.28684518471E+02  0.31458018951E+03  0.00000000000E+00 0. -1.
        -11    1    5    5    0    0 -0.18050755651E+03  0.14194148886E+02  0.19976891140E+02  0.18216346505E+03  0.00000000000E+00 0.  1.
          3    1    6    6  503    0 -0.21023097372E+03 -0.58250772203E+03  0.43755308549E+03  0.75826447310E+03  0.00000000000E+00 0. -1.
         -3    1    6    6    0  503 -0.66326649398E+01 -0.71659616068E+02  0.21989948082E+02  0.75250585618E+02  0.00000000000E+00 0.  1.
<mgrwt>
<rscale>  0 0.24163990E+04</rscale>
<asrwt>0</asrwt>
<pdfrwt beam="1">  1        1 0.17228801E+00 0.24163990E+04</pdfrwt>
<pdfrwt beam="2">  1       -2 0.20053747E+00 0.24163990E+04</pdfrwt>
<totfact> 0.12684940E+00</totfact>
</mgrwt>
</event>
<event>
12    4  0.4183215E-008  0.3533948E+04  0.7818608E-02  0.8105792E-01
         -2   -1    0    0    0  501 -0.00000000000E+00  0.00000000000E+00  0.12713925612E+04  0.12713925612E+04  0.00000000000E+00 0.  1.
          1   -1    0    0  501    0  0.00000000000E+00 -0.00000000000E+00 -0.24557301002E+04  0.24557301002E+04  0.00000000000E+00 0. -1.
        -24    2    1    2    0    0 -0.12543988831E+04 -0.31370618225E+03 -0.16428959816E+04  0.20922215557E+04  0.79722677244E+02 0.  0.
        254    2    1    2    0    0  0.12543988831E+04  0.31370618225E+03  0.45855844256E+03  0.16349011056E+04  0.88921181564E+03 0.  0.
         23    2    4    4    0    0  0.50832005725E+03  0.57430696830E+03  0.19064850477E+03  0.79575589237E+03  0.93074236165E+02 0.  0.
         23    2    4    4    0    0  0.74607882588E+03 -0.26060078605E+03  0.26790993779E+03  0.83914521323E+03  0.88558285912E+02 0.  0.
          1    1    3    3  502    0 -0.11557184249E+04 -0.30705569469E+03 -0.14973959268E+04  0.19162888192E+04  0.00000000000E+00 0. -1.
         -2    1    3    3    0  502 -0.98680458285E+02 -0.66504875599E+01 -0.14550005480E+03  0.17593273652E+03  0.00000000000E+00 0.  1.
         11    1    5    5    0    0  0.48333228733E+03  0.56649646839E+03  0.17398176086E+03  0.76472086527E+03  0.00000000000E+00 0. -1.
        -11    1    5    5    0    0  0.24987769927E+02  0.78104999065E+01  0.16666743909E+02  0.31035027102E+02  0.00000000000E+00 0.  1.
          3    1    6    6  503    0  0.50793709418E+03 -0.21905818894E+03  0.17526578130E+03  0.58026259218E+03  0.00000000000E+00 0. -1.
         -3    1    6    6    0  503  0.23814173170E+03 -0.41542597112E+02  0.92644156484E+02  0.25888262105E+03  0.00000000000E+00 0.  1.
<mgrwt>
<rscale>  0 0.35339479E+04</rscale>
<asrwt>0</asrwt>
<pdfrwt beam="1">  1        1 0.37780463E+00 0.35339479E+04</pdfrwt>
<pdfrwt beam="2">  1       -2 0.19559886E+00 0.35339479E+04</pdfrwt>
<totfact> 0.14798977E-01</totfact>
</mgrwt>
</event>
<event>
12    4  0.4183215E-008  0.1609179E+04  0.7818608E-02  0.8814929E-01
         -2   -1    0    0    0  501 -0.00000000000E+00  0.00000000000E+00  0.18943239881E+04  0.18943239881E+04  0.00000000000E+00 0.  1.
          1   -1    0    0  501    0  0.00000000000E+00 -0.00000000000E+00 -0.34173900013E+03  0.34173900013E+03  0.00000000000E+00 0. -1.
        -24    2    1    2    0    0 -0.41786263672E+03 -0.89099117071E+02  0.99684928081E+03  0.10874869210E+04  0.79821544596E+02 0.  0.
        254    2    1    2    0    0  0.41786263672E+03  0.89099117071E+02  0.55573570719E+03  0.11485760672E+04  0.90985546659E+03 0.  0.
         23    2    4    4    0    0 -0.24900439750E+03  0.15253734232E+03  0.62754336306E+02  0.31209665537E+03  0.90528364567E+02 0.  0.
         23    2    4    4    0    0  0.66686703422E+03 -0.63438225254E+02  0.49298137088E+03  0.83647941183E+03  0.89056861760E+02 0.  0.
          1    1    3    3  502    0 -0.19492076377E+03 -0.66223596747E+02  0.55716985048E+03  0.59398477355E+03  0.00000000000E+00 0. -1.
         -2    1    3    3    0  502 -0.22294187294E+03 -0.22875520324E+02  0.43967943032E+03  0.49350214750E+03  0.00000000000E+00 0.  1.
         11    1    5    5    0    0 -0.25315111341E+03  0.15617671614E+03  0.67275730344E+02  0.30496340236E+03  0.00000000000E+00 0.  1.
        -11    1    5    5    0    0  0.41467159050E+01 -0.36393738150E+01 -0.45213940377E+01  0.71332530171E+01  0.00000000000E+00 0. -1.
          4    1    6    6  503    0  0.16406973911E+03  0.19228692546E+02  0.14094896605E+03  0.21715255684E+03  0.00000000000E+00 0. -1.
         -4    1    6    6    0  503  0.50279729511E+03 -0.82666917799E+02  0.35203240483E+03  0.61932685499E+03  0.00000000000E+00 0.  1.
<mgrwt>
<rscale>  0 0.16091792E+04</rscale>
<asrwt>0</asrwt>
<pdfrwt beam="1">  1        1 0.52575232E-01 0.16091792E+04</pdfrwt>
<pdfrwt beam="2">  1       -2 0.29143445E+00 0.16091792E+04</pdfrwt>
<totfact> 0.22257790E+00</totfact>
</mgrwt>
</event>
<event>
12    4  0.4183215E-008  0.1724716E+04  0.7818608E-02  0.8747392E-01
          1   -1    0    0  501    0  0.00000000000E+00  0.00000000000E+00  0.16823221518E+04  0.16823221518E+04  0.00000000000E+00 0. -1.
         -2   -1    0    0    0  501 -0.00000000000E+00 -0.00000000000E+00 -0.44204473855E+03  0.44204473855E+03  0.00000000000E+00 0.  1.
        -24    2    1    2    0    0  0.19927997063E+03  0.15196795049E+01 -0.26615785267E+03  0.34260989445E+03  0.82623974229E+02 0.  0.
        254    2    1    2    0    0 -0.19927997063E+03 -0.15196795049E+01  0.15064352659E+04  0.17817569959E+04  0.93037409997E+03 0.  0.
         23    2    4    4    0    0 -0.53928452502E+03  0.13157933211E+03  0.76034241337E+03  0.94577887955E+03  0.90753423444E+02 0.  0.
         23    2    4    4    0    0  0.34000455439E+03 -0.13309901161E+03  0.74609285254E+03  0.83597811634E+03  0.94267823163E+02 0.  0.
          1    1    3    3  502    0  0.12594397107E+02 -0.20288307592E+02 -0.12642445800E+02  0.27019727964E+02  0.00000000000E+00 0. -1.
         -2    1    3    3    0  502  0.18668557352E+03  0.21807987096E+02 -0.25351540687E+03  0.31559016649E+03  0.00000000000E+00 0.  1.
         11    1    5    5    0    0 -0.22593884725E+03  0.61322499442E+02  0.39681442969E+03  0.46072823144E+03  0.00000000000E+00 0.  1.
        -11    1    5    5    0    0 -0.31334567777E+03  0.70256832666E+02  0.36352798368E+03  0.48505064811E+03  0.00000000000E+00 0. -1.
          1    1    6    6  503    0  0.22897042749E+03 -0.61458571122E+02  0.55635745997E+03  0.60476295843E+03  0.00000000000E+00 0. -1.
         -1    1    6    6    0  503  0.11103412690E+03 -0.71640440491E+02  0.18973539257E+03  0.23121515790E+03  0.00000000000E+00 0.  1.
<mgrwt>
<rscale>  0 0.17247164E+04</rscale>
<asrwt>0</asrwt>
<pdfrwt beam="1">  1        1 0.25881879E+00 0.17247164E+04</pdfrwt>
<pdfrwt beam="2">  1       -2 0.68006884E-01 0.17247164E+04</pdfrwt>
<totfact> 0.80864892E+00</totfact>
</mgrwt>
</event>
<event>
12    4  0.4183215E-008  0.2133898E+04  0.7818608E-02  0.8546456E-01
         -2   -1    0    0    0  501 -0.00000000000E+00  0.00000000000E+00  0.67813226855E+03  0.67813226855E+03  0.00000000000E+00 0.  1.
          1   -1    0    0  501    0  0.00000000000E+00 -0.00000000000E+00 -0.16786990601E+04  0.16786990601E+04  0.00000000000E+00 0. -1.
        -24    2    1    2    0    0 -0.69046947981E+03 -0.11578904288E+03  0.16749403051E+03  0.72481785834E+03  0.84566379396E+02 0.  0.
        254    2    1    2    0    0  0.69046947981E+03  0.11578904288E+03 -0.11680608220E+04  0.16320134703E+04  0.89941463086E+03 0.  0.
         23    2    4    4    0    0  0.21549289673E+03  0.42279723897E+03 -0.85144015747E+03  0.97878840427E+03  0.88778965816E+02 0.  0.
         23    2    4    4    0    0  0.47497658307E+03 -0.30700819609E+03 -0.31662066455E+03  0.65322506599E+03  0.81225332763E+02 0.  0.
          3    1    3    3  502    0 -0.16600276013E+02  0.99173109303E+01  0.85235209114E+01  0.21132265106E+02  0.00000000000E+00 0. -1.
         -4    1    3    3    0  502 -0.67386920379E+03 -0.12570635381E+03  0.15897050959E+03  0.70368559324E+03  0.00000000000E+00 0.  1.
         11    1    5    5    0    0  0.42508558137E+02  0.16675301874E+03 -0.34466587464E+03  0.38523773429E+03  0.00000000000E+00 0. -1.
        -11    1    5    5    0    0  0.17298433860E+03  0.25604422023E+03 -0.50677428282E+03  0.59355066999E+03  0.00000000000E+00 0.  1.
          1    1    6    6  503    0  0.71954938157E+01 -0.13889965698E+02 -0.23414360012E+02  0.28159164283E+02  0.00000000000E+00 0. -1.
         -1    1    6    6    0  503  0.46778108926E+03 -0.29311823039E+03 -0.29320630454E+03  0.62506590171E+03  0.00000000000E+00 0.  1.
<mgrwt>
<rscale>  0 0.21338978E+04</rscale>
<asrwt>0</asrwt>
<pdfrwt beam="1">  1        1 0.25826139E+00 0.21338978E+04</pdfrwt>
<pdfrwt beam="2">  1       -2 0.10432804E+00 0.21338978E+04</pdfrwt>
<totfact> 0.29622430E+00</totfact>
</mgrwt>
</event>
<event>
12    4  0.4183215E-008  0.2186980E+04  0.7818608E-02  0.8523867E-01
         -2   -1    0    0    0  501 -0.00000000000E+00  0.00000000000E+00  0.15451612866E+04  0.15451612866E+04  0.00000000000E+00 0.  1.
          1   -1    0    0  501    0  0.00000000000E+00 -0.00000000000E+00 -0.77384815247E+03  0.77384815247E+03  0.00000000000E+00 0. -1.
        -24    2    1    2    0    0 -0.14553160414E+03  0.85326704951E+03  0.60452747944E+03  0.10588382666E+04  0.80255192094E+02 0.  0.
        254    2    1    2    0    0  0.14553160414E+03 -0.85326704951E+03  0.16678565465E+03  0.12601711724E+04  0.90053862971E+03 0.  0.
         23    2    4    4    0    0  0.29363789933E+03  0.63659011861E+02  0.95316419733E+01  0.31402691150E+03  0.90809488665E+02 0.  0.
         23    2    4    4    0    0 -0.14810629520E+03 -0.91692606138E+03  0.15725401267E+03  0.94614426091E+03  0.88154757384E+02 0.  0.
          3    1    3    3  502    0 -0.34671809187E+02  0.24178837487E+03  0.12833221160E+03  0.27592192575E+03  0.00000000000E+00 0. -1.
         -4    1    3    3    0  502 -0.11085979495E+03  0.61147867464E+03  0.47619526784E+03  0.78291634086E+03  0.00000000000E+00 0.  1.
         11    1    5    5    0    0  0.97249133937E+01 -0.15040837187E+02 -0.62907562282E+01  0.18983528063E+02  0.00000000000E+00 0. -1.
        -11    1    5    5    0    0  0.28391298594E+03  0.78699849047E+02  0.15822398202E+02  0.29504338344E+03  0.00000000000E+00 0.  1.
          2    1    6    6  503    0 -0.23450713930E+02 -0.13156099692E+03  0.54563032697E+02  0.14434457534E+03  0.00000000000E+00 0. -1.
         -2    1    6    6    0  503 -0.12465558127E+03 -0.78536506446E+03  0.10269097998E+03  0.80179968557E+03  0.00000000000E+00 0.  1.
<mgrwt>
<rscale>  0 0.21869798E+04</rscale>
<asrwt>0</asrwt>
<pdfrwt beam="1">  1        1 0.11905356E+00 0.21869798E+04</pdfrwt>
<pdfrwt beam="2">  1       -2 0.23771712E+00 0.21869798E+04</pdfrwt>
<totfact> 0.14268622E+00</totfact>
</mgrwt>
</event>
<event>
12    4  0.4183215E-008  0.1481783E+04  0.7818608E-02  0.8896658E-01
          3   -1    0    0  501    0  0.00000000000E+00  0.00000000000E+00  0.35848563327E+03  0.35848563327E+03  0.00000000000E+00 0. -1.
         -4   -1    0    0    0  501 -0.00000000000E+00 -0.00000000000E+00 -0.15312186593E+04  0.15312186593E+04  0.00000000000E+00 0.  1.
        -24    2    1    2    0    0 -0.11471370652E+03 -0.67398166684E+02 -0.93764680089E+03  0.95043876630E+03  0.80315490044E+02 0.  0.
        254    2    1    2    0    0  0.11471370652E+03  0.67398166684E+02 -0.23508622510E+03  0.93926552622E+03  0.89958459757E+03 0.  0.
         23    2    4    4    0    0  0.44154864686E+03 -0.74849432076E+01 -0.35238917329E+03  0.57209546668E+03  0.89965891443E+02 0.  0.
         23    2    4    4    0    0 -0.32683494035E+03  0.74883109891E+02  0.11730294819E+03  0.36717005954E+03  0.92872561020E+02 0.  0.
          3    1    3    3  502    0 -0.10640676088E+03 -0.81729807314E+02 -0.73733273648E+03  0.74944094127E+03  0.00000000000E+00 0. -1.
         -4    1    3    3    0  502 -0.83069456384E+01  0.14331640631E+02 -0.20031406440E+03  0.20099782503E+03  0.00000000000E+00 0.  1.
         11    1    5    5    0    0  0.53308470991E+02 -0.66885883743E+01 -0.85461069632E+02  0.10094614761E+03  0.00000000000E+00 0. -1.
        -11    1    5    5    0    0  0.38824017587E+03 -0.79635483323E+00 -0.26692810366E+03  0.47114931907E+03  0.00000000000E+00 0.  1.
          1    1    6    6  503    0 -0.61019568726E+02  0.36230057661E+02  0.59039375465E+02  0.92312798142E+02  0.00000000000E+00 0. -1.
         -1    1    6    6    0  503 -0.26581537162E+03  0.38653052230E+02  0.58263572727E+02  0.27485726140E+03  0.00000000000E+00 0.  1.
<mgrwt>
<rscale>  0 0.14817826E+04</rscale>
<asrwt>0</asrwt>
<pdfrwt beam="1">  1        3 0.55151637E-01 0.14817826E+04</pdfrwt>
<pdfrwt beam="2">  1       -4 0.23557210E+00 0.14817826E+04</pdfrwt>
<totfact> 0.55813403E-01</totfact>
</mgrwt>
</event>
<event>
12    4  0.4183215E-008  0.1800526E+04  0.7818608E-02  0.8706020E-01
          1   -1    0    0  501    0  0.00000000000E+00  0.00000000000E+00  0.25307978836E+04  0.25307978836E+04  0.00000000000E+00 0. -1.
         -2   -1    0    0    0  501 -0.00000000000E+00 -0.00000000000E+00 -0.32024435971E+03  0.32024435971E+03  0.00000000000E+00 0.  1.
        -24    2    1    2    0    0  0.55435127744E+03 -0.27179998378E+03  0.11525837318E+04  0.13099812595E+04  0.80131589128E+02 0.  0.
        254    2    1    2    0    0 -0.55435127744E+03  0.27179998378E+03  0.10579697921E+04  0.15410609837E+04  0.93508732464E+03 0.  0.
         23    2    4    4    0    0  0.68943675154E+02  0.56045784628E+02  0.82624623139E+03  0.83620446639E+03  0.93062959382E+02 0.  0.
         23    2    4    4    0    0 -0.62329495260E+03  0.21575419915E+03  0.23172356069E+03  0.70485651735E+03  0.89891207008E+02 0.  0.
          1    1    3    3  502    0  0.28760362110E+03 -0.12917036252E+03  0.50678061373E+03  0.59684790012E+03  0.00000000000E+00 0. -1.
         -2    1    3    3    0  502  0.26674765634E+03 -0.14262962125E+03  0.64580311804E+03  0.71313335940E+03  0.00000000000E+00 0.  1.
         11    1    5    5    0    0  0.56683787465E+02  0.18014319383E+02  0.19928946708E+03  0.20797562154E+03  0.00000000000E+00 0. -1.
        -11    1    5    5    0    0  0.12259887689E+02  0.38031465245E+02  0.62695676431E+03  0.62822884485E+03  0.00000000000E+00 0.  1.
          2    1    6    6  503    0 -0.73248539310E+02  0.56302526812E+02  0.21988629122E+02  0.94967483104E+02  0.00000000000E+00 0. -1.
         -2    1    6    6    0  503 -0.55004641329E+03  0.15945167234E+03  0.20973493156E+03  0.60988903425E+03  0.00000000000E+00 0.  1.
<mgrwt>
<rscale>  0 0.18005263E+04</rscale>
<asrwt>0</asrwt>
<pdfrwt beam="1">  1        1 0.38935351E+00 0.18005263E+04</pdfrwt>
<pdfrwt beam="2">  1       -2 0.49268365E-01 0.18005263E+04</pdfrwt>
<totfact> 0.41726323E+00</totfact>
</mgrwt>
</event>
<event>
12    4  0.4183215E-008  0.1323016E+04  0.7818608E-02  0.9011510E-01
         -2   -1    0    0    0  501 -0.00000000000E+00  0.00000000000E+00  0.47579801385E+03  0.47579801385E+03  0.00000000000E+00 0.  1.
          1   -1    0    0  501    0  0.00000000000E+00 -0.00000000000E+00 -0.91970313789E+03  0.91970313789E+03  0.00000000000E+00 0. -1.
        -24    2    1    2    0    0 -0.95389118162E+02 -0.11782570872E+03 -0.45129684397E+03  0.48304218238E+03  0.81724702976E+02 0.  0.
        254    2    1    2    0    0  0.95389118162E+02  0.11782570872E+03  0.73917199304E+01  0.91245896936E+03  0.89974704875E+03 0.  0.
         23    2    4    4    0    0  0.21962404732E+03  0.46878201903E+03 -0.46995045018E+02  0.52759476294E+03  0.90312768234E+02 0.  0.
         23    2    4    4    0    0 -0.12423492916E+03 -0.35095631031E+03  0.54386764949E+02  0.38486420641E+03  0.80980786677E+02 0.  0.
          1    1    3    3  502    0 -0.36889830154E+02 -0.10347134050E+03 -0.25351857626E+03  0.27629485407E+03  0.00000000000E+00 0. -1.
         -2    1    3    3    0  502 -0.58499288008E+02 -0.14354368217E+02 -0.19777826771E+03  0.20674732831E+03  0.00000000000E+00 0.  1.
         11    1    5    5    0    0  0.20968699321E+03  0.42520493944E+03 -0.66667305992E+02  0.47876132398E+03  0.00000000000E+00 0. -1.
        -11    1    5    5    0    0  0.99370541055E+01  0.43577079588E+02  0.19672260974E+02  0.48833438969E+02  0.00000000000E+00 0.  1.
          1    1    6    6  503    0 -0.11357054134E+03 -0.26136607619E+03  0.69642403003E+02  0.29336079823E+03  0.00000000000E+00 0. -1.
         -1    1    6    6    0  503 -0.10664387816E+02 -0.89590234115E+02 -0.15255638054E+02  0.91503408180E+02  0.00000000000E+00 0.  1.
<mgrwt>
<rscale>  0 0.13230161E+04</rscale>
<asrwt>0</asrwt>
<pdfrwt beam="1">  1        1 0.14149279E+00 0.13230161E+04</pdfrwt>
<pdfrwt beam="2">  1       -2 0.73199694E-01 0.13230161E+04</pdfrwt>
<totfact> 0.25403072E+01</totfact>
</mgrwt>
</event>
<event>
12    4  0.4183215E-008  0.1596876E+04  0.7818608E-02  0.8822469E-01
         -2   -1    0    0    0  501 -0.00000000000E+00  0.00000000000E+00  0.73784477231E+03  0.73784477231E+03  0.00000000000E+00 0.  1.
          1   -1    0    0  501    0  0.00000000000E+00 -0.00000000000E+00 -0.86400727572E+03  0.86400727572E+03  0.00000000000E+00 0. -1.
        -24    2    1    2    0    0  0.58166994718E+01 -0.52411513488E+03 -0.17784667626E+03  0.55920445654E+03  0.79684850236E+02 0.  0.
        254    2    1    2    0    0 -0.58166994718E+01  0.52411513488E+03  0.51684172849E+02  0.10426475915E+04  0.89984011786E+03 0.  0.
         23    2    4    4    0    0  0.26514329153E+03  0.36984014099E+03  0.36502148939E+03  0.59130927947E+03  0.96557140266E+02 0.  0.
         23    2    4    4    0    0 -0.27095999100E+03  0.15427499389E+03 -0.31333731655E+03  0.45133831201E+03  0.91136751585E+02 0.  0.
          1    1    3    3  502    0  0.62738177405E+01 -0.15083213834E+03 -0.14211300899E+02  0.15162999644E+03  0.00000000000E+00 0. -1.
         -2    1    3    3    0  502 -0.45711826868E+00 -0.37328299654E+03 -0.16363537536E+03  0.40757446010E+03  0.00000000000E+00 0.  1.
         11    1    5    5    0    0  0.24640069540E+03  0.28666316383E+03  0.27600492717E+03  0.46804678401E+03  0.00000000000E+00 0. -1.
        -11    1    5    5    0    0  0.18742596129E+02  0.83176977158E+02  0.89016562222E+02  0.12326249547E+03  0.00000000000E+00 0.  1.
          4    1    6    6  503    0 -0.18324025707E+03  0.11191245069E+03 -0.15270750710E+03  0.26347859715E+03  0.00000000000E+00 0. -1.
         -4    1    6    6    0  503 -0.87719733934E+02  0.42362543193E+02 -0.16062980944E+03  0.18785971486E+03  0.00000000000E+00 0.  1.
<mgrwt>
<rscale>  0 0.15968760E+04</rscale>
<asrwt>0</asrwt>
<pdfrwt beam="1">  1        1 0.13292420E+00 0.15968760E+04</pdfrwt>
<pdfrwt beam="2">  1       -2 0.11351458E+00 0.15968760E+04</pdfrwt>
<totfact> 0.99765452E+00</totfact>
</mgrwt>
</event>
<event>
12    4  0.4183215E-008  0.2150577E+04  0.7818608E-02  0.8539285E-01
          1   -1    0    0  501    0  0.00000000000E+00  0.00000000000E+00  0.63459499137E+03  0.63459499137E+03  0.00000000000E+00 0. -1.
         -2   -1    0    0    0  501 -0.00000000000E+00 -0.00000000000E+00 -0.18220208932E+04  0.18220208932E+04  0.00000000000E+00 0.  1.
        -24    2    1    2    0    0 -0.46533591081E+03  0.75308522778E+03 -0.47567045978E+03  0.10081404816E+04  0.80062314247E+02 0.  0.
        254    2    1    2    0    0  0.46533591081E+03 -0.75308522778E+03 -0.71175544205E+03  0.14484754029E+04  0.89878268422E+03 0.  0.
         23    2    4    4    0    0  0.59029836515E+03 -0.40231990851E+03 -0.10075606124E+03  0.72709660268E+03  0.90577133267E+02 0.  0.
         23    2    4    4    0    0 -0.12496245434E+03 -0.35076531927E+03 -0.61099938081E+03  0.72137880026E+03  0.91734431507E+02 0.  0.
          1    1    3    3  502    0 -0.44279749765E+02  0.85010141490E+02 -0.25653051290E+02  0.99224490101E+02  0.00000000000E+00 0. -1.
         -2    1    3    3    0  502 -0.42105616104E+03  0.66807508630E+03 -0.45001740849E+03  0.90891599151E+03  0.00000000000E+00 0.  1.
         11    1    5    5    0    0  0.22119592069E+03 -0.14475748302E+03 -0.81383523287E+02  0.27659653303E+03  0.00000000000E+00 0. -1.
        -11    1    5    5    0    0  0.36910244446E+03 -0.25756242549E+03 -0.19372537951E+02  0.45050006965E+03  0.00000000000E+00 0.  1.
          1    1    6    6  503    0 -0.13078344506E+03 -0.29876853862E+03 -0.47999104995E+03  0.58030884640E+03  0.00000000000E+00 0.  1.
         -1    1    6    6    0  503  0.58209907139E+01 -0.51996780650E+02 -0.13100833086E+03  0.14106995387E+03  0.00000000000E+00 0. -1.
<mgrwt>
<rscale>  0 0.21505770E+04</rscale>
<asrwt>0</asrwt>
<pdfrwt beam="1">  1        1 0.97630000E-01 0.21505770E+04</pdfrwt>
<pdfrwt beam="2">  1       -2 0.28031090E+00 0.21505770E+04</pdfrwt>
<totfact> 0.10615694E+00</totfact>
</mgrwt>
</event>
<event>
12    4  0.4183215E-008  0.2793326E+04  0.7818608E-02  0.8305343E-01
         -2   -1    0    0    0  501 -0.00000000000E+00  0.00000000000E+00  0.87715044666E+03  0.87715044666E+03  0.00000000000E+00 0.  1.
          1   -1    0    0  501    0  0.00000000000E+00 -0.00000000000E+00 -0.22238681844E+04  0.22238681844E+04  0.00000000000E+00 0. -1.
        -24    2    1    2    0    0  0.10489207019E+04  0.62414703877E+03 -0.89346645731E+03  0.15147561187E+04  0.80060127013E+02 0.  0.
        254    2    1    2    0    0 -0.10489207019E+04 -0.62414703877E+03 -0.45325128044E+03  0.15862625124E+04  0.90608932783E+03 0.  0.
         23    2    4    4    0    0 -0.23806179260E+03 -0.64059257253E+03 -0.98110843485E+02  0.69637915501E+03  0.91027077531E+02 0.  0.
         23    2    4    4    0    0 -0.81085890930E+03  0.16445533763E+02 -0.35514043695E+03  0.88988335735E+03  0.89470851963E+02 0.  0.
          3    1    3    3  502    0  0.84864530919E+03  0.50567393281E+03 -0.76093884297E+03  0.12469694904E+04  0.00000000000E+00 0. -1.
         -4    1    3    3    0  502  0.20027539271E+03  0.11847310596E+03 -0.13252761434E+03  0.26778662835E+03  0.00000000000E+00 0.  1.
         11    1    5    5    0    0 -0.12993788475E+03 -0.45737516234E+03 -0.48603315524E+02  0.47795206381E+03  0.00000000000E+00 0. -1.
        -11    1    5    5    0    0 -0.10812390785E+03 -0.18321741019E+03 -0.49507527961E+02  0.21842709120E+03  0.00000000000E+00 0.  1.
          1    1    6    6  503    0 -0.69493825473E+03 -0.17409818740E+02 -0.30003435643E+03  0.75714126470E+03  0.00000000000E+00 0. -1.
         -1    1    6    6    0  503 -0.11592065457E+03  0.33855352504E+02 -0.55106080527E+02  0.13274209265E+03  0.00000000000E+00 0.  1.
<mgrwt>
<rscale>  0 0.27933256E+04</rscale>
<asrwt>0</asrwt>
<pdfrwt beam="1">  1        1 0.34213357E+00 0.27933256E+04</pdfrwt>
<pdfrwt beam="2">  1       -2 0.13494622E+00 0.27933256E+04</pdfrwt>
<totfact> 0.63106158E-01</totfact>
</mgrwt>
</event>
<event>
12    4  0.4183215E-008  0.1459977E+04  0.7818608E-02  0.8911513E-01
         -2   -1    0    0    0  501 -0.00000000000E+00  0.00000000000E+00  0.16844569853E+03  0.16844569853E+03  0.00000000000E+00 0.  1.
          1   -1    0    0  501    0  0.00000000000E+00 -0.00000000000E+00 -0.31635305320E+04  0.31635305320E+04  0.00000000000E+00 0. -1.
        -24    2    1    2    0    0 -0.22168267635E+03  0.37684106443E+03 -0.68519294396E+03  0.81674994232E+03  0.80241516543E+02 0.  0.
        254    2    1    2    0    0  0.22168267635E+03 -0.37684106443E+03 -0.23098918895E+04  0.25152262882E+04  0.89420933953E+03 0.  0.
         23    2    4    4    0    0  0.35864092776E+03 -0.40515350917E+03 -0.22807234461E+04  0.23458014311E+04  0.91171461767E+02 0.  0.
         23    2    4    4    0    0 -0.13695825141E+03  0.28312444736E+02 -0.29168443406E+02  0.16942485713E+03  0.91075940659E+02 0.  0.
          1    1    3    3  502    0 -0.31170974037E+02  0.10970051773E+03 -0.21527380076E+03  0.24361576818E+03  0.00000000000E+00 0. -1.
         -2    1    3    3    0  502 -0.19051170231E+03  0.26714054671E+03 -0.46991914320E+03  0.57313417413E+03  0.00000000000E+00 0.  1.
         11    1    5    5    0    0 -0.30614793207E+01 -0.89410359058E+01 -0.17790823942E+02  0.20145177965E+02  0.00000000000E+00 0. -1.
        -11    1    5    5    0    0  0.36170240708E+03 -0.39621247326E+03 -0.22629326222E+04  0.23256562531E+04  0.00000000000E+00 0.  1.
          1    1    6    6  503    0 -0.14759758883E+03  0.35610766997E+02 -0.19039307650E+02  0.15302179645E+03  0.00000000000E+00 0.  1.
         -1    1    6    6    0  503  0.10639337416E+02 -0.72983222611E+01 -0.10129135756E+02  0.16403060679E+02  0.00000000000E+00 0. -1.
<mgrwt>
<rscale>  0 0.14599769E+04</rscale>
<asrwt>0</asrwt>
<pdfrwt beam="1">  1        1 0.48669699E+00 0.14599769E+04</pdfrwt>
<pdfrwt beam="2">  1       -2 0.25914724E-01 0.14599769E+04</pdfrwt>
<totfact> 0.52282021E+00</totfact>
</mgrwt>
</event>
<event>
12    4  0.4183215E-008  0.3160584E+04  0.7818608E-02  0.8199305E-01
         -2   -1    0    0    0  501 -0.00000000000E+00  0.00000000000E+00  0.16965317440E+04  0.16965317440E+04  0.00000000000E+00 0.  1.
          1   -1    0    0  501    0  0.00000000000E+00 -0.00000000000E+00 -0.14720166119E+04  0.14720166119E+04  0.00000000000E+00 0. -1.
        -24    2    1    2    0    0  0.85341173350E+03 -0.15463202143E+03  0.12570882546E+04  0.15293335529E+04  0.79797163259E+02 0.  0.
        254    2    1    2    0    0 -0.85341173350E+03  0.15463202143E+03 -0.10325731225E+04  0.16392148029E+04  0.93198458561E+03 0.  0.
         23    2    4    4    0    0 -0.14478236217E+02  0.21358256712E+03 -0.68646569113E+03  0.72511838314E+03  0.93457970005E+02 0.  0.
         23    2    4    4    0    0 -0.83893349728E+03 -0.58950545685E+02 -0.34610743137E+03  0.91409641976E+03  0.92180968098E+02 0.  0.
          1    1    3    3  502    0  0.31588475392E+03 -0.96545914734E+02  0.47929978696E+03  0.58209327190E+03  0.00000000000E+00 0. -1.
         -2    1    3    3    0  502  0.53752697958E+03 -0.58086106698E+02  0.77778846766E+03  0.94724028103E+03  0.00000000000E+00 0.  1.
         11    1    5    5    0    0 -0.31990466439E+02  0.77868770839E+02 -0.15574823123E+03  0.17704363006E+03  0.00000000000E+00 0. -1.
        -11    1    5    5    0    0  0.17512230222E+02  0.13571379628E+03 -0.53071745991E+03  0.54807475308E+03  0.00000000000E+00 0.  1.
          1    1    6    6  503    0 -0.41964502750E+02  0.10328304482E+02 -0.20302133175E+01  0.43264478855E+02  0.00000000000E+00 0. -1.
         -1    1    6    6    0  503 -0.79696899453E+03 -0.69278850167E+02 -0.34407721805E+03  0.87083194091E+03  0.00000000000E+00 0.  1.
<mgrwt>
<rscale>  0 0.31605841E+04</rscale>
<asrwt>0</asrwt>
<pdfrwt beam="1">  1        1 0.22646409E+00 0.31605841E+04</pdfrwt>
<pdfrwt beam="2">  1       -2 0.26100488E+00 0.31605841E+04</pdfrwt>
<totfact> 0.27745880E-01</totfact>
</mgrwt>
</event>
<event>
12    4  0.4183215E-008  0.1968426E+04  0.7818608E-02  0.8621526E-01
         -2   -1    0    0    0  501 -0.00000000000E+00  0.00000000000E+00  0.75295935656E+03  0.75295935656E+03  0.00000000000E+00 0.  1.
          1   -1    0    0  501    0  0.00000000000E+00 -0.00000000000E+00 -0.12864907360E+04  0.12864907360E+04  0.00000000000E+00 0. -1.
        -24    2    1    2    0    0  0.72786188548E+03  0.23520271776E+03 -0.76326824165E+02  0.77286607849E+03  0.79955915475E+02 0.  0.
        254    2    1    2    0    0 -0.72786188548E+03 -0.23520271776E+03 -0.45720455523E+03  0.12665840140E+04  0.90005322981E+03 0.  0.
         23    2    4    4    0    0  0.51280167081E+02 -0.38639954801E+02  0.19698389918E+03  0.22643601022E+03  0.91366889764E+02 0.  0.
         23    2    4    4    0    0 -0.77914205256E+03 -0.19656276296E+03 -0.65418845441E+03  0.10401480038E+04  0.90807918696E+02 0.  0.
          1    1    3    3  502    0  0.30185316837E+02  0.18088565081E+02 -0.18874262839E+02  0.39932284394E+02  0.00000000000E+00 0. -1.
         -2    1    3    3    0  502  0.69767656864E+03  0.21711415268E+03 -0.57452561326E+02  0.73293379410E+03  0.00000000000E+00 0.  1.
         11    1    5    5    0    0  0.59167019329E+01  0.14047159868E+02 -0.22610565490E+01  0.15409167363E+02  0.00000000000E+00 0. -1.
        -11    1    5    5    0    0  0.45363465148E+02 -0.52687114669E+02  0.19924495573E+03  0.21102684286E+03  0.00000000000E+00 0.  1.
          4    1    6    6  503    0 -0.54845347010E+02 -0.33535639919E+02 -0.73210488566E+02  0.97429086363E+02  0.00000000000E+00 0. -1.
         -4    1    6    6    0  503 -0.72429670555E+03 -0.16302712304E+03 -0.58097796584E+03  0.94271891745E+03  0.00000000000E+00 0.  1.
<mgrwt>
<rscale>  0 0.19684260E+04</rscale>
<asrwt>0</asrwt>
<pdfrwt beam="1">  1        1 0.19792165E+00 0.19684260E+04</pdfrwt>
<pdfrwt beam="2">  1       -2 0.11583990E+00 0.19684260E+04</pdfrwt>
<totfact> 0.43725629E+00</totfact>
</mgrwt>
</event>
<event>
12    4  0.4183215E-008  0.1194621E+04  0.7818608E-02  0.9117578E-01
         -4   -1    0    0    0  501 -0.00000000000E+00  0.00000000000E+00  0.11989838435E+04  0.11989838435E+04  0.00000000000E+00 0.  1.
          3   -1    0    0  501    0  0.00000000000E+00 -0.00000000000E+00 -0.29756867291E+03  0.29756867291E+03  0.00000000000E+00 0. -1.
        -24    2    1    2    0    0 -0.11059459600E+03 -0.18243451501E+03  0.44131465014E+03  0.49654016908E+03  0.79246464570E+02 0.  0.
        254    2    1    2    0    0  0.11059459600E+03  0.18243451501E+03  0.46010052043E+03  0.10000123473E+04  0.86186929923E+03 0.  0.
         23    2    4    4    0    0  0.28729167560E+03  0.29110886908E+03 -0.68873626504E+02  0.42441651871E+03  0.90027353628E+02 0.  0.
         23    2    4    4    0    0 -0.17669707960E+03 -0.10867435407E+03  0.52897414693E+03  0.57559582861E+03  0.92005090148E+02 0.  0.
          1    1    3    3  502    0 -0.53538125933E+02 -0.58115218022E+02  0.24379423034E+03  0.25627980069E+03  0.00000000000E+00 0. -1.
         -2    1    3    3    0  502 -0.57056470063E+02 -0.12431929698E+03  0.19752041980E+03  0.24026036839E+03  0.00000000000E+00 0.  1.
         11    1    5    5    0    0  0.21571954355E+03  0.16866609253E+03 -0.20619605191E+02  0.27460579083E+03  0.00000000000E+00 0.  1.
        -11    1    5    5    0    0  0.71572132048E+02  0.12244277655E+03 -0.48254021312E+02  0.14981072788E+03  0.00000000000E+00 0. -1.
          3    1    6    6  503    0 -0.91251679179E+02 -0.94186856164E+02  0.39345675722E+03  0.41473636521E+03  0.00000000000E+00 0. -1.
         -3    1    6    6    0  503 -0.85445400424E+02 -0.14487497909E+02  0.13551738972E+03  0.16085946340E+03  0.00000000000E+00 0.  1.
<mgrwt>
<rscale>  0 0.11946213E+04</rscale>
<asrwt>0</asrwt>
<pdfrwt beam="1">  1        3 0.45779796E-01 0.11946213E+04</pdfrwt>
<pdfrwt beam="2">  1       -4 0.18445905E+00 0.11946213E+04</pdfrwt>
<totfact> 0.17939975E+00</totfact>
</mgrwt>
</event>
<event>
12    4  0.4183215E-008  0.2601647E+04  0.7818608E-02  0.8367642E-01
          1   -1    0    0  501    0  0.00000000000E+00  0.00000000000E+00  0.93698032217E+03  0.93698032217E+03  0.00000000000E+00 0. -1.
         -2   -1    0    0    0  501 -0.00000000000E+00 -0.00000000000E+00 -0.18059524530E+04  0.18059524530E+04  0.00000000000E+00 0.  1.
        -24    2    1    2    0    0 -0.26789312171E+03 -0.40366522185E+02 -0.15513233307E+04  0.15767812453E+04  0.78986317908E+02 0.  0.
        254    2    1    2    0    0  0.26789312171E+03  0.40366522185E+02  0.68235119986E+03  0.11661515299E+04  0.90604086548E+03 0.  0.
         23    2    4    4    0    0 -0.27514132500E+02  0.36056170774E+03  0.24684419459E+02  0.37228064334E+03  0.84981081822E+02 0.  0.
         23    2    4    4    0    0  0.29540725421E+03 -0.32019518555E+03  0.65766678040E+03  0.79387088654E+03  0.88966217017E+02 0.  0.
          1    1    3    3  502    0 -0.23006509884E+02  0.65283166910E+01 -0.57225809383E+02  0.62021864495E+02  0.00000000000E+00 0. -1.
         -2    1    3    3    0  502 -0.24488661183E+03 -0.46894838876E+02 -0.14940975213E+04  0.15147593808E+04  0.00000000000E+00 0.  1.
         11    1    5    5    0    0 -0.56653334278E+02  0.22083646453E+03  0.26618100292E+02  0.22953620110E+03  0.00000000000E+00 0. -1.
        -11    1    5    5    0    0  0.29139201777E+02  0.13972524321E+03 -0.19336808326E+01  0.14274444224E+03  0.00000000000E+00 0.  1.
          4    1    6    6  503    0  0.22798393828E+03 -0.18600846360E+03  0.44739464711E+03  0.53547903311E+03  0.00000000000E+00 0. -1.
         -4    1    6    6    0  503  0.67423315928E+02 -0.13418672196E+03  0.21027213329E+03  0.25839185343E+03  0.00000000000E+00 0.  1.
<mgrwt>
<rscale>  0 0.26016471E+04</rscale>
<asrwt>0</asrwt>
<pdfrwt beam="1">  1        1 0.14415082E+00 0.26016471E+04</pdfrwt>
<pdfrwt beam="2">  1       -2 0.27783884E+00 0.26016471E+04</pdfrwt>
<totfact> 0.56927921E-01</totfact>
</mgrwt>
</event>
<event>
12    4  0.4183215E-008  0.1873704E+04  0.7818608E-02  0.8668057E-01
          1   -1    0    0  501    0  0.00000000000E+00  0.00000000000E+00  0.23903705212E+04  0.23903705212E+04  0.00000000000E+00 0. -1.
         -2   -1    0    0    0  501 -0.00000000000E+00 -0.00000000000E+00 -0.36717822655E+03  0.36717822655E+03  0.00000000000E+00 0.  1.
        -24    2    1    2    0    0  0.17627653217E+03 -0.62317566789E+03  0.31420311174E+03  0.72445436222E+03  0.81787521465E+02 0.  0.
        254    2    1    2    0    0 -0.17627653217E+03  0.62317566789E+03  0.17089891830E+04  0.20330943856E+04  0.89073420523E+03 0.  0.
         23    2    4    4    0    0 -0.30235719710E+02 -0.21859842353E+03  0.41952661874E+03  0.48281389175E+03  0.91690788634E+02 0.  0.
         23    2    4    4    0    0 -0.14604081246E+03  0.84177409142E+03  0.12894625642E+04  0.15502804938E+04  0.10365502942E+03 0.  0.
          3    1    3    3  502    0  0.12267594264E+02 -0.53794074946E+01  0.89557793599E+01  0.16113282656E+02  0.00000000000E+00 0. -1.
         -4    1    3    3    0  502  0.16400893791E+03 -0.61779626039E+03  0.30524733238E+03  0.70834107956E+03  0.00000000000E+00 0.  1.
         11    1    5    5    0    0  0.28190583021E+02 -0.12799141590E+03  0.23709720190E+03  0.27090883091E+03  0.00000000000E+00 0. -1.
        -11    1    5    5    0    0 -0.58426302730E+02 -0.90607007632E+02  0.18242941684E+03  0.21190506085E+03  0.00000000000E+00 0.  1.
          3    1    6    6  503    0 -0.15692506424E+03  0.68850365228E+03  0.10326918938E+04  0.12510456836E+04  0.00000000000E+00 0. -1.
         -3    1    6    6    0  503  0.10884251771E+02  0.15327043914E+03  0.25677067040E+03  0.29923481019E+03  0.00000000000E+00 0.  1.
<mgrwt>
<rscale>  0 0.18737044E+04</rscale>
<asrwt>0</asrwt>
<pdfrwt beam="1">  1        1 0.36774930E+00 0.18737044E+04</pdfrwt>
<pdfrwt beam="2">  1       -2 0.56488960E-01 0.18737044E+04</pdfrwt>
<totfact> 0.39088793E+00</totfact>
</mgrwt>
</event>
<event>
12    4  0.4183215E-008  0.1316770E+04  0.7818608E-02  0.9016371E-01
          1   -1    0    0  501    0  0.00000000000E+00  0.00000000000E+00  0.43364497834E+03  0.43364497834E+03  0.00000000000E+00 0. -1.
         -2   -1    0    0    0  501 -0.00000000000E+00 -0.00000000000E+00 -0.99959892142E+03  0.99959892142E+03  0.00000000000E+00 0.  1.
        -24    2    1    2    0    0  0.81029748597E+02 -0.21662633493E+03  0.12270847301E+03  0.27380004139E+03  0.80101836270E+02 0.  0.
        254    2    1    2    0    0 -0.81029748597E+02  0.21662633493E+03 -0.68866241610E+03  0.11594438584E+04  0.90363784130E+03 0.  0.
         23    2    4    4    0    0 -0.21826697926E+03  0.43330499662E+03 -0.73179759009E+03  0.88279668899E+03  0.91698347281E+02 0.  0.
         23    2    4    4    0    0  0.13723723067E+03 -0.21667866169E+03  0.43135173995E+02  0.27664716938E+03  0.94283154260E+02 0.  0.
          1    1    3    3  502    0  0.64318285462E+02 -0.21234124273E+03  0.12750078967E+03  0.25589469821E+03  0.00000000000E+00 0. -1.
         -2    1    3    3    0  502  0.16711463135E+02 -0.42850922053E+01 -0.47923166611E+01  0.17905343177E+02  0.00000000000E+00 0.  1.
         11    1    5    5    0    0  0.76693117458E+01  0.34852224969E+02 -0.55229913201E+02  0.65755906504E+02  0.00000000000E+00 0.  1.
        -11    1    5    5    0    0 -0.22593629101E+03  0.39845277165E+03 -0.67656767689E+03  0.81704078249E+03  0.00000000000E+00 0. -1.
          4    1    6    6  503    0  0.10192961166E+03 -0.93233340534E+02 -0.81732604755E+01  0.13837956391E+03  0.00000000000E+00 0. -1.
         -4    1    6    6    0  503  0.35307619007E+02 -0.12344532116E+03  0.51308434470E+02  0.13826760547E+03  0.00000000000E+00 0.  1.
<mgrwt>
<rscale>  0 0.13167704E+04</rscale>
<asrwt>0</asrwt>
<pdfrwt beam="1">  1        1 0.66714612E-01 0.13167704E+04</pdfrwt>
<pdfrwt beam="2">  1       -2 0.15378445E+00 0.13167704E+04</pdfrwt>
<totfact> 0.12932728E+01</totfact>
</mgrwt>
</event>
<event>
12    4  0.4183215E-008  0.2902698E+04  0.7818608E-02  0.8272075E-01
          1   -1    0    0  501    0  0.00000000000E+00  0.00000000000E+00  0.22754309418E+04  0.22754309418E+04  0.00000000000E+00 0. -1.
         -2   -1    0    0    0  501 -0.00000000000E+00 -0.00000000000E+00 -0.92572099949E+03  0.92572099949E+03  0.00000000000E+00 0.  1.
        -24    2    1    2    0    0 -0.11835013857E+04 -0.16490842865E+03  0.11953290785E+04  0.16920286875E+04  0.79241110746E+02 0.  0.
        254    2    1    2    0    0  0.11835013857E+04  0.16490842865E+03  0.15438086381E+03  0.15091232538E+04  0.90870744695E+03 0.  0.
         23    2    4    4    0    0  0.45181132740E+03  0.37302528195E+03  0.38704501441E+03  0.70792137880E+03  0.89819256502E+02 0.  0.
         23    2    4    4    0    0  0.73169005832E+03 -0.20811685330E+03 -0.23266415060E+03  0.80120187498E+03  0.95440407721E+02 0.  0.
          3    1    3    3  502    0 -0.11705763206E+04 -0.16757174306E+03  0.11904876778E+04  0.16779720267E+04  0.00000000000E+00 0. -1.
         -4    1    3    3    0  502 -0.12925065144E+02  0.26633144048E+01  0.48414006761E+01  0.14056660809E+02  0.00000000000E+00 0.  1.
         11    1    5    5    0    0  0.14707456109E+03  0.13718856739E+03  0.85154156340E+02  0.21840984383E+03  0.00000000000E+00 0. -1.
        -11    1    5    5    0    0  0.30473676631E+03  0.23583671457E+03  0.30189085807E+03  0.48951153496E+03  0.00000000000E+00 0.  1.
          4    1    6    6  503    0  0.18200334327E+03 -0.94516128799E+02 -0.72082472647E+02  0.21738076830E+03  0.00000000000E+00 0. -1.
         -4    1    6    6    0  503  0.54968671505E+03 -0.11360072450E+03 -0.16058167795E+03  0.58382110668E+03  0.00000000000E+00 0.  1.
<mgrwt>
<rscale>  0 0.29026982E+04</rscale>
<asrwt>0</asrwt>
<pdfrwt beam="1">  1        1 0.35006630E+00 0.29026982E+04</pdfrwt>
<pdfrwt beam="2">  1       -2 0.14241862E+00 0.29026982E+04</pdfrwt>
<totfact> 0.50142673E-01</totfact>
</mgrwt>
</event>
<event>
12    4  0.4183215E-008  0.1341799E+04  0.7818608E-02  0.8997059E-01
         -2   -1    0    0    0  501 -0.00000000000E+00  0.00000000000E+00  0.78108880499E+03  0.78108880499E+03  0.00000000000E+00 0.  1.
          1   -1    0    0  501    0  0.00000000000E+00 -0.00000000000E+00 -0.57625513901E+03  0.57625513901E+03  0.00000000000E+00 0. -1.
        -24    2    1    2    0    0  0.39432191924E+02  0.33562591054E+03 -0.63880514808E+02  0.35305054161E+03  0.79776658076E+02 0.  0.
        254    2    1    2    0    0 -0.39432191924E+02 -0.33562591054E+03  0.26871418079E+03  0.10042934024E+04  0.90675149713E+03 0.  0.
         23    2    4    4    0    0  0.35362771092E+03 -0.36898099777E+03  0.29708388054E+03  0.59819939853E+03  0.91565024297E+02 0.  0.
         23    2    4    4    0    0 -0.39305990284E+03  0.33355087229E+02 -0.28369699755E+02  0.40609400386E+03  0.92189213275E+02 0.  0.
          3    1    3    3  502    0  0.26395711610E+02  0.17687102653E+03 -0.73785012189E+02  0.19345366795E+03  0.00000000000E+00 0. -1.
         -4    1    3    3    0  502  0.13036480314E+02  0.15875488401E+03  0.99044973804E+01  0.15959687367E+03  0.00000000000E+00 0.  1.
         11    1    5    5    0    0  0.38784603707E+02 -0.91333545209E+02  0.50207870866E+02  0.11120652976E+03  0.00000000000E+00 0.  1.
        -11    1    5    5    0    0  0.31484310721E+03 -0.27764745256E+03  0.24687600968E+03  0.48699286876E+03  0.00000000000E+00 0. -1.
          1    1    6    6  503    0 -0.36297922845E+03  0.55050395329E+02 -0.17943914720E+02  0.36756829350E+03  0.00000000000E+00 0. -1.
         -1    1    6    6    0  503 -0.30080674395E+02 -0.21695308100E+02 -0.10425785035E+02  0.38525710366E+02  0.00000000000E+00 0.  1.
<mgrwt>
<rscale>  0 0.13417994E+04</rscale>
<asrwt>0</asrwt>
<pdfrwt beam="1">  1        1 0.88654637E-01 0.13417994E+04</pdfrwt>
<pdfrwt beam="2">  1       -2 0.12016751E+00 0.13417994E+04</pdfrwt>
<totfact> 0.16456282E+01</totfact>
</mgrwt>
</event>
<event>
12    4  0.4183215E-008  0.1120589E+04  0.7818608E-02  0.9185354E-01
          1   -1    0    0  501    0  0.00000000000E+00  0.00000000000E+00  0.47721917764E+03  0.47721917764E+03  0.00000000000E+00 0. -1.
         -4   -1    0    0    0  501 -0.00000000000E+00 -0.00000000000E+00 -0.65783170062E+03  0.65783170062E+03  0.00000000000E+00 0.  1.
        -24    2    1    2    0    0  0.14248630918E+03  0.14096770994E+02  0.64154543772E+00  0.16406179186E+03  0.80092401078E+02 0.  0.
        254    2    1    2    0    0 -0.14248630918E+03 -0.14096770994E+02 -0.18125406843E+03  0.97098908640E+03  0.94311489297E+03 0.  0.
         23    2    4    4    0    0 -0.36119380485E+03 -0.29494989327E+03  0.12594417721E+03  0.49197249593E+03  0.93373426486E+02 0.  0.
         23    2    4    4    0    0  0.21870749567E+03  0.28085312227E+03 -0.30719824564E+03  0.47901659048E+03  0.91513315300E+02 0.  0.
          1    1    3    3  502    0  0.12996844553E+03  0.40586645719E+01  0.27375502005E+02  0.13288223245E+03  0.00000000000E+00 0. -1.
         -2    1    3    3    0  502  0.12517863651E+02  0.10038106422E+02 -0.26733956567E+02  0.31179559405E+02  0.00000000000E+00 0.  1.
         11    1    5    5    0    0 -0.18996680115E+03 -0.12032473058E+03  0.99778617250E+02  0.24601056641E+03  0.00000000000E+00 0. -1.
        -11    1    5    5    0    0 -0.17122700370E+03 -0.17462516269E+03  0.26165559961E+02  0.24596192951E+03  0.00000000000E+00 0.  1.
          2    1    6    6  503    0  0.18541907695E+03  0.23688116621E+03 -0.29737948532E+03  0.42299820247E+03  0.00000000000E+00 0. -1.
         -2    1    6    6    0  503  0.33288418714E+02  0.43971956063E+02 -0.98187603136E+01  0.56018388004E+02  0.00000000000E+00 0.  1.
<mgrwt>
<rscale>  0 0.11205890E+04</rscale>
<asrwt>0</asrwt>
<pdfrwt beam="1">  1        1 0.73418335E-01 0.11205890E+04</pdfrwt>
<pdfrwt beam="2">  1       -4 0.10120488E+00 0.11205890E+04</pdfrwt>
<totfact> 0.18098148E+01</totfact>
</mgrwt>
</event>
<event>
12    4  0.4183215E-008  0.1233283E+04  0.7818608E-02  0.9084212E-01
         -2   -1    0    0    0  501 -0.00000000000E+00  0.00000000000E+00  0.70580810224E+03  0.70580810224E+03  0.00000000000E+00 0.  1.
          1   -1    0    0  501    0  0.00000000000E+00 -0.00000000000E+00 -0.53873972807E+03  0.53873972807E+03  0.00000000000E+00 0. -1.
        -24    2    1    2    0    0  0.53363894705E+02  0.15606193616E+03  0.28399163700E+03  0.33775938366E+03  0.78912091515E+02 0.  0.
        254    2    1    2    0    0 -0.53363894705E+02 -0.15606193616E+03 -0.11692326283E+03  0.90678844666E+03  0.88396335016E+03 0.  0.
         23    2    4    4    0    0 -0.14610902169E+03  0.15211363671E+03  0.29636969233E+03  0.37503284160E+03  0.91259153276E+02 0.  0.
         23    2    4    4    0    0  0.92745126980E+02 -0.30817557287E+03 -0.41329295517E+03  0.53175560506E+03  0.91537502849E+02 0.  0.
          3    1    3    3  502    0  0.34941428224E+02  0.10307706447E+03  0.10915827517E+03  0.15414705208E+03  0.00000000000E+00 0. -1.
         -4    1    3    3    0  502  0.18422466481E+02  0.52984871684E+02  0.17483336183E+03  0.18361233158E+03  0.00000000000E+00 0.  1.
         11    1    5    5    0    0  0.91726964510E+00 -0.69050551463E+01  0.34566976141E+02  0.35261835031E+02  0.00000000000E+00 0. -1.
        -11    1    5    5    0    0 -0.14702629133E+03  0.15901869186E+03  0.26180271619E+03  0.33977100657E+03  0.00000000000E+00 0.  1.
          1    1    6    6  503    0 -0.11506640135E+02 -0.11059728300E+03 -0.13854929478E+03  0.17765153773E+03  0.00000000000E+00 0. -1.
         -1    1    6    6    0  503  0.10425176712E+03 -0.19757828986E+03 -0.27474366038E+03  0.35410406732E+03  0.00000000000E+00 0.  1.
<mgrwt>
<rscale>  0 0.12332832E+04</rscale>
<asrwt>0</asrwt>
<pdfrwt beam="1">  1        1 0.82883035E-01 0.12332832E+04</pdfrwt>
<pdfrwt beam="2">  1       -2 0.10858586E+00 0.12332832E+04</pdfrwt>
<totfact> 0.23384761E+01</totfact>
</mgrwt>
</event>
<event>
12    4  0.4183215E-008  0.1514612E+04  0.7818608E-02  0.8874794E-01
          1   -1    0    0  501    0  0.00000000000E+00  0.00000000000E+00  0.89718935020E+03  0.89718935020E+03  0.00000000000E+00 0. -1.
         -4   -1    0    0    0  501 -0.00000000000E+00 -0.00000000000E+00 -0.63923224137E+03  0.63923224137E+03  0.00000000000E+00 0.  1.
        -24    2    1    2    0    0  0.28728554498E+03 -0.51359024465E+02 -0.29989803466E+03  0.42638861206E+03  0.81839376550E+02 0.  0.
        254    2    1    2    0    0 -0.28728554498E+03  0.51359024465E+02  0.55785514349E+03  0.11100329795E+04  0.91422104588E+03 0.  0.
         23    2    4    4    0    0 -0.17050245327E+03  0.44177772639E+03  0.10381456082E+03  0.49302840388E+03  0.89782503240E+02 0.  0.
         23    2    4    4    0    0 -0.11678309170E+03 -0.39041870192E+03  0.45404058267E+03  0.61700457563E+03  0.92069225705E+02 0.  0.
          1    1    3    3  502    0  0.26353977781E+02  0.86265699333E+01 -0.63231825637E+02  0.69045011602E+02  0.00000000000E+00 0. -1.
         -2    1    3    3    0  502  0.26093156720E+03 -0.59985594399E+02 -0.23666620903E+03  0.35734360046E+03  0.00000000000E+00 0.  1.
         11    1    5    5    0    0 -0.17173938378E+03  0.43849706132E+03  0.11205172390E+03  0.48407610719E+03  0.00000000000E+00 0. -1.
        -11    1    5    5    0    0  0.12369305087E+01  0.32806650705E+01 -0.82371630778E+01  0.89522966862E+01  0.00000000000E+00 0.  1.
          3    1    6    6  503    0 -0.13100906392E+02 -0.18396803130E+03  0.16954892953E+03  0.25052486861E+03  0.00000000000E+00 0. -1.
         -3    1    6    6    0  503 -0.10368218531E+03 -0.20645067063E+03  0.28449165314E+03  0.36647970702E+03  0.00000000000E+00 0.  1.
<mgrwt>
<rscale>  0 0.15146120E+04</rscale>
<asrwt>0</asrwt>
<pdfrwt beam="1">  1        1 0.13802913E+00 0.15146120E+04</pdfrwt>
<pdfrwt beam="2">  1       -4 0.98343421E-01 0.15146120E+04</pdfrwt>
<totfact> 0.73697304E+00</totfact>
</mgrwt>
</event>
<event>
12    4  0.4183215E-008  0.1064157E+04  0.7818608E-02  0.9240849E-01
          3   -1    0    0  501    0  0.00000000000E+00  0.00000000000E+00  0.44557435490E+03  0.44557435490E+03  0.00000000000E+00 0. -1.
         -4   -1    0    0    0  501 -0.00000000000E+00 -0.00000000000E+00 -0.63537679343E+03  0.63537679343E+03  0.00000000000E+00 0.  1.
        -24    2    1    2    0    0 -0.91228751759E+02 -0.45542960254E+02 -0.10345885471E+03  0.16636162836E+03  0.81090137492E+02 0.  0.
        254    2    1    2    0    0  0.91228751759E+02  0.45542960254E+02 -0.86343583816E+02  0.91458951996E+03  0.90477728154E+03 0.  0.
         23    2    4    4    0    0 -0.10947622737E+03 -0.32222475526E+03  0.19365346685E+03  0.40268100676E+03  0.94002610200E+02 0.  0.
         23    2    4    4    0    0  0.20070497913E+03  0.36776771552E+03 -0.27999705066E+03  0.51190851320E+03  0.90091044421E+02 0.  0.
          1    1    3    3  502    0  0.14270269357E+02  0.21152210542E+01 -0.95972725406E+01  0.17326926671E+02  0.00000000000E+00 0. -1.
         -2    1    3    3    0  502 -0.10549902112E+03 -0.47658181308E+02 -0.93861582166E+02  0.14903470169E+03  0.00000000000E+00 0.  1.
         11    1    5    5    0    0 -0.70453586046E+02 -0.16170939896E+03  0.15069238576E+03  0.23199532888E+03  0.00000000000E+00 0.  1.
        -11    1    5    5    0    0 -0.39022641324E+02 -0.16051535630E+03  0.42961081086E+02  0.17068567788E+03  0.00000000000E+00 0. -1.
          3    1    6    6  503    0  0.27773913980E+01  0.18333462903E+02 -0.39937608423E+02  0.44032287376E+02  0.00000000000E+00 0. -1.
         -3    1    6    6    0  503  0.19792758773E+03  0.34943425261E+03 -0.24005944224E+03  0.46787622582E+03  0.00000000000E+00 0.  1.
<mgrwt>
<rscale>  0 0.10641571E+04</rscale>
<asrwt>0</asrwt>
<pdfrwt beam="1">  1        3 0.68549901E-01 0.10641571E+04</pdfrwt>
<pdfrwt beam="2">  1       -4 0.97750276E-01 0.10641571E+04</pdfrwt>
<totfact> 0.40457266E+00</totfact>
</mgrwt>
</event>
<event>
12    4  0.4957332E-008  0.1554489E+04  0.7818608E-02  0.8849005E-01
          1   -1    0    0  501    0  0.00000000000E+00  0.00000000000E+00  0.15001830118E+04  0.15001830118E+04  0.00000000000E+00 0. -1.
         -4   -1    0    0    0  501 -0.00000000000E+00 -0.00000000000E+00 -0.40269037495E+03  0.40269037495E+03  0.00000000000E+00 0.  1.
        -24    2    1    2    0    0 -0.36873057515E+02 -0.36522209806E+03 -0.70164593860E+02  0.38204705678E+03  0.79310025079E+02 0.  0.
        254    2    1    2    0    0  0.36873057515E+02  0.36522209806E+03  0.11676572307E+04  0.15208263299E+04  0.90263088481E+03 0.  0.
         23    2    4    4    0    0  0.67570547038E+02 -0.23933591360E+03  0.89738386715E+02  0.28118319344E+03  0.95726442851E+02 0.  0.
         23    2    4    4    0    0 -0.30697489523E+02  0.60455801166E+03  0.10779188439E+04  0.12396431365E+04  0.91505990931E+02 0.  0.
          1    1    3    3  502    0 -0.50737202264E+00 -0.32531222241E+02 -0.31263229405E+02  0.45121251753E+02  0.00000000000E+00 0. -1.
         -4    1    3    3    0  502 -0.36365685492E+02 -0.33269087582E+03 -0.38901364455E+02  0.33692580502E+03  0.00000000000E+00 0.  1.
         11    1    5    5    0    0  0.11665614085E+02 -0.46277522700E+02  0.62071752568E+02  0.78298136160E+02  0.00000000000E+00 0. -1.
        -11    1    5    5    0    0  0.55904932953E+02 -0.19305839090E+03  0.27666634147E+02  0.20288505728E+03  0.00000000000E+00 0.  1.
          1    1    6    6  503    0 -0.16480378690E+02  0.15643471627E+02  0.49256271781E+02  0.54244828289E+02  0.00000000000E+00 0. -1.
         -1    1    6    6    0  503 -0.14217110833E+02  0.58891454003E+03  0.10286625722E+04  0.11853983082E+04  0.00000000000E+00 0.  1.
<mgrwt>
<rscale>  0 0.15544893E+04</rscale>
<asrwt>0</asrwt>
<pdfrwt beam="1">  1        1 0.23079738E+00 0.15544893E+04</pdfrwt>
<pdfrwt beam="2">  1       -4 0.61952366E-01 0.15544893E+04</pdfrwt>
<totfact> 0.75647805E+00</totfact>
</mgrwt>
</event>
<event>
12    4  0.4183215E-008  0.1863456E+04  0.7818608E-02  0.8673263E-01
          1   -1    0    0  501    0  0.00000000000E+00  0.00000000000E+00  0.77804123538E+03  0.77804123538E+03  0.00000000000E+00 0. -1.
         -2   -1    0    0    0  501 -0.00000000000E+00 -0.00000000000E+00 -0.11157728668E+04  0.11157728668E+04  0.00000000000E+00 0.  1.
        -24    2    1    2    0    0  0.62567304919E+03  0.28426028078E+02 -0.47856308246E+03  0.79220800007E+03  0.79347891816E+02 0.  0.
        254    2    1    2    0    0 -0.62567304919E+03 -0.28426028078E+02  0.14083145105E+03  0.11016061021E+04  0.89522494550E+03 0.  0.
         23    2    4    4    0    0 -0.77730591002E+03 -0.12518818744E+03 -0.86879867299E+02  0.79739773040E+03  0.91752215669E+02 0.  0.
         23    2    4    4    0    0  0.15163286083E+03  0.96762159361E+02  0.22771131835E+03  0.30420837171E+03  0.91295393893E+02 0.  0.
          3    1    3    3  502    0  0.10733890451E+03 -0.11201098531E+01 -0.12134706521E+03  0.16201236157E+03  0.00000000000E+00 0. -1.
         -4    1    3    3    0  502  0.51833414468E+03  0.29546137931E+02 -0.35721601725E+03  0.63019563850E+03  0.00000000000E+00 0.  1.
         11    1    5    5    0    0 -0.73712071441E+03 -0.13635641729E+03 -0.92501882359E+02  0.75531226548E+03  0.00000000000E+00 0. -1.
        -11    1    5    5    0    0 -0.40185195604E+02  0.11168229846E+02  0.56220150600E+01  0.42085464914E+02  0.00000000000E+00 0.  1.
          1    1    6    6  503    0  0.13902393245E+03  0.11345947541E+03  0.19186960969E+03  0.26270640167E+03  0.00000000000E+00 0. -1.
         -1    1    6    6    0  503  0.12608928381E+02 -0.16697316045E+02  0.35841708657E+02  0.41501970043E+02  0.00000000000E+00 0.  1.
<mgrwt>
<rscale>  0 0.18634563E+04</rscale>
<asrwt>0</asrwt>
<pdfrwt beam="1">  1        1 0.11969865E+00 0.18634563E+04</pdfrwt>
<pdfrwt beam="2">  1       -2 0.17165736E+00 0.18634563E+04</pdfrwt>
<totfact> 0.39403048E+00</totfact>
</mgrwt>
</event>
<event>
12    4  0.4183215E-008  0.1666981E+04  0.7818608E-02  0.8780424E-01
         -2   -1    0    0    0  501 -0.00000000000E+00  0.00000000000E+00  0.93430022471E+03  0.93430022471E+03  0.00000000000E+00 0.  1.
          3   -1    0    0  501    0  0.00000000000E+00 -0.00000000000E+00 -0.74355765144E+03  0.74355765144E+03  0.00000000000E+00 0. -1.
        -24    2    1    2    0    0 -0.10659775119E+03 -0.52019422181E+03  0.32150093570E+03  0.62566717354E+03  0.78303585014E+02 0.  0.
        254    2    1    2    0    0  0.10659775119E+03  0.52019422181E+03 -0.13075836244E+03  0.10521907026E+04  0.89891179564E+03 0.  0.
         23    2    4    4    0    0  0.29888390179E+03  0.22611450337E+03 -0.43275877164E+03  0.57967292240E+03  0.91001028331E+02 0.  0.
         23    2    4    4    0    0 -0.19228615060E+03  0.29407971844E+03  0.30200040920E+03  0.47251778020E+03  0.92800651613E+02 0.  0.
          3    1    3    3  502    0 -0.81092065063E+02 -0.35432488296E+03  0.17738228172E+03  0.40445830387E+03  0.00000000000E+00 0. -1.
         -2    1    3    3    0  502 -0.25505686130E+02 -0.16586933885E+03  0.14411865399E+03  0.22120886967E+03  0.00000000000E+00 0.  1.
         11    1    5    5    0    0  0.59258347574E+02  0.79090766855E+02 -0.15938699636E+03  0.18753963786E+03  0.00000000000E+00 0. -1.
        -11    1    5    5    0    0  0.23962555422E+03  0.14702373651E+03 -0.27337177528E+03  0.39213328455E+03  0.00000000000E+00 0.  1.
          2    1    6    6  503    0 -0.77526509026E+00  0.29873478517E+02  0.31785204516E+01  0.30052100541E+02  0.00000000000E+00 0. -1.
         -2    1    6    6    0  503 -0.19151088551E+03  0.26420623993E+03  0.29882188875E+03  0.44246567966E+03  0.00000000000E+00 0.  1.
<mgrwt>
<rscale>  0 0.16669806E+04</rscale>
<asrwt>0</asrwt>
<pdfrwt beam="1">  1        3 0.11439348E+00 0.16669806E+04</pdfrwt>
<pdfrwt beam="2">  1       -2 0.14373850E+00 0.16669806E+04</pdfrwt>
<totfact> 0.84468084E-01</totfact>
</mgrwt>
</event>
<event>
12    4  0.4183215E-008  0.1428766E+04  0.7818608E-02  0.8933255E-01
          1   -1    0    0  501    0  0.00000000000E+00  0.00000000000E+00  0.13438578323E+04  0.13438578323E+04  0.00000000000E+00 0. -1.
         -2   -1    0    0    0  501 -0.00000000000E+00 -0.00000000000E+00 -0.37975996332E+03  0.37975996332E+03  0.00000000000E+00 0.  1.
        -24    2    1    2    0    0 -0.55357028718E+02  0.29369219898E+03 -0.41241321932E+02  0.31189577887E+03  0.79111452232E+02 0.  0.
        254    2    1    2    0    0  0.55357028718E+02 -0.29369219898E+03  0.10053391909E+04  0.14117220168E+04  0.94495113917E+03 0.  0.
         23    2    4    4    0    0  0.37245908857E+03 -0.33812502262E+03  0.21580018573E+03  0.55484044165E+03  0.90685676658E+02 0.  0.
         23    2    4    4    0    0 -0.31710205985E+03  0.44432823640E+02  0.78953900521E+03  0.85688157512E+03  0.91357544046E+02 0.  0.
          3    1    3    3  502    0 -0.36411350357E+01 -0.45325710114E+01 -0.37226873926E+01  0.69036559694E+01  0.00000000000E+00 0. -1.
         -4    1    3    3    0  502 -0.51715893682E+02  0.29822476999E+03 -0.37518634539E+02  0.30499212291E+03  0.00000000000E+00 0.  1.
         11    1    5    5    0    0  0.21111875201E+03 -0.24941473203E+03  0.12944642018E+03  0.35147576261E+03  0.00000000000E+00 0. -1.
        -11    1    5    5    0    0  0.16134033655E+03 -0.88710290588E+02  0.86353765550E+02  0.20336467904E+03  0.00000000000E+00 0.  1.
          2    1    6    6  503    0 -0.15008303267E+03  0.66881124589E+02  0.40247467085E+03  0.43472274175E+03  0.00000000000E+00 0. -1.
         -2    1    6    6    0  503 -0.16701902718E+03 -0.22448300949E+02  0.38706433436E+03  0.42215883337E+03  0.00000000000E+00 0.  1.
<mgrwt>
<rscale>  0 0.14287665E+04</rscale>
<asrwt>0</asrwt>
<pdfrwt beam="1">  1        1 0.20674736E+00 0.14287665E+04</pdfrwt>
<pdfrwt beam="2">  1       -2 0.58424610E-01 0.14287665E+04</pdfrwt>
<totfact> 0.19680521E+01</totfact>
</mgrwt>
</event>
<event>
12    4  0.4183215E-008  0.2177081E+04  0.7818608E-02  0.8528028E-01
          1   -1    0    0  501    0  0.00000000000E+00  0.00000000000E+00  0.81332824601E+03  0.81332824601E+03  0.00000000000E+00 0. -1.
         -2   -1    0    0    0  501 -0.00000000000E+00 -0.00000000000E+00 -0.14568785733E+04  0.14568785733E+04  0.00000000000E+00 0.  1.
        -24    2    1    2    0    0 -0.70730928757E+03 -0.48402053340E+03 -0.69526382112E+01  0.86081003767E+03  0.79895411295E+02 0.  0.
        254    2    1    2    0    0  0.70730928757E+03  0.48402053340E+03 -0.63659768907E+03  0.14093967816E+04  0.92009801940E+03 0.  0.
         23    2    4    4    0    0  0.35160516094E+03 -0.14135931285E+03  0.70137619535E+02  0.39683258300E+03  0.94594760576E+02 0.  0.
         23    2    4    4    0    0  0.35570412663E+03  0.62537984625E+03 -0.70673530861E+03  0.10125641986E+04  0.90476970114E+02 0.  0.
          1    1    3    3  502    0 -0.69678714747E+03 -0.47107663522E+03 -0.17146628896E+02  0.84126068018E+03  0.00000000000E+00 0. -1.
         -4    1    3    3    0  502 -0.10522140094E+02 -0.12943898179E+02  0.10193990685E+02  0.19549357492E+02  0.00000000000E+00 0.  1.
         11    1    5    5    0    0  0.66132314620E+02 -0.70034193131E+02  0.18705490151E+02  0.98123221545E+02  0.00000000000E+00 0.  1.
        -11    1    5    5    0    0  0.28547284632E+03 -0.71325119719E+02  0.51432129384E+02  0.29870936145E+03  0.00000000000E+00 0. -1.
          4    1    6    6  503    0  0.21692721671E+03  0.46130543880E+03 -0.51361682852E+03  0.72364519743E+03  0.00000000000E+00 0. -1.
         -4    1    6    6    0  503  0.13877690992E+03  0.16407440745E+03 -0.19311848009E+03  0.28891900121E+03  0.00000000000E+00 0.  1.
<mgrwt>
<rscale>  0 0.21770811E+04</rscale>
<asrwt>0</asrwt>
<pdfrwt beam="1">  1        1 0.12512742E+00 0.21770811E+04</pdfrwt>
<pdfrwt beam="2">  1       -2 0.22413517E+00 0.21770811E+04</pdfrwt>
<totfact> 0.16034778E+00</totfact>
</mgrwt>
</event>
<event>
12    4  0.4183215E-008  0.2734241E+04  0.7818608E-02  0.8323980E-01
         -2   -1    0    0    0  501 -0.00000000000E+00  0.00000000000E+00  0.20056982550E+04  0.20056982550E+04  0.00000000000E+00 0.  1.
          1   -1    0    0  501    0  0.00000000000E+00 -0.00000000000E+00 -0.93185414866E+03  0.93185414866E+03  0.00000000000E+00 0. -1.
        -24    2    1    2    0    0 -0.11218833324E+04 -0.62931590350E+02 -0.21820380100E+02  0.11264585868E+04  0.76486744330E+02 0.  0.
        254    2    1    2    0    0  0.11218833324E+04  0.62931590350E+02  0.10956644864E+04  0.18110938169E+04  0.90387916787E+03 0.  0.
         23    2    4    4    0    0  0.10250253168E+04  0.38058816523E+03  0.85464922050E+03  0.13908161884E+04  0.91761257144E+02 0.  0.
         23    2    4    4    0    0  0.96858015676E+02 -0.31765657488E+03  0.24101526594E+03  0.42027762850E+03  0.90872173059E+02 0.  0.
          3    1    3    3  502    0 -0.28715290838E+03 -0.22440478867E+02 -0.38435085899E+02  0.29058152679E+03  0.00000000000E+00 0. -1.
         -4    1    3    3    0  502 -0.83473042405E+03 -0.40491111483E+02  0.16614705799E+02  0.83587705998E+03  0.00000000000E+00 0.  1.
         11    1    5    5    0    0  0.94874444914E+02  0.54158248195E+02  0.59983013078E+02  0.12462839967E+03  0.00000000000E+00 0. -1.
        -11    1    5    5    0    0  0.93015087184E+03  0.32642991703E+03  0.79466620742E+03  0.12661877887E+04  0.00000000000E+00 0.  1.
          1    1    6    6  503    0 -0.37289168290E+00 -0.67497488921E+02  0.89412460003E+02  0.11202963029E+03  0.00000000000E+00 0. -1.
         -1    1    6    6    0  503  0.97230907358E+02 -0.25015908596E+03  0.15160280594E+03  0.30824799821E+03  0.00000000000E+00 0.  1.
<mgrwt>
<rscale>  0 0.27342408E+04</rscale>
<asrwt>0</asrwt>
<pdfrwt beam="1">  1        1 0.14336218E+00 0.27342408E+04</pdfrwt>
<pdfrwt beam="2">  1       -2 0.30856896E+00 0.27342408E+04</pdfrwt>
<totfact> 0.36863783E-01</totfact>
</mgrwt>
</event>
<event>
12    4  0.4183215E-008  0.1278705E+04  0.7818608E-02  0.9046625E-01
         -2   -1    0    0    0  501 -0.00000000000E+00  0.00000000000E+00  0.57069821527E+03  0.57069821527E+03  0.00000000000E+00 0.  1.
          1   -1    0    0  501    0  0.00000000000E+00 -0.00000000000E+00 -0.71626549473E+03  0.71626549473E+03  0.00000000000E+00 0. -1.
        -24    2    1    2    0    0 -0.30668602270E+03  0.83121539945E+02 -0.21422126239E+02  0.32848367608E+03  0.80480500944E+02 0.  0.
        254    2    1    2    0    0  0.30668602270E+03 -0.83121539945E+02 -0.12414515322E+03  0.95848003392E+03  0.89571560745E+03 0.  0.
         23    2    4    4    0    0  0.48527405804E+03 -0.85500072487E+02 -0.38290922724E+03  0.63085161863E+03  0.92483050391E+02 0.  0.
         23    2    4    4    0    0 -0.17858803534E+03  0.23785325428E+01  0.25876407402E+03  0.32762841529E+03  0.92098798686E+02 0.  0.
          3    1    3    3  502    0 -0.10943928768E+03  0.36764655785E+02 -0.46205915654E+02  0.12435266079E+03  0.00000000000E+00 0. -1.
         -4    1    3    3    0  502 -0.19724673502E+03  0.46356884159E+02  0.24783789415E+02  0.20413101529E+03  0.00000000000E+00 0.  1.
         11    1    5    5    0    0  0.44236859116E+03 -0.10272944968E+03 -0.33547860390E+03  0.56461420807E+03  0.00000000000E+00 0. -1.
        -11    1    5    5    0    0  0.42905466880E+02  0.17229377191E+02 -0.47430623338E+02  0.66237410554E+02  0.00000000000E+00 0.  1.
          3    1    6    6  503    0 -0.11361117609E+03 -0.18884782427E+02  0.22177391723E+03  0.24989558760E+03  0.00000000000E+00 0. -1.
         -3    1    6    6    0  503 -0.64976859245E+02  0.21263314969E+02  0.36990156791E+02  0.77732827687E+02  0.00000000000E+00 0.  1.
<mgrwt>
<rscale>  0 0.12787047E+04</rscale>
<asrwt>0</asrwt>
<pdfrwt beam="1">  1        1 0.11019469E+00 0.12787047E+04</pdfrwt>
<pdfrwt beam="2">  1       -2 0.87799726E-01 0.12787047E+04</pdfrwt>
<totfact> 0.25366479E+01</totfact>
</mgrwt>
</event>
<event>
12    4  0.4183215E-008  0.2079907E+04  0.7818608E-02  0.8570147E-01
          1   -1    0    0  501    0  0.00000000000E+00  0.00000000000E+00  0.92824882337E+03  0.92824882337E+03  0.00000000000E+00 0. -1.
         -2   -1    0    0    0  501 -0.00000000000E+00 -0.00000000000E+00 -0.11651003116E+04  0.11651003116E+04  0.00000000000E+00 0.  1.
        -24    2    1    2    0    0 -0.54691969607E+03 -0.28816550940E+03 -0.68171243981E+03  0.92386491045E+03  0.81449416274E+02 0.  0.
        254    2    1    2    0    0  0.54691969607E+03  0.28816550940E+03  0.44486095153E+03  0.11694842246E+04  0.88748609598E+03 0.  0.
         23    2    4    4    0    0  0.53037071907E+02  0.36258560033E+03 -0.13318067550E+03  0.40013634209E+03  0.89948604070E+02 0.  0.
         23    2    4    4    0    0  0.49388262417E+03 -0.74420090929E+02  0.57804162702E+03  0.76934788248E+03  0.91135313201E+02 0.  0.
          1    1    3    3  502    0 -0.20902647009E+03 -0.15080127535E+03 -0.25618595796E+03  0.36340656971E+03  0.00000000000E+00 0. -1.
         -2    1    3    3    0  502 -0.33789322598E+03 -0.13736423404E+03 -0.42552648184E+03  0.56045834074E+03  0.00000000000E+00 0.  1.
         11    1    5    5    0    0  0.37411356453E+00  0.20918147931E+03 -0.10986202172E+03  0.23627673407E+03  0.00000000000E+00 0. -1.
        -11    1    5    5    0    0  0.52662958342E+02  0.15340412102E+03 -0.23318653783E+02  0.16385960802E+03  0.00000000000E+00 0.  1.
          3    1    6    6  503    0  0.46096891892E+03 -0.57471556055E+02  0.56163345515E+03  0.72885352569E+03  0.00000000000E+00 0. -1.
         -3    1    6    6    0  503  0.32913705241E+02 -0.16948534873E+02  0.16408171870E+02  0.40494356782E+02  0.00000000000E+00 0.  1.
<mgrwt>
<rscale>  0 0.20799067E+04</rscale>
<asrwt>0</asrwt>
<pdfrwt beam="1">  1        1 0.14280751E+00 0.20799067E+04</pdfrwt>
<pdfrwt beam="2">  1       -2 0.17924620E+00 0.20799067E+04</pdfrwt>
<totfact> 0.25567806E+00</totfact>
</mgrwt>
</event>
<event>
12    4  0.4183215E-008  0.2478878E+04  0.7818608E-02  0.8410549E-01
         -2   -1    0    0    0  501 -0.00000000000E+00  0.00000000000E+00  0.93868373403E+03  0.93868373403E+03  0.00000000000E+00 0.  1.
          1   -1    0    0  501    0  0.00000000000E+00 -0.00000000000E+00 -0.16365565965E+04  0.16365565965E+04  0.00000000000E+00 0. -1.
        -24    2    1    2    0    0 -0.69393014863E+03 -0.63726337574E+03  0.23309653461E+03  0.97485123111E+03  0.91418089618E+02 0.  0.
        254    2    1    2    0    0  0.69393014863E+03  0.63726337574E+03 -0.93096939712E+03  0.16003890995E+04  0.89827478538E+03 0.  0.
         23    2    4    4    0    0  0.48424081617E+03  0.20752510417E+03 -0.97465984813E+03  0.11115950338E+04  0.90143566992E+02 0.  0.
         23    2    4    4    0    0  0.20968933245E+03  0.42973827157E+03  0.43690451010E+02  0.48879406567E+03  0.91466851526E+02 0.  0.
          1    1    3    3  502    0 -0.35110191570E+03 -0.37668350107E+03  0.14938528777E+03  0.53617066256E+03  0.00000000000E+00 0. -1.
         -4    1    3    3    0  502 -0.34282823292E+03 -0.26057987467E+03  0.83711246847E+02  0.43868056855E+03  0.00000000000E+00 0.  1.
         11    1    5    5    0    0  0.48296202881E+03  0.20774685546E+03 -0.97667900233E+03  0.11091947308E+04  0.00000000000E+00 0.  1.
        -11    1    5    5    0    0  0.12787873581E+01 -0.22175128479E+00  0.20191542032E+01  0.24003029884E+01  0.00000000000E+00 0. -1.
          1    1    6    6  503    0  0.74183946012E+02  0.12720584998E+03 -0.27348022028E+02  0.14977483241E+03  0.00000000000E+00 0. -1.
         -1    1    6    6    0  503  0.13550538644E+03  0.30253242159E+03  0.71038473038E+02  0.33901923326E+03  0.00000000000E+00 0.  1.
<mgrwt>
<rscale>  0 0.24788780E+04</rscale>
<asrwt>0</asrwt>
<pdfrwt beam="1">  1        1 0.25177793E+00 0.24788780E+04</pdfrwt>
<pdfrwt beam="2">  1       -2 0.14441288E+00 0.24788780E+04</pdfrwt>
<totfact> 0.13636005E+00</totfact>
</mgrwt>
</event>
<event>
12    4  0.4183215E-008  0.1641081E+04  0.7818608E-02  0.8795701E-01
         -4   -1    0    0    0  501 -0.00000000000E+00  0.00000000000E+00  0.67359503528E+03  0.67359503528E+03  0.00000000000E+00 0.  1.
          1   -1    0    0  501    0  0.00000000000E+00 -0.00000000000E+00 -0.99954170367E+03  0.99954170367E+03  0.00000000000E+00 0. -1.
        -24    2    1    2    0    0 -0.85266588593E+02 -0.44275614151E+03  0.24279941727E+03  0.51816241533E+03  0.78976829891E+02 0.  0.
        254    2    1    2    0    0  0.85266588593E+02  0.44275614151E+03 -0.56874608566E+03  0.11549743236E+04  0.89843763630E+03 0.  0.
         23    2    4    4    0    0  0.39191151516E+03  0.32112367256E+03 -0.27368296861E+02  0.51513691613E+03  0.88893025007E+02 0.  0.
         23    2    4    4    0    0 -0.30664492656E+03  0.12163246895E+03 -0.54137778879E+03  0.63983740750E+03  0.86466348048E+02 0.  0.
          3    1    3    3  502    0 -0.43288166794E+02 -0.12815617674E+03  0.38262118356E+02  0.14057688545E+03  0.00000000000E+00 0. -1.
         -4    1    3    3    0  502 -0.41978421799E+02 -0.31459996477E+03  0.20453729891E+03  0.37758552988E+03  0.00000000000E+00 0.  1.
         11    1    5    5    0    0  0.33569052238E+03  0.23811487774E+03 -0.13850504204E+01  0.41156863362E+03  0.00000000000E+00 0. -1.
        -11    1    5    5    0    0  0.56220992780E+02  0.83008794813E+02 -0.25983246440E+02  0.10356828251E+03  0.00000000000E+00 0.  1.
          1    1    6    6  503    0 -0.18225274452E+03  0.11642406262E+03 -0.33133738606E+03  0.39567042933E+03  0.00000000000E+00 0. -1.
         -1    1    6    6    0  503 -0.12439218204E+03  0.52084063368E+01 -0.21004040273E+03  0.24416697817E+03  0.00000000000E+00 0.  1.
<mgrwt>
<rscale>  0 0.16410805E+04</rscale>
<asrwt>0</asrwt>
<pdfrwt beam="1">  1        1 0.15377565E+00 0.16410805E+04</pdfrwt>
<pdfrwt beam="2">  1       -4 0.10363001E+00 0.16410805E+04</pdfrwt>
<totfact> 0.53341584E+00</totfact>
</mgrwt>
</event>
<event>
12    4  0.4183215E-008  0.1439958E+04  0.7818608E-02  0.8925392E-01
          1   -1    0    0  501    0  0.00000000000E+00  0.00000000000E+00  0.76281261065E+03  0.76281261065E+03  0.00000000000E+00 0. -1.
         -4   -1    0    0    0  501 -0.00000000000E+00 -0.00000000000E+00 -0.67955053691E+03  0.67955053691E+03  0.00000000000E+00 0.  1.
        -24    2    1    2    0    0 -0.29078540582E+03  0.10335066877E+03 -0.28802471808E+03  0.42995651233E+03  0.81650788728E+02 0.  0.
        254    2    1    2    0    0  0.29078540582E+03 -0.10335066877E+03  0.37128679182E+03  0.10124066352E+04  0.88987403620E+03 0.  0.
         23    2    4    4    0    0  0.58627633476E+03  0.37581802323E+02  0.29541168109E+03  0.66381257296E+03  0.90811552838E+02 0.  0.
         23    2    4    4    0    0 -0.29549092894E+03 -0.14093247110E+03  0.75875110728E+02  0.34859406227E+03  0.92649540327E+02 0.  0.
          1    1    3    3  502    0 -0.36203431380E+02 -0.13888232597E+02 -0.30551075264E+02  0.49365368915E+02  0.00000000000E+00 0. -1.
         -2    1    3    3    0  502 -0.25458197444E+03  0.11723890137E+03 -0.25747364282E+03  0.38059114342E+03  0.00000000000E+00 0.  1.
         11    1    5    5    0    0  0.53341918006E+03  0.59388675664E+02  0.27527982709E+03  0.60319318601E+03  0.00000000000E+00 0. -1.
        -11    1    5    5    0    0  0.52857154707E+02 -0.21806873341E+02  0.20131853997E+02  0.60619386948E+02  0.00000000000E+00 0.  1.
          2    1    6    6  503    0 -0.22808238396E+03 -0.62541027006E+02  0.45526298210E+02  0.24084351301E+03  0.00000000000E+00 0. -1.
         -2    1    6    6    0  503 -0.67408544983E+02 -0.78391444090E+02  0.30348812518E+02  0.10775054925E+03  0.00000000000E+00 0.  1.
<mgrwt>
<rscale>  0 0.14399579E+04</rscale>
<asrwt>0</asrwt>
<pdfrwt beam="1">  1        1 0.11735579E+00 0.14399579E+04</pdfrwt>
<pdfrwt beam="2">  1       -4 0.10454624E+00 0.14399579E+04</pdfrwt>
<totfact> 0.83200354E+00</totfact>
</mgrwt>
</event>
<event>
12    4  0.4183215E-008  0.1614075E+04  0.7818608E-02  0.8811948E-01
         -4   -1    0    0    0  501 -0.00000000000E+00  0.00000000000E+00  0.11399652955E+04  0.11399652955E+04  0.00000000000E+00 0.  1.
          3   -1    0    0  501    0  0.00000000000E+00 -0.00000000000E+00 -0.57134161065E+03  0.57134161065E+03  0.00000000000E+00 0. -1.
        -24    2    1    2    0    0 -0.13237675787E+03 -0.53344479795E+03  0.14432870366E+03  0.57438136784E+03  0.83643424976E+02 0.  0.
        254    2    1    2    0    0  0.13237675787E+03  0.53344479795E+03  0.42429498120E+03  0.11369255383E+04  0.90027023173E+03 0.  0.
         23    2    4    4    0    0 -0.25888732688E+03 -0.67736552045E+02 -0.28437549704E+02  0.28386711514E+03  0.90338011508E+02 0.  0.
         23    2    4    4    0    0  0.39126408474E+03  0.60118135000E+03  0.45273253090E+03  0.85305842318E+03  0.90748714730E+02 0.  0.
          3    1    3    3  502    0 -0.61070559427E+02 -0.33335163428E+03  0.12447735909E+03  0.36103675468E+03  0.00000000000E+00 0. -1.
         -4    1    3    3    0  502 -0.71306198438E+02 -0.20009316367E+03  0.19851344571E+02  0.21334461316E+03  0.00000000000E+00 0.  1.
         11    1    5    5    0    0 -0.23519789628E+03 -0.43223277825E+02 -0.48931827839E+02  0.24409142946E+03  0.00000000000E+00 0. -1.
        -11    1    5    5    0    0 -0.23689430602E+02 -0.24513274220E+02  0.20494278135E+02  0.39775685683E+02  0.00000000000E+00 0.  1.
          1    1    6    6  503    0  0.31191539238E+03  0.43686553653E+03  0.37453289828E+03  0.65453617234E+03  0.00000000000E+00 0. -1.
         -1    1    6    6    0  503  0.79348692364E+02  0.16431581347E+03  0.78199632625E+02  0.19852225084E+03  0.00000000000E+00 0.  1.
<mgrwt>
<rscale>  0 0.16140751E+04</rscale>
<asrwt>0</asrwt>
<pdfrwt beam="1">  1        3 0.87898709E-01 0.16140751E+04</pdfrwt>
<pdfrwt beam="2">  1       -4 0.17537928E+00 0.16140751E+04</pdfrwt>
<totfact> 0.49962241E-01</totfact>
</mgrwt>
</event>
<event>
12    4  0.4183215E-008  0.2079061E+04  0.7818608E-02  0.8570524E-01
         -2   -1    0    0    0  501 -0.00000000000E+00  0.00000000000E+00  0.10317997854E+04  0.10317997854E+04  0.00000000000E+00 0.  1.
          1   -1    0    0  501    0  0.00000000000E+00 -0.00000000000E+00 -0.10473194179E+04  0.10473194179E+04  0.00000000000E+00 0. -1.
        -24    2    1    2    0    0 -0.55664932820E+03  0.54525703568E+02  0.60318688004E+03  0.82638093426E+03  0.78990564768E+02 0.  0.
        254    2    1    2    0    0  0.55664932820E+03 -0.54525703568E+02 -0.61870651252E+03  0.12527382691E+04  0.93473199110E+03 0.  0.
         23    2    4    4    0    0 -0.73859814683E+02  0.24439806933E+02 -0.59817177299E+03  0.61014623344E+03  0.91740829423E+02 0.  0.
         23    2    4    4    0    0  0.63050914288E+03 -0.78965510500E+02 -0.20534739528E+02  0.64259203562E+03  0.93410479090E+02 0.  0.
          3    1    3    3  502    0 -0.19602977943E+03 -0.29824876157E+01  0.16722204845E+03  0.25768155375E+03  0.00000000000E+00 0. -1.
         -4    1    3    3    0  502 -0.36061954877E+03  0.57508191183E+02  0.43596483159E+03  0.56869938051E+03  0.00000000000E+00 0.  1.
         11    1    5    5    0    0 -0.85854452001E+02  0.14001869934E+02 -0.57776180070E+03  0.58427368385E+03  0.00000000000E+00 0. -1.
        -11    1    5    5    0    0  0.11994637318E+02  0.10437936999E+02 -0.20409972295E+02  0.25872549590E+02  0.00000000000E+00 0.  1.
          4    1    6    6  503    0  0.24648365816E+03  0.13249558802E+02 -0.20015523511E+02  0.24764968349E+03  0.00000000000E+00 0. -1.
         -4    1    6    6    0  503  0.38402548472E+03 -0.92215069303E+02 -0.51921601676E+00  0.39494235213E+03  0.00000000000E+00 0.  1.
<mgrwt>
<rscale>  0 0.20790613E+04</rscale>
<asrwt>0</asrwt>
<pdfrwt beam="1">  1        1 0.16112607E+00 0.20790613E+04</pdfrwt>
<pdfrwt beam="2">  1       -2 0.15873843E+00 0.20790613E+04</pdfrwt>
<totfact> 0.28909664E+00</totfact>
</mgrwt>
</event>
<event>
12    4  0.4183215E-008  0.2376261E+04  0.7818608E-02  0.8448445E-01
          1   -1    0    0  501    0  0.00000000000E+00  0.00000000000E+00  0.15075976506E+04  0.15075976506E+04  0.00000000000E+00 0. -1.
         -2   -1    0    0    0  501 -0.00000000000E+00 -0.00000000000E+00 -0.93636002912E+03  0.93636002912E+03  0.00000000000E+00 0.  1.
        -24    2    1    2    0    0  0.40661967400E+02  0.68824974285E+03  0.10122694976E+04  0.12273909061E+04  0.80360416536E+02 0.  0.
        254    2    1    2    0    0 -0.40661967400E+02 -0.68824974285E+03 -0.44103187619E+03  0.12165667735E+04  0.90010249112E+03 0.  0.
         23    2    4    4    0    0 -0.25758680991E+03 -0.81714361558E+03 -0.29396076596E+03  0.91030402205E+03  0.90364968428E+02 0.  0.
         23    2    4    4    0    0  0.21692484251E+03  0.12889387273E+03 -0.14707111024E+03  0.30626275148E+03  0.92178868240E+02 0.  0.
          3    1    3    3  502    0 -0.31896815850E+01  0.21316056562E+03  0.25524751912E+03  0.33256412437E+03  0.00000000000E+00 0. -1.
         -4    1    3    3    0  502  0.43851648985E+02  0.47508917724E+03  0.75702197851E+03  0.89482678178E+03  0.00000000000E+00 0.  1.
         11    1    5    5    0    0 -0.62959325738E+02 -0.11787599179E+03 -0.68977376045E+02  0.15038784706E+03  0.00000000000E+00 0.  1.
        -11    1    5    5    0    0 -0.19462748418E+03 -0.69926762379E+03 -0.22498338991E+03  0.75991617499E+03  0.00000000000E+00 0. -1.
          1    1    6    6  503    0  0.76337273454E+02  0.78646827396E+02 -0.22653000994E+02  0.11191899406E+03  0.00000000000E+00 0. -1.
         -1    1    6    6    0  503  0.14058756906E+03  0.50247045332E+02 -0.12441810924E+03  0.19434375742E+03  0.00000000000E+00 0.  1.
<mgrwt>
<rscale>  0 0.23762611E+04</rscale>
<asrwt>0</asrwt>
<pdfrwt beam="1">  1        1 0.23193810E+00 0.23762611E+04</pdfrwt>
<pdfrwt beam="2">  1       -2 0.14405539E+00 0.23762611E+04</pdfrwt>
<totfact> 0.16986048E+00</totfact>
</mgrwt>
</event>
<event>
12    4  0.4183215E-008  0.1463681E+04  0.7818608E-02  0.8908970E-01
          1   -1    0    0  501    0  0.00000000000E+00  0.00000000000E+00  0.29954511648E+04  0.29954511648E+04  0.00000000000E+00 0. -1.
         -2   -1    0    0    0  501 -0.00000000000E+00 -0.00000000000E+00 -0.17880125744E+03  0.17880125744E+03  0.00000000000E+00 0.  1.
        -24    2    1    2    0    0 -0.72371761326E+02  0.14112282956E+03  0.18089672951E+04  0.18176168994E+04  0.78836496779E+02 0.  0.
        254    2    1    2    0    0  0.72371761326E+02 -0.14112282956E+03  0.10076826122E+04  0.13566355229E+04  0.89436143143E+03 0.  0.
         23    2    4    4    0    0 -0.13490535669E+02 -0.49526867039E+03  0.40781666970E+03  0.64886069827E+03  0.96087039952E+02 0.  0.
         23    2    4    4    0    0  0.85862296995E+02  0.35414584083E+03  0.59986594252E+03  0.70777482459E+03  0.91183565926E+02 0.  0.
          1    1    3    3  502    0 -0.60061970462E+02  0.14115657233E+03  0.13847699610E+04  0.13932409925E+04  0.00000000000E+00 0. -1.
         -2    1    3    3    0  502 -0.12309790864E+02 -0.33742765262E-01  0.42419733407E+03  0.42437590686E+03  0.00000000000E+00 0.  1.
         11    1    5    5    0    0 -0.46126850493E+02 -0.40187044166E+03  0.34514576158E+03  0.53174536665E+03  0.00000000000E+00 0. -1.
        -11    1    5    5    0    0  0.32636314824E+02 -0.93398228726E+02  0.62670908121E+02  0.11711533161E+03  0.00000000000E+00 0.  1.
          1    1    6    6  503    0  0.79394827892E+02  0.24846109944E+03  0.35088264301E+03  0.43721286097E+03  0.00000000000E+00 0. -1.
         -1    1    6    6    0  503  0.64674691028E+01  0.10568474139E+03  0.24898329951E+03  0.27056196361E+03  0.00000000000E+00 0.  1.
<mgrwt>
<rscale>  0 0.14636809E+04</rscale>
<asrwt>0</asrwt>
<pdfrwt beam="1">  1        1 0.46083860E+00 0.14636809E+04</pdfrwt>
<pdfrwt beam="2">  1       -2 0.27507888E-01 0.14636809E+04</pdfrwt>
<totfact> 0.62227606E+00</totfact>
</mgrwt>
</event>
<event>
12    4  0.4183215E-008  0.1859633E+04  0.7818608E-02  0.8675215E-01
         -2   -1    0    0    0  501 -0.00000000000E+00  0.00000000000E+00  0.37241418718E+03  0.37241418718E+03  0.00000000000E+00 0.  1.
          1   -1    0    0  501    0  0.00000000000E+00 -0.00000000000E+00 -0.23214983503E+04  0.23214983503E+04  0.00000000000E+00 0. -1.
        -24    2    1    2    0    0  0.32948886185E+03 -0.57500725976E+03 -0.11319192549E+04  0.13142481695E+04  0.82527525421E+02 0.  0.
        254    2    1    2    0    0 -0.32948886185E+03  0.57500725976E+03 -0.81716490812E+03  0.13796643679E+04  0.89247914385E+03 0.  0.
         23    2    4    4    0    0  0.14411091191E+03 -0.11863954737E+03 -0.37102071643E+03  0.42435604487E+03  0.87053912400E+02 0.  0.
         23    2    4    4    0    0 -0.47359977376E+03  0.69364680713E+03 -0.44614419169E+03  0.95530832306E+03  0.90148286620E+02 0.  0.
          3    1    3    3  502    0  0.11459337578E+03 -0.24528714469E+03 -0.52878682938E+03  0.59406475745E+03  0.00000000000E+00 0. -1.
         -4    1    3    3    0  502  0.21489548607E+03 -0.32972011508E+03 -0.60313242557E+03  0.72018341205E+03  0.00000000000E+00 0.  1.
         11    1    5    5    0    0  0.11407515202E+03 -0.79550617686E+02 -0.33669389104E+03  0.36428590056E+03  0.00000000000E+00 0.  1.
        -11    1    5    5    0    0  0.30035759889E+02 -0.39088929681E+02 -0.34326825389E+02  0.60070144307E+02  0.00000000000E+00 0. -1.
          4    1    6    6  503    0 -0.11278209611E+03  0.18029075404E+03 -0.15746985907E+03  0.26461540717E+03  0.00000000000E+00 0. -1.
         -4    1    6    6    0  503 -0.36081767765E+03  0.51335605309E+03 -0.28867433262E+03  0.69069291589E+03  0.00000000000E+00 0.  1.
<mgrwt>
<rscale>  0 0.18596332E+04</rscale>
<asrwt>0</asrwt>
<pdfrwt beam="1">  1        1 0.35715359E+00 0.18596332E+04</pdfrwt>
<pdfrwt beam="2">  1       -2 0.57294490E-01 0.18596332E+04</pdfrwt>
<totfact> 0.42362238E+00</totfact>
</mgrwt>
</event>
<event>
12    4  0.4183215E-008  0.1836180E+04  0.7818608E-02  0.8687293E-01
          3   -1    0    0  501    0  0.00000000000E+00  0.00000000000E+00  0.66822285487E+03  0.66822285487E+03  0.00000000000E+00 0. -1.
         -4   -1    0    0    0  501 -0.00000000000E+00 -0.00000000000E+00 -0.12613891603E+04  0.12613891603E+04  0.00000000000E+00 0.  1.
        -24    2    1    2    0    0  0.16326889761E+03 -0.37221005223E+03 -0.81982354197E+03  0.91855638918E+03  0.80238047264E+02 0.  0.
        254    2    1    2    0    0 -0.16326889761E+03  0.37221005223E+03  0.22665723649E+03  0.10110556260E+04  0.89758727720E+03 0.  0.
         23    2    4    4    0    0  0.30744704919E+03 -0.25792510817E+02 -0.51495494020E+02  0.32847495231E+03  0.10027495560E+03 0.  0.
         23    2    4    4    0    0 -0.47071594680E+03  0.39800256305E+03  0.27815273051E+03  0.68258067373E+03  0.92562907783E+02 0.  0.
          3    1    3    3  502    0  0.67400567872E+01 -0.80640308346E+02 -0.12432863761E+03  0.14834384998E+03  0.00000000000E+00 0. -1.
         -4    1    3    3    0  502  0.15652884083E+03 -0.29156974389E+03 -0.69549490436E+03  0.77021253921E+03  0.00000000000E+00 0.  1.
         11    1    5    5    0    0  0.15955635346E+03 -0.70949564420E+01  0.23787261995E+02  0.16147570148E+03  0.00000000000E+00 0. -1.
        -11    1    5    5    0    0  0.14789069573E+03 -0.18697554375E+02 -0.75282756015E+02  0.16699925082E+03  0.00000000000E+00 0.  1.
          2    1    6    6  503    0 -0.30511725834E+03  0.24465185802E+03  0.12801773641E+03  0.41150894742E+03  0.00000000000E+00 0.  1.
         -2    1    6    6    0  503 -0.16559868846E+03  0.15335070503E+03  0.15013499411E+03  0.27107172631E+03  0.00000000000E+00 0. -1.
<mgrwt>
<rscale>  0 0.18361798E+04</rscale>
<asrwt>0</asrwt>
<pdfrwt beam="1">  1        3 0.10280352E+00 0.18361798E+04</pdfrwt>
<pdfrwt beam="2">  1       -4 0.19405987E+00 0.18361798E+04</pdfrwt>
<totfact> 0.25432714E-01</totfact>
</mgrwt>
</event>
<event>
12    4  0.4183215E-008  0.1946286E+04  0.7818608E-02  0.8632154E-01
          1   -1    0    0  501    0  0.00000000000E+00  0.00000000000E+00  0.32707361420E+03  0.32707361420E+03  0.00000000000E+00 0. -1.
         -2   -1    0    0    0  501 -0.00000000000E+00 -0.00000000000E+00 -0.28953959530E+04  0.28953959530E+04  0.00000000000E+00 0.  1.
        -24    2    1    2    0    0 -0.38175985649E+03  0.30877926157E+02 -0.21054117742E+04  0.21414988741E+04  0.81022555155E+02 0.  0.
        254    2    1    2    0    0  0.38175985649E+03 -0.30877926157E+02 -0.46291056461E+03  0.10809706931E+04  0.89861972724E+03 0.  0.
         23    2    4    4    0    0  0.46017324509E+03 -0.37710717979E+03 -0.21648637324E+03  0.63941474123E+03  0.89530000278E+02 0.  0.
         23    2    4    4    0    0 -0.78413388595E+02  0.34622925363E+03 -0.24642419137E+03  0.44155595189E+03  0.90683079858E+02 0.  0.
          3    1    3    3  502    0 -0.42840486198E+02  0.30445489661E+02 -0.28674566552E+03  0.29152240358E+03  0.00000000000E+00 0. -1.
         -4    1    3    3    0  502 -0.33891937030E+03  0.43243649672E+00 -0.18186661086E+04  0.18499764705E+04  0.00000000000E+00 0.  1.
         11    1    5    5    0    0  0.39003583879E+03 -0.27494289837E+03 -0.16091217433E+03  0.50360131131E+03  0.00000000000E+00 0. -1.
        -11    1    5    5    0    0  0.70137406298E+02 -0.10216428142E+03 -0.55574198910E+02  0.13581342991E+03  0.00000000000E+00 0.  1.
          4    1    6    6  503    0 -0.71124045957E+02  0.23957032312E+03 -0.12385338569E+03  0.27891258627E+03  0.00000000000E+00 0. -1.
         -4    1    6    6    0  503 -0.72893426384E+01  0.10665893052E+03 -0.12257080568E+03  0.16264336562E+03  0.00000000000E+00 0.  1.
<mgrwt>
<rscale>  0 0.19462863E+04</rscale>
<asrwt>0</asrwt>
<pdfrwt beam="1">  1        1 0.50319017E-01 0.19462863E+04</pdfrwt>
<pdfrwt beam="2">  1       -2 0.44544553E+00 0.19462863E+04</pdfrwt>
<totfact> 0.23790914E-01</totfact>
</mgrwt>
</event>
<event>
12    4  0.4183215E-008  0.1360907E+04  0.7818608E-02  0.8982612E-01
          1   -1    0    0  501    0  0.00000000000E+00  0.00000000000E+00  0.20369458974E+04  0.20369458974E+04  0.00000000000E+00 0. -1.
         -2   -1    0    0    0  501 -0.00000000000E+00 -0.00000000000E+00 -0.22730946587E+03  0.22730946587E+03  0.00000000000E+00 0.  1.
        -24    2    1    2    0    0  0.28374240858E+03 -0.12870690558E+03  0.16940162890E+03  0.36342561139E+03  0.79410586008E+02 0.  0.
        254    2    1    2    0    0 -0.28374240858E+03  0.12870690558E+03  0.16402348026E+04  0.19008297519E+04  0.90868493763E+03 0.  0.
         23    2    4    4    0    0  0.31139821482E+02  0.13541218081E+03 -0.54437574680E+02  0.17467051117E+03  0.90775496370E+02 0.  0.
         23    2    4    4    0    0 -0.31488223006E+03 -0.67052752346E+01  0.16946723773E+04  0.17261592407E+04  0.92279349381E+02 0.  0.
          1    1    3    3  502    0  0.64986689278E+02 -0.18694232869E+01  0.57930277870E+02  0.87078594504E+02  0.00000000000E+00 0. -1.
         -4    1    3    3    0  502  0.21875571930E+03 -0.12683748229E+03  0.11147135103E+03  0.27634701688E+03  0.00000000000E+00 0.  1.
         11    1    5    5    0    0  0.38930541853E+02  0.28661247956E+02  0.10509633042E+02  0.49472281229E+02  0.00000000000E+00 0.  1.
        -11    1    5    5    0    0 -0.77907203705E+01  0.10675093286E+03 -0.64947207722E+02  0.12519822994E+03  0.00000000000E+00 0. -1.
          3    1    6    6  503    0 -0.31518408999E+03 -0.18669572918E+02  0.16126066705E+04  0.16432254371E+04  0.00000000000E+00 0. -1.
         -3    1    6    6    0  503  0.30185992910E+00  0.11964297683E+02  0.82065706851E+02  0.82933803599E+02  0.00000000000E+00 0.  1.
<mgrwt>
<rscale>  0 0.13609072E+04</rscale>
<asrwt>0</asrwt>
<pdfrwt beam="1">  1        1 0.31337628E+00 0.13609072E+04</pdfrwt>
<pdfrwt beam="2">  1       -2 0.34970688E-01 0.13609072E+04</pdfrwt>
<totfact> 0.18552556E+01</totfact>
</mgrwt>
</event>
<event>
12    4  0.4183215E-008  0.1981582E+04  0.7818608E-02  0.8615280E-01
         -2   -1    0    0    0  501 -0.00000000000E+00  0.00000000000E+00  0.58451953604E+03  0.58451953604E+03  0.00000000000E+00 0.  1.
          1   -1    0    0  501    0  0.00000000000E+00 -0.00000000000E+00 -0.16794423168E+04  0.16794423168E+04  0.00000000000E+00 0. -1.
        -24    2    1    2    0    0 -0.59715066716E+03 -0.32568569076E+03 -0.88401173181E+03  0.11181774782E+04  0.78638681881E+02 0.  0.
        254    2    1    2    0    0  0.59715066716E+03  0.32568569076E+03 -0.21091104893E+03  0.11457843746E+04  0.89759583006E+03 0.  0.
         23    2    4    4    0    0  0.32567408931E+03 -0.28828285281E+03 -0.29102959897E+02  0.44534517631E+03  0.91185130977E+02 0.  0.
         23    2    4    4    0    0  0.27147657784E+03  0.61396854357E+03 -0.18180808904E+03  0.70043919832E+03  0.83090218997E+02 0.  0.
          3    1    3    3  502    0 -0.40794395113E+03 -0.18459994632E+03 -0.55070193228E+03  0.70976617675E+03  0.00000000000E+00 0. -1.
         -4    1    3    3    0  502 -0.18920671602E+03 -0.14108574444E+03 -0.33330979953E+03  0.40841130143E+03  0.00000000000E+00 0.  1.
         11    1    5    5    0    0 -0.79841037732E+00 -0.98755564091E+01 -0.12514581728E+02  0.15961792798E+02  0.00000000000E+00 0. -1.
        -11    1    5    5    0    0  0.32647249969E+03 -0.27840729640E+03 -0.16588378169E+02  0.42938338351E+03  0.00000000000E+00 0.  1.
          3    1    6    6  503    0  0.35527367855E+02  0.42084933997E+02 -0.32793326596E+02  0.64099436858E+02  0.00000000000E+00 0. -1.
         -3    1    6    6    0  503  0.23594920999E+03  0.57188360958E+03 -0.14901476244E+03  0.63633976146E+03  0.00000000000E+00 0.  1.
<mgrwt>
<rscale>  0 0.19815820E+04</rscale>
<asrwt>0</asrwt>
<pdfrwt beam="1">  1        1 0.25837573E+00 0.19815820E+04</pdfrwt>
<pdfrwt beam="2">  1       -2 0.89926085E-01 0.19815820E+04</pdfrwt>
<totfact> 0.42514333E+00</totfact>
</mgrwt>
</event>
<event>
12    4  0.4183215E-008  0.1479687E+04  0.7818608E-02  0.8898074E-01
         -2   -1    0    0    0  501 -0.00000000000E+00  0.00000000000E+00  0.47459279883E+03  0.47459279883E+03  0.00000000000E+00 0.  1.
          1   -1    0    0  501    0  0.00000000000E+00 -0.00000000000E+00 -0.11533428266E+04  0.11533428266E+04  0.00000000000E+00 0. -1.
        -24    2    1    2    0    0  0.10336658239E+03 -0.38670468520E+03  0.35093748264E+02  0.40872413023E+03  0.74824324617E+02 0.  0.
        254    2    1    2    0    0 -0.10336658239E+03  0.38670468520E+03 -0.71384377604E+03  0.12192114952E+04  0.90370269974E+03 0.  0.
         23    2    4    4    0    0 -0.65049633785E+02  0.55660972757E+03 -0.10259036978E+03  0.57694895326E+03  0.91101410648E+02 0.  0.
         23    2    4    4    0    0 -0.38316948610E+02 -0.16990504237E+03 -0.61125340626E+03  0.64226254193E+03  0.92382542349E+02 0.  0.
          1    1    3    3  502    0  0.29064556838E+02 -0.51362263040E+02  0.27641027540E+02  0.65167913364E+02  0.00000000000E+00 0. -1.
         -2    1    3    3    0  502  0.74302025557E+02 -0.33534242216E+03  0.74527207239E+01  0.34355621687E+03  0.00000000000E+00 0.  1.
         11    1    5    5    0    0 -0.39019570534E+02  0.48496895204E+03 -0.11443049831E+03  0.49981171482E+03  0.00000000000E+00 0. -1.
        -11    1    5    5    0    0 -0.26030063250E+02  0.71640775525E+02  0.11840128533E+02  0.77137238441E+02  0.00000000000E+00 0.  1.
          3    1    6    6  503    0 -0.33422177854E+02 -0.16466310580E+03 -0.61237164937E+03  0.63500395065E+03  0.00000000000E+00 0. -1.
         -3    1    6    6    0  503 -0.48947707566E+01 -0.52419365641E+01  0.11182431146E+01  0.72585912797E+01  0.00000000000E+00 0.  1.
<mgrwt>
<rscale>  0 0.14796867E+04</rscale>
<asrwt>0</asrwt>
<pdfrwt beam="1">  1        1 0.17743736E+00 0.14796867E+04</pdfrwt>
<pdfrwt beam="2">  1       -2 0.73014277E-01 0.14796867E+04</pdfrwt>
<totfact> 0.16654000E+01</totfact>
</mgrwt>
</event>
<event>
12    4  0.4183215E-008  0.1903061E+04  0.7818608E-02  0.8653334E-01
          1   -1    0    0  501    0  0.00000000000E+00  0.00000000000E+00  0.52427552987E+03  0.52427552987E+03  0.00000000000E+00 0. -1.
         -2   -1    0    0    0  501 -0.00000000000E+00 -0.00000000000E+00 -0.17269734738E+04  0.17269734738E+04  0.00000000000E+00 0.  1.
        -24    2    1    2    0    0 -0.33704513585E+03 -0.87920918347E+02  0.29914352452E+03  0.46600070859E+03  0.79626004938E+02 0.  0.
        254    2    1    2    0    0  0.33704513585E+03  0.87920918347E+02 -0.15018414685E+04  0.17852482951E+04  0.90014119295E+03 0.  0.
         23    2    4    4    0    0 -0.10763638252E+03 -0.24842390644E+03 -0.96257479452E+03  0.10040226876E+04  0.90616190771E+02 0.  0.
         23    2    4    4    0    0  0.44468151837E+03  0.33634482478E+03 -0.53926667394E+03  0.78122560749E+03  0.92926908080E+02 0.  0.
          1    1    3    3  502    0 -0.28996212799E+03 -0.44966920524E+02  0.25082574948E+03  0.38602281825E+03  0.00000000000E+00 0. -1.
         -2    1    3    3    0  502 -0.47083007861E+02 -0.42953997823E+02  0.48317775033E+02  0.79977890334E+02  0.00000000000E+00 0.  1.
         11    1    5    5    0    0 -0.73214739560E+02 -0.66085832781E+02 -0.28959698742E+03  0.30593161083E+03  0.00000000000E+00 0. -1.
        -11    1    5    5    0    0 -0.34421642961E+02 -0.18233807365E+03 -0.67297780710E+03  0.69809107676E+03  0.00000000000E+00 0.  1.
          4    1    6    6  503    0  0.42220841753E+03  0.31999919466E+03 -0.53534314203E+03  0.75316114619E+03  0.00000000000E+00 0. -1.
         -4    1    6    6    0  503  0.22473100833E+02  0.16345630124E+02 -0.39235319062E+01  0.28064461296E+02  0.00000000000E+00 0.  1.
<mgrwt>
<rscale>  0 0.19030606E+04</rscale>
<asrwt>0</asrwt>
<pdfrwt beam="1">  1        1 0.80657774E-01 0.19030606E+04</pdfrwt>
<pdfrwt beam="2">  1       -2 0.26568823E+00 0.19030606E+04</pdfrwt>
<totfact> 0.17499958E+00</totfact>
</mgrwt>
</event>
<event>
12    4  0.4183215E-008  0.1562670E+04  0.7818608E-02  0.8843815E-01
         -4   -1    0    0    0  501 -0.00000000000E+00  0.00000000000E+00  0.61869159374E+03  0.61869159374E+03  0.00000000000E+00 0.  1.
          1   -1    0    0  501    0  0.00000000000E+00 -0.00000000000E+00 -0.98673489764E+03  0.98673489764E+03  0.00000000000E+00 0. -1.
        -24    2    1    2    0    0 -0.37340057015E+03  0.26789568047E+03 -0.55068472350E+03  0.72145085183E+03  0.77727636732E+02 0.  0.
        254    2    1    2    0    0  0.37340057015E+03 -0.26789568047E+03  0.18264141960E+03  0.88397563954E+03  0.73270660004E+03 0.  0.
         23    2    4    4    0    0  0.40921212689E+03 -0.52170296640E+02  0.38618145376E+03  0.57228079442E+03  0.90514572263E+02 0.  0.
         23    2    4    4    0    0 -0.35811556747E+02 -0.21572538383E+03 -0.20354003416E+03  0.31169484512E+03  0.88911316172E+02 0.  0.
          1    1    3    3  502    0 -0.87778872815E+02  0.25554382991E+02 -0.11360732606E+03  0.14582448881E+03  0.00000000000E+00 0. -1.
         -2    1    3    3    0  502 -0.28562169733E+03  0.24234129748E+03 -0.43707739744E+03  0.57562636302E+03  0.00000000000E+00 0.  1.
         11    1    5    5    0    0  0.31751614922E+03 -0.19008426200E+02  0.33576222010E+03  0.46250847963E+03  0.00000000000E+00 0. -1.
        -11    1    5    5    0    0  0.91695977679E+02 -0.33161870439E+02  0.50419233655E+02  0.10977231480E+03  0.00000000000E+00 0.  1.
          3    1    6    6  503    0 -0.30783663681E+02 -0.22408424914E+03 -0.19700172038E+03  0.29995176695E+03  0.00000000000E+00 0. -1.
         -3    1    6    6    0  503 -0.50278930658E+01  0.83588653073E+01 -0.65383137710E+01  0.11743078169E+02  0.00000000000E+00 0.  1.
<mgrwt>
<rscale>  0 0.15626703E+04</rscale>
<asrwt>0</asrwt>
<pdfrwt beam="1">  1        1 0.15180537E+00 0.15626703E+04</pdfrwt>
<pdfrwt beam="2">  1       -4 0.95183323E-01 0.15626703E+04</pdfrwt>
<totfact> 0.67311396E+00</totfact>
</mgrwt>
</event>
<event>
12    4  0.4183215E-008  0.1011728E+04  0.7818608E-02  0.9295775E-01
         -2   -1    0    0    0  501 -0.00000000000E+00  0.00000000000E+00  0.34532553858E+03  0.34532553858E+03  0.00000000000E+00 0.  1.
          1   -1    0    0  501    0  0.00000000000E+00 -0.00000000000E+00 -0.74103516354E+03  0.74103516354E+03  0.00000000000E+00 0. -1.
        -24    2    1    2    0    0  0.61870540242E+02  0.25064587062E+02 -0.52795151797E+02  0.11712751474E+03  0.80469431352E+02 0.  0.
        254    2    1    2    0    0 -0.61870540242E+02 -0.25064587062E+02 -0.34291447317E+03  0.96923318738E+03  0.90408320322E+03 0.  0.
         23    2    4    4    0    0  0.21892153799E+03  0.30417121149E+03 -0.35802130269E+03  0.52687550968E+03  0.94719500760E+02 0.  0.
         23    2    4    4    0    0 -0.28079207823E+03 -0.32923579855E+03  0.15106829523E+02  0.44235767771E+03  0.90618411395E+02 0.  0.
          3    1    3    3  502    0  0.77169335539E+02  0.31791717675E+02 -0.29634173384E+02  0.88566381276E+02  0.00000000000E+00 0. -1.
         -4    1    3    3    0  502 -0.15298795297E+02 -0.67271306124E+01 -0.23160978413E+02  0.28561133466E+02  0.00000000000E+00 0.  1.
         11    1    5    5    0    0  0.78841737553E+02  0.18865558507E+03 -0.17605202530E+03  0.26981709540E+03  0.00000000000E+00 0.  1.
        -11    1    5    5    0    0  0.14007980043E+03  0.11551562642E+03 -0.18196927739E+03  0.25705841428E+03  0.00000000000E+00 0. -1.
          1    1    6    6  503    0 -0.20972103209E+03 -0.29813832937E+03  0.13610934296E+02  0.36476654489E+03  0.00000000000E+00 0.  1.
         -1    1    6    6    0  503 -0.71071046138E+02 -0.31097469179E+02  0.14958952270E+01  0.77591132812E+02  0.00000000000E+00 0. -1.
<mgrwt>
<rscale>  0 0.10117280E+04</rscale>
<asrwt>0</asrwt>
<pdfrwt beam="1">  1        1 0.11400541E+00 0.10117280E+04</pdfrwt>
<pdfrwt beam="2">  1       -2 0.53127006E-01 0.10117280E+04</pdfrwt>
<totfact> 0.73184956E+01</totfact>
</mgrwt>
</event>
<event>
12    4  0.4183215E-008  0.1588890E+04  0.7818608E-02  0.8827403E-01
         -2   -1    0    0    0  501 -0.00000000000E+00  0.00000000000E+00  0.75425689133E+03  0.75425689133E+03  0.00000000000E+00 0.  1.
          1   -1    0    0  501    0  0.00000000000E+00 -0.00000000000E+00 -0.83677398139E+03  0.83677398139E+03  0.00000000000E+00 0. -1.
        -24    2    1    2    0    0  0.26435944879E+03  0.42855059947E+03 -0.22853866576E+03  0.55888201518E+03  0.81102716781E+02 0.  0.
        254    2    1    2    0    0 -0.26435944879E+03 -0.42855059947E+03  0.14602157570E+03  0.10321488575E+04  0.88908235225E+03 0.  0.
         23    2    4    4    0    0  0.30312931418E+03 -0.98686003380E+02  0.16284935324E+03  0.36911338359E+03  0.89991498024E+02 0.  0.
         23    2    4    4    0    0 -0.56748876297E+03 -0.32986459609E+03 -0.16827777549E+02  0.66303547395E+03  0.92079953079E+02 0.  0.
          3    1    3    3  502    0  0.24140896667E+03  0.41531331536E+03 -0.20120031222E+03  0.52081187078E+03  0.00000000000E+00 0. -1.
         -4    1    3    3    0  502  0.22950482120E+02  0.13237284109E+02 -0.27338353547E+02  0.38070144402E+02  0.00000000000E+00 0.  1.
         11    1    5    5    0    0  0.27227966833E+03 -0.63799530336E+02  0.11510097319E+03  0.30241499944E+03  0.00000000000E+00 0. -1.
        -11    1    5    5    0    0  0.30849645847E+02 -0.34886473044E+02  0.47748380056E+02  0.66698384151E+02  0.00000000000E+00 0.  1.
          1    1    6    6  503    0 -0.39157558765E+03 -0.23372224222E+03 -0.53790002403E+02  0.45918502993E+03  0.00000000000E+00 0. -1.
         -1    1    6    6    0  503 -0.17591317532E+03 -0.96142353869E+02  0.36962224854E+02  0.20385044402E+03  0.00000000000E+00 0.  1.
<mgrwt>
<rscale>  0 0.15888896E+04</rscale>
<asrwt>0</asrwt>
<pdfrwt beam="1">  1        1 0.12873446E+00 0.15888896E+04</pdfrwt>
<pdfrwt beam="2">  1       -2 0.11603952E+00 0.15888896E+04</pdfrwt>
<totfact> 0.99741016E+00</totfact>
</mgrwt>
</event>
<event>
12    4  0.4183215E-008  0.1176761E+04  0.7818608E-02  0.9133444E-01
         -2   -1    0    0    0  501 -0.00000000000E+00  0.00000000000E+00  0.22423194532E+03  0.22423194532E+03  0.00000000000E+00 0.  1.
          1   -1    0    0  501    0  0.00000000000E+00 -0.00000000000E+00 -0.15439003518E+04  0.15439003518E+04  0.00000000000E+00 0. -1.
        -24    2    1    2    0    0  0.58325101311E+02 -0.25861944563E+03 -0.74828537068E+02  0.28708773010E+03  0.80834520529E+02 0.  0.
        254    2    1    2    0    0 -0.58325101311E+02  0.25861944563E+03 -0.12448398694E+04  0.14810445670E+04  0.75735122228E+03 0.  0.
         23    2    4    4    0    0  0.10873773255E+03  0.12750953526E+01 -0.11334270646E+04  0.11421257244E+04  0.89267794543E+02 0.  0.
         23    2    4    4    0    0 -0.16706283386E+03  0.25734435028E+03 -0.11141280477E+03  0.33891884262E+03  0.91197937104E+02 0.  0.
          1    1    3    3  502    0  0.54276284881E+01 -0.27992231553E+01 -0.18999242224E+02  0.19956603077E+02  0.00000000000E+00 0. -1.
         -2    1    3    3    0  502  0.52897472823E+02 -0.25582022248E+03 -0.55829294844E+02  0.26713112702E+03  0.00000000000E+00 0.  1.
         11    1    5    5    0    0  0.99495762961E+02 -0.19634676508E+02 -0.10682978042E+04  0.10731007062E+04  0.00000000000E+00 0. -1.
        -11    1    5    5    0    0  0.92419695919E+01  0.20909771860E+02 -0.65129260424E+02  0.69025018107E+02  0.00000000000E+00 0.  1.
          2    1    6    6  503    0 -0.10333521159E+03  0.21493818951E+03 -0.10930214320E+03  0.26234242846E+03  0.00000000000E+00 0. -1.
         -2    1    6    6    0  503 -0.63727622276E+02  0.42406160770E+02 -0.21106615767E+01  0.76576414153E+02  0.00000000000E+00 0.  1.
<mgrwt>
<rscale>  0 0.11767613E+04</rscale>
<asrwt>0</asrwt>
<pdfrwt beam="1">  1        1 0.23752313E+00 0.11767613E+04</pdfrwt>
<pdfrwt beam="2">  1       -2 0.34497223E-01 0.11767613E+04</pdfrwt>
<totfact> 0.41789075E+01</totfact>
</mgrwt>
</event>
<event>
12    4  0.4183215E-008  0.1054299E+04  0.7818608E-02  0.9250917E-01
          1   -1    0    0  501    0  0.00000000000E+00  0.00000000000E+00  0.54802109582E+03  0.54802109582E+03  0.00000000000E+00 0. -1.
         -2   -1    0    0    0  501 -0.00000000000E+00 -0.00000000000E+00 -0.50707267582E+03  0.50707267582E+03  0.00000000000E+00 0.  1.
        -24    2    1    2    0    0 -0.88426287985E+02 -0.66885319741E+02  0.24553215058E+03  0.28092709809E+03  0.79631294535E+02 0.  0.
        254    2    1    2    0    0  0.88426287985E+02  0.66885319741E+02 -0.20458373058E+03  0.77416667354E+03  0.73836757865E+03 0.  0.
         23    2    4    4    0    0 -0.27155374883E+03  0.12911221689E+03  0.52358648425E+02  0.31817857809E+03  0.89915384887E+02 0.  0.
         23    2    4    4    0    0  0.35998003681E+03 -0.62226897149E+02 -0.25694237900E+03  0.45598809545E+03  0.91912694636E+02 0.  0.
          1    1    3    3  502    0 -0.99983329839E+02 -0.62013215029E+02  0.23986172831E+03  0.26716278519E+03  0.00000000000E+00 0. -1.
         -2    1    3    3    0  502  0.11557041854E+02 -0.48721047118E+01  0.56704222627E+01  0.13764312891E+02  0.00000000000E+00 0.  1.
         11    1    5    5    0    0 -0.66752214107E+02  0.68405258370E+02  0.41770618235E+02  0.10430686463E+03  0.00000000000E+00 0.  1.
        -11    1    5    5    0    0 -0.20480153472E+03  0.60706958520E+02  0.10588030190E+02  0.21387171346E+03  0.00000000000E+00 0. -1.
          2    1    6    6  503    0  0.35881985369E+03 -0.63342767103E+02 -0.26322581099E+03  0.44950174762E+03  0.00000000000E+00 0. -1.
         -2    1    6    6    0  503  0.11601831224E+01  0.11158699545E+01  0.62834319863E+01  0.64863478290E+01  0.00000000000E+00 0.  1.
<mgrwt>
<rscale>  0 0.10542989E+04</rscale>
<asrwt>0</asrwt>
<pdfrwt beam="1">  1        1 0.84310938E-01 0.10542989E+04</pdfrwt>
<pdfrwt beam="2">  1       -2 0.78011181E-01 0.10542989E+04</pdfrwt>
<totfact> 0.49889809E+01</totfact>
</mgrwt>
</event>
<event>
12    4  0.4183215E-008  0.1234272E+04  0.7818608E-02  0.9083376E-01
         -2   -1    0    0    0  501 -0.00000000000E+00  0.00000000000E+00  0.21878514572E+03  0.21878514572E+03  0.00000000000E+00 0.  1.
          1   -1    0    0  501    0  0.00000000000E+00 -0.00000000000E+00 -0.17407798762E+04  0.17407798762E+04  0.00000000000E+00 0. -1.
        -24    2    1    2    0    0  0.61075680267E+02  0.61536542940E+02  0.59146625046E+02  0.13182685079E+03  0.79768480603E+02 0.  0.
        254    2    1    2    0    0 -0.61075680267E+02 -0.61536542940E+02 -0.15811413556E+04  0.18277381712E+04  0.91274413242E+03 0.  0.
         23    2    4    4    0    0  0.10371210136E+02  0.14971736813E+03 -0.15741012683E+04  0.15839054396E+04  0.91862868348E+02 0.  0.
         23    2    4    4    0    0 -0.71446890403E+02 -0.21125391107E+03 -0.70400873110E+01  0.24383273157E+03  0.98346149214E+02 0.  0.
          3    1    3    3  502    0  0.46782416608E+02 -0.30218246065E+01  0.43335246802E+02  0.63840970725E+02  0.00000000000E+00 0. -1.
         -4    1    3    3    0  502  0.14293263659E+02  0.64558367546E+02  0.15811378244E+02  0.67985880065E+02  0.00000000000E+00 0.  1.
         11    1    5    5    0    0  0.36564313976E+02  0.14465523321E+03 -0.13180985159E+04  0.13265164089E+04  0.00000000000E+00 0. -1.
        -11    1    5    5    0    0 -0.26193103841E+02  0.50621349200E+01 -0.25600275240E+03  0.25738903072E+03  0.00000000000E+00 0.  1.
          1    1    6    6  503    0 -0.44527848618E+02 -0.20686302455E+03  0.97125047147E+01  0.21182391974E+03  0.00000000000E+00 0. -1.
         -1    1    6    6    0  503 -0.26919041785E+02 -0.43908865235E+01 -0.16752592026E+02  0.32008811829E+02  0.00000000000E+00 0.  1.
<mgrwt>
<rscale>  0 0.12342719E+04</rscale>
<asrwt>0</asrwt>
<pdfrwt beam="1">  1        1 0.26781230E+00 0.12342719E+04</pdfrwt>
<pdfrwt beam="2">  1       -2 0.33659252E-01 0.12342719E+04</pdfrwt>
<totfact> 0.31988219E+01</totfact>
</mgrwt>
</event>
<event>
12    4  0.4183215E-008  0.1310513E+04  0.7818608E-02  0.9021269E-01
          1   -1    0    0  501    0  0.00000000000E+00  0.00000000000E+00  0.84529481322E+03  0.84529481322E+03  0.00000000000E+00 0. -1.
         -2   -1    0    0    0  501 -0.00000000000E+00 -0.00000000000E+00 -0.50794263890E+03  0.50794263890E+03  0.00000000000E+00 0.  1.
        -24    2    1    2    0    0 -0.65822946234E+02 -0.58143019120E+02 -0.24954589695E+03  0.27616317354E+03  0.79244386646E+02 0.  0.
        254    2    1    2    0    0  0.65822946234E+02  0.58143019120E+02  0.58689807127E+03  0.10770742786E+04  0.89884725320E+03 0.  0.
         23    2    4    4    0    0  0.84089025745E+02  0.43595706613E+02  0.81708936749E+03  0.82778376244E+03  0.92840578467E+02 0.  0.
         23    2    4    4    0    0 -0.18266079511E+02  0.14547312508E+02 -0.23019129622E+03  0.24929051613E+03  0.92803311449E+02 0.  0.
          1    1    3    3  502    0 -0.37932780924E+01 -0.55027665159E+02 -0.99393451645E+02  0.11367273693E+03  0.00000000000E+00 0. -1.
         -2    1    3    3    0  502 -0.62029668141E+02 -0.31153539612E+01 -0.15015244530E+03  0.16249043661E+03  0.00000000000E+00 0.  1.
         11    1    5    5    0    0  0.29770662106E+02  0.35951856285E+02  0.65506291220E+03  0.65672387442E+03  0.00000000000E+00 0. -1.
        -11    1    5    5    0    0  0.54318363639E+02  0.76438503282E+01  0.16202645530E+03  0.17105988803E+03  0.00000000000E+00 0.  1.
          2    1    6    6  503    0  0.17192794353E+02  0.21133615634E+02 -0.20114846084E+03  0.20298503685E+03  0.00000000000E+00 0. -1.
         -2    1    6    6    0  503 -0.35458873865E+02 -0.65863031268E+01 -0.29042835386E+02  0.46305479286E+02  0.00000000000E+00 0.  1.
<mgrwt>
<rscale>  0 0.13105133E+04</rscale>
<asrwt>0</asrwt>
<pdfrwt beam="1">  1        1 0.13004536E+00 0.13105133E+04</pdfrwt>
<pdfrwt beam="2">  1       -2 0.78145022E-01 0.13105133E+04</pdfrwt>
<totfact> 0.25339272E+01</totfact>
</mgrwt>
</event>
<event>
12    4  0.4183215E-008  0.1703527E+04  0.7818608E-02  0.8759355E-01
          1   -1    0    0  501    0  0.00000000000E+00  0.00000000000E+00  0.60999908433E+03  0.60999908433E+03  0.00000000000E+00 0. -1.
         -2   -1    0    0    0  501 -0.00000000000E+00 -0.00000000000E+00 -0.11893480080E+04  0.11893480080E+04  0.00000000000E+00 0.  1.
        -24    2    1    2    0    0  0.41149025507E+03 -0.35589989688E+03  0.10894098530E+03  0.56042275072E+03  0.78845130625E+02 0.  0.
        254    2    1    2    0    0 -0.41149025507E+03  0.35589989688E+03 -0.68828990899E+03  0.12389243416E+04  0.87475800016E+03 0.  0.
         23    2    4    4    0    0 -0.65053177935E+03  0.18980192598E+03 -0.62840600455E+03  0.92885143877E+03  0.93029681772E+02 0.  0.
         23    2    4    4    0    0  0.23904152428E+03  0.16609797090E+03 -0.59883904440E+02  0.31007290286E+03  0.88485800042E+02 0.  0.
          1    1    3    3  502    0  0.39363404081E+03 -0.34500798202E+03  0.11964132656E+03  0.53692859187E+03  0.00000000000E+00 0. -1.
         -2    1    3    3    0  502  0.17856214260E+02 -0.10891914859E+02 -0.10700341256E+02  0.23494158848E+02  0.00000000000E+00 0.  1.
         11    1    5    5    0    0 -0.11594873147E+03  0.71847353407E+02 -0.11728600856E+03  0.17989485352E+03  0.00000000000E+00 0.  1.
        -11    1    5    5    0    0 -0.53458304789E+03  0.11795457257E+03 -0.51111999599E+03  0.74895658524E+03  0.00000000000E+00 0. -1.
          3    1    6    6  503    0  0.16430159315E+03  0.66576409655E+02 -0.54615982315E+02  0.18550023546E+03  0.00000000000E+00 0.  1.
         -3    1    6    6    0  503  0.74739931137E+02  0.99521561245E+02 -0.52679221250E+01  0.12457266740E+03  0.00000000000E+00 0. -1.
<mgrwt>
<rscale>  0 0.17035272E+04</rscale>
<asrwt>0</asrwt>
<pdfrwt beam="1">  1        1 0.93846014E-01 0.17035272E+04</pdfrwt>
<pdfrwt beam="2">  1       -2 0.18297661E+00 0.17035272E+04</pdfrwt>
<totfact> 0.48120270E+00</totfact>
</mgrwt>
</event>
<event>
12    4  0.4183215E-008  0.1388989E+04  0.7818608E-02  0.8961828E-01
         -2   -1    0    0    0  501 -0.00000000000E+00  0.00000000000E+00  0.20767613310E+03  0.20767613310E+03  0.00000000000E+00 0.  1.
          1   -1    0    0  501    0  0.00000000000E+00 -0.00000000000E+00 -0.23224753464E+04  0.23224753464E+04  0.00000000000E+00 0. -1.
        -24    2    1    2    0    0  0.35428272515E+03  0.61861104972E+02 -0.33388025941E+03  0.49813199199E+03  0.85536005156E+02 0.  0.
        254    2    1    2    0    0 -0.35428272515E+03 -0.61861104972E+02 -0.17809189539E+04  0.20320194875E+04  0.90999331407E+03 0.  0.
         23    2    4    4    0    0 -0.28895173149E+03 -0.29366998541E+03 -0.17151127254E+04  0.17661121119E+04  0.88346857471E+02 0.  0.
         23    2    4    4    0    0 -0.65330993659E+02  0.23180888044E+03 -0.65806228488E+02  0.26590737569E+03  0.91502879491E+02 0.  0.
          1    1    3    3  502    0  0.24024087895E+02  0.13579760698E+02 -0.61211142808E+02  0.67144401878E+02  0.00000000000E+00 0. -1.
         -2    1    3    3    0  502  0.33025863725E+03  0.48281344275E+02 -0.27266911660E+03  0.43098759011E+03  0.00000000000E+00 0.  1.
         11    1    5    5    0    0 -0.24777771723E+03 -0.23543717308E+03 -0.15305320722E+04  0.15682324074E+04  0.00000000000E+00 0. -1.
        -11    1    5    5    0    0 -0.41174014258E+02 -0.58232812327E+02 -0.18458065327E+03  0.19787970448E+03  0.00000000000E+00 0.  1.
          2    1    6    6  503    0 -0.69106391984E+02  0.19414200274E+03 -0.20836681846E+02  0.20712551256E+03  0.00000000000E+00 0. -1.
         -2    1    6    6    0  503  0.37753983245E+01  0.37666877693E+02 -0.44969546642E+02  0.58781863128E+02  0.00000000000E+00 0.  1.
<mgrwt>
<rscale>  0 0.13889891E+04</rscale>
<asrwt>0</asrwt>
<pdfrwt beam="1">  1        1 0.35730389E+00 0.13889891E+04</pdfrwt>
<pdfrwt beam="2">  1       -2 0.31950175E-01 0.13889891E+04</pdfrwt>
<totfact> 0.14057020E+01</totfact>
</mgrwt>
</event>
<event>
12    4  0.4183215E-008  0.1474070E+04  0.7818608E-02  0.8901881E-01
         -2   -1    0    0    0  501 -0.00000000000E+00  0.00000000000E+00  0.79836815408E+03  0.79836815408E+03  0.00000000000E+00 0.  1.
          1   -1    0    0  501    0  0.00000000000E+00 -0.00000000000E+00 -0.68041403575E+03  0.68041403575E+03  0.00000000000E+00 0. -1.
        -24    2    1    2    0    0  0.31866851348E+03  0.16230387041E+03  0.34113875365E+03  0.50048251701E+03  0.78834844831E+02 0.  0.
        254    2    1    2    0    0 -0.31866851348E+03 -0.16230387041E+03 -0.22318463532E+03  0.97829967283E+03  0.88281747864E+03 0.  0.
         23    2    4    4    0    0 -0.47705566055E+03  0.21691614282E+03 -0.12643602706E+03  0.54661875267E+03  0.90395108049E+02 0.  0.
         23    2    4    4    0    0  0.15838714707E+03 -0.37922001323E+03 -0.96748608253E+02  0.43168092016E+03  0.89965642550E+02 0.  0.
          1    1    3    3  502    0  0.31978572247E+03  0.15630878673E+03  0.32054079663E+03  0.47900078017E+03  0.00000000000E+00 0. -1.
         -2    1    3    3    0  502 -0.11172089884E+01  0.59950836864E+01  0.20597957015E+02  0.21481736836E+02  0.00000000000E+00 0.  1.
         11    1    5    5    0    0 -0.28836755908E+03  0.17210022196E+03 -0.56976549391E+02  0.34061805987E+03  0.00000000000E+00 0. -1.
        -11    1    5    5    0    0 -0.18868810146E+03  0.44815920860E+02 -0.69459477672E+02  0.20600069280E+03  0.00000000000E+00 0.  1.
          1    1    6    6  503    0  0.89414785106E+02 -0.31049917286E+03 -0.68451465688E+02  0.33028827302E+03  0.00000000000E+00 0. -1.
         -1    1    6    6    0  503  0.68972361961E+02 -0.68720840373E+02 -0.28297142565E+02  0.10139264714E+03  0.00000000000E+00 0.  1.
<mgrwt>
<rscale>  0 0.14740704E+04</rscale>
<asrwt>0</asrwt>
<pdfrwt beam="1">  1        1 0.10467908E+00 0.14740704E+04</pdfrwt>
<pdfrwt beam="2">  1       -2 0.12282587E+00 0.14740704E+04</pdfrwt>
<totfact> 0.12091158E+01</totfact>
</mgrwt>
</event>
<event>
12    4  0.4183215E-008  0.4288221E+04  0.7818608E-02  0.7948800E-01
          1   -1    0    0  501    0  0.00000000000E+00  0.00000000000E+00  0.34319598690E+04  0.34319598690E+04  0.00000000000E+00 0. -1.
         -2   -1    0    0    0  501 -0.00000000000E+00 -0.00000000000E+00 -0.13395292750E+04  0.13395292750E+04  0.00000000000E+00 0.  1.
        -24    2    1    2    0    0 -0.17452084001E+04  0.52416385600E+03  0.20420331736E+04  0.27380426886E+04  0.80487106957E+02 0.  0.
        254    2    1    2    0    0  0.17452084001E+04 -0.52416385600E+03  0.50397420361E+02  0.20334464554E+04  0.90103522649E+03 0.  0.
         23    2    4    4    0    0  0.29482568341E+02  0.93132599061E+02  0.15453352082E+03  0.20473457060E+03  0.92156022583E+02 0.  0.
         23    2    4    4    0    0  0.17157258318E+04 -0.61729645506E+03 -0.10413610045E+03  0.18287118848E+04  0.92589346528E+02 0.  0.
          3    1    3    3  502    0 -0.14752724844E+04  0.43492975783E+03  0.17644648644E+04  0.23407112285E+04  0.00000000000E+00 0. -1.
         -4    1    3    3    0  502 -0.26993591573E+03  0.89234098171E+02  0.27756830921E+03  0.39733146006E+03  0.00000000000E+00 0.  1.
         11    1    5    5    0    0  0.81276369340E+01  0.58427544161E+02  0.15297615291E+03  0.16395590797E+03  0.00000000000E+00 0.  1.
        -11    1    5    5    0    0  0.21354931407E+02  0.34705054900E+02  0.15573679055E+01  0.40778662629E+02  0.00000000000E+00 0. -1.
          2    1    6    6  503    0  0.95021309466E+03 -0.30495513915E+03 -0.26607333281E+02  0.99830381765E+03  0.00000000000E+00 0. -1.
         -2    1    6    6    0  503  0.76551273711E+03 -0.31234131591E+03 -0.77528767173E+02  0.83040806718E+03  0.00000000000E+00 0.  1.
<mgrwt>
<rscale>  0 0.42882214E+04</rscale>
<asrwt>0</asrwt>
<pdfrwt beam="1">  1        1 0.52799382E+00 0.42882214E+04</pdfrwt>
<pdfrwt beam="2">  1       -2 0.20608143E+00 0.42882214E+04</pdfrwt>
<totfact> 0.23069987E-02</totfact>
</mgrwt>
</event>
<event>
12    4  0.4183215E-008  0.1714362E+04  0.7818608E-02  0.8753215E-01
         -2   -1    0    0    0  501 -0.00000000000E+00  0.00000000000E+00  0.52816848289E+03  0.52816848289E+03  0.00000000000E+00 0.  1.
          1   -1    0    0  501    0  0.00000000000E+00 -0.00000000000E+00 -0.13911455800E+04  0.13911455800E+04  0.00000000000E+00 0. -1.
        -24    2    1    2    0    0 -0.81153719770E+02  0.18572421049E+03  0.32968623593E+03  0.39509958540E+03  0.79569212815E+02 0.  0.
        254    2    1    2    0    0  0.81153719770E+02 -0.18572421049E+03 -0.11926633330E+04  0.15242144775E+04  0.92720253387E+03 0.  0.
         23    2    4    4    0    0  0.24385908244E+03 -0.58531896849E+02 -0.12605425770E+04  0.12885461616E+04  0.92143296388E+02 0.  0.
         23    2    4    4    0    0 -0.16270536267E+03 -0.12719231364E+03  0.67879243988E+02  0.23566831588E+03  0.91000239871E+02 0.  0.
          3    1    3    3  502    0 -0.19722328591E+02  0.52980653913E+02  0.36047847484E+02  0.67047499896E+02  0.00000000000E+00 0. -1.
         -4    1    3    3    0  502 -0.61431391180E+02  0.13274355657E+03  0.29363838845E+03  0.32805208550E+03  0.00000000000E+00 0.  1.
         11    1    5    5    0    0  0.71892144445E+02 -0.60492159594E+02 -0.38771070047E+03  0.39893278765E+03  0.00000000000E+00 0.  1.
        -11    1    5    5    0    0  0.17196693799E+03  0.19602627452E+01 -0.87283187652E+03  0.88961337393E+03  0.00000000000E+00 0. -1.
          4    1    6    6  503    0 -0.32544830175E+02 -0.38093316195E+02 -0.21329849691E+02  0.54453918112E+02  0.00000000000E+00 0. -1.
         -4    1    6    6    0  503 -0.13016053249E+03 -0.89098997443E+02  0.89209093678E+02  0.18121439777E+03  0.00000000000E+00 0.  1.
<mgrwt>
<rscale>  0 0.17143620E+04</rscale>
<asrwt>0</asrwt>
<pdfrwt beam="1">  1        1 0.21402240E+00 0.17143620E+04</pdfrwt>
<pdfrwt beam="2">  1       -2 0.81256689E-01 0.17143620E+04</pdfrwt>
<totfact> 0.86740494E+00</totfact>
</mgrwt>
</event>
<event>
12    4  0.4183215E-008  0.1215645E+04  0.7818608E-02  0.9099272E-01
         -2   -1    0    0    0  501 -0.00000000000E+00  0.00000000000E+00  0.13126775699E+03  0.13126775699E+03  0.00000000000E+00 0.  1.
          1   -1    0    0  501    0  0.00000000000E+00 -0.00000000000E+00 -0.28144622381E+04  0.28144622381E+04  0.00000000000E+00 0. -1.
        -24    2    1    2    0    0 -0.13118537761E+03  0.22230946588E+03 -0.79353167076E+03  0.83822944829E+03  0.79403989552E+02 0.  0.
        254    2    1    2    0    0  0.13118537761E+03 -0.22230946588E+03 -0.18896628103E+04  0.21075005468E+04  0.89671729996E+03 0.  0.
         23    2    4    4    0    0 -0.11603119980E+03  0.30613985530E+03 -0.70552218411E+03  0.78417010191E+03  0.99881660610E+02 0.  0.
         23    2    4    4    0    0  0.24721657741E+03 -0.52844932118E+03 -0.11841406262E+04  0.13233304449E+04  0.92950107460E+02 0.  0.
          3    1    3    3  502    0 -0.11713732092E+03  0.14811512904E+03 -0.63759725139E+03  0.66497330652E+03  0.00000000000E+00 0. -1.
         -4    1    3    3    0  502 -0.14048056692E+02  0.74194336841E+02 -0.15593441937E+03  0.17325614177E+03  0.00000000000E+00 0.  1.
         11    1    5    5    0    0 -0.10307159009E+03  0.31159228054E+03 -0.67438734031E+03  0.75000785779E+03  0.00000000000E+00 0. -1.
        -11    1    5    5    0    0 -0.12959609708E+02 -0.54524252406E+01 -0.31134843802E+02  0.34162244120E+02  0.00000000000E+00 0.  1.
          4    1    6    6  503    0  0.12914306877E+03 -0.18494835481E+03 -0.40203945501E+03  0.46099842683E+03  0.00000000000E+00 0. -1.
         -4    1    6    6    0  503  0.11807350864E+03 -0.34350096637E+03 -0.78210117119E+03  0.86233201803E+03  0.00000000000E+00 0.  1.
<mgrwt>
<rscale>  0 0.12156449E+04</rscale>
<asrwt>0</asrwt>
<pdfrwt beam="1">  1        1 0.43299416E+00 0.12156449E+04</pdfrwt>
<pdfrwt beam="2">  1       -2 0.20195041E-01 0.12156449E+04</pdfrwt>
<totfact> 0.14990687E+01</totfact>
</mgrwt>
</event>
<event>
12    4  0.4183215E-008  0.1684956E+04  0.7818608E-02  0.8769991E-01
         -2   -1    0    0    0  501 -0.00000000000E+00  0.00000000000E+00  0.62605041180E+03  0.62605041180E+03  0.00000000000E+00 0.  1.
          1   -1    0    0  501    0  0.00000000000E+00 -0.00000000000E+00 -0.11337248942E+04  0.11337248942E+04  0.00000000000E+00 0. -1.
        -24    2    1    2    0    0  0.37554720145E+03 -0.83167637979E+02  0.29403589272E+03  0.49105821837E+03  0.82027502110E+02 0.  0.
        254    2    1    2    0    0 -0.37554720145E+03  0.83167637979E+02 -0.80171037507E+03  0.12687170876E+04  0.90495909648E+03 0.  0.
         23    2    4    4    0    0 -0.27837309557E+03  0.44067026152E+03 -0.21921425149E+03  0.57308977904E+03  0.93247772382E+02 0.  0.
         23    2    4    4    0    0 -0.97174105880E+02 -0.35750262354E+03 -0.58249612358E+03  0.69562730854E+03  0.85701141866E+02 0.  0.
          1    1    3    3  502    0  0.14349184679E+02 -0.12035567466E+02  0.38840966745E+02  0.43120467099E+02  0.00000000000E+00 0. -1.
         -2    1    3    3    0  502  0.36119801677E+03 -0.71132070513E+02  0.25519492597E+03  0.44793775127E+03  0.00000000000E+00 0.  1.
         11    1    5    5    0    0 -0.10225112779E+03  0.89102058078E+02 -0.68884512031E+02  0.15211688232E+03  0.00000000000E+00 0.  1.
        -11    1    5    5    0    0 -0.17612196778E+03  0.35156820344E+03 -0.15032973946E+03  0.42097289672E+03  0.00000000000E+00 0. -1.
          3    1    6    6  503    0 -0.91142029413E+02 -0.21393143082E+03 -0.40763160533E+03  0.46929420653E+03  0.00000000000E+00 0. -1.
         -3    1    6    6    0  503 -0.60320764675E+01 -0.14357119272E+03 -0.17486451825E+03  0.22633310201E+03  0.00000000000E+00 0.  1.
<mgrwt>
<rscale>  0 0.16849557E+04</rscale>
<asrwt>0</asrwt>
<pdfrwt beam="1">  1        1 0.17441921E+00 0.16849557E+04</pdfrwt>
<pdfrwt beam="2">  1       -2 0.96315449E-01 0.16849557E+04</pdfrwt>
<totfact> 0.90199532E+00</totfact>
</mgrwt>
</event>
<event>
12    4  0.4183215E-008  0.1861028E+04  0.7818608E-02  0.8674502E-01
         -2   -1    0    0    0  501 -0.00000000000E+00  0.00000000000E+00  0.94107605950E+03  0.94107605950E+03  0.00000000000E+00 0.  1.
          1   -1    0    0  501    0  0.00000000000E+00 -0.00000000000E+00 -0.92007077987E+03  0.92007077987E+03  0.00000000000E+00 0. -1.
        -24    2    1    2    0    0 -0.48433114070E+03 -0.42896103085E+03  0.30452835418E+03  0.71942424858E+03  0.79053849329E+02 0.  0.
        254    2    1    2    0    0  0.48433114070E+03  0.42896103085E+03 -0.28352307456E+03  0.11417225908E+04  0.89697319952E+03 0.  0.
         23    2    4    4    0    0  0.72312541575E+03  0.19036220056E+03 -0.16094608623E+03  0.77028521797E+03  0.91035927175E+02 0.  0.
         23    2    4    4    0    0 -0.23879427505E+03  0.23859883028E+03 -0.12257698833E+03  0.37143737282E+03  0.94807680324E+02 0.  0.
          3    1    3    3  502    0 -0.30857622186E+02 -0.50283063831E+02  0.12116439544E+02  0.60227796426E+02  0.00000000000E+00 0. -1.
         -4    1    3    3    0  502 -0.45347351852E+03 -0.37867796702E+03  0.29241191464E+03  0.65919645215E+03  0.00000000000E+00 0.  1.
         11    1    5    5    0    0  0.12818070081E+03  0.53179737621E+02 -0.61056756016E+02  0.15161234781E+03  0.00000000000E+00 0. -1.
        -11    1    5    5    0    0  0.59494471495E+03  0.13718246294E+03 -0.99889330212E+02  0.61867287016E+03  0.00000000000E+00 0.  1.
          2    1    6    6  503    0 -0.18594983559E+02  0.61608697537E+02 -0.23213739405E+01  0.64395603909E+02  0.00000000000E+00 0. -1.
         -2    1    6    6    0  503 -0.22019929149E+03  0.17699013275E+03 -0.12025561439E+03  0.30704176891E+03  0.00000000000E+00 0.  1.
<mgrwt>
<rscale>  0 0.18610283E+04</rscale>
<asrwt>0</asrwt>
<pdfrwt beam="1">  1        1 0.14154935E+00 0.18610283E+04</pdfrwt>
<pdfrwt beam="2">  1       -2 0.14478093E+00 0.18610283E+04</pdfrwt>
<totfact> 0.47416185E+00</totfact>
</mgrwt>
</event>
<event>
12    4  0.4183215E-008  0.1209284E+04  0.7818608E-02  0.9104769E-01
         -2   -1    0    0    0  501 -0.00000000000E+00  0.00000000000E+00  0.12943725255E+04  0.12943725255E+04  0.00000000000E+00 0.  1.
          1   -1    0    0  501    0  0.00000000000E+00 -0.00000000000E+00 -0.28244707427E+03  0.28244707427E+03  0.00000000000E+00 0. -1.
        -24    2    1    2    0    0 -0.69715971194E+02  0.46171973298E+02 -0.98043411887E+02  0.14888147676E+03  0.74572218350E+02 0.  0.
        254    2    1    2    0    0  0.69715971194E+02 -0.46171973298E+02  0.11099688631E+04  0.14279381230E+04  0.89441837990E+03 0.  0.
         23    2    4    4    0    0  0.22668898640E+03  0.33348481648E+03  0.81533532786E+03  0.91400812771E+03  0.89661258535E+02 0.  0.
         23    2    4    4    0    0 -0.15697301521E+03 -0.37965678978E+03  0.29463353523E+03  0.51392999528E+03  0.92386765467E+02 0.  0.
          3    1    3    3  502    0 -0.77975137474E+02  0.43159153570E+02 -0.10496148593E+03  0.13769440123E+03  0.00000000000E+00 0. -1.
         -4    1    3    3    0  502  0.82591662797E+01  0.30128197282E+01  0.69180740466E+01  0.11187075528E+02  0.00000000000E+00 0.  1.
         11    1    5    5    0    0  0.94809560197E+02  0.18680927412E+03  0.49934176869E+03  0.54150601064E+03  0.00000000000E+00 0. -1.
        -11    1    5    5    0    0  0.13187942621E+03  0.14667554237E+03  0.31599355917E+03  0.37250211707E+03  0.00000000000E+00 0.  1.
          3    1    6    6  503    0 -0.13647363279E+03 -0.37415417238E+03  0.26877098352E+03  0.48047293237E+03  0.00000000000E+00 0. -1.
         -3    1    6    6    0  503 -0.20499382414E+02 -0.55026174048E+01  0.25862551711E+02  0.33457062912E+02  0.00000000000E+00 0.  1.
<mgrwt>
<rscale>  0 0.12092836E+04</rscale>
<asrwt>0</asrwt>
<pdfrwt beam="1">  1        1 0.43453397E-01 0.12092836E+04</pdfrwt>
<pdfrwt beam="2">  1       -2 0.19913423E+00 0.12092836E+04</pdfrwt>
<totfact> 0.11024727E+01</totfact>
</mgrwt>
</event>
<event>
12    4  0.4183215E-008  0.1302383E+04  0.7818608E-02  0.9027678E-01
          1   -1    0    0  501    0  0.00000000000E+00  0.00000000000E+00  0.21192456224E+04  0.21192456224E+04  0.00000000000E+00 0. -1.
         -2   -1    0    0    0  501 -0.00000000000E+00 -0.00000000000E+00 -0.20009482638E+03  0.20009482638E+03  0.00000000000E+00 0.  1.
        -24    2    1    2    0    0  0.75664736660E+02 -0.21240858787E+03  0.95289933900E+02  0.26044412301E+03  0.88929236674E+02 0.  0.
        254    2    1    2    0    0 -0.75664736660E+02  0.21240858787E+03  0.18238608621E+04  0.20588963257E+04  0.92830117703E+03 0.  0.
         23    2    4    4    0    0  0.38948575135E+03  0.14900503993E+02  0.51323563827E+03  0.65097721715E+03  0.91865887763E+02 0.  0.
         23    2    4    4    0    0 -0.46515048801E+03  0.19750808387E+03  0.13106252238E+04  0.14079191086E+04  0.95516068271E+02 0.  0.
          1    1    3    3  502    0 -0.14451612007E+02 -0.21478551692E+02  0.29619495638E+02  0.39338172228E+02  0.00000000000E+00 0. -1.
         -2    1    3    3    0  502  0.90116348667E+02 -0.19093003617E+03  0.65670438262E+02  0.22110595078E+03  0.00000000000E+00 0.  1.
         11    1    5    5    0    0  0.33879272477E+03  0.10964318011E+02  0.38460214782E+03  0.51265928133E+03  0.00000000000E+00 0. -1.
        -11    1    5    5    0    0  0.50693026575E+02  0.39361859827E+01  0.12863349045E+03  0.13831793581E+03  0.00000000000E+00 0.  1.
          2    1    6    6  503    0 -0.33257335986E+03  0.15857519325E+03  0.10526739589E+04  0.11152908120E+04  0.00000000000E+00 0. -1.
         -2    1    6    6    0  503 -0.13257712815E+03  0.38932890626E+02  0.25795126493E+03  0.29262829658E+03  0.00000000000E+00 0.  1.
<mgrwt>
<rscale>  0 0.13023826E+04</rscale>
<asrwt>0</asrwt>
<pdfrwt beam="1">  1        1 0.32603777E+00 0.13023826E+04</pdfrwt>
<pdfrwt beam="2">  1       -2 0.30783821E-01 0.13023826E+04</pdfrwt>
<totfact> 0.20877033E+01</totfact>
</mgrwt>
</event>
<event>
12    4  0.4183215E-008  0.1430781E+04  0.7818608E-02  0.8931834E-01
          1   -1    0    0  501    0  0.00000000000E+00  0.00000000000E+00  0.13219879874E+04  0.13219879874E+04  0.00000000000E+00 0. -1.
         -2   -1    0    0    0  501 -0.00000000000E+00 -0.00000000000E+00 -0.38713191261E+03  0.38713191261E+03  0.00000000000E+00 0.  1.
        -24    2    1    2    0    0  0.40412735871E+03  0.11222113463E+03  0.39452849197E+03  0.58120636794E+03  0.78965853684E+02 0.  0.
        254    2    1    2    0    0 -0.40412735871E+03 -0.11222113463E+03  0.54032758281E+03  0.11279135320E+04  0.89684030569E+03 0.  0.
         23    2    4    4    0    0 -0.68191563937E+03 -0.82110170160E+02  0.41110020695E+03  0.80568938708E+03  0.91547741858E+02 0.  0.
         23    2    4    4    0    0  0.27778828066E+03 -0.30110964473E+02  0.12922737586E+03  0.32222414496E+03  0.95161367549E+02 0.  0.
          3    1    3    3  502    0  0.21773696359E+03  0.85814764412E+02  0.26004502120E+03  0.34985278641E+03  0.00000000000E+00 0. -1.
         -4    1    3    3    0  502  0.18639039512E+03  0.26406370221E+02  0.13448347077E+03  0.23135358154E+03  0.00000000000E+00 0.  1.
         11    1    5    5    0    0 -0.42683351262E+03 -0.73182908926E+01  0.26269650222E+03  0.50124829891E+03  0.00000000000E+00 0.  1.
        -11    1    5    5    0    0 -0.25508212675E+03 -0.74791879268E+02  0.14840370472E+03  0.30444108817E+03  0.00000000000E+00 0. -1.
          4    1    6    6  503    0  0.39879269262E+01 -0.50813465312E+01  0.28798888711E+02  0.29514397075E+02  0.00000000000E+00 0. -1.
         -4    1    6    6    0  503  0.27380035373E+03 -0.25029617942E+02  0.10042848715E+03  0.29270974789E+03  0.00000000000E+00 0.  1.
<mgrwt>
<rscale>  0 0.14307812E+04</rscale>
<asrwt>0</asrwt>
<pdfrwt beam="1">  1        1 0.20338276E+00 0.14307812E+04</pdfrwt>
<pdfrwt beam="2">  1       -2 0.59558757E-01 0.14307812E+04</pdfrwt>
<totfact> 0.19583550E+01</totfact>
</mgrwt>
</event>
<event>
12    4  0.4183215E-008  0.2041230E+04  0.7818608E-02  0.8587583E-01
         -2   -1    0    0    0  501 -0.00000000000E+00  0.00000000000E+00  0.57920723682E+03  0.57920723682E+03  0.00000000000E+00 0.  1.
          1   -1    0    0  501    0  0.00000000000E+00 -0.00000000000E+00 -0.17984144416E+04  0.17984144416E+04  0.00000000000E+00 0. -1.
        -24    2    1    2    0    0  0.17475815341E+03 -0.15534043601E+03  0.42143097088E+03  0.48892756698E+03  0.82310626867E+02 0.  0.
        254    2    1    2    0    0 -0.17475815341E+03  0.15534043601E+03 -0.16406381756E+04  0.18886941114E+04  0.90598055162E+03 0.  0.
         23    2    4    4    0    0 -0.94485906086E+02  0.52422397615E+03 -0.10600888432E+04  0.11900470796E+04  0.93195132143E+02 0.  0.
         23    2    4    4    0    0 -0.80272247323E+02 -0.36888354014E+03 -0.58054933243E+03  0.69864703178E+03  0.92474038282E+02 0.  0.
          3    1    3    3  502    0  0.15534606594E+03 -0.95016421312E+02  0.28079390549E+03  0.33467258311E+03  0.00000000000E+00 0. -1.
         -4    1    3    3    0  502  0.19412087468E+02 -0.60324014700E+02  0.14063706539E+03  0.15425498387E+03  0.00000000000E+00 0.  1.
         11    1    5    5    0    0  0.67652744094E+01  0.19291520876E+03 -0.34060602301E+03  0.39150288584E+03  0.00000000000E+00 0. -1.
        -11    1    5    5    0    0 -0.10125118050E+03  0.33130876739E+03 -0.71948282018E+03  0.79854419379E+03  0.00000000000E+00 0.  1.
          3    1    6    6  503    0 -0.75717136588E+01  0.39086697660E+01 -0.88972192643E+01  0.12319458499E+02  0.00000000000E+00 0. -1.
         -3    1    6    6    0  503 -0.72700533664E+02 -0.37279220990E+03 -0.57165211316E+03  0.68632757328E+03  0.00000000000E+00 0.  1.
<mgrwt>
<rscale>  0 0.20412297E+04</rscale>
<asrwt>0</asrwt>
<pdfrwt beam="1">  1        1 0.27667914E+00 0.20412297E+04</pdfrwt>
<pdfrwt beam="2">  1       -2 0.89108808E-01 0.20412297E+04</pdfrwt>
<totfact> 0.35845754E+00</totfact>
</mgrwt>
</event>
<event>
12    4  0.4183215E-008  0.2624148E+04  0.7818608E-02  0.8360045E-01
         -4   -1    0    0    0  501 -0.00000000000E+00  0.00000000000E+00  0.13441798756E+04  0.13441798756E+04  0.00000000000E+00 0.  1.
          3   -1    0    0  501    0  0.00000000000E+00 -0.00000000000E+00 -0.12807352202E+04  0.12807352202E+04  0.00000000000E+00 0. -1.
        -24    2    1    2    0    0  0.38893396834E+03  0.85988985945E+03 -0.63831443780E+03  0.11420858803E+04  0.78959700802E+02 0.  0.
        254    2    1    2    0    0 -0.38893396834E+03 -0.85988985945E+03  0.70175909326E+03  0.14828292155E+04  0.90312593546E+03 0.  0.
         23    2    4    4    0    0 -0.66047734054E+03 -0.44605906355E+03  0.45748452696E+03  0.92367056812E+03  0.93146231611E+02 0.  0.
         23    2    4    4    0    0  0.27154337220E+03 -0.41383079589E+03  0.24427456630E+03  0.55915864739E+03  0.89423702670E+02 0.  0.
          3    1    3    3  502    0  0.27350575722E+03  0.61698319554E+03 -0.49807329714E+03  0.83877927498E+03  0.00000000000E+00 0. -1.
         -4    1    3    3    0  502  0.11542821111E+03  0.24290666390E+03 -0.14024114066E+03  0.30330660531E+03  0.00000000000E+00 0.  1.
         11    1    5    5    0    0 -0.29912389560E+02 -0.67077790212E+01  0.29770245155E+01  0.30799480897E+02  0.00000000000E+00 0. -1.
        -11    1    5    5    0    0 -0.63056495098E+03 -0.43935128453E+03  0.45450750245E+03  0.89287108723E+03  0.00000000000E+00 0.  1.
          3    1    6    6  503    0  0.22500265299E+03 -0.26816199878E+03  0.16903941738E+03  0.38873046712E+03  0.00000000000E+00 0.  1.
         -3    1    6    6    0  503  0.46540719208E+02 -0.14566879711E+03  0.75235148925E+02  0.17042818027E+03  0.00000000000E+00 0. -1.
<mgrwt>
<rscale>  0 0.26241482E+04</rscale>
<asrwt>0</asrwt>
<pdfrwt beam="1">  1        3 0.19703619E+00 0.26241482E+04</pdfrwt>
<pdfrwt beam="2">  1       -4 0.20679690E+00 0.26241482E+04</pdfrwt>
<totfact> 0.36712221E-02</totfact>
</mgrwt>
</event>
<event>
12    4  0.4183215E-008  0.1520125E+04  0.7818608E-02  0.8871179E-01
          1   -1    0    0  501    0  0.00000000000E+00  0.00000000000E+00  0.32166098557E+04  0.32166098557E+04  0.00000000000E+00 0. -1.
         -2   -1    0    0    0  501 -0.00000000000E+00 -0.00000000000E+00 -0.17959750936E+03  0.17959750936E+03  0.00000000000E+00 0.  1.
        -24    2    1    2    0    0 -0.33946612820E+03 -0.35226255186E+03  0.96460415652E+03  0.10844796014E+04  0.79427132444E+02 0.  0.
        254    2    1    2    0    0  0.33946612820E+03  0.35226255186E+03  0.20724081898E+04  0.23117277636E+04  0.89993521465E+03 0.  0.
         23    2    4    4    0    0  0.16640363828E+02  0.59723768937E+03  0.11152153593E+04  0.12683897960E+04  0.90208745060E+02 0.  0.
         23    2    4    4    0    0  0.32282576437E+03 -0.24497513751E+03  0.95719283047E+03  0.10433379676E+04  0.90037258297E+02 0.  0.
          3    1    3    3  502    0 -0.17467134809E+03 -0.13364065955E+03  0.38284376105E+03  0.44151925338E+03  0.00000000000E+00 0. -1.
         -4    1    3    3    0  502 -0.16479478011E+03 -0.21862189231E+03  0.58176039547E+03  0.64296034799E+03  0.00000000000E+00 0.  1.
         11    1    5    5    0    0  0.47546437907E+02  0.43695363071E+03  0.85130076728E+03  0.95807209307E+03  0.00000000000E+00 0. -1.
        -11    1    5    5    0    0 -0.30906074079E+02  0.16028405866E+03  0.26391459202E+03  0.31031770294E+03  0.00000000000E+00 0.  1.
          3    1    6    6  503    0  0.28724501927E+03 -0.17789915057E+03  0.81201476238E+03  0.87950314564E+03  0.00000000000E+00 0. -1.
         -3    1    6    6    0  503  0.35580745101E+02 -0.67075986941E+02  0.14517806809E+03  0.16383482200E+03  0.00000000000E+00 0.  1.
<mgrwt>
<rscale>  0 0.15201252E+04</rscale>
<asrwt>0</asrwt>
<pdfrwt beam="1">  1        1 0.49486301E+00 0.15201252E+04</pdfrwt>
<pdfrwt beam="2">  1       -2 0.27630388E-01 0.15201252E+04</pdfrwt>
<totfact> 0.42184661E+00</totfact>
</mgrwt>
</event>
<event>
12    4  0.4183215E-008  0.1777337E+04  0.7818608E-02  0.8718445E-01
         -2   -1    0    0    0  501 -0.00000000000E+00  0.00000000000E+00  0.63698481233E+03  0.63698481233E+03  0.00000000000E+00 0.  1.
          1   -1    0    0  501    0  0.00000000000E+00 -0.00000000000E+00 -0.12397966578E+04  0.12397966578E+04  0.00000000000E+00 0. -1.
        -24    2    1    2    0    0  0.47818207248E+03 -0.47052712091E+03 -0.18181411633E+03  0.69911975933E+03  0.75221001305E+02 0.  0.
        254    2    1    2    0    0 -0.47818207248E+03  0.47052712091E+03 -0.42099772911E+03  0.11776617108E+04  0.87154698734E+03 0.  0.
         23    2    4    4    0    0  0.11487007366E+03  0.46517262189E+03 -0.10594382286E+03  0.49990580474E+03  0.95399255927E+02 0.  0.
         23    2    4    4    0    0 -0.59305214614E+03  0.53544990228E+01 -0.31505390625E+03  0.67775590603E+03  0.91403422365E+02 0.  0.
          3    1    3    3  502    0  0.15497819493E+03 -0.15005714611E+03 -0.95238579369E+02  0.23580876787E+03  0.00000000000E+00 0. -1.
         -4    1    3    3    0  502  0.32320387755E+03 -0.32046997481E+03 -0.86575536958E+02  0.46331099147E+03  0.00000000000E+00 0.  1.
         11    1    5    5    0    0  0.63091393237E+02  0.19572846486E+03 -0.91693445895E+02  0.22516181710E+03  0.00000000000E+00 0. -1.
        -11    1    5    5    0    0  0.51778680421E+02  0.26944415703E+03 -0.14250376967E+02  0.27474398764E+03  0.00000000000E+00 0.  1.
          4    1    6    6  503    0 -0.51099578713E+03  0.36315022726E+02 -0.27313630416E+03  0.58055052837E+03  0.00000000000E+00 0. -1.
         -4    1    6    6    0  503 -0.82056359005E+02 -0.30960523703E+02 -0.41917602096E+02  0.97205377664E+02  0.00000000000E+00 0.  1.
<mgrwt>
<rscale>  0 0.17773369E+04</rscale>
<asrwt>0</asrwt>
<pdfrwt beam="1">  1        1 0.19073795E+00 0.17773369E+04</pdfrwt>
<pdfrwt beam="2">  1       -2 0.97997663E-01 0.17773369E+04</pdfrwt>
<totfact> 0.71825727E+00</totfact>
</mgrwt>
</event>
<event>
12    4  0.4183215E-008  0.1317658E+04  0.7818608E-02  0.9015678E-01
          1   -1    0    0  501    0  0.00000000000E+00  0.00000000000E+00  0.24729380181E+04  0.24729380181E+04  0.00000000000E+00 0. -1.
         -2   -1    0    0    0  501 -0.00000000000E+00 -0.00000000000E+00 -0.17552225703E+03  0.17552225703E+03  0.00000000000E+00 0.  1.
        -24    2    1    2    0    0  0.30067782654E+03  0.18027825191E+03  0.52919976445E+03  0.63968937396E+03  0.79010764908E+02 0.  0.
        254    2    1    2    0    0 -0.30067782654E+03 -0.18027825191E+03  0.17682159966E+04  0.20087709012E+04  0.88637763915E+03 0.  0.
         23    2    4    4    0    0 -0.19621987036E+03  0.34141871884E+03  0.90284929501E+03  0.98912435569E+03  0.90339152190E+02 0.  0.
         23    2    4    4    0    0 -0.10445795618E+03 -0.52169697075E+03  0.86536670162E+03  0.10196465455E+04  0.87979290436E+02 0.  0.
          1    1    3    3  502    0  0.26649930754E+03  0.15028528087E+03  0.40605609897E+03  0.50841823539E+03  0.00000000000E+00 0. -1.
         -2    1    3    3    0  502  0.34178519006E+02  0.29992971046E+02  0.12314366548E+03  0.13127113857E+03  0.00000000000E+00 0.  1.
         11    1    5    5    0    0 -0.94000740862E+02  0.24341999059E+03  0.54398916284E+03  0.60333542942E+03  0.00000000000E+00 0.  1.
        -11    1    5    5    0    0 -0.10221912950E+03  0.97998728252E+02  0.35886013216E+03  0.38578892627E+03  0.00000000000E+00 0. -1.
          2    1    6    6  503    0 -0.31503825077E+01 -0.11916932025E+03  0.13966524446E+03  0.18362361588E+03  0.00000000000E+00 0. -1.
         -2    1    6    6    0  503 -0.10130757368E+03 -0.40252765050E+03  0.72570145715E+03  0.83602292960E+03  0.00000000000E+00 0.  1.
<mgrwt>
<rscale>  0 0.13176580E+04</rscale>
<asrwt>0</asrwt>
<pdfrwt beam="1">  1        1 0.38045198E+00 0.13176580E+04</pdfrwt>
<pdfrwt beam="2">  1       -2 0.27003426E-01 0.13176580E+04</pdfrwt>
<totfact> 0.15251333E+01</totfact>
</mgrwt>
</event>
<event>
12    4  0.4183215E-008  0.1655806E+04  0.7818608E-02  0.8786979E-01
          1   -1    0    0  501    0  0.00000000000E+00  0.00000000000E+00  0.21271245496E+04  0.21271245496E+04  0.00000000000E+00 0. -1.
         -2   -1    0    0    0  501 -0.00000000000E+00 -0.00000000000E+00 -0.32222989223E+03  0.32222989223E+03  0.00000000000E+00 0.  1.
        -24    2    1    2    0    0  0.16774265078E+03 -0.55004066937E+03  0.72369285738E+03  0.92787675362E+03  0.80880054655E+02 0.  0.
        254    2    1    2    0    0 -0.16774265078E+03  0.55004066937E+03  0.10812018000E+04  0.15214776882E+04  0.90289240142E+03 0.  0.
         23    2    4    4    0    0 -0.16538656309E+03 -0.11515848746E+03  0.73020161190E+03  0.76282199976E+03  0.89937849675E+02 0.  0.
         23    2    4    4    0    0 -0.23560876909E+01  0.66519915683E+03  0.35100018806E+03  0.75865568843E+03  0.99306858603E+02 0.  0.
          1    1    3    3  502    0  0.52156005707E+01 -0.53070260656E+02  0.37576661148E+02  0.65235423801E+02  0.00000000000E+00 0. -1.
         -2    1    3    3    0  502  0.16252705021E+03 -0.49697040871E+03  0.68611619623E+03  0.86264132982E+03  0.00000000000E+00 0.  1.
         11    1    5    5    0    0 -0.12857224282E+03 -0.12727372055E+03  0.62718873485E+03  0.65275962704E+03  0.00000000000E+00 0. -1.
        -11    1    5    5    0    0 -0.36814320276E+02  0.12115233095E+02  0.10301287705E+03  0.11006237272E+03  0.00000000000E+00 0.  1.
          3    1    6    6  503    0 -0.45392652684E+02  0.40111208479E+03  0.23431121753E+03  0.46674740935E+03  0.00000000000E+00 0. -1.
         -3    1    6    6    0  503  0.43036564993E+02  0.26408707204E+03  0.11668897054E+03  0.29190827907E+03  0.00000000000E+00 0.  1.
<mgrwt>
<rscale>  0 0.16558057E+04</rscale>
<asrwt>0</asrwt>
<pdfrwt beam="1">  1        1 0.32724992E+00 0.16558057E+04</pdfrwt>
<pdfrwt beam="2">  1       -2 0.49573831E-01 0.16558057E+04</pdfrwt>
<totfact> 0.78925621E+00</totfact>
</mgrwt>
</event>
<event>
12    4  0.4183215E-008  0.1407387E+04  0.7818608E-02  0.8948488E-01
         -2   -1    0    0    0  501 -0.00000000000E+00  0.00000000000E+00  0.36939809577E+03  0.36939809577E+03  0.00000000000E+00 0.  1.
          1   -1    0    0  501    0  0.00000000000E+00 -0.00000000000E+00 -0.13405180189E+04  0.13405180189E+04  0.00000000000E+00 0. -1.
        -24    2    1    2    0    0 -0.25128814114E+03  0.26036394809E+03 -0.44879213066E+02  0.37333161483E+03  0.80170041300E+02 0.  0.
        254    2    1    2    0    0  0.25128814114E+03 -0.26036394809E+03 -0.92624071008E+03  0.13365844998E+04  0.89308519015E+03 0.  0.
         23    2    4    4    0    0  0.18335628805E+03 -0.50040120008E+03 -0.22352373848E+03  0.58538163365E+03  0.93208937067E+02 0.  0.
         23    2    4    4    0    0  0.67931853092E+02  0.24003725198E+03 -0.70271697160E+03  0.75120286619E+03  0.90895461912E+02 0.  0.
          3    1    3    3  502    0 -0.62601243848E+01  0.41170187830E+02 -0.10127823192E+01  0.41655722912E+02  0.00000000000E+00 0. -1.
         -4    1    3    3    0  502 -0.24502801676E+03  0.21919376026E+03 -0.43866430747E+02  0.33167589192E+03  0.00000000000E+00 0.  1.
         11    1    5    5    0    0  0.93690339483E+02 -0.25629932608E+03 -0.63963464402E+02  0.28028298029E+03  0.00000000000E+00 0.  1.
        -11    1    5    5    0    0  0.89665948565E+02 -0.24410187400E+03 -0.15956027407E+03  0.30509865336E+03  0.00000000000E+00 0. -1.
          1    1    6    6  503    0 -0.22531643276E+02  0.47731698664E+02 -0.15191967662E+03  0.16082779036E+03  0.00000000000E+00 0. -1.
         -1    1    6    6    0  503  0.90463496368E+02  0.19230555332E+03 -0.55079729498E+03  0.59037507583E+03  0.00000000000E+00 0.  1.
<mgrwt>
<rscale>  0 0.14073874E+04</rscale>
<asrwt>0</asrwt>
<pdfrwt beam="1">  1        1 0.20623354E+00 0.14073874E+04</pdfrwt>
<pdfrwt beam="2">  1       -2 0.56830477E-01 0.14073874E+04</pdfrwt>
<totfact> 0.21006990E+01</totfact>
</mgrwt>
</event>
<event>
12    4  0.4183215E-008  0.1871214E+04  0.7818608E-02  0.8669319E-01
          1   -1    0    0  501    0  0.00000000000E+00  0.00000000000E+00  0.35657831097E+03  0.35657831097E+03  0.00000000000E+00 0. -1.
         -2   -1    0    0    0  501 -0.00000000000E+00 -0.00000000000E+00 -0.24548889304E+04  0.24548889304E+04  0.00000000000E+00 0.  1.
        -24    2    1    2    0    0  0.10417074305E+03 -0.69162272542E+03 -0.11202322815E+04  0.13229370548E+04  0.77772413822E+02 0.  0.
        254    2    1    2    0    0 -0.10417074305E+03  0.69162272542E+03 -0.97807833796E+03  0.14885301866E+04  0.87743452364E+03 0.  0.
         23    2    4    4    0    0  0.37055094118E+03  0.22482126612E+03 -0.30950409135E+03  0.54049577731E+03  0.92142829433E+02 0.  0.
         23    2    4    4    0    0 -0.47472168424E+03  0.46680145930E+03 -0.66857424661E+03  0.94803440931E+03  0.92268294227E+02 0.  0.
          3    1    3    3  502    0  0.50611488736E+02 -0.19601501754E+03 -0.27196740935E+03  0.33904230067E+03  0.00000000000E+00 0. -1.
         -4    1    3    3    0  502  0.53559254317E+02 -0.49560770788E+03 -0.84826487215E+03  0.98389475410E+03  0.00000000000E+00 0.  1.
         11    1    5    5    0    0  0.16766844234E+03  0.49117939441E+02 -0.12273364697E+03  0.21351540139E+03  0.00000000000E+00 0.  1.
        -11    1    5    5    0    0  0.20288249884E+03  0.17570332668E+03 -0.18677044438E+03  0.32698037592E+03  0.00000000000E+00 0. -1.
          2    1    6    6  503    0 -0.14636521516E+03  0.89949856430E+02 -0.18743036217E+03  0.25425163430E+03  0.00000000000E+00 0. -1.
         -2    1    6    6    0  503 -0.32835646907E+03  0.37685160287E+03 -0.48114388444E+03  0.69378277501E+03  0.00000000000E+00 0.  1.
<mgrwt>
<rscale>  0 0.18712137E+04</rscale>
<asrwt>0</asrwt>
<pdfrwt beam="1">  1        1 0.54858205E-01 0.18712137E+04</pdfrwt>
<pdfrwt beam="2">  1       -2 0.37767520E+00 0.18712137E+04</pdfrwt>
<totfact> 0.59628757E-01</totfact>
</mgrwt>
</event>
<event>
12    4  0.4183215E-008  0.1871653E+04  0.7818608E-02  0.8669096E-01
         -2   -1    0    0    0  501 -0.00000000000E+00  0.00000000000E+00  0.70148349192E+03  0.70148349192E+03  0.00000000000E+00 0.  1.
          1   -1    0    0  501    0  0.00000000000E+00 -0.00000000000E+00 -0.12484563557E+04  0.12484563557E+04  0.00000000000E+00 0. -1.
        -24    2    1    2    0    0 -0.34644247591E+03 -0.23780875312E+03 -0.81817696366E+03  0.92301974798E+03  0.77307949996E+02 0.  0.
        254    2    1    2    0    0  0.34644247591E+03  0.23780875312E+03  0.27120409986E+03  0.10269200997E+04  0.89690458531E+03 0.  0.
         23    2    4    4    0    0 -0.76945626501E+02 -0.28519380752E+03  0.71157970110E+02  0.31902495314E+03  0.97248787809E+02 0.  0.
         23    2    4    4    0    0  0.42338810241E+03  0.52300256064E+03  0.20004612975E+03  0.70789514653E+03  0.91147796257E+02 0.  0.
          3    1    3    3  502    0 -0.16027971242E+03 -0.14636031586E+03 -0.36552861423E+03  0.42511421535E+03  0.00000000000E+00 0. -1.
         -4    1    3    3    0  502 -0.18616276349E+03 -0.91448437263E+02 -0.45264834943E+03  0.49790553263E+03  0.00000000000E+00 0.  1.
         11    1    5    5    0    0 -0.14820879494E+02 -0.13266315113E+01  0.18441557054E+02  0.23696190553E+02  0.00000000000E+00 0.  1.
        -11    1    5    5    0    0 -0.62124747008E+02 -0.28386717600E+03  0.52716413056E+02  0.29532876258E+03  0.00000000000E+00 0. -1.
          4    1    6    6  503    0  0.23500990002E+03  0.30447651503E+03  0.16016082716E+03  0.41663784258E+03  0.00000000000E+00 0. -1.
         -4    1    6    6    0  503  0.18837820238E+03  0.21852604561E+03  0.39885302588E+02  0.29125730395E+03  0.00000000000E+00 0.  1.
<mgrwt>
<rscale>  0 0.18716533E+04</rscale>
<asrwt>0</asrwt>
<pdfrwt beam="1">  1        1 0.19207021E+00 0.18716533E+04</pdfrwt>
<pdfrwt beam="2">  1       -2 0.10792054E+00 0.18716533E+04</pdfrwt>
<totfact> 0.55775278E+00</totfact>
</mgrwt>
</event>
<event>
12    4  0.4183215E-008  0.2034338E+04  0.7818608E-02  0.8590733E-01
         -2   -1    0    0    0  501 -0.00000000000E+00  0.00000000000E+00  0.29964205772E+03  0.29964205772E+03  0.00000000000E+00 0.  1.
          1   -1    0    0  501    0  0.00000000000E+00 -0.00000000000E+00 -0.34528971394E+04  0.34528971394E+04  0.00000000000E+00 0. -1.
        -24    2    1    2    0    0  0.58838459581E+03 -0.66602157602E+02 -0.23430838704E+03  0.64195525839E+03  0.81079304112E+02 0.  0.
        254    2    1    2    0    0 -0.58838459581E+03  0.66602157602E+02 -0.29189466946E+04  0.31105839387E+04  0.89713452379E+03 0.  0.
         23    2    4    4    0    0 -0.71469812635E+03  0.23076962145E+03 -0.15784893012E+04  0.17510213146E+04  0.10197617579E+03 0.  0.
         23    2    4    4    0    0  0.12631353054E+03 -0.16416746385E+03 -0.13404573935E+04  0.13595626241E+04  0.93158150158E+02 0.  0.
          1    1    3    3  502    0  0.71540792610E+02 -0.29372861095E+02 -0.12690434333E+02  0.78370256473E+02  0.00000000000E+00 0. -1.
         -2    1    3    3    0  502  0.51684380320E+03 -0.37229296507E+02 -0.22161795271E+03  0.56358500192E+03  0.00000000000E+00 0.  1.
         11    1    5    5    0    0 -0.12675857123E+03  0.39836607891E+02 -0.37893806875E+03  0.40155790449E+03  0.00000000000E+00 0. -1.
        -11    1    5    5    0    0 -0.58793955512E+03  0.19093301356E+03 -0.11995512324E+04  0.13494634101E+04  0.00000000000E+00 0.  1.
          2    1    6    6  503    0 -0.57279208335E+01 -0.49369300310E+02 -0.38770346343E+03  0.39087608324E+03  0.00000000000E+00 0. -1.
         -2    1    6    6    0  503  0.13204145138E+03 -0.11479816354E+03 -0.95275393002E+03  0.96868654084E+03  0.00000000000E+00 0.  1.
<mgrwt>
<rscale>  0 0.20343384E+04</rscale>
<asrwt>0</asrwt>
<pdfrwt beam="1">  1        1 0.53121493E+00 0.20343384E+04</pdfrwt>
<pdfrwt beam="2">  1       -2 0.46098780E-01 0.20343384E+04</pdfrwt>
<totfact> 0.99047986E-01</totfact>
</mgrwt>
</event>
<event>
12    4  0.4183215E-008  0.2615068E+04  0.7818608E-02  0.8363101E-01
         -2   -1    0    0    0  501 -0.00000000000E+00  0.00000000000E+00  0.16863164806E+04  0.16863164806E+04  0.00000000000E+00 0.  1.
          1   -1    0    0  501    0  0.00000000000E+00 -0.00000000000E+00 -0.10138343115E+04  0.10138343115E+04  0.00000000000E+00 0. -1.
        -24    2    1    2    0    0 -0.51081309110E+03 -0.65885736783E+03  0.11180440735E+04  0.13969402400E+04  0.79977738429E+02 0.  0.
        254    2    1    2    0    0  0.51081309110E+03  0.65885736783E+03 -0.44556190440E+03  0.13032105522E+04  0.89711163602E+03 0.  0.
         23    2    4    4    0    0  0.55715738334E+02 -0.20915552403E+03 -0.57665445199E+02  0.24507591398E+03  0.99431500613E+02 0.  0.
         23    2    4    4    0    0  0.45509735276E+03  0.86801289186E+03 -0.38789645921E+03  0.10581346382E+04  0.92872323944E+02 0.  0.
          3    1    3    3  502    0 -0.46761482622E+02 -0.35904568383E+02  0.57599573554E+02  0.82422601035E+02  0.00000000000E+00 0. -1.
         -4    1    3    3    0  502 -0.46405160847E+03 -0.62295279944E+03  0.10604444999E+04  0.13145176389E+04  0.00000000000E+00 0.  1.
         11    1    5    5    0    0  0.40772078540E+02 -0.19040964734E+03 -0.13958056267E+02  0.19522557087E+03  0.00000000000E+00 0. -1.
        -11    1    5    5    0    0  0.14943659793E+02 -0.18745876694E+02 -0.43707388932E+02  0.49850343111E+02  0.00000000000E+00 0.  1.
          2    1    6    6  503    0  0.26206610838E+03  0.48703812138E+03 -0.26774487129E+03  0.61446895197E+03  0.00000000000E+00 0. -1.
         -2    1    6    6    0  503  0.19303124439E+03  0.38097477048E+03 -0.12015158792E+03  0.44366568622E+03  0.00000000000E+00 0.  1.
<mgrwt>
<rscale>  0 0.26150683E+04</rscale>
<asrwt>0</asrwt>
<pdfrwt beam="1">  1        1 0.15597451E+00 0.26150683E+04</pdfrwt>
<pdfrwt beam="2">  1       -2 0.25943330E+00 0.26150683E+04</pdfrwt>
<totfact> 0.64043896E-01</totfact>
</mgrwt>
</event>
<event>
12    4  0.4183215E-008  0.2135782E+04  0.7818608E-02  0.8545643E-01
         -2   -1    0    0    0  501 -0.00000000000E+00  0.00000000000E+00  0.45249955878E+03  0.45249955878E+03  0.00000000000E+00 0.  1.
          1   -1    0    0  501    0  0.00000000000E+00 -0.00000000000E+00 -0.25202031340E+04  0.25202031340E+04  0.00000000000E+00 0. -1.
        -24    2    1    2    0    0 -0.27403028186E+03 -0.15895101921E+03  0.27878083776E+03  0.42937196805E+03  0.79268591290E+02 0.  0.
        254    2    1    2    0    0  0.27403028186E+03  0.15895101921E+03 -0.23464844130E+04  0.25433307247E+04  0.92853866537E+03 0.  0.
         23    2    4    4    0    0  0.34219304339E+03 -0.20870662126E+03 -0.45361148526E+03  0.61169286731E+03  0.88035513630E+02 0.  0.
         23    2    4    4    0    0 -0.68162761521E+02  0.36765764046E+03 -0.18928729277E+04  0.19316378574E+04  0.91861793246E+02 0.  0.
          1    1    3    3  502    0 -0.12381376684E+03 -0.82962089876E+02  0.80928843439E+02  0.16959373490E+03  0.00000000000E+00 0. -1.
         -2    1    3    3    0  502 -0.15021651502E+03 -0.75988929329E+02  0.19785199432E+03  0.25977823316E+03  0.00000000000E+00 0.  1.
         11    1    5    5    0    0  0.23655524512E+03 -0.13619435848E+03 -0.24452437428E+03  0.36646890303E+03  0.00000000000E+00 0.  1.
        -11    1    5    5    0    0  0.10563779826E+03 -0.72512262778E+02 -0.20908711099E+03  0.24522396428E+03  0.00000000000E+00 0. -1.
          3    1    6    6  503    0 -0.74991427827E+02  0.28863945120E+03 -0.13179040154E+04  0.13512244229E+04  0.00000000000E+00 0. -1.
         -3    1    6    6    0  503  0.68286663060E+01  0.79018189264E+02 -0.57496891226E+03  0.58041343453E+03  0.00000000000E+00 0.  1.
<mgrwt>
<rscale>  0 0.21357816E+04</rscale>
<asrwt>0</asrwt>
<pdfrwt beam="1">  1        1 0.38772356E+00 0.21357816E+04</pdfrwt>
<pdfrwt beam="2">  1       -2 0.69615317E-01 0.21357816E+04</pdfrwt>
<totfact> 0.19883988E+00</totfact>
</mgrwt>
</event>
<event>
12    4  0.4183215E-008  0.2042586E+04  0.7818608E-02  0.8586965E-01
          1   -1    0    0  501    0  0.00000000000E+00  0.00000000000E+00  0.11799806578E+04  0.11799806578E+04  0.00000000000E+00 0. -1.
         -2   -1    0    0    0  501 -0.00000000000E+00 -0.00000000000E+00 -0.88394641188E+03  0.88394641188E+03  0.00000000000E+00 0.  1.
        -24    2    1    2    0    0  0.63475716107E+03  0.35431360235E+03  0.50193438951E+03  0.88691727345E+03  0.78926144128E+02 0.  0.
        254    2    1    2    0    0 -0.63475716107E+03 -0.35431360235E+03 -0.20590014362E+03  0.11770097962E+04  0.90249787194E+03 0.  0.
         23    2    4    4    0    0 -0.30412089919E+03  0.25213771305E+03  0.97960022564E+02  0.41725085730E+03  0.91864923821E+02 0.  0.
         23    2    4    4    0    0 -0.33063626188E+03 -0.60645131540E+03 -0.30386016618E+03  0.75975893890E+03  0.88312564388E+02 0.  0.
          1    1    3    3  502    0  0.52117793503E+03  0.25527926111E+03  0.40656209289E+03  0.70858074804E+03  0.00000000000E+00 0. -1.
         -2    1    3    3    0  502  0.11357922604E+03  0.99034341236E+02  0.95372296614E+02  0.17833652540E+03  0.00000000000E+00 0.  1.
         11    1    5    5    0    0 -0.25664045643E+03  0.23322963996E+03  0.11169645240E+03  0.36433018858E+03  0.00000000000E+00 0. -1.
        -11    1    5    5    0    0 -0.47480442759E+02  0.18908073082E+02 -0.13736429835E+02  0.52920668712E+02  0.00000000000E+00 0.  1.
          4    1    6    6  503    0 -0.21264537157E+03 -0.30298100860E+03 -0.17727561885E+03  0.41041709353E+03  0.00000000000E+00 0. -1.
         -4    1    6    6    0  503 -0.11799089031E+03 -0.30347030679E+03 -0.12658454733E+03  0.34934184537E+03  0.00000000000E+00 0.  1.
<mgrwt>
<rscale>  0 0.20425863E+04</rscale>
<asrwt>0</asrwt>
<pdfrwt beam="1">  1        1 0.18153549E+00 0.20425863E+04</pdfrwt>
<pdfrwt beam="2">  1       -2 0.13599176E+00 0.20425863E+04</pdfrwt>
<totfact> 0.34697324E+00</totfact>
</mgrwt>
</event>
<event>
12    4  0.4183215E-008  0.1536718E+04  0.7818608E-02  0.8860396E-01
         -4   -1    0    0    0  501 -0.00000000000E+00  0.00000000000E+00  0.33675060100E+03  0.33675060100E+03  0.00000000000E+00 0.  1.
          1   -1    0    0  501    0  0.00000000000E+00 -0.00000000000E+00 -0.17531538965E+04  0.17531538965E+04  0.00000000000E+00 0. -1.
        -24    2    1    2    0    0 -0.24799591070E+03  0.15428393110E+03  0.90435929725E+02  0.31619373714E+03  0.80587337120E+02 0.  0.
        254    2    1    2    0    0  0.24799591070E+03 -0.15428393110E+03 -0.15068392252E+04  0.17737107603E+04  0.88892064189E+03 0.  0.
         23    2    4    4    0    0  0.47596704464E+03 -0.10923931358E+03 -0.14283435934E+04  0.15122541601E+04  0.90936069585E+02 0.  0.
         23    2    4    4    0    0 -0.22797113394E+03 -0.45044617520E+02 -0.78495631760E+02  0.26145660018E+03  0.90543548062E+02 0.  0.
          1    1    3    3  502    0 -0.44100033045E+02 -0.45134165343E+01  0.90580278691E+01  0.45246344739E+02  0.00000000000E+00 0. -1.
         -2    1    3    3    0  502 -0.20389587766E+03  0.15879734763E+03  0.81377901856E+02  0.27094739240E+03  0.00000000000E+00 0.  1.
         11    1    5    5    0    0  0.10230447181E+03 -0.11920539505E+02 -0.20499629485E+03  0.22941618321E+03  0.00000000000E+00 0. -1.
        -11    1    5    5    0    0  0.37366257283E+03 -0.97318774075E+02 -0.12233472986E+04  0.12828379769E+04  0.00000000000E+00 0.  1.
          1    1    6    6  503    0 -0.45338215234E+02 -0.93130493168E+01 -0.58046877661E+02  0.74241003861E+02  0.00000000000E+00 0. -1.
         -1    1    6    6    0  503 -0.18263291871E+03 -0.35731568203E+02 -0.20448754100E+02  0.18721559632E+03  0.00000000000E+00 0.  1.
<mgrwt>
<rscale>  0 0.15367181E+04</rscale>
<asrwt>0</asrwt>
<pdfrwt beam="1">  1        1 0.26971598E+00 0.15367181E+04</pdfrwt>
<pdfrwt beam="2">  1       -4 0.51807785E-01 0.15367181E+04</pdfrwt>
<totfact> 0.74673957E+00</totfact>
</mgrwt>
</event>
<event>
12    4  0.4183215E-008  0.2271195E+04  0.7818608E-02  0.8489366E-01
         -2   -1    0    0    0  501 -0.00000000000E+00  0.00000000000E+00  0.51372537418E+03  0.51372537418E+03  0.00000000000E+00 0.  1.
          1   -1    0    0  501    0  0.00000000000E+00 -0.00000000000E+00 -0.25102547018E+04  0.25102547018E+04  0.00000000000E+00 0. -1.
        -24    2    1    2    0    0  0.84546770020E+03 -0.20417991397E+03 -0.32105946332E+03  0.93072761194E+03  0.81667859657E+02 0.  0.
        254    2    1    2    0    0 -0.84546770020E+03  0.20417991397E+03 -0.16754698642E+04  0.20932524640E+04  0.90443437719E+03 0.  0.
         23    2    4    4    0    0  0.13216666388E+03 -0.33841442111E+02 -0.58132757623E+03  0.60401950856E+03  0.91019479156E+02 0.  0.
         23    2    4    4    0    0 -0.97763436408E+03  0.23802135609E+03 -0.10941422880E+04  0.14892329554E+04  0.90798311294E+02 0.  0.
          3    1    3    3  502    0  0.76789919781E+03 -0.16480288443E+03 -0.30347263567E+03  0.84197672730E+03  0.00000000000E+00 0. -1.
         -4    1    3    3    0  502  0.77568502389E+02 -0.39377029549E+02 -0.17586827653E+02  0.88750884648E+02  0.00000000000E+00 0.  1.
         11    1    5    5    0    0  0.52381142034E+02 -0.54444542668E+02 -0.19775789627E+03  0.21169831791E+03  0.00000000000E+00 0.  1.
        -11    1    5    5    0    0  0.79785521848E+02  0.20603100556E+02 -0.38356967996E+03  0.39232119065E+03  0.00000000000E+00 0. -1.
          1    1    6    6  503    0 -0.19635666673E+03  0.52713238470E+02 -0.27704941775E+03  0.34364371950E+03  0.00000000000E+00 0.  1.
         -1    1    6    6    0  503 -0.78127769735E+03  0.18530811762E+03 -0.81709287027E+03  0.11455892359E+04  0.00000000000E+00 0. -1.
<mgrwt>
<rscale>  0 0.22711949E+04</rscale>
<asrwt>0</asrwt>
<pdfrwt beam="1">  1        1 0.38619303E+00 0.22711949E+04</pdfrwt>
<pdfrwt beam="2">  1       -2 0.79034673E-01 0.22711949E+04</pdfrwt>
<totfact> 0.15075544E+00</totfact>
</mgrwt>
</event>
<event>
12    4  0.4183215E-008  0.2751041E+04  0.7818608E-02  0.8318631E-01
          1   -1    0    0  501    0  0.00000000000E+00  0.00000000000E+00  0.17817109625E+04  0.17817109625E+04  0.00000000000E+00 0. -1.
         -2   -1    0    0    0  501 -0.00000000000E+00 -0.00000000000E+00 -0.10619324352E+04  0.10619324352E+04  0.00000000000E+00 0.  1.
        -24    2    1    2    0    0  0.58309804319E+02  0.23485825381E+03 -0.92191733430E+03  0.95608143508E+03  0.74844549204E+02 0.  0.
        254    2    1    2    0    0 -0.58309804319E+02 -0.23485825381E+03  0.16416958615E+04  0.18875619626E+04  0.89953678529E+03 0.  0.
         23    2    4    4    0    0  0.19952890571E+03 -0.25734967323E+03  0.15675088017E+04  0.16040777848E+04  0.99704853886E+02 0.  0.
         23    2    4    4    0    0 -0.25783871003E+03  0.22491419418E+02  0.74187059884E+02  0.28348417777E+03  0.88729334827E+02 0.  0.
          1    1    3    3  502    0  0.19361288987E+02  0.16863237553E+03 -0.52372714830E+03  0.55054687671E+03  0.00000000000E+00 0. -1.
         -2    1    3    3    0  502  0.38948515332E+02  0.66225878285E+02 -0.39819018600E+03  0.40553455837E+03  0.00000000000E+00 0.  1.
         11    1    5    5    0    0  0.28570706616E+02 -0.67206010613E+02  0.20106728637E+03  0.21391817778E+03  0.00000000000E+00 0. -1.
        -11    1    5    5    0    0  0.17095819909E+03 -0.19014366262E+03  0.13664415153E+04  0.13901596070E+04  0.00000000000E+00 0.  1.
          4    1    6    6  503    0 -0.19079077926E+03  0.39556216416E+02  0.86544792173E+02  0.21320369781E+03  0.00000000000E+00 0. -1.
         -4    1    6    6    0  503 -0.67047930766E+02 -0.17064796998E+02 -0.12357732289E+02  0.70280479964E+02  0.00000000000E+00 0.  1.
<mgrwt>
<rscale>  0 0.27510410E+04</rscale>
<asrwt>0</asrwt>
<pdfrwt beam="1">  1        1 0.27410938E+00 0.27510410E+04</pdfrwt>
<pdfrwt beam="2">  1       -2 0.16337422E+00 0.27510410E+04</pdfrwt>
<totfact> 0.76195739E-01</totfact>
</mgrwt>
</event>
<event>
12    4  0.4183215E-008  0.1455930E+04  0.7818608E-02  0.8914299E-01
         -2   -1    0    0    0  501 -0.00000000000E+00  0.00000000000E+00  0.65230690051E+03  0.65230690051E+03  0.00000000000E+00 0.  1.
          1   -1    0    0  501    0  0.00000000000E+00 -0.00000000000E+00 -0.81239864630E+03  0.81239864630E+03  0.00000000000E+00 0. -1.
        -24    2    1    2    0    0  0.42344537615E+02  0.61994983986E+02 -0.42162292986E+03  0.43415308276E+03  0.71320168140E+02 0.  0.
        254    2    1    2    0    0 -0.42344537615E+02 -0.61994983986E+02  0.26153118407E+03  0.10305524640E+04  0.99398359292E+03 0.  0.
         23    2    4    4    0    0 -0.19291791579E+03 -0.45511622947E+03  0.31991298646E+03  0.59588231464E+03  0.91560414154E+02 0.  0.
         23    2    4    4    0    0  0.15057337818E+03  0.39312124548E+03 -0.58381802398E+02  0.43467014940E+03  0.91175918235E+02 0.  0.
          1    1    3    3  502    0  0.35630068528E+02  0.72627353002E+02 -0.26615695049E+03  0.27817936027E+03  0.00000000000E+00 0. -1.
         -2    1    3    3    0  502  0.67144690871E+01 -0.10632369016E+02 -0.15546597937E+03  0.15597372249E+03  0.00000000000E+00 0.  1.
         11    1    5    5    0    0 -0.55372704199E+02 -0.90729701285E+02  0.30305215454E+02  0.11052792022E+03  0.00000000000E+00 0.  1.
        -11    1    5    5    0    0 -0.13754521159E+03 -0.36438652818E+03  0.28960777101E+03  0.48535439442E+03  0.00000000000E+00 0. -1.
          4    1    6    6  503    0  0.74606453812E+02  0.16254464378E+03 -0.68931021697E+02  0.19167255913E+03  0.00000000000E+00 0. -1.
         -4    1    6    6    0  503  0.75966924365E+02  0.23057660170E+03  0.10549219299E+02  0.24299759027E+03  0.00000000000E+00 0.  1.
<mgrwt>
<rscale>  0 0.14559303E+04</rscale>
<asrwt>0</asrwt>
<pdfrwt beam="1">  1        1 0.12498441E+00 0.14559303E+04</pdfrwt>
<pdfrwt beam="2">  1       -2 0.10035491E+00 0.14559303E+04</pdfrwt>
<totfact> 0.15024513E+01</totfact>
</mgrwt>
</event>
<event>
12    4  0.4183215E-008  0.2265613E+04  0.7818608E-02  0.8491604E-01
         -2   -1    0    0    0  501 -0.00000000000E+00  0.00000000000E+00  0.17915479353E+04  0.17915479353E+04  0.00000000000E+00 0.  1.
          1   -1    0    0  501    0  0.00000000000E+00 -0.00000000000E+00 -0.71628031253E+03  0.71628031253E+03  0.00000000000E+00 0. -1.
        -24    2    1    2    0    0 -0.63385525412E+03  0.58501245937E+03  0.10317919710E+03  0.87255051573E+03  0.81770379684E+02 0.  0.
        254    2    1    2    0    0  0.63385525412E+03 -0.58501245937E+03  0.97208842564E+03  0.16352777321E+04  0.99255493195E+03 0.  0.
         23    2    4    4    0    0 -0.97845594750E+02 -0.15867458817E+03 -0.12636056834E+03  0.24525791066E+03  0.97123962886E+02 0.  0.
         23    2    4    4    0    0  0.73170084887E+03 -0.42633787120E+03  0.10984489940E+04  0.13900198214E+04  0.91732212820E+02 0.  0.
          3    1    3    3  502    0 -0.75723396021E+02  0.10699895680E+03  0.26213284756E+02  0.13367851645E+03  0.00000000000E+00 0. -1.
         -4    1    3    3    0  502 -0.55813185810E+03  0.47801350257E+03  0.76965912345E+02  0.73887199929E+03  0.00000000000E+00 0.  1.
         11    1    5    5    0    0 -0.71574767306E+02 -0.28429050516E+02 -0.52921863484E+02  0.93444538967E+02  0.00000000000E+00 0.  1.
        -11    1    5    5    0    0 -0.26270827444E+02 -0.13024553766E+03 -0.73438704855E+02  0.15181337169E+03  0.00000000000E+00 0. -1.
          1    1    6    6  503    0  0.38044962947E+03 -0.20251930743E+03  0.62831497756E+03  0.76192893466E+03  0.00000000000E+00 0. -1.
         -1    1    6    6    0  503  0.35125121941E+03 -0.22381856376E+03  0.47013401642E+03  0.62809088675E+03  0.00000000000E+00 0.  1.
<mgrwt>
<rscale>  0 0.22656130E+04</rscale>
<asrwt>0</asrwt>
<pdfrwt beam="1">  1        1 0.11019697E+00 0.22656130E+04</pdfrwt>
<pdfrwt beam="2">  1       -2 0.27562276E+00 0.22656130E+04</pdfrwt>
<totfact> 0.93589215E-01</totfact>
</mgrwt>
</event>
<event>
12    4  0.4183215E-008  0.2460320E+04  0.7818608E-02  0.8417260E-01
         -2   -1    0    0    0  501 -0.00000000000E+00  0.00000000000E+00  0.62432222558E+03  0.62432222558E+03  0.00000000000E+00 0.  1.
          1   -1    0    0  501    0  0.00000000000E+00 -0.00000000000E+00 -0.24238984811E+04  0.24238984811E+04  0.00000000000E+00 0. -1.
        -24    2    1    2    0    0  0.80456190066E+03 -0.28301515530E+03 -0.14950283429E+04  0.17230071042E+04  0.78906938830E+02 0.  0.
        254    2    1    2    0    0 -0.80456190066E+03  0.28301515530E+03 -0.30454791257E+03  0.13252136024E+04  0.96748345249E+03 0.  0.
         23    2    4    4    0    0 -0.88284035857E+03  0.35004242568E+03 -0.50689557610E+03  0.10805000402E+04  0.92738413109E+02 0.  0.
         23    2    4    4    0    0  0.78278457916E+02 -0.67027270378E+02  0.20234766353E+03  0.24471356223E+03  0.91213917003E+02 0.  0.
          1    1    3    3  502    0  0.60063122342E+03 -0.18614125566E+03 -0.11496747572E+04  0.13104039381E+04  0.00000000000E+00 0. -1.
         -2    1    3    3    0  502  0.20393067724E+03 -0.96873899640E+02 -0.34535358577E+03  0.41260316619E+03  0.00000000000E+00 0.  1.
         11    1    5    5    0    0 -0.57258233336E+02  0.40907262774E+01 -0.15986692048E+02  0.59588704038E+02  0.00000000000E+00 0.  1.
        -11    1    5    5    0    0 -0.82558212524E+03  0.34595169940E+03 -0.49090888405E+03  0.10209113361E+04  0.00000000000E+00 0. -1.
          2    1    6    6  503    0  0.98926053584E+01 -0.55163804714E+02  0.42145761057E+02  0.70122565315E+02  0.00000000000E+00 0.  1.
         -2    1    6    6    0  503  0.68385852558E+02 -0.11863465664E+02  0.16020190247E+03  0.17459099691E+03  0.00000000000E+00 0. -1.
<mgrwt>
<rscale>  0 0.24603201E+04</rscale>
<asrwt>0</asrwt>
<pdfrwt beam="1">  1        1 0.37290745E+00 0.24603201E+04</pdfrwt>
<pdfrwt beam="2">  1       -2 0.96049574E-01 0.24603201E+04</pdfrwt>
<totfact> 0.10884865E+00</totfact>
</mgrwt>
</event>
<event>
12    4  0.4183215E-008  0.1661396E+04  0.7818608E-02  0.8783693E-01
          1   -1    0    0  501    0  0.00000000000E+00  0.00000000000E+00  0.97793091543E+03  0.97793091543E+03  0.00000000000E+00 0. -1.
         -2   -1    0    0    0  501 -0.00000000000E+00 -0.00000000000E+00 -0.70563150061E+03  0.70563150061E+03  0.00000000000E+00 0.  1.
        -24    2    1    2    0    0  0.26331442946E+03 -0.78904178673E+02  0.62103836308E+03  0.68407238854E+03  0.81890330116E+02 0.  0.
        254    2    1    2    0    0 -0.26331442946E+03  0.78904178673E+02 -0.34873894826E+03  0.99949002751E+03  0.89543347206E+03 0.  0.
         23    2    4    4    0    0  0.25037395778E+02  0.16639961406E+03 -0.57862749703E+03  0.60960017631E+03  0.92124328453E+02 0.  0.
         23    2    4    4    0    0 -0.28835182524E+03 -0.87495435392E+02  0.22988854877E+03  0.38988985120E+03  0.91450122378E+02 0.  0.
          1    1    3    3  502    0  0.15552905256E+03 -0.75740494142E+02  0.31182160145E+03  0.35659307309E+03  0.00000000000E+00 0. -1.
         -2    1    3    3    0  502  0.10778537689E+03 -0.31636845303E+01  0.30921676163E+03  0.32747931545E+03  0.00000000000E+00 0.  1.
         11    1    5    5    0    0  0.71330495507E+01  0.11281707961E+03 -0.22837752318E+03  0.25482320722E+03  0.00000000000E+00 0.  1.
        -11    1    5    5    0    0  0.17904346228E+02  0.53582534459E+02 -0.35024997385E+03  0.35477696909E+03  0.00000000000E+00 0. -1.
          1    1    6    6  503    0 -0.24679371547E+03 -0.50479670585E+02  0.21765112693E+03  0.33290741685E+03  0.00000000000E+00 0. -1.
         -1    1    6    6    0  503 -0.41558109762E+02 -0.37015764808E+02  0.12237421839E+02  0.56982434351E+02  0.00000000000E+00 0.  1.
<mgrwt>
<rscale>  0 0.16613956E+04</rscale>
<asrwt>0</asrwt>
<pdfrwt beam="1">  1        1 0.15045091E+00 0.16613956E+04</pdfrwt>
<pdfrwt beam="2">  1       -2 0.10855869E+00 0.16613956E+04</pdfrwt>
<totfact> 0.89395959E+00</totfact>
</mgrwt>
</event>
<event>
12    4  0.4183215E-008  0.1650944E+04  0.7818608E-02  0.8789848E-01
         -2   -1    0    0    0  501 -0.00000000000E+00  0.00000000000E+00  0.39512539650E+03  0.39512539650E+03  0.00000000000E+00 0.  1.
          1   -1    0    0  501    0  0.00000000000E+00 -0.00000000000E+00 -0.17245260799E+04  0.17245260799E+04  0.00000000000E+00 0. -1.
        -24    2    1    2    0    0 -0.25078315463E+03 -0.25576682132E+03  0.11507229304E+03  0.38599016081E+03  0.86243342266E+02 0.  0.
        254    2    1    2    0    0  0.25078315463E+03  0.25576682132E+03 -0.14444729765E+04  0.17336613156E+04  0.88925278744E+03 0.  0.
         23    2    4    4    0    0  0.21934614205E+03 -0.27134475559E+03 -0.29590948040E+03  0.46610542384E+03  0.89169160127E+02 0.  0.
         23    2    4    4    0    0  0.31437012575E+02  0.52711157692E+03 -0.11485634961E+04  0.12675558918E+04  0.93085627230E+02 0.  0.
          3    1    3    3  502    0 -0.19845146919E+02 -0.55600539741E+02 -0.10894220719E+01  0.59046055890E+02  0.00000000000E+00 0. -1.
         -4    1    3    3    0  502 -0.23093800771E+03 -0.20016628158E+03  0.11616171512E+03  0.32694410492E+03  0.00000000000E+00 0.  1.
         11    1    5    5    0    0  0.11816326157E+03 -0.10617516925E+03 -0.86626115879E+02  0.18094144606E+03  0.00000000000E+00 0.  1.
        -11    1    5    5    0    0  0.10118288048E+03 -0.16516958634E+03 -0.20928336452E+03  0.28516397777E+03  0.00000000000E+00 0. -1.
          2    1    6    6  503    0  0.22831922046E+02  0.22491439660E+03 -0.38718757787E+03  0.44835477350E+03  0.00000000000E+00 0. -1.
         -2    1    6    6    0  503  0.86050905289E+01  0.30219718032E+03 -0.76137591821E+03  0.81920111828E+03  0.00000000000E+00 0.  1.
<mgrwt>
<rscale>  0 0.16509440E+04</rscale>
<asrwt>0</asrwt>
<pdfrwt beam="1">  1        1 0.26531170E+00 0.16509440E+04</pdfrwt>
<pdfrwt beam="2">  1       -2 0.60788523E-01 0.16509440E+04</pdfrwt>
<totfact> 0.96896338E+00</totfact>
</mgrwt>
</event>
<event>
12    4  0.4183215E-008  0.1242504E+04  0.7818608E-02  0.9076445E-01
         -2   -1    0    0    0  501 -0.00000000000E+00  0.00000000000E+00  0.99099151389E+03  0.99099151389E+03  0.00000000000E+00 0.  1.
          1   -1    0    0  501    0  0.00000000000E+00 -0.00000000000E+00 -0.38946276760E+03  0.38946276760E+03  0.00000000000E+00 0. -1.
        -24    2    1    2    0    0  0.83854521854E+02  0.14194445633E+03 -0.11610674602E+03  0.21687035170E+03  0.79825831996E+02 0.  0.
        254    2    1    2    0    0 -0.83854521854E+02 -0.14194445633E+03  0.71763549232E+03  0.11635839298E+04  0.90097006183E+03 0.  0.
         23    2    4    4    0    0  0.24504722856E+03 -0.15374612191E+03  0.76137444517E+03  0.81912547340E+03  0.87117628456E+02 0.  0.
         23    2    4    4    0    0 -0.32890175042E+03  0.11801665581E+02 -0.43738952855E+02  0.34445845639E+03  0.91776311992E+02 0.  0.
          3    1    3    3  502    0  0.84375135839E+02  0.11678539415E+03 -0.61323738170E+02  0.15658413936E+03  0.00000000000E+00 0. -1.
         -4    1    3    3    0  502 -0.52061398531E+00  0.25159062181E+02 -0.54783007853E+02  0.60286212339E+02  0.00000000000E+00 0.  1.
         11    1    5    5    0    0  0.22754348403E+03 -0.15815054281E+03  0.74457378817E+03  0.79446696429E+03  0.00000000000E+00 0. -1.
        -11    1    5    5    0    0  0.17503744528E+02  0.44044209012E+01  0.16800657003E+02  0.24658509114E+02  0.00000000000E+00 0.  1.
          3    1    6    6  503    0 -0.25612454394E+03  0.47628992699E+02 -0.35502877169E+02  0.26292348172E+03  0.00000000000E+00 0. -1.
         -3    1    6    6    0  503 -0.72777206477E+02 -0.35827327118E+02 -0.82360756863E+01  0.81534974666E+02  0.00000000000E+00 0.  1.
<mgrwt>
<rscale>  0 0.12425044E+04</rscale>
<asrwt>0</asrwt>
<pdfrwt beam="1">  1        1 0.59917349E-01 0.12425044E+04</pdfrwt>
<pdfrwt beam="2">  1       -2 0.15246023E+00 0.12425044E+04</pdfrwt>
<totfact> 0.15360595E+01</totfact>
</mgrwt>
</event>
<event>
12    4  0.4183215E-008  0.3301056E+04  0.7818608E-02  0.8162627E-01
          1   -1    0    0  501    0  0.00000000000E+00  0.00000000000E+00  0.33215788755E+04  0.33215788755E+04  0.00000000000E+00 0. -1.
         -2   -1    0    0    0  501 -0.00000000000E+00 -0.00000000000E+00 -0.82016481969E+03  0.82016481969E+03  0.00000000000E+00 0.  1.
        -24    2    1    2    0    0 -0.94109870435E+03 -0.10715062358E+04  0.18376455562E+04  0.23278730002E+04  0.90879756249E+02 0.  0.
        254    2    1    2    0    0  0.94109870435E+03  0.10715062358E+04  0.66376849959E+03  0.18138706950E+04  0.90318652148E+03 0.  0.
         23    2    4    4    0    0  0.44273672331E+03 -0.90178342480E+01  0.82514312373E+01  0.45222952978E+03  0.91358272697E+02 0.  0.
         23    2    4    4    0    0  0.49836198104E+03  0.10805240700E+04  0.65551706835E+03  0.13616411652E+04  0.92016878556E+02 0.  0.
          1    1    3    3  502    0 -0.67836590593E+03 -0.82415325764E+03  0.13407184953E+04  0.17137488083E+04  0.00000000000E+00 0. -1.
         -2    1    3    3    0  502 -0.26273279842E+03 -0.24735297811E+03  0.49692706089E+03  0.61412419183E+03  0.00000000000E+00 0.  1.
         11    1    5    5    0    0  0.93354116228E+01 -0.83010754374E+01  0.14034612903E+02  0.18789042629E+02  0.00000000000E+00 0.  1.
        -11    1    5    5    0    0  0.43340131168E+03 -0.71675881062E+00 -0.57831816660E+01  0.43344048715E+03  0.00000000000E+00 0. -1.
          3    1    6    6  503    0  0.99889798796E+02  0.20271883778E+03  0.16638076585E+03  0.28063402919E+03  0.00000000000E+00 0.  1.
         -3    1    6    6    0  503  0.39847218225E+03  0.87780523222E+03  0.48913630250E+03  0.10810071360E+04  0.00000000000E+00 0. -1.
<mgrwt>
<rscale>  0 0.33010557E+04</rscale>
<asrwt>0</asrwt>
<pdfrwt beam="1">  1        1 0.51101213E+00 0.33010557E+04</pdfrwt>
<pdfrwt beam="2">  1       -2 0.12617920E+00 0.33010557E+04</pdfrwt>
<totfact> 0.11748521E-01</totfact>
</mgrwt>
</event>
<event>
12    4  0.4183215E-008  0.1829652E+04  0.7818608E-02  0.8690688E-01
         -2   -1    0    0    0  501 -0.00000000000E+00  0.00000000000E+00  0.55715253556E+03  0.55715253556E+03  0.00000000000E+00 0.  1.
          1   -1    0    0  501    0  0.00000000000E+00 -0.00000000000E+00 -0.15021139968E+04  0.15021139968E+04  0.00000000000E+00 0. -1.
        -24    2    1    2    0    0 -0.37848874641E+03  0.17667808483E+03  0.25997120098E+03  0.49903844754E+03  0.83579123966E+02 0.  0.
        254    2    1    2    0    0  0.37848874641E+03 -0.17667808483E+03 -0.12049326622E+04  0.15602280848E+04  0.89887712140E+03 0.  0.
         23    2    4    4    0    0  0.63030732976E+03  0.51750407136E+02 -0.76390881570E+03  0.99666968693E+03  0.99138042925E+02 0.  0.
         23    2    4    4    0    0 -0.25181858335E+03 -0.22842849197E+03 -0.44102384651E+03  0.56355839789E+03  0.86624821939E+02 0.  0.
          1    1    3    3  502    0 -0.11976168705E+03  0.51927577111E+02  0.37763678882E+02  0.13588756526E+03  0.00000000000E+00 0. -1.
         -4    1    3    3    0  502 -0.25872705936E+03  0.12475050772E+03  0.22220752210E+03  0.36315088228E+03  0.00000000000E+00 0.  1.
         11    1    5    5    0    0  0.63317116671E+03  0.54833310013E+02 -0.75548787557E+03  0.98725596902E+03  0.00000000000E+00 0.  1.
        -11    1    5    5    0    0 -0.28638369471E+01 -0.30829028767E+01 -0.84209401258E+01  0.94137179057E+01  0.00000000000E+00 0. -1.
          2    1    6    6  503    0 -0.59830939628E+02 -0.73266670945E+02 -0.18578108034E+03  0.20847627256E+03  0.00000000000E+00 0. -1.
         -2    1    6    6    0  503 -0.19198764372E+03 -0.15516182102E+03 -0.25524276617E+03  0.35508212533E+03  0.00000000000E+00 0.  1.
<mgrwt>
<rscale>  0 0.18296520E+04</rscale>
<asrwt>0</asrwt>
<pdfrwt beam="1">  1        1 0.23109446E+00 0.18296520E+04</pdfrwt>
<pdfrwt beam="2">  1       -2 0.85715777E-01 0.18296520E+04</pdfrwt>
<totfact> 0.63658077E+00</totfact>
</mgrwt>
</event>
<event>
12    4  0.4183215E-008  0.1399813E+04  0.7818608E-02  0.8953954E-01
          1   -1    0    0  501    0  0.00000000000E+00  0.00000000000E+00  0.66192640900E+03  0.66192640900E+03  0.00000000000E+00 0. -1.
         -2   -1    0    0    0  501 -0.00000000000E+00 -0.00000000000E+00 -0.74006613506E+03  0.74006613506E+03  0.00000000000E+00 0.  1.
        -24    2    1    2    0    0  0.14173091691E+03 -0.34521424577E+03 -0.18908430385E+03  0.42588971201E+03  0.79803787817E+02 0.  0.
        254    2    1    2    0    0 -0.14173091691E+03  0.34521424577E+03  0.11094457779E+03  0.97610283204E+03  0.89510195570E+03 0.  0.
         23    2    4    4    0    0 -0.19054180924E+03  0.78713554997E+02  0.46714357371E+03  0.51900536108E+03  0.92959354375E+02 0.  0.
         23    2    4    4    0    0  0.48810892324E+02  0.26650069077E+03 -0.35619899592E+03  0.45709747096E+03  0.93033606148E+02 0.  0.
          1    1    3    3  502    0 -0.96342083067E+01 -0.24456244681E+02 -0.69972474380E+01  0.27200870304E+02  0.00000000000E+00 0. -1.
         -2    1    3    3    0  502  0.15136512522E+03 -0.32075800108E+03 -0.18208705641E+03  0.39868884171E+03  0.00000000000E+00 0.  1.
         11    1    5    5    0    0  0.17482974693E+01  0.55238548160E+01 -0.24694447945E+01  0.62982278192E+01  0.00000000000E+00 0.  1.
        -11    1    5    5    0    0 -0.19229010671E+03  0.73189700181E+02  0.46961301851E+03  0.51270713327E+03  0.00000000000E+00 0. -1.
          1    1    6    6  503    0  0.75772957162E+02  0.17457583485E+03 -0.22607299988E+03  0.29551186850E+03  0.00000000000E+00 0. -1.
         -1    1    6    6    0  503 -0.26962064838E+02  0.91924855917E+02 -0.13012599604E+03  0.16158560246E+03  0.00000000000E+00 0.  1.
<mgrwt>
<rscale>  0 0.13998133E+04</rscale>
<asrwt>0</asrwt>
<pdfrwt beam="1">  1        1 0.10183483E+00 0.13998133E+04</pdfrwt>
<pdfrwt beam="2">  1       -2 0.11385633E+00 0.13998133E+04</pdfrwt>
<totfact> 0.15286509E+01</totfact>
</mgrwt>
</event>
<event>
12    4  0.4183215E-008  0.1643060E+04  0.7818608E-02  0.8794523E-01
          1   -1    0    0  501    0  0.00000000000E+00  0.00000000000E+00  0.15777887875E+04  0.15777887875E+04  0.00000000000E+00 0. -1.
         -2   -1    0    0    0  501 -0.00000000000E+00 -0.00000000000E+00 -0.42775766933E+03  0.42775766933E+03  0.00000000000E+00 0.  1.
        -24    2    1    2    0    0 -0.33640441386E+02 -0.51580335648E+03  0.15594730072E+03  0.54576958769E+03  0.79750237541E+02 0.  0.
        254    2    1    2    0    0  0.33640441386E+02  0.51580335648E+03  0.99408381747E+03  0.14597768692E+04  0.93571421373E+03 0.  0.
         23    2    4    4    0    0  0.17940325228E+03  0.32087650429E+03 -0.52302438213E+02  0.38169643557E+03  0.88370617008E+02 0.  0.
         23    2    4    4    0    0 -0.14576281089E+03  0.19492685219E+03  0.10463862557E+04  0.10780804336E+04  0.89944152088E+02 0.  0.
          3    1    3    3  502    0 -0.23958995200E+02 -0.60723800137E+02  0.38078403384E+02  0.75573660480E+02  0.00000000000E+00 0. -1.
         -4    1    3    3    0  502 -0.96814461861E+01 -0.45507955634E+03  0.11786889734E+03  0.47019592721E+03  0.00000000000E+00 0.  1.
         11    1    5    5    0    0  0.25397561980E+02  0.95510611481E+02  0.16501169499E+02  0.10019781262E+03  0.00000000000E+00 0. -1.
        -11    1    5    5    0    0  0.15400569030E+03  0.22536589281E+03 -0.68803607712E+02  0.28149862295E+03  0.00000000000E+00 0.  1.
          3    1    6    6  503    0 -0.12548551755E+02 -0.76128866737E+01  0.33262309363E+02  0.36356614512E+02  0.00000000000E+00 0. -1.
         -3    1    6    6    0  503 -0.13321425914E+03  0.20253973886E+03  0.10131239463E+04  0.10417238191E+04  0.00000000000E+00 0.  1.
<mgrwt>
<rscale>  0 0.16430597E+04</rscale>
<asrwt>0</asrwt>
<pdfrwt beam="1">  1        1 0.24273673E+00 0.16430597E+04</pdfrwt>
<pdfrwt beam="2">  1       -2 0.65808873E-01 0.16430597E+04</pdfrwt>
<totfact> 0.10309494E+01</totfact>
</mgrwt>
</event>
<event>
12    4  0.4183215E-008  0.1917621E+04  0.7818608E-02  0.8646135E-01
          1   -1    0    0  501    0  0.00000000000E+00  0.00000000000E+00  0.61583598456E+03  0.61583598456E+03  0.00000000000E+00 0. -1.
         -2   -1    0    0    0  501 -0.00000000000E+00 -0.00000000000E+00 -0.14927959503E+04  0.14927959503E+04  0.00000000000E+00 0.  1.
        -24    2    1    2    0    0 -0.68810149544E+03  0.27893797040E+03 -0.24592717556E+03  0.78626697267E+03  0.80283978909E+02 0.  0.
        254    2    1    2    0    0  0.68810149544E+03 -0.27893797040E+03 -0.63103279016E+03  0.13223649622E+04  0.89395562057E+03 0.  0.
         23    2    4    4    0    0 -0.17519575359E+02  0.24682935490E+03 -0.23199827891E+03  0.35167143518E+03  0.92832811798E+02 0.  0.
         23    2    4    4    0    0  0.70562107080E+03 -0.52576732530E+03 -0.39903451125E+03  0.97069352698E+03  0.93193380941E+02 0.  0.
          3    1    3    3  502    0 -0.18140156528E+02  0.22673504105E+02 -0.15181546217E+02  0.32766330475E+02  0.00000000000E+00 0. -1.
         -4    1    3    3    0  502 -0.66996133891E+03  0.25626446630E+03 -0.23074562935E+03  0.75350064219E+03  0.00000000000E+00 0.  1.
         11    1    5    5    0    0 -0.40717542799E+02  0.21435051738E+03 -0.16446940676E+03  0.27322929629E+03  0.00000000000E+00 0. -1.
        -11    1    5    5    0    0  0.23197967440E+02  0.32478837521E+02 -0.67528872152E+02  0.78442138893E+02  0.00000000000E+00 0.  1.
          1    1    6    6  503    0  0.68017357516E+03 -0.51670588340E+03 -0.36951062823E+03  0.93067672511E+03  0.00000000000E+00 0. -1.
         -1    1    6    6    0  503  0.25447495637E+02 -0.90614419007E+01 -0.29523883022E+02  0.40016801874E+02  0.00000000000E+00 0.  1.
<mgrwt>
<rscale>  0 0.19176209E+04</rscale>
<asrwt>0</asrwt>
<pdfrwt beam="1">  1        1 0.94743999E-01 0.19176209E+04</pdfrwt>
<pdfrwt beam="2">  1       -2 0.22966091E+00 0.19176209E+04</pdfrwt>
<totfact> 0.23164720E+00</totfact>
</mgrwt>
</event>
<event>
12    4  0.4183215E-008  0.1358367E+04  0.7818608E-02  0.8984518E-01
          1   -1    0    0  501    0  0.00000000000E+00  0.00000000000E+00  0.68695104932E+03  0.68695104932E+03  0.00000000000E+00 0. -1.
         -2   -1    0    0    0  501 -0.00000000000E+00 -0.00000000000E+00 -0.67150413318E+03  0.67150413318E+03  0.00000000000E+00 0.  1.
        -24    2    1    2    0    0  0.12094886059E+03  0.68709802177E+02  0.26822722255E+03  0.31240350817E+03  0.79375343832E+02 0.  0.
        254    2    1    2    0    0 -0.12094886059E+03 -0.68709802177E+02 -0.25278030641E+03  0.10460516743E+04  0.10054733006E+04 0.  0.
         23    2    4    4    0    0 -0.16778793454E+03  0.20648073283E+03 -0.55647980538E+03  0.62357221807E+03  0.91572121055E+02 0.  0.
         23    2    4    4    0    0  0.46839073943E+02 -0.27519053500E+03  0.30369949897E+03  0.42247945626E+03  0.91278562000E+02 0.  0.
          3    1    3    3  502    0  0.27595094344E+02  0.59793920841E+02  0.12323312443E+03  0.13972546353E+03  0.00000000000E+00 0. -1.
         -4    1    3    3    0  502  0.93353766250E+02  0.89158813356E+01  0.14499409812E+03  0.17267804464E+03  0.00000000000E+00 0.  1.
         11    1    5    5    0    0 -0.16175237244E+03  0.20661385239E+03 -0.48156066105E+03  0.54841023355E+03  0.00000000000E+00 0.  1.
        -11    1    5    5    0    0 -0.60355620924E+01 -0.13311956698E+00 -0.74919144324E+02  0.75161984519E+02  0.00000000000E+00 0. -1.
          2    1    6    6  503    0  0.44096176471E+02 -0.25899367007E+03  0.23712260584E+03  0.35390581249E+03  0.00000000000E+00 0.  1.
         -2    1    6    6    0  503  0.27428974720E+01 -0.16196864933E+02  0.66576893130E+02  0.68573643764E+02  0.00000000000E+00 0. -1.
<mgrwt>
<rscale>  0 0.13583674E+04</rscale>
<asrwt>0</asrwt>
<pdfrwt beam="1">  1        1 0.10568478E+00 0.13583674E+04</pdfrwt>
<pdfrwt beam="2">  1       -2 0.10330833E+00 0.13583674E+04</pdfrwt>
<totfact> 0.18351387E+01</totfact>
</mgrwt>
</event>
<event>
12    4  0.4183215E-008  0.1255767E+04  0.7818608E-02  0.9065397E-01
          1   -1    0    0  501    0  0.00000000000E+00  0.00000000000E+00  0.79774443687E+03  0.79774443687E+03  0.00000000000E+00 0. -1.
         -2   -1    0    0    0  501 -0.00000000000E+00 -0.00000000000E+00 -0.49419027594E+03  0.49419027594E+03  0.00000000000E+00 0.  1.
        -24    2    1    2    0    0 -0.28882047616E+02 -0.21751942273E+03 -0.14249664812E+03  0.27343386439E+03  0.79447539492E+02 0.  0.
        254    2    1    2    0    0  0.28882047616E+02  0.21751942273E+03  0.44605080905E+03  0.10185008484E+04  0.88895094468E+03 0.  0.
         23    2    4    4    0    0  0.22141201658E+03 -0.17274614008E+03 -0.10206855244E+03  0.31257206887E+03  0.91754012667E+02 0.  0.
         23    2    4    4    0    0 -0.19252996896E+03  0.39026556282E+03  0.54811936149E+03  0.70592877955E+03  0.92334223849E+02 0.  0.
          3    1    3    3  502    0 -0.33283178967E+02 -0.39617617414E+02 -0.13008715841E+02  0.53353090815E+02  0.00000000000E+00 0. -1.
         -4    1    3    3    0  502  0.44011313512E+01 -0.17790180532E+03 -0.12948793228E+03  0.22008077358E+03  0.00000000000E+00 0.  1.
         11    1    5    5    0    0  0.41566652308E+02 -0.58352432579E+02  0.90321066681E+01  0.72210608105E+02  0.00000000000E+00 0. -1.
        -11    1    5    5    0    0  0.17984536427E+03 -0.11439370750E+03 -0.11110065911E+03  0.24036146076E+03  0.00000000000E+00 0.  1.
          2    1    6    6  503    0 -0.11350640002E+03  0.28644272667E+03  0.32780168766E+03  0.44987452133E+03  0.00000000000E+00 0. -1.
         -2    1    6    6    0  503 -0.79023568939E+02  0.10382283615E+03  0.22031767383E+03  0.25605425823E+03  0.00000000000E+00 0.  1.
<mgrwt>
<rscale>  0 0.12557668E+04</rscale>
<asrwt>0</asrwt>
<pdfrwt beam="1">  1        1 0.12272991E+00 0.12557668E+04</pdfrwt>
<pdfrwt beam="2">  1       -2 0.76029273E-01 0.12557668E+04</pdfrwt>
<totfact> 0.29720343E+01</totfact>
</mgrwt>
</event>
<event>
12    4  0.4183215E-008  0.1885252E+04  0.7818608E-02  0.8662233E-01
          1   -1    0    0  501    0  0.00000000000E+00  0.00000000000E+00  0.16490923194E+04  0.16490923194E+04  0.00000000000E+00 0. -1.
         -2   -1    0    0    0  501 -0.00000000000E+00 -0.00000000000E+00 -0.53880755603E+03  0.53880755603E+03  0.00000000000E+00 0.  1.
        -24    2    1    2    0    0 -0.67558901589E+03  0.24838200890E+03  0.37778200725E+03  0.81665687711E+03  0.78070924158E+02 0.  0.
        254    2    1    2    0    0  0.67558901589E+03 -0.24838200890E+03  0.73250275608E+03  0.13712429983E+04  0.90864345700E+03 0.  0.
         23    2    4    4    0    0  0.60726873052E+03  0.20460852263E+03  0.60554310304E+03  0.88629934910E+03  0.90576641383E+02 0.  0.
         23    2    4    4    0    0  0.68320285364E+02 -0.45299053153E+03  0.12695965303E+03  0.48494364919E+03  0.95830612731E+02 0.  0.
          3    1    3    3  502    0 -0.65751411948E+03  0.25410605098E+03  0.36509985920E+03  0.79384671672E+03  0.00000000000E+00 0. -1.
         -4    1    3    3    0  502 -0.18074896407E+02 -0.57240420816E+01  0.12682148046E+02  0.22810160388E+02  0.00000000000E+00 0.  1.
         11    1    5    5    0    0  0.26122086922E+03  0.67734176046E+02  0.20001298227E+03  0.33590095891E+03  0.00000000000E+00 0.  1.
        -11    1    5    5    0    0  0.34604786130E+03  0.13687434659E+03  0.40553012078E+03  0.55039839019E+03  0.00000000000E+00 0. -1.
          1    1    6    6  503    0 -0.75513534857E+01 -0.54265872999E+02 -0.11716722664E+02  0.56027578047E+02  0.00000000000E+00 0. -1.
         -1    1    6    6    0  503  0.75871638850E+02 -0.39872465853E+03  0.13867637570E+03  0.42891607114E+03  0.00000000000E+00 0.  1.
<mgrwt>
<rscale>  0 0.18852516E+04</rscale>
<asrwt>0</asrwt>
<pdfrwt beam="1">  1        1 0.25370651E+00 0.18852516E+04</pdfrwt>
<pdfrwt beam="2">  1       -2 0.82893471E-01 0.18852516E+04</pdfrwt>
<totfact> 0.54165759E+00</totfact>
</mgrwt>
</event>
<event>
12    4  0.4183215E-008  0.1171743E+04  0.7818608E-02  0.9137956E-01
          1   -1    0    0  501    0  0.00000000000E+00  0.00000000000E+00  0.10039679825E+04  0.10039679825E+04  0.00000000000E+00 0. -1.
         -2   -1    0    0    0  501 -0.00000000000E+00 -0.00000000000E+00 -0.34188892526E+03  0.34188892526E+03  0.00000000000E+00 0.  1.
        -24    2    1    2    0    0 -0.22344236034E+03  0.76546552117E+02  0.12634072080E+03  0.27908644674E+03  0.78367110373E+02 0.  0.
        254    2    1    2    0    0  0.22344236034E+03 -0.76546552117E+02  0.53573833649E+03  0.10667704611E+04  0.89173863234E+03 0.  0.
         23    2    4    4    0    0 -0.25870347730E+02 -0.19996323639E+03  0.69742810009E+03  0.73122117215E+03  0.87314815503E+02 0.  0.
         23    2    4    4    0    0  0.24931270807E+03  0.12341668428E+03 -0.16168976361E+03  0.33554928892E+03  0.95190552466E+02 0.  0.
          3    1    3    3  502    0 -0.40530671530E+02  0.61233150390E+01 -0.76034209321E+01  0.41689834872E+02  0.00000000000E+00 0. -1.
         -4    1    3    3    0  502 -0.18291168881E+03  0.70423237078E+02  0.13394414173E+03  0.23739661187E+03  0.00000000000E+00 0.  1.
         11    1    5    5    0    0  0.17139285242E+02 -0.52687036977E+01  0.33466099884E+02  0.37967014351E+02  0.00000000000E+00 0.  1.
        -11    1    5    5    0    0 -0.43009632972E+02 -0.19469453270E+03  0.66396200021E+03  0.69325415780E+03  0.00000000000E+00 0. -1.
          2    1    6    6  503    0  0.13734341232E+03  0.11933280185E+03 -0.97516730836E+02  0.20642926948E+03  0.00000000000E+00 0. -1.
         -2    1    6    6    0  503  0.11196929575E+03  0.40838824287E+01 -0.64173032771E+02  0.12912001944E+03  0.00000000000E+00 0.  1.
<mgrwt>
<rscale>  0 0.11717432E+04</rscale>
<asrwt>0</asrwt>
<pdfrwt beam="1">  1        1 0.15445661E+00 0.11717432E+04</pdfrwt>
<pdfrwt beam="2">  1       -2 0.52598297E-01 0.11717432E+04</pdfrwt>
<totfact> 0.44541006E+01</totfact>
</mgrwt>
</event>
<event>
12    4  0.4183215E-008  0.1465370E+04  0.7818608E-02  0.8907814E-01
         -2   -1    0    0    0  501 -0.00000000000E+00  0.00000000000E+00  0.85353345044E+03  0.85353345044E+03  0.00000000000E+00 0.  1.
          1   -1    0    0  501    0  0.00000000000E+00 -0.00000000000E+00 -0.62894686231E+03  0.62894686231E+03  0.00000000000E+00 0. -1.
        -24    2    1    2    0    0  0.73069816932E+02 -0.26940647703E+03 -0.29227052255E+03  0.41209010392E+03  0.80480726797E+02 0.  0.
        254    2    1    2    0    0 -0.73069816932E+02  0.26940647703E+03  0.51685711068E+03  0.10703902088E+04  0.89480437989E+03 0.  0.
         23    2    4    4    0    0 -0.14593165952E+03  0.42869415259E+03  0.67340582465E+03  0.81667078246E+03  0.91657168494E+02 0.  0.
         23    2    4    4    0    0  0.72861842593E+02 -0.15928767556E+03 -0.15654871397E+03  0.25371942636E+03  0.95836505441E+02 0.  0.
          1    1    3    3  502    0  0.42361595292E+02 -0.20851906804E+03 -0.26189770379E+03  0.33743905189E+03  0.00000000000E+00 0. -1.
         -4    1    3    3    0  502  0.30708221639E+02 -0.60887408992E+02 -0.30372818767E+02  0.74651052034E+02  0.00000000000E+00 0.  1.
         11    1    5    5    0    0 -0.28615394416E+02  0.20644272810E+03  0.26504788368E+03  0.33717624683E+03  0.00000000000E+00 0. -1.
        -11    1    5    5    0    0 -0.11731626511E+03  0.22225142449E+03  0.40835794097E+03  0.47949453563E+03  0.00000000000E+00 0.  1.
          1    1    6    6  503    0  0.68298955839E+02 -0.57430443447E+02 -0.10998046283E+03  0.14162875911E+03  0.00000000000E+00 0. -1.
         -1    1    6    6    0  503  0.45628867540E+01 -0.10185723212E+03 -0.46568251135E+02  0.11209066725E+03  0.00000000000E+00 0.  1.
<mgrwt>
<rscale>  0 0.14653698E+04</rscale>
<asrwt>0</asrwt>
<pdfrwt beam="1">  1        1 0.96761055E-01 0.14653698E+04</pdfrwt>
<pdfrwt beam="2">  1       -2 0.13131284E+00 0.14653698E+04</pdfrwt>
<totfact> 0.11488348E+01</totfact>
</mgrwt>
</event>
<event>
12    4  0.4183215E-008  0.1754783E+04  0.7818608E-02  0.8730722E-01
         -2   -1    0    0    0  501 -0.00000000000E+00  0.00000000000E+00  0.80093280778E+03  0.80093280778E+03  0.00000000000E+00 0.  1.
          1   -1    0    0  501    0  0.00000000000E+00 -0.00000000000E+00 -0.96114954628E+03  0.96114954628E+03  0.00000000000E+00 0. -1.
        -24    2    1    2    0    0  0.79451337056E+02  0.36616114291E+03  0.47725252615E+03  0.61187096426E+03  0.78927850912E+02 0.  0.
        254    2    1    2    0    0 -0.79451337056E+02 -0.36616114291E+03 -0.63746926464E+03  0.11502113898E+04  0.88104068029E+03 0.  0.
         23    2    4    4    0    0 -0.41739426853E+02 -0.60598019273E+03 -0.64427364761E+03  0.89019201810E+03  0.91646725778E+02 0.  0.
         23    2    4    4    0    0 -0.37711910203E+02  0.23981904982E+03  0.68043829741E+01  0.26001937170E+03  0.92889230845E+02 0.  0.
          3    1    3    3  502    0  0.63016320821E+02  0.16198408639E+03  0.17415971066E+03  0.24605183549E+03  0.00000000000E+00 0. -1.
         -4    1    3    3    0  502  0.16435016235E+02  0.20417705652E+03  0.30309281549E+03  0.36581912877E+03  0.00000000000E+00 0.  1.
         11    1    5    5    0    0  0.24579036324E+02 -0.24222586574E+03 -0.28173815633E+03  0.37236257571E+03  0.00000000000E+00 0.  1.
        -11    1    5    5    0    0 -0.66318463177E+02 -0.36375432699E+03 -0.36253549128E+03  0.51782944239E+03  0.00000000000E+00 0. -1.
          4    1    6    6  503    0 -0.52329608126E+02  0.19384473383E+03 -0.24854968858E+02  0.20231643087E+03  0.00000000000E+00 0.  1.
         -4    1    6    6    0  503  0.14617697923E+02  0.45974315982E+02  0.31659351833E+02  0.57702940835E+02  0.00000000000E+00 0. -1.
<mgrwt>
<rscale>  0 0.17547834E+04</rscale>
<asrwt>0</asrwt>
<pdfrwt beam="1">  1        1 0.14786916E+00 0.17547834E+04</pdfrwt>
<pdfrwt beam="2">  1       -2 0.12322043E+00 0.17547834E+04</pdfrwt>
<totfact> 0.67007404E+00</totfact>
</mgrwt>
</event>
<event>
12    4  0.4183215E-008  0.1162683E+04  0.7818608E-02  0.9146162E-01
         -2   -1    0    0    0  501 -0.00000000000E+00  0.00000000000E+00  0.37656630484E+03  0.37656630484E+03  0.00000000000E+00 0.  1.
          1   -1    0    0  501    0  0.00000000000E+00 -0.00000000000E+00 -0.89747326060E+03  0.89747326060E+03  0.00000000000E+00 0. -1.
        -24    2    1    2    0    0 -0.22621623047E+03 -0.29341127468E+02 -0.10936227122E+03  0.26633439902E+03  0.83301987031E+02 0.  0.
        254    2    1    2    0    0  0.22621623047E+03  0.29341127468E+02 -0.41154468454E+03  0.10077051664E+04  0.89110380448E+03 0.  0.
         23    2    4    4    0    0  0.14660522316E+03  0.19568402346E+03  0.22146580392E+03  0.34229292104E+03  0.91279860834E+02 0.  0.
         23    2    4    4    0    0  0.79611007314E+02 -0.16634289599E+03 -0.63301048845E+03  0.66541224538E+03  0.89795914546E+02 0.  0.
          1    1    3    3  502    0 -0.79774259003E+02  0.19871186917E+02 -0.67233787198E+02  0.10620347739E+03  0.00000000000E+00 0. -1.
         -2    1    3    3    0  502 -0.14644197147E+03 -0.49212314386E+02 -0.42128484024E+02  0.16013092163E+03  0.00000000000E+00 0.  1.
         11    1    5    5    0    0  0.10697390604E+03  0.17305673844E+03  0.21533813282E+03  0.29624746875E+03  0.00000000000E+00 0.  1.
        -11    1    5    5    0    0  0.39631317117E+02  0.22627285016E+02  0.61276711017E+01  0.46045452292E+02  0.00000000000E+00 0. -1.
          2    1    6    6  503    0 -0.17077167941E+02 -0.66103735995E+01 -0.51311767588E+02  0.54481411481E+02  0.00000000000E+00 0. -1.
         -2    1    6    6    0  503  0.96688175255E+02 -0.15973252239E+03 -0.58169872087E+03  0.61093083389E+03  0.00000000000E+00 0.  1.
<mgrwt>
<rscale>  0 0.11626834E+04</rscale>
<asrwt>0</asrwt>
<pdfrwt beam="1">  1        1 0.13807281E+00 0.11626834E+04</pdfrwt>
<pdfrwt beam="2">  1       -2 0.57933278E-01 0.11626834E+04</pdfrwt>
<totfact> 0.44347912E+01</totfact>
</mgrwt>
</event>
<event>
12    4  0.4183215E-008  0.3143360E+04  0.7818608E-02  0.8203938E-01
         -2   -1    0    0    0  501 -0.00000000000E+00  0.00000000000E+00  0.10019589842E+04  0.10019589842E+04  0.00000000000E+00 0.  1.
          1   -1    0    0  501    0  0.00000000000E+00 -0.00000000000E+00 -0.24653479478E+04  0.24653479478E+04  0.00000000000E+00 0. -1.
        -24    2    1    2    0    0  0.30221842443E+03  0.10273043236E+04 -0.17342600757E+04  0.20397134922E+04  0.77993402020E+02 0.  0.
        254    2    1    2    0    0 -0.30221842443E+03 -0.10273043236E+04  0.27087111207E+03  0.14275934398E+04  0.90441236206E+03 0.  0.
         23    2    4    4    0    0  0.23529418996E+02 -0.48142522247E+02  0.37170158416E+03  0.38674795544E+03  0.92415244201E+02 0.  0.
         23    2    4    4    0    0 -0.32574784343E+03 -0.97916180134E+03 -0.10083047209E+03  0.10408454843E+04  0.91230737600E+02 0.  0.
          3    1    3    3  502    0  0.12380895946E+03  0.48259660393E+03 -0.87279508368E+03  0.10049872629E+04  0.00000000000E+00 0. -1.
         -4    1    3    3    0  502  0.17840946498E+03  0.54470771966E+03 -0.86146499201E+03  0.10347262293E+04  0.00000000000E+00 0.  1.
         11    1    5    5    0    0  0.34238307739E+02  0.18183348233E+02  0.16061916122E+03  0.16523138570E+03  0.00000000000E+00 0. -1.
        -11    1    5    5    0    0 -0.10708888743E+02 -0.66325870480E+02  0.21108242294E+03  0.22151656974E+03  0.00000000000E+00 0.  1.
          2    1    6    6  503    0 -0.16472493026E+03 -0.61670519544E+03 -0.84505596304E+02  0.64389501981E+03  0.00000000000E+00 0. -1.
         -2    1    6    6    0  503 -0.16102291317E+03 -0.36245660590E+03 -0.16324875791E+02  0.39695046453E+03  0.00000000000E+00 0.  1.
<mgrwt>
<rscale>  0 0.31433597E+04</rscale>
<asrwt>0</asrwt>
<pdfrwt beam="1">  1        1 0.37928430E+00 0.31433597E+04</pdfrwt>
<pdfrwt beam="2">  1       -2 0.15414754E+00 0.31433597E+04</pdfrwt>
<totfact> 0.29499004E-01</totfact>
</mgrwt>
</event>
<event>
12    4  0.4183215E-008  0.1656602E+04  0.7818608E-02  0.8786510E-01
         -2   -1    0    0    0  501 -0.00000000000E+00  0.00000000000E+00  0.28824810888E+03  0.28824810888E+03  0.00000000000E+00 0.  1.
          1   -1    0    0  501    0  0.00000000000E+00 -0.00000000000E+00 -0.23801809276E+04  0.23801809276E+04  0.00000000000E+00 0. -1.
        -24    2    1    2    0    0 -0.44325551540E+02 -0.18148407220E+03  0.14646052335E+03  0.25016744311E+03  0.78942014852E+02 0.  0.
        254    2    1    2    0    0  0.44325551540E+02  0.18148407220E+03 -0.22383933421E+04  0.24182615934E+04  0.89592586589E+03 0.  0.
         23    2    4    4    0    0  0.29043068980E+03  0.31871946759E+03 -0.55248618882E+03  0.70687090818E+03  0.92159684221E+02 0.  0.
         23    2    4    4    0    0 -0.24610513826E+03 -0.13723539539E+03 -0.16859071533E+04  0.17113906852E+04  0.84698613686E+02 0.  0.
          3    1    3    3  502    0 -0.43837318956E+02 -0.63983685025E+02  0.25780728698E+02  0.81732909252E+02  0.00000000000E+00 0. -1.
         -4    1    3    3    0  502 -0.48823258443E+00 -0.11750038717E+03  0.12067979466E+03  0.16843453386E+03  0.00000000000E+00 0.  1.
         11    1    5    5    0    0  0.14031993680E+03  0.18127952487E+03 -0.35965579591E+03  0.42650233567E+03  0.00000000000E+00 0. -1.
        -11    1    5    5    0    0  0.15011075300E+03  0.13743994272E+03 -0.19283039291E+03  0.28036857251E+03  0.00000000000E+00 0.  1.
          2    1    6    6  503    0 -0.12790329500E+03 -0.10862966691E+03 -0.82088483093E+03  0.83786130300E+03  0.00000000000E+00 0. -1.
         -2    1    6    6    0  503 -0.11820184325E+03 -0.28605728482E+02 -0.86502232236E+03  0.87352938224E+03  0.00000000000E+00 0.  1.
<mgrwt>
<rscale>  0 0.16566021E+04</rscale>
<asrwt>0</asrwt>
<pdfrwt beam="1">  1        1 0.36618168E+00 0.16566021E+04</pdfrwt>
<pdfrwt beam="2">  1       -2 0.44345863E-01 0.16566021E+04</pdfrwt>
<totfact> 0.66391004E+00</totfact>
</mgrwt>
</event>
<event>
12    4  0.4183215E-008  0.2481699E+04  0.7818608E-02  0.8409535E-01
          1   -1    0    0  501    0  0.00000000000E+00  0.00000000000E+00  0.15572978418E+04  0.15572978418E+04  0.00000000000E+00 0. -1.
         -2   -1    0    0    0  501 -0.00000000000E+00 -0.00000000000E+00 -0.98870419975E+03  0.98870419975E+03  0.00000000000E+00 0.  1.
        -24    2    1    2    0    0 -0.68804513294E+03  0.63507828346E+03 -0.29624332998E+03  0.98535785173E+03  0.80246210708E+02 0.  0.
        254    2    1    2    0    0  0.68804513294E+03 -0.63507828346E+03  0.86483697205E+03  0.15606441898E+04  0.90052027628E+03 0.  0.
         23    2    4    4    0    0  0.86224406246E+03 -0.38570094615E+03  0.48700436316E+03  0.10669772177E+04  0.95063611304E+02 0.  0.
         23    2    4    4    0    0 -0.17419892952E+03 -0.24937733731E+03  0.37783260889E+03  0.49366697217E+03  0.91734811600E+02 0.  0.
          1    1    3    3  502    0 -0.79894748476E+02  0.10838678573E+03 -0.54967783412E+02  0.14543838340E+03  0.00000000000E+00 0. -1.
         -2    1    3    3    0  502 -0.60815038446E+03  0.52669149773E+03 -0.24127554656E+03  0.83991946833E+03  0.00000000000E+00 0.  1.
         11    1    5    5    0    0  0.32921218179E+02 -0.30813566733E+02  0.86054051687E+01  0.45905724037E+02  0.00000000000E+00 0.  1.
        -11    1    5    5    0    0  0.82932284428E+03 -0.35488737941E+03  0.47839895799E+03  0.10210714936E+04  0.00000000000E+00 0. -1.
          3    1    6    6  503    0 -0.96966141360E+02 -0.16434685987E+03  0.16702188114E+03  0.25359146615E+03  0.00000000000E+00 0. -1.
         -3    1    6    6    0  503 -0.77232788164E+02 -0.85030477440E+02  0.21081072774E+03  0.24007550602E+03  0.00000000000E+00 0.  1.
<mgrwt>
<rscale>  0 0.24816985E+04</rscale>
<asrwt>0</asrwt>
<pdfrwt beam="1">  1        1 0.23958428E+00 0.24816985E+04</pdfrwt>
<pdfrwt beam="2">  1       -2 0.15210834E+00 0.24816985E+04</pdfrwt>
<totfact> 0.13470606E+00</totfact>
</mgrwt>
</event>
<event>
12    4  0.4183215E-008  0.1554544E+04  0.7818608E-02  0.8848970E-01
         -2   -1    0    0    0  501 -0.00000000000E+00  0.00000000000E+00  0.87244709662E+03  0.87244709662E+03  0.00000000000E+00 0.  1.
          1   -1    0    0  501    0  0.00000000000E+00 -0.00000000000E+00 -0.69247965593E+03  0.69247965593E+03  0.00000000000E+00 0. -1.
        -24    2    1    2    0    0  0.94834576204E+02 -0.25398817124E+03  0.49173516960E+03  0.56711682873E+03  0.79463403114E+02 0.  0.
        254    2    1    2    0    0 -0.94834576204E+02  0.25398817124E+03 -0.31176772890E+03  0.99780992382E+03  0.90825213422E+03 0.  0.
         23    2    4    4    0    0 -0.73149566552E+02  0.31517252121E+03  0.25389799829E+03  0.42103992969E+03  0.90143505859E+02 0.  0.
         23    2    4    4    0    0 -0.21685009652E+02 -0.61184349964E+02 -0.56566572719E+03  0.57676999413E+03  0.92044265906E+02 0.  0.
          3    1    3    3  502    0  0.89251885050E+02 -0.15896868855E+03  0.26968143347E+03  0.32552268505E+03  0.00000000000E+00 0. -1.
         -2    1    3    3    0  502  0.55826911535E+01 -0.95019482689E+02  0.22205373612E+03  0.24159414367E+03  0.00000000000E+00 0.  1.
         11    1    5    5    0    0 -0.17951284730E+02  0.81137043462E+02  0.19749665337E+02  0.85413802902E+02  0.00000000000E+00 0.  1.
        -11    1    5    5    0    0 -0.55198281822E+02  0.23403547774E+03  0.23414833295E+03  0.33562612679E+03  0.00000000000E+00 0. -1.
          3    1    6    6  503    0 -0.26549870358E+02 -0.20888842542E+02 -0.48773094187E+03  0.48889948968E+03  0.00000000000E+00 0. -1.
         -3    1    6    6    0  503  0.48648607060E+01 -0.40295507423E+02 -0.77934785325E+02  0.87870504447E+02  0.00000000000E+00 0.  1.
<mgrwt>
<rscale>  0 0.15545441E+04</rscale>
<asrwt>0</asrwt>
<pdfrwt beam="1">  1        1 0.10653533E+00 0.15545441E+04</pdfrwt>
<pdfrwt beam="2">  1       -2 0.13422263E+00 0.15545441E+04</pdfrwt>
<totfact> 0.93468358E+00</totfact>
</mgrwt>
</event>
<event>
12    4  0.4183215E-008  0.1271047E+04  0.7818608E-02  0.9052846E-01
         -2   -1    0    0    0  501 -0.00000000000E+00  0.00000000000E+00  0.26465340041E+03  0.26465340041E+03  0.00000000000E+00 0.  1.
          1   -1    0    0  501    0  0.00000000000E+00 -0.00000000000E+00 -0.15261088532E+04  0.15261088532E+04  0.00000000000E+00 0. -1.
        -24    2    1    2    0    0  0.25327865890E+03  0.16356532768E+01 -0.66571064477E+02  0.27337184642E+03  0.78407304341E+02 0.  0.
        254    2    1    2    0    0 -0.25327865890E+03 -0.16356532768E+01 -0.11948843883E+04  0.15173904072E+04  0.90031782833E+03 0.  0.
         23    2    4    4    0    0  0.23766432276E+03 -0.11003746570E+03 -0.86673746650E+03  0.91011770120E+03  0.92129365775E+02 0.  0.
         23    2    4    4    0    0 -0.49094298166E+03  0.10840181243E+03 -0.32814692184E+03  0.60727270601E+03  0.91234713689E+02 0.  0.
          1    1    3    3  502    0  0.23563397240E+02 -0.21176626933E+02 -0.21173448480E+02  0.38105093338E+02  0.00000000000E+00 0. -1.
         -2    1    3    3    0  502  0.22971526166E+03  0.22812280210E+02 -0.45397615997E+02  0.23526675308E+03  0.00000000000E+00 0.  1.
         11    1    5    5    0    0  0.22113281043E+03 -0.90205345455E+02 -0.66206079966E+03  0.70381902975E+03  0.00000000000E+00 0. -1.
        -11    1    5    5    0    0  0.16531512332E+02 -0.19832120250E+02 -0.20467666684E+03  0.20629867145E+03  0.00000000000E+00 0.  1.
          3    1    6    6  503    0 -0.26475332772E+03  0.11783991020E+02 -0.16917826012E+03  0.31441130813E+03  0.00000000000E+00 0. -1.
         -3    1    6    6    0  503 -0.22618965394E+03  0.96617821408E+02 -0.15896866172E+03  0.29286139788E+03  0.00000000000E+00 0.  1.
<mgrwt>
<rscale>  0 0.12710467E+04</rscale>
<asrwt>0</asrwt>
<pdfrwt beam="1">  1        1 0.23478597E+00 0.12710467E+04</pdfrwt>
<pdfrwt beam="2">  1       -2 0.40715909E-01 0.12710467E+04</pdfrwt>
<totfact> 0.30964154E+01</totfact>
</mgrwt>
</event>
<event>
12    4  0.4183215E-008  0.1479087E+04  0.7818608E-02  0.8898480E-01
          1   -1    0    0  501    0  0.00000000000E+00  0.00000000000E+00  0.96464155501E+03  0.96464155501E+03  0.00000000000E+00 0. -1.
         -2   -1    0    0    0  501 -0.00000000000E+00 -0.00000000000E+00 -0.56697212496E+03  0.56697212496E+03  0.00000000000E+00 0.  1.
        -24    2    1    2    0    0 -0.25639042744E+02  0.37164542182E+03  0.40174020925E+03  0.55353128305E+03  0.78892366661E+02 0.  0.
        254    2    1    2    0    0  0.25639042744E+02 -0.37164542182E+03 -0.40707791984E+01  0.97808239691E+03  0.90435110651E+03 0.  0.
         23    2    4    4    0    0  0.96269709449E+02  0.20661350706E+03 -0.24002906580E+03  0.34298721669E+03  0.89829171909E+02 0.  0.
         23    2    4    4    0    0 -0.70630666705E+02 -0.57825892887E+03  0.23595828661E+03  0.63509518023E+03  0.91090586936E+02 0.  0.
          1    1    3    3  502    0 -0.26494057771E+02  0.37084633513E+03  0.40517345729E+03  0.54990405514E+03  0.00000000000E+00 0. -1.
         -2    1    3    3    0  502  0.85501502745E+00  0.79908669020E+00 -0.34332480343E+01  0.36272279086E+01  0.00000000000E+00 0.  1.
         11    1    5    5    0    0 -0.64763180091E+01  0.57058312488E+01 -0.41632635730E+02  0.42517944013E+02  0.00000000000E+00 0. -1.
        -11    1    5    5    0    0  0.10274602746E+03  0.20090767581E+03 -0.19839643007E+03  0.30046927268E+03  0.00000000000E+00 0.  1.
          4    1    6    6  503    0 -0.10957279297E+02 -0.28195200924E+02  0.35429342385E+02  0.46586152734E+02  0.00000000000E+00 0. -1.
         -4    1    6    6    0  503 -0.59673387408E+02 -0.55006372795E+03  0.20052894422E+03  0.58850902749E+03  0.00000000000E+00 0.  1.
<mgrwt>
<rscale>  0 0.14790874E+04</rscale>
<asrwt>0</asrwt>
<pdfrwt beam="1">  1        1 0.14840639E+00 0.14790874E+04</pdfrwt>
<pdfrwt beam="2">  1       -2 0.87226481E-01 0.14790874E+04</pdfrwt>
<totfact> 0.15565765E+01</totfact>
</mgrwt>
</event>
<event>
12    4  0.4183215E-008  0.1773919E+04  0.7818608E-02  0.8720293E-01
          1   -1    0    0  501    0  0.00000000000E+00  0.00000000000E+00  0.11055831780E+04  0.11055831780E+04  0.00000000000E+00 0. -1.
         -2   -1    0    0    0  501 -0.00000000000E+00 -0.00000000000E+00 -0.71156783652E+03  0.71156783652E+03  0.00000000000E+00 0.  1.
        -24    2    1    2    0    0  0.51119956523E+02  0.12994978257E+03  0.80489682054E+03  0.82160149674E+03  0.87578146812E+02 0.  0.
        254    2    1    2    0    0 -0.51119956523E+02 -0.12994978257E+03 -0.41088147909E+03  0.99554951773E+03  0.89598831267E+03 0.  0.
         23    2    4    4    0    0 -0.33735938126E+03  0.21794794706E+03 -0.33035240081E+03  0.52886406907E+03  0.96186459987E+02 0.  0.
         23    2    4    4    0    0  0.28623942474E+03 -0.34789772963E+03 -0.80529078288E+02  0.46668544866E+03  0.91348437192E+02 0.  0.
          1    1    3    3  502    0  0.43331744435E+02  0.11052245595E+03  0.78041408176E+03  0.78939153299E+03  0.00000000000E+00 0. -1.
         -2    1    3    3    0  502  0.77882120878E+01  0.19427326622E+02  0.24482738777E+02  0.32209963758E+02  0.00000000000E+00 0.  1.
         11    1    5    5    0    0 -0.86129132071E+02  0.98953869631E+02 -0.14055231442E+03  0.19226296782E+03  0.00000000000E+00 0. -1.
        -11    1    5    5    0    0 -0.25123024919E+03  0.11899407743E+03 -0.18980008638E+03  0.33660110125E+03  0.00000000000E+00 0.  1.
          4    1    6    6  503    0  0.61247784417E+02 -0.50341838776E+02  0.17044595088E+02  0.81093218268E+02  0.00000000000E+00 0. -1.
         -4    1    6    6    0  503  0.22499164032E+03 -0.29755589086E+03 -0.97573673376E+02  0.38559223039E+03  0.00000000000E+00 0.  1.
<mgrwt>
<rscale>  0 0.17739193E+04</rscale>
<asrwt>0</asrwt>
<pdfrwt beam="1">  1        1 0.17008972E+00 0.17739193E+04</pdfrwt>
<pdfrwt beam="2">  1       -2 0.10947198E+00 0.17739193E+04</pdfrwt>
<totfact> 0.69219469E+00</totfact>
</mgrwt>
</event>
<event>
12    4  0.4183215E-008  0.1450238E+04  0.7818608E-02  0.8918235E-01
          1   -1    0    0  501    0  0.00000000000E+00  0.00000000000E+00  0.15472449911E+04  0.15472449911E+04  0.00000000000E+00 0. -1.
         -2   -1    0    0    0  501 -0.00000000000E+00 -0.00000000000E+00 -0.33982835118E+03  0.33982835118E+03  0.00000000000E+00 0.  1.
        -24    2    1    2    0    0 -0.86458317896E+02  0.38978083084E+03  0.35707210736E+03  0.54085551830E+03  0.74967092803E+02 0.  0.
        254    2    1    2    0    0  0.86458317896E+02 -0.38978083084E+03  0.85034453259E+03  0.13462178240E+04  0.96426784077E+03 0.  0.
         23    2    4    4    0    0  0.14389621050E+03 -0.42306087419E+03 -0.31697671137E+02  0.45720096807E+03  0.91331047218E+02 0.  0.
         23    2    4    4    0    0 -0.57437892599E+02  0.33280043352E+02  0.88204220373E+03  0.88901685593E+03  0.89139487230E+02 0.  0.
          1    1    3    3  502    0 -0.12109287256E+02  0.45957113191E+01  0.54891507445E+01  0.14067202148E+02  0.00000000000E+00 0. -1.
         -2    1    3    3    0  502 -0.74349030640E+02  0.38518511952E+03  0.35158295661E+03  0.52678831615E+03  0.00000000000E+00 0.  1.
         11    1    5    5    0    0  0.74168959717E+02 -0.33205274532E+03 -0.91644605262E+01  0.34035870431E+03  0.00000000000E+00 0.  1.
        -11    1    5    5    0    0  0.69727250778E+02 -0.91008128865E+02 -0.22533210611E+02  0.11684226376E+03  0.00000000000E+00 0. -1.
          2    1    6    6  503    0 -0.55374566970E+02  0.36956711045E+02  0.88228559864E+03  0.88479377186E+03  0.00000000000E+00 0. -1.
         -2    1    6    6    0  503 -0.20633256296E+01 -0.36766676935E+01 -0.24339491241E+00  0.42230840704E+01  0.00000000000E+00 0.  1.
<mgrwt>
<rscale>  0 0.14502382E+04</rscale>
<asrwt>0</asrwt>
<pdfrwt beam="1">  1        1 0.23803769E+00 0.14502382E+04</pdfrwt>
<pdfrwt beam="2">  1       -2 0.52281286E-01 0.14502382E+04</pdfrwt>
<totfact> 0.17855530E+01</totfact>
</mgrwt>
</event>
<event>
12    4  0.4183215E-008  0.2839155E+04  0.7818608E-02  0.8291214E-01
         -2   -1    0    0    0  501 -0.00000000000E+00  0.00000000000E+00  0.16123423683E+04  0.16123423683E+04  0.00000000000E+00 0.  1.
          1   -1    0    0  501    0  0.00000000000E+00 -0.00000000000E+00 -0.12498589164E+04  0.12498589164E+04  0.00000000000E+00 0. -1.
        -24    2    1    2    0    0  0.54492910290E+03 -0.40691675035E+03  0.12492164156E+04  0.14247304667E+04  0.82378887015E+02 0.  0.
        254    2    1    2    0    0 -0.54492910290E+03  0.40691675035E+03 -0.88673296366E+03  0.14374708181E+04  0.90415597937E+03 0.  0.
         23    2    4    4    0    0 -0.14264490570E+03  0.42483745506E+03  0.25748685823E+01  0.45737653165E+03  0.91390532401E+02 0.  0.
         23    2    4    4    0    0 -0.40228419720E+03 -0.17920704708E+02 -0.88930783224E+03  0.98009428641E+03  0.86963571618E+02 0.  0.
          1    1    3    3  502    0  0.69755000502E+02 -0.89999170159E+02  0.20223563839E+03  0.23208805260E+03  0.00000000000E+00 0. -1.
         -2    1    3    3    0  502  0.47517410240E+03 -0.31691758019E+03  0.10469807772E+04  0.11926424141E+04  0.00000000000E+00 0.  1.
         11    1    5    5    0    0 -0.54659858362E+02  0.29188044560E+03  0.15956608073E+02  0.29738276343E+03  0.00000000000E+00 0.  1.
        -11    1    5    5    0    0 -0.87985047341E+02  0.13295700946E+03 -0.13381739490E+02  0.15999376823E+03  0.00000000000E+00 0. -1.
          1    1    6    6  503    0 -0.13004775931E+02 -0.15271892106E+02 -0.73131963437E+02  0.75832967512E+02  0.00000000000E+00 0. -1.
         -1    1    6    6    0  503 -0.38927942127E+03 -0.26488126015E+01 -0.81617586880E+03  0.90426131889E+03  0.00000000000E+00 0.  1.
<mgrwt>
<rscale>  0 0.28391551E+04</rscale>
<asrwt>0</asrwt>
<pdfrwt beam="1">  1        1 0.19228599E+00 0.28391551E+04</pdfrwt>
<pdfrwt beam="2">  1       -2 0.24805267E+00 0.28391551E+04</pdfrwt>
<totfact> 0.49176465E-01</totfact>
</mgrwt>
</event>
<event>
12    4  0.4183215E-008  0.1437230E+04  0.7818608E-02  0.8927302E-01
         -2   -1    0    0    0  501 -0.00000000000E+00  0.00000000000E+00  0.71109837795E+03  0.71109837795E+03  0.00000000000E+00 0.  1.
          1   -1    0    0  501    0  0.00000000000E+00 -0.00000000000E+00 -0.72621122640E+03  0.72621122640E+03  0.00000000000E+00 0. -1.
        -24    2    1    2    0    0  0.14431319803E+03  0.32996447592E+03 -0.24438280437E+03  0.44263657582E+03  0.80630817239E+02 0.  0.
        254    2    1    2    0    0 -0.14431319803E+03 -0.32996447592E+03  0.22926995591E+03  0.99467302853E+03  0.89839126582E+03 0.  0.
         23    2    4    4    0    0 -0.19344624320E+03 -0.61545737005E+03  0.79611919269E+02  0.65620757717E+03  0.89783647092E+02 0.  0.
         23    2    4    4    0    0  0.49133045167E+02  0.28549289413E+03  0.14965803664E+03  0.33846545136E+03  0.90780422497E+02 0.  0.
          1    1    3    3  502    0  0.11847310307E+02  0.21285147578E+02 -0.47251917011E+02  0.53161639649E+02  0.00000000000E+00 0. -1.
         -2    1    3    3    0  502  0.13246588772E+03  0.30867932834E+03 -0.19713088736E+03  0.38947493617E+03  0.00000000000E+00 0.  1.
         11    1    5    5    0    0 -0.13330043341E+03 -0.52823105050E+03  0.56048348831E+02  0.54766638172E+03  0.00000000000E+00 0. -1.
        -11    1    5    5    0    0 -0.60145809789E+02 -0.87226319554E+02  0.23563570439E+02  0.10854119545E+03  0.00000000000E+00 0.  1.
          4    1    6    6  503    0  0.61111879121E+02  0.28446412444E+03  0.14765530655E+03  0.32627686007E+03  0.00000000000E+00 0. -1.
         -4    1    6    6    0  503 -0.11978833953E+02  0.10287696887E+01  0.20027300961E+01  0.12188591296E+02  0.00000000000E+00 0.  1.
<mgrwt>
<rscale>  0 0.14372301E+04</rscale>
<asrwt>0</asrwt>
<pdfrwt beam="1">  1        1 0.11172480E+00 0.14372301E+04</pdfrwt>
<pdfrwt beam="2">  1       -2 0.10939975E+00 0.14372301E+04</pdfrwt>
<totfact> 0.14595817E+01</totfact>
</mgrwt>
</event>
<event>
12    4  0.4183215E-008  0.1478467E+04  0.7818608E-02  0.8898900E-01
          1   -1    0    0  501    0  0.00000000000E+00  0.00000000000E+00  0.21242348187E+04  0.21242348187E+04  0.00000000000E+00 0. -1.
         -2   -1    0    0    0  501 -0.00000000000E+00 -0.00000000000E+00 -0.25725302530E+03  0.25725302530E+03  0.00000000000E+00 0.  1.
        -24    2    1    2    0    0  0.98104557393E+02  0.19845376158E+03 -0.62074193953E+02  0.24305125283E+03  0.78818184946E+02 0.  0.
        254    2    1    2    0    0 -0.98104557393E+02 -0.19845376158E+03  0.19290559873E+04  0.21384365912E+04  0.89590493493E+03 0.  0.
         23    2    4    4    0    0  0.59539013736E+02 -0.41445847451E+03  0.41182368097E+03  0.59488376068E+03  0.94695423695E+02 0.  0.
         23    2    4    4    0    0 -0.15764357113E+03  0.21600471292E+03  0.15172323064E+04  0.15435528305E+04  0.95141670429E+02 0.  0.
          3    1    3    3  502    0 -0.52230390844E+00 -0.37781657192E+01 -0.11938749968E+02  0.12533199447E+02  0.00000000000E+00 0. -1.
         -4    1    3    3    0  502  0.98626861301E+02  0.20223192730E+03 -0.50135443985E+02  0.23051805338E+03  0.00000000000E+00 0.  1.
         11    1    5    5    0    0  0.30042585974E+02 -0.31727620683E+03  0.36022915316E+03  0.48096963645E+03  0.00000000000E+00 0.  1.
        -11    1    5    5    0    0  0.29496427763E+02 -0.97182267672E+02  0.51594527806E+02  0.11391412423E+03  0.00000000000E+00 0. -1.
          3    1    6    6  503    0 -0.49315205774E+02  0.89895478578E+01  0.25612012750E+03  0.26097954173E+03  0.00000000000E+00 0. -1.
         -3    1    6    6    0  503 -0.10832836536E+03  0.20701516506E+03  0.12611121789E+04  0.12825732887E+04  0.00000000000E+00 0.  1.
<mgrwt>
<rscale>  0 0.14784665E+04</rscale>
<asrwt>0</asrwt>
<pdfrwt beam="1">  1        1 0.32680535E+00 0.14784665E+04</pdfrwt>
<pdfrwt beam="2">  1       -2 0.39577390E-01 0.14784665E+04</pdfrwt>
<totfact> 0.12618259E+01</totfact>
</mgrwt>
</event>
<event>
12    4  0.4183215E-008  0.3056570E+04  0.7818608E-02  0.8227759E-01
         -2   -1    0    0    0  501 -0.00000000000E+00  0.00000000000E+00  0.17529121537E+04  0.17529121537E+04  0.00000000000E+00 0.  1.
          1   -1    0    0  501    0  0.00000000000E+00 -0.00000000000E+00 -0.13324430708E+04  0.13324430708E+04  0.00000000000E+00 0. -1.
        -24    2    1    2    0    0 -0.35453884952E+03  0.69041528655E+02  0.15515322964E+04  0.15949844415E+04  0.79109881442E+02 0.  0.
        254    2    1    2    0    0  0.35453884952E+03 -0.69041528655E+02 -0.11310632135E+04  0.14903707830E+04  0.90079772948E+03 0.  0.
         23    2    4    4    0    0 -0.15128294688E+03  0.27672961600E+03 -0.55469106946E+03  0.64423716058E+03  0.88845518384E+02 0.  0.
         23    2    4    4    0    0  0.50582179641E+03 -0.34577114466E+03 -0.57637214401E+03  0.84613362242E+03  0.91235324315E+02 0.  0.
          1    1    3    3  502    0 -0.13621699597E+03  0.60235626559E+02  0.71835536024E+03  0.73363330369E+03  0.00000000000E+00 0. -1.
         -2    1    3    3    0  502 -0.21832185355E+03  0.88059020965E+01  0.83317693617E+03  0.86135113781E+03  0.00000000000E+00 0.  1.
         11    1    5    5    0    0 -0.28585015515E+02  0.21531803578E+02 -0.25145623577E+02  0.43738130531E+02  0.00000000000E+00 0.  1.
        -11    1    5    5    0    0 -0.12269793137E+03  0.25519781243E+03 -0.52954544589E+03  0.60049903005E+03  0.00000000000E+00 0. -1.
          1    1    6    6  503    0  0.48217864649E+03 -0.31219103593E+03 -0.55905880244E+03  0.80156486614E+03  0.00000000000E+00 0. -1.
         -1    1    6    6    0  503  0.23643149920E+02 -0.33580108728E+02 -0.17313341574E+02  0.44568756285E+02  0.00000000000E+00 0.  1.
<mgrwt>
<rscale>  0 0.30565704E+04</rscale>
<asrwt>0</asrwt>
<pdfrwt beam="1">  1        1 0.20499124E+00 0.30565704E+04</pdfrwt>
<pdfrwt beam="2">  1       -2 0.26967879E+00 0.30565704E+04</pdfrwt>
<totfact> 0.31048607E-01</totfact>
</mgrwt>
</event>
<event>
12    4  0.4183215E-008  0.1933857E+04  0.7818608E-02  0.8638185E-01
         -2   -1    0    0    0  501 -0.00000000000E+00  0.00000000000E+00  0.31030207390E+03  0.31030207390E+03  0.00000000000E+00 0.  1.
          1   -1    0    0  501    0  0.00000000000E+00 -0.00000000000E+00 -0.30130345747E+04  0.30130345747E+04  0.00000000000E+00 0. -1.
        -24    2    1    2    0    0 -0.43541721784E+03  0.43660915121E+03 -0.17897247284E+04  0.18946298421E+04  0.79321691387E+02 0.  0.
        254    2    1    2    0    0  0.43541721784E+03 -0.43660915121E+03 -0.91300777244E+03  0.14287068065E+04  0.90961763500E+03 0.  0.
         23    2    4    4    0    0  0.49162706829E+03  0.11916396735E+03 -0.30402850199E+03  0.59736250160E+03  0.92257264758E+02 0.  0.
         23    2    4    4    0    0 -0.56209850445E+02 -0.55577311856E+03 -0.60897927044E+03  0.83134430491E+03  0.90743015562E+02 0.  0.
          1    1    3    3  502    0 -0.26231159047E+03  0.29720405209E+03 -0.10546015772E+04  0.11266419599E+04  0.00000000000E+00 0. -1.
         -2    1    3    3    0  502 -0.17310562737E+03  0.13940509911E+03 -0.73512315118E+03  0.76798788225E+03  0.00000000000E+00 0.  1.
         11    1    5    5    0    0 -0.34698887200E+01 -0.23188095305E+01 -0.91813671966E+00  0.42731698309E+01  0.00000000000E+00 0.  1.
        -11    1    5    5    0    0  0.49509695701E+03  0.12148277688E+03 -0.30311036527E+03  0.59308933177E+03  0.00000000000E+00 0. -1.
          2    1    6    6  503    0  0.23343434815E+02 -0.73390954740E+02 -0.80568043465E+02  0.11145563160E+03  0.00000000000E+00 0.  1.
         -2    1    6    6    0  503 -0.79553285261E+02 -0.48238216382E+03 -0.52841122698E+03  0.71988867331E+03  0.00000000000E+00 0. -1.
<mgrwt>
<rscale>  0 0.19338572E+04</rscale>
<asrwt>0</asrwt>
<pdfrwt beam="1">  1        1 0.46354377E+00 0.19338572E+04</pdfrwt>
<pdfrwt beam="2">  1       -2 0.47738781E-01 0.19338572E+04</pdfrwt>
<totfact> 0.19972966E+00</totfact>
</mgrwt>
</event>
<event>
12    4  0.4183215E-008  0.3201602E+04  0.7818608E-02  0.8188394E-01
          1   -1    0    0  501    0  0.00000000000E+00  0.00000000000E+00  0.20037832843E+04  0.20037832843E+04  0.00000000000E+00 0. -1.
         -2   -1    0    0    0  501 -0.00000000000E+00 -0.00000000000E+00 -0.12788631170E+04  0.12788631170E+04  0.00000000000E+00 0.  1.
        -24    2    1    2    0    0 -0.10020970624E+04  0.34904866215E+03  0.13791046103E+04  0.17419517032E+04  0.80204233400E+02 0.  0.
        254    2    1    2    0    0  0.10020970624E+04 -0.34904866215E+03 -0.65418444294E+03  0.15406946981E+04  0.90540011949E+03 0.  0.
         23    2    4    4    0    0  0.10882931765E+04 -0.26057687432E+03 -0.76008066799E+03  0.13561116404E+04  0.95046377039E+02 0.  0.
         23    2    4    4    0    0 -0.86196114117E+02 -0.88471787834E+02  0.10589622505E+03  0.18458305774E+03  0.87177218322E+02 0.  0.
          3    1    3    3  502    0 -0.99810546090E+03  0.34573211228E+03  0.13785893603E+04  0.17367365456E+04  0.00000000000E+00 0. -1.
         -4    1    3    3    0  502 -0.39916015294E+01  0.33165498701E+01  0.51524996128E+00  0.52151575559E+01  0.00000000000E+00 0.  1.
         11    1    5    5    0    0  0.20176459963E+03 -0.79885293283E+02 -0.17360945640E+03  0.27790440281E+03  0.00000000000E+00 0. -1.
        -11    1    5    5    0    0  0.88652857691E+03 -0.18069158103E+03 -0.58647121159E+03  0.10782072376E+04  0.00000000000E+00 0.  1.
          2    1    6    6  503    0  0.17687551647E+02 -0.90727534268E+01  0.88917887462E+01  0.21776782249E+02  0.00000000000E+00 0. -1.
         -2    1    6    6    0  503 -0.10388366576E+03 -0.79399034407E+02  0.97004436303E+02  0.16280627549E+03  0.00000000000E+00 0.  1.
<mgrwt>
<rscale>  0 0.32016024E+04</rscale>
<asrwt>0</asrwt>
<pdfrwt beam="1">  1        1 0.30827435E+00 0.32016024E+04</pdfrwt>
<pdfrwt beam="2">  1       -2 0.19674817E+00 0.32016024E+04</pdfrwt>
<totfact> 0.30447156E-01</totfact>
</mgrwt>
</event>
<event>
12    4  0.4183215E-008  0.2451325E+04  0.7818608E-02  0.8420535E-01
         -2   -1    0    0    0  501 -0.00000000000E+00  0.00000000000E+00  0.12962077451E+04  0.12962077451E+04  0.00000000000E+00 0.  1.
          1   -1    0    0  501    0  0.00000000000E+00 -0.00000000000E+00 -0.11589561807E+04  0.11589561807E+04  0.00000000000E+00 0. -1.
        -24    2    1    2    0    0 -0.29907847237E+03  0.92618105472E+03 -0.34902463285E+03  0.10369789651E+04  0.79043664350E+02 0.  0.
        254    2    1    2    0    0  0.29907847237E+03 -0.92618105472E+03  0.48627619718E+03  0.14181849607E+04  0.90968388143E+03 0.  0.
         23    2    4    4    0    0  0.48247683211E+03 -0.33259866410E+03  0.52061190331E+03  0.78935048868E+03  0.92906809396E+02 0.  0.
         23    2    4    4    0    0 -0.18339835974E+03 -0.59358239062E+03 -0.34335706138E+02  0.62883447204E+03  0.90988129502E+02 0.  0.
          1    1    3    3  502    0 -0.71874048623E+02  0.13886804313E+03 -0.41991402266E+02  0.16190580635E+03  0.00000000000E+00 0. -1.
         -2    1    3    3    0  502 -0.22720442375E+03  0.78731301159E+03 -0.30703323059E+03  0.87507315870E+03  0.00000000000E+00 0.  1.
         11    1    5    5    0    0  0.47591095783E+03 -0.32531594565E+03  0.48798542549E+03  0.75528238413E+03  0.00000000000E+00 0. -1.
        -11    1    5    5    0    0  0.65658742727E+01 -0.72827184519E+01  0.32626477823E+02  0.34068104558E+02  0.00000000000E+00 0.  1.
          3    1    6    6  503    0 -0.92689352663E+02 -0.20898894186E+03 -0.47355098904E+02  0.23347419410E+03  0.00000000000E+00 0. -1.
         -3    1    6    6    0  503 -0.90709007074E+02 -0.38459344875E+03  0.13019392766E+02  0.39536027794E+03  0.00000000000E+00 0.  1.
<mgrwt>
<rscale>  0 0.24513245E+04</rscale>
<asrwt>0</asrwt>
<pdfrwt beam="1">  1        1 0.17830095E+00 0.24513245E+04</pdfrwt>
<pdfrwt beam="2">  1       -2 0.19941658E+00 0.24513245E+04</pdfrwt>
<totfact> 0.12030784E+00</totfact>
</mgrwt>
</event>
<event>
12    4  0.4183215E-008  0.2628229E+04  0.7818608E-02  0.8358675E-01
          1   -1    0    0  501    0  0.00000000000E+00  0.00000000000E+00  0.93347509838E+03  0.93347509838E+03  0.00000000000E+00 0. -1.
         -2   -1    0    0    0  501 -0.00000000000E+00 -0.00000000000E+00 -0.18499651780E+04  0.18499651780E+04  0.00000000000E+00 0.  1.
        -24    2    1    2    0    0 -0.31189531051E+03  0.45347323677E+03  0.67812039266E+03  0.87636810328E+03  0.72506029527E+02 0.  0.
        254    2    1    2    0    0  0.31189531051E+03 -0.45347323677E+03 -0.15946104723E+04  0.19070721731E+04  0.88950832146E+03 0.  0.
         23    2    4    4    0    0  0.38437122283E+03 -0.67622887203E+03 -0.10805668050E+04  0.13345287703E+04  0.91190428393E+02 0.  0.
         23    2    4    4    0    0 -0.72475912321E+02  0.22275563526E+03 -0.51404366731E+03  0.57254340289E+03  0.93232104896E+02 0.  0.
          3    1    3    3  502    0 -0.28269636361E+03  0.40540507650E+03  0.63912413156E+03  0.80792955485E+03  0.00000000000E+00 0. -1.
         -4    1    3    3    0  502 -0.29198946892E+02  0.48068160276E+02  0.38996261101E+02  0.68438548434E+02  0.00000000000E+00 0.  1.
         11    1    5    5    0    0  0.33214384617E+02 -0.25132885525E+02 -0.79996921575E+02  0.90190713168E+02  0.00000000000E+00 0. -1.
        -11    1    5    5    0    0  0.35115683821E+03 -0.65109598651E+03 -0.10005698834E+04  0.12443380571E+04  0.00000000000E+00 0.  1.
          2    1    6    6  503    0  0.18662437228E+02  0.69666341085E+02 -0.11843518162E+03  0.13866714784E+03  0.00000000000E+00 0. -1.
         -2    1    6    6    0  503 -0.91138349550E+02  0.15308929418E+03 -0.39560848569E+03  0.43387625505E+03  0.00000000000E+00 0.  1.
<mgrwt>
<rscale>  0 0.26282286E+04</rscale>
<asrwt>0</asrwt>
<pdfrwt beam="1">  1        1 0.14361156E+00 0.26282286E+04</pdfrwt>
<pdfrwt beam="2">  1       -2 0.28461002E+00 0.26282286E+04</pdfrwt>
<totfact> 0.51982573E-01</totfact>
</mgrwt>
</event>
<event>
12    4  0.4183215E-008  0.1499507E+04  0.7818608E-02  0.8884781E-01
         -2   -1    0    0    0  501 -0.00000000000E+00  0.00000000000E+00  0.46765933933E+03  0.46765933933E+03  0.00000000000E+00 0.  1.
          1   -1    0    0  501    0  0.00000000000E+00 -0.00000000000E+00 -0.12020087343E+04  0.12020087343E+04  0.00000000000E+00 0. -1.
        -24    2    1    2    0    0 -0.32003852634E+02 -0.10763769213E+03 -0.73327395816E+03  0.74534636071E+03  0.72390471423E+02 0.  0.
        254    2    1    2    0    0  0.32003852634E+02  0.10763769213E+03 -0.10754368556E+01  0.92432171297E+03  0.91747444278E+03 0.  0.
         23    2    4    4    0    0  0.42976713554E+03 -0.11997423056E+03  0.33418675322E+02  0.45567706576E+03  0.86204255174E+02 0.  0.
         23    2    4    4    0    0 -0.39776328290E+03  0.22761192270E+03 -0.34494112177E+02  0.46864464721E+03  0.91734099470E+02 0.  0.
          3    1    3    3  502    0 -0.47370607922E+02 -0.65005714732E+02 -0.57880803689E+03  0.58437014042E+03  0.00000000000E+00 0. -1.
         -4    1    3    3    0  502  0.15366755288E+02 -0.42631977399E+02 -0.15446592127E+03  0.16097622029E+03  0.00000000000E+00 0.  1.
         11    1    5    5    0    0  0.16114776076E+03 -0.30805593962E+02 -0.26986500582E+02  0.16627043222E+03  0.00000000000E+00 0.  1.
        -11    1    5    5    0    0  0.26861937478E+03 -0.89168636602E+02  0.60405175904E+02  0.28940663354E+03  0.00000000000E+00 0. -1.
          2    1    6    6  503    0 -0.35696525152E+03  0.18925476722E+03 -0.57504861526E+02  0.40810337760E+03  0.00000000000E+00 0. -1.
         -2    1    6    6    0  503 -0.40798031388E+02  0.38357155470E+02  0.23010749349E+02  0.60541269614E+02  0.00000000000E+00 0.  1.
<mgrwt>
<rscale>  0 0.14995074E+04</rscale>
<asrwt>0</asrwt>
<pdfrwt beam="1">  1        1 0.18492442E+00 0.14995074E+04</pdfrwt>
<pdfrwt beam="2">  1       -2 0.71947592E-01 0.14995074E+04</pdfrwt>
<totfact> 0.15815728E+01</totfact>
</mgrwt>
</event>
<event>
12    4  0.4183215E-008  0.1407868E+04  0.7818608E-02  0.8948143E-01
          1   -1    0    0  501    0  0.00000000000E+00  0.00000000000E+00  0.12984769736E+04  0.12984769736E+04  0.00000000000E+00 0. -1.
         -2   -1    0    0    0  501 -0.00000000000E+00 -0.00000000000E+00 -0.38161872681E+03  0.38161872681E+03  0.00000000000E+00 0.  1.
        -24    2    1    2    0    0  0.38193266208E+03 -0.12032873142E+03  0.38654249945E+03  0.56225616634E+03  0.79783022900E+02 0.  0.
        254    2    1    2    0    0 -0.38193266208E+03  0.12032873142E+03  0.53031574731E+03  0.11178395340E+04  0.89887644871E+03 0.  0.
         23    2    4    4    0    0 -0.61916510740E+03  0.25142522957E+03  0.47807717363E+03  0.82628809825E+03  0.87259160427E+02 0.  0.
         23    2    4    4    0    0  0.23723244532E+03 -0.13109649816E+03  0.52238573683E+02  0.29155143579E+03  0.93850126206E+02 0.  0.
          1    1    3    3  502    0  0.35680198096E+03 -0.11042706371E+03  0.38307802860E+03  0.53502389294E+03  0.00000000000E+00 0. -1.
         -2    1    3    3    0  502  0.25130681112E+02 -0.99016677041E+01  0.34644708531E+01  0.27232273404E+02  0.00000000000E+00 0.  1.
         11    1    5    5    0    0 -0.96957689374E+02  0.95659388221E+01  0.85697743398E+02  0.12975516921E+03  0.00000000000E+00 0. -1.
        -11    1    5    5    0    0 -0.52220741802E+03  0.24185929075E+03  0.39237943023E+03  0.69653292903E+03  0.00000000000E+00 0.  1.
          4    1    6    6  503    0  0.80507604202E+02 -0.58923992611E+01  0.41257174379E+02  0.90655110949E+02  0.00000000000E+00 0. -1.
         -4    1    6    6    0  503  0.15672484112E+03 -0.12520409890E+03  0.10981399304E+02  0.20089632484E+03  0.00000000000E+00 0.  1.
<mgrwt>
<rscale>  0 0.14078681E+04</rscale>
<asrwt>0</asrwt>
<pdfrwt beam="1">  1        1 0.19976569E+00 0.14078681E+04</pdfrwt>
<pdfrwt beam="2">  1       -2 0.58710574E-01 0.14078681E+04</pdfrwt>
<totfact> 0.21018275E+01</totfact>
</mgrwt>
</event>
<event>
12    4  0.4183215E-008  0.1843199E+04  0.7818608E-02  0.8683658E-01
         -2   -1    0    0    0  501 -0.00000000000E+00  0.00000000000E+00  0.74944180007E+03  0.74944180007E+03  0.00000000000E+00 0.  1.
          1   -1    0    0  501    0  0.00000000000E+00 -0.00000000000E+00 -0.11333045475E+04  0.11333045475E+04  0.00000000000E+00 0. -1.
        -24    2    1    2    0    0 -0.65618760600E+03  0.23221312839E+03 -0.96136083109E+02  0.70710501621E+03  0.79058498662E+02 0.  0.
        254    2    1    2    0    0  0.65618760600E+03 -0.23221312839E+03 -0.28772666434E+03  0.11756413314E+04  0.90268532470E+03 0.  0.
         23    2    4    4    0    0  0.69127291750E+03 -0.49142922380E+03 -0.15181571516E+03  0.86654989795E+03  0.92194282842E+02 0.  0.
         23    2    4    4    0    0 -0.35085311505E+02  0.25921609541E+03 -0.13591094919E+03  0.30909143344E+03  0.92961093555E+02 0.  0.
          3    1    3    3  502    0 -0.13371718641E+03  0.34861265409E+02 -0.49006138629E+02  0.14661921904E+03  0.00000000000E+00 0. -1.
         -4    1    3    3    0  502 -0.52247041959E+03  0.19735186298E+03 -0.47129944480E+02  0.56048579717E+03  0.00000000000E+00 0.  1.
         11    1    5    5    0    0  0.61383005452E+03 -0.43567160491E+03 -0.10420465055E+03  0.75990505483E+03  0.00000000000E+00 0. -1.
        -11    1    5    5    0    0  0.77442862981E+02 -0.55757618895E+02 -0.47611064607E+02  0.10664484312E+03  0.00000000000E+00 0.  1.
          4    1    6    6  503    0 -0.30187310011E+01  0.16756638699E+03 -0.12947383958E+03  0.21178074020E+03  0.00000000000E+00 0. -1.
         -4    1    6    6    0  503 -0.32066580504E+02  0.91649708416E+02 -0.64371096091E+01  0.97310693236E+02  0.00000000000E+00 0.  1.
<mgrwt>
<rscale>  0 0.18431992E+04</rscale>
<asrwt>0</asrwt>
<pdfrwt beam="1">  1        1 0.17435455E+00 0.18431992E+04</pdfrwt>
<pdfrwt beam="2">  1       -2 0.11529874E+00 0.18431992E+04</pdfrwt>
<totfact> 0.57826453E+00</totfact>
</mgrwt>
</event>
<event>
12    4  0.4183215E-008  0.1410815E+04  0.7818608E-02  0.8946027E-01
         -2   -1    0    0    0  501 -0.00000000000E+00  0.00000000000E+00  0.41707059458E+03  0.41707059458E+03  0.00000000000E+00 0.  1.
          1   -1    0    0  501    0  0.00000000000E+00 -0.00000000000E+00 -0.11930828043E+04  0.11930828043E+04  0.00000000000E+00 0. -1.
        -24    2    1    2    0    0  0.15233656308E+03 -0.18025132968E+03  0.15422821237E+03  0.29316946292E+03  0.80405361741E+02 0.  0.
        254    2    1    2    0    0 -0.15233656308E+03  0.18025132968E+03 -0.93024042214E+03  0.13169839360E+04  0.90188828266E+03 0.  0.
         23    2    4    4    0    0 -0.91335071157E+02  0.42802447437E+03 -0.11992277264E+03  0.46251493626E+03  0.89395463994E+02 0.  0.
         23    2    4    4    0    0 -0.61001491921E+02 -0.24777314469E+03 -0.81031764950E+03  0.85446899975E+03  0.91596207275E+02 0.  0.
          3    1    3    3  502    0  0.11296861887E+02 -0.54012176422E+01 -0.90556840693E+01  0.15453079126E+02  0.00000000000E+00 0. -1.
         -4    1    3    3    0  502  0.14103970119E+03 -0.17485011204E+03  0.16328389644E+03  0.27771638380E+03  0.00000000000E+00 0.  1.
         11    1    5    5    0    0 -0.98615089621E+02  0.25335251857E+03 -0.71876039462E+02  0.28120917413E+03  0.00000000000E+00 0. -1.
        -11    1    5    5    0    0  0.72800184644E+01  0.17467195580E+03 -0.48046733180E+02  0.18130576213E+03  0.00000000000E+00 0.  1.
          1    1    6    6  503    0  0.16778883981E+02 -0.11935542556E+03 -0.33657437594E+03  0.35750462808E+03  0.00000000000E+00 0. -1.
         -1    1    6    6    0  503 -0.77780375902E+02 -0.12841771913E+03 -0.47374327356E+03  0.49696437167E+03  0.00000000000E+00 0.  1.
<mgrwt>
<rscale>  0 0.14108150E+04</rscale>
<asrwt>0</asrwt>
<pdfrwt beam="1">  1        1 0.18355120E+00 0.14108150E+04</pdfrwt>
<pdfrwt beam="2">  1       -2 0.64164707E-01 0.14108150E+04</pdfrwt>
<totfact> 0.20735371E+01</totfact>
</mgrwt>
</event>
<event>
12    4  0.4183215E-008  0.2763937E+04  0.7818608E-02  0.8314553E-01
          1   -1    0    0  501    0  0.00000000000E+00  0.00000000000E+00  0.29715527921E+04  0.29715527921E+04  0.00000000000E+00 0. -1.
         -2   -1    0    0    0  501 -0.00000000000E+00 -0.00000000000E+00 -0.64270673053E+03  0.64270673053E+03  0.00000000000E+00 0.  1.
        -24    2    1    2    0    0  0.43898158271E+03 -0.32184907293E+03 -0.40616242721E+03  0.68385841158E+03  0.80017211290E+02 0.  0.
        254    2    1    2    0    0 -0.43898158271E+03  0.32184907293E+03  0.27350084888E+04  0.29304011111E+04  0.90038190915E+03 0.  0.
         23    2    4    4    0    0 -0.18237453903E+03 -0.23483047789E+03  0.35907091196E+03  0.47499250831E+03  0.90995259812E+02 0.  0.
         23    2    4    4    0    0 -0.25660704368E+03  0.55667955082E+03  0.23759375769E+04  0.24554086028E+04  0.90624170768E+02 0.  0.
          3    1    3    3  502    0  0.56625072792E+02 -0.55454939105E+02 -0.29171182858E+02  0.84454763331E+02  0.00000000000E+00 0. -1.
         -4    1    3    3    0  502  0.38235650992E+03 -0.26639413383E+03 -0.37699124435E+03  0.59940364824E+03  0.00000000000E+00 0.  1.
         11    1    5    5    0    0 -0.18453826707E+03 -0.22959228922E+03  0.36345179124E+03  0.46782923790E+03  0.00000000000E+00 0. -1.
        -11    1    5    5    0    0  0.21637280459E+01 -0.52381886725E+01 -0.43808792845E+01  0.71632704075E+01  0.00000000000E+00 0.  1.
          1    1    6    6  503    0 -0.20457690875E+03  0.35303685543E+03  0.14875038310E+04  0.15424507707E+04  0.00000000000E+00 0. -1.
         -1    1    6    6    0  503 -0.52030134927E+02  0.20364269539E+03  0.88843374591E+03  0.91295783211E+03  0.00000000000E+00 0.  1.
<mgrwt>
<rscale>  0 0.27639370E+04</rscale>
<asrwt>0</asrwt>
<pdfrwt beam="1">  1        1 0.45716196E+00 0.27639370E+04</pdfrwt>
<pdfrwt beam="2">  1       -2 0.98877960E-01 0.27639370E+04</pdfrwt>
<totfact> 0.40615416E-01</totfact>
</mgrwt>
</event>
<event>
12    4  0.4183215E-008  0.1463150E+04  0.7818608E-02  0.8909334E-01
          1   -1    0    0  501    0  0.00000000000E+00  0.00000000000E+00  0.18795100842E+04  0.18795100842E+04  0.00000000000E+00 0. -1.
         -2   -1    0    0    0  501 -0.00000000000E+00 -0.00000000000E+00 -0.28475626200E+03  0.28475626200E+03  0.00000000000E+00 0.  1.
        -24    2    1    2    0    0 -0.32918819656E+03  0.10240206382E+03  0.93721224626E+03  0.10017985795E+04  0.79890849999E+02 0.  0.
        254    2    1    2    0    0  0.32918819656E+03 -0.10240206382E+03  0.65754157592E+03  0.11624677667E+04  0.89449389772E+03 0.  0.
         23    2    4    4    0    0  0.51926077440E+03 -0.15634237318E+03  0.74660107986E+03  0.92715007282E+03  0.90107688873E+02 0.  0.
         23    2    4    4    0    0 -0.19007257784E+03  0.53940309351E+02 -0.89059503937E+02  0.23531769386E+03  0.91682495498E+02 0.  0.
          1    1    3    3  502    0 -0.24425469164E+03  0.73779611957E+02  0.78192441369E+03  0.82250202082E+03  0.00000000000E+00 0. -1.
         -2    1    3    3    0  502 -0.84933504927E+02  0.28622451868E+02  0.15528783257E+03  0.17929655868E+03  0.00000000000E+00 0.  1.
         11    1    5    5    0    0  0.91034656111E+02 -0.34660845154E+02  0.82555848851E+02  0.12768770880E+03  0.00000000000E+00 0. -1.
        -11    1    5    5    0    0  0.42822611829E+03 -0.12168152802E+03  0.66404523101E+03  0.79946236401E+03  0.00000000000E+00 0.  1.
          2    1    6    6  503    0 -0.18631398723E+02  0.28739759381E+02  0.10048505044E+02  0.35694190581E+02  0.00000000000E+00 0. -1.
         -2    1    6    6    0  503 -0.17144117912E+03  0.25200549971E+02 -0.99108008981E+02  0.19962350328E+03  0.00000000000E+00 0.  1.
<mgrwt>
<rscale>  0 0.14631504E+04</rscale>
<asrwt>0</asrwt>
<pdfrwt beam="1">  1        1 0.28915539E+00 0.14631504E+04</pdfrwt>
<pdfrwt beam="2">  1       -2 0.43808657E-01 0.14631504E+04</pdfrwt>
<totfact> 0.15145277E+01</totfact>
</mgrwt>
</event>
<event>
12    4  0.4183215E-008  0.1115905E+04  0.7818608E-02  0.9189827E-01
         -2   -1    0    0    0  501 -0.00000000000E+00  0.00000000000E+00  0.16024891341E+03  0.16024891341E+03  0.00000000000E+00 0.  1.
          1   -1    0    0  501    0  0.00000000000E+00 -0.00000000000E+00 -0.19426728423E+04  0.19426728423E+04  0.00000000000E+00 0. -1.
        -24    2    1    2    0    0 -0.12342203111E+03 -0.13642173953E+03 -0.27392122818E+03  0.33987574675E+03  0.81478802141E+02 0.  0.
        254    2    1    2    0    0  0.12342203111E+03  0.13642173953E+03 -0.15085027007E+04  0.17630460090E+04  0.89381594464E+03 0.  0.
         23    2    4    4    0    0  0.17401688987E+03 -0.25906666671E+03 -0.17972516793E+03  0.37279138441E+03  0.96306098144E+02 0.  0.
         23    2    4    4    0    0 -0.50594858763E+02  0.39548840624E+03 -0.13287775328E+04  0.13902546246E+04  0.90483535947E+02 0.  0.
          1    1    3    3  502    0 -0.30315552560E+02 -0.60808525680E+02 -0.16263494569E+03  0.17625786530E+03  0.00000000000E+00 0. -1.
         -2    1    3    3    0  502 -0.93106478550E+02 -0.75613213854E+02 -0.11128628249E+03  0.16361788145E+03  0.00000000000E+00 0.  1.
         11    1    5    5    0    0  0.12207386426E+03 -0.12278848597E+03 -0.57308844512E+02  0.18238241220E+03  0.00000000000E+00 0. -1.
        -11    1    5    5    0    0  0.51943025609E+02 -0.13627818074E+03 -0.12241632342E+03  0.19040897220E+03  0.00000000000E+00 0.  1.
          1    1    6    6  503    0 -0.26878375316E+02  0.10412092028E+03 -0.49996608138E+03  0.51139974152E+03  0.00000000000E+00 0. -1.
         -1    1    6    6    0  503 -0.23716483448E+02  0.29136748596E+03 -0.82881145143E+03  0.87885488306E+03  0.00000000000E+00 0.  1.
<mgrwt>
<rscale>  0 0.11159054E+04</rscale>
<asrwt>0</asrwt>
<pdfrwt beam="1">  1        1 0.29887275E+00 0.11159054E+04</pdfrwt>
<pdfrwt beam="2">  1       -2 0.24653679E-01 0.11159054E+04</pdfrwt>
<totfact> 0.41999940E+01</totfact>
</mgrwt>
</event>
<event>
12    4  0.4183215E-008  0.1890729E+04  0.7818608E-02  0.8659485E-01
          1   -1    0    0  501    0  0.00000000000E+00  0.00000000000E+00  0.95307143053E+03  0.95307143053E+03  0.00000000000E+00 0. -1.
         -2   -1    0    0    0  501 -0.00000000000E+00 -0.00000000000E+00 -0.93771945410E+03  0.93771945410E+03  0.00000000000E+00 0.  1.
        -24    2    1    2    0    0  0.45318061236E+03  0.13270546876E+03 -0.59564266814E+03  0.76447034638E+03  0.81494254582E+02 0.  0.
        254    2    1    2    0    0 -0.45318061236E+03 -0.13270546876E+03  0.61099464456E+03  0.11263205382E+04  0.81993907722E+03 0.  0.
         23    2    4    4    0    0 -0.66271031923E+03 -0.16923240776E+03  0.33991751555E+03  0.76929474753E+03  0.91901665660E+02 0.  0.
         23    2    4    4    0    0  0.20952970688E+03  0.36526939002E+02  0.27107712901E+03  0.35702579072E+03  0.93529086529E+02 0.  0.
          3    1    3    3  502    0  0.98206342073E+02  0.26491896313E+02 -0.18687958671E+03  0.21276815110E+03  0.00000000000E+00 0. -1.
         -4    1    3    3    0  502  0.35497427028E+03  0.10621357244E+03 -0.40876308142E+03  0.55170219527E+03  0.00000000000E+00 0.  1.
         11    1    5    5    0    0 -0.10253932507E+03 -0.55236156833E+02  0.80183002479E+02  0.14140247556E+03  0.00000000000E+00 0. -1.
        -11    1    5    5    0    0 -0.56017099416E+03 -0.11399625093E+03  0.25973451307E+03  0.62789227197E+03  0.00000000000E+00 0.  1.
          2    1    6    6  503    0  0.35149680489E+02  0.42557200182E+02  0.43612939572E+02  0.70347024272E+02  0.00000000000E+00 0. -1.
         -2    1    6    6    0  503  0.17438002639E+03 -0.60302611802E+01  0.22746418944E+03  0.28667876645E+03  0.00000000000E+00 0.  1.
<mgrwt>
<rscale>  0 0.18907286E+04</rscale>
<asrwt>0</asrwt>
<pdfrwt beam="1">  1        1 0.14662637E+00 0.18907286E+04</pdfrwt>
<pdfrwt beam="2">  1       -2 0.14426453E+00 0.18907286E+04</pdfrwt>
<totfact> 0.44912757E+00</totfact>
</mgrwt>
</event>
<event>
12    4  0.4183215E-008  0.3067538E+04  0.7818608E-02  0.8224704E-01
          3   -1    0    0  501    0  0.00000000000E+00  0.00000000000E+00  0.12744679303E+04  0.12744679303E+04  0.00000000000E+00 0. -1.
         -4   -1    0    0    0  501 -0.00000000000E+00 -0.00000000000E+00 -0.18458265194E+04  0.18458265194E+04  0.00000000000E+00 0.  1.
        -24    2    1    2    0    0  0.80179003576E+03 -0.10894079159E+04 -0.61768813606E+03  0.14892082010E+04  0.80780961503E+02 0.  0.
        254    2    1    2    0    0 -0.80179003576E+03  0.10894079159E+04  0.46329546986E+02  0.16310862487E+04  0.91028515041E+03 0.  0.
         23    2    4    4    0    0 -0.93851118215E+03  0.10324667147E+04  0.17834692469E+03  0.14095706544E+04  0.91055192184E+02 0.  0.
         23    2    4    4    0    0  0.13672114640E+03  0.56941201164E+02 -0.13201737770E+03  0.22151559432E+03  0.98516994730E+02 0.  0.
          3    1    3    3  502    0  0.44686257761E+02 -0.91998795034E+02 -0.35364156396E+02  0.10821859118E+03  0.00000000000E+00 0. -1.
         -4    1    3    3    0  502  0.75710377799E+03 -0.99740912087E+03 -0.58232397966E+03  0.13809896098E+04  0.00000000000E+00 0.  1.
         11    1    5    5    0    0 -0.28525532235E+03  0.25964384859E+03  0.67512711001E+02  0.39159097689E+03  0.00000000000E+00 0. -1.
        -11    1    5    5    0    0 -0.65325585980E+03  0.77282286615E+03  0.11083421369E+03  0.10179796775E+04  0.00000000000E+00 0.  1.
          4    1    6    6  503    0  0.13629925799E+03  0.60693454925E+02 -0.14496481824E+03  0.20802880024E+03  0.00000000000E+00 0. -1.
         -4    1    6    6    0  503  0.42188840578E+00 -0.37522537605E+01  0.12947440542E+02  0.13486794085E+02  0.00000000000E+00 0.  1.
<mgrwt>
<rscale>  0 0.30675376E+04</rscale>
<asrwt>0</asrwt>
<pdfrwt beam="1">  1        3 0.19607199E+00 0.30675376E+04</pdfrwt>
<pdfrwt beam="2">  1       -4 0.28397331E+00 0.30675376E+04</pdfrwt>
<totfact> 0.11692144E-02</totfact>
</mgrwt>
</event>
<event>
12    4  0.4183215E-008  0.1217762E+04  0.7818608E-02  0.9097450E-01
         -4   -1    0    0    0  501 -0.00000000000E+00  0.00000000000E+00  0.39133719157E+03  0.39133719157E+03  0.00000000000E+00 0.  1.
          1   -1    0    0  501    0  0.00000000000E+00 -0.00000000000E+00 -0.94735787760E+03  0.94735787760E+03  0.00000000000E+00 0. -1.
        -24    2    1    2    0    0  0.73407370262E+02 -0.22056662640E+03 -0.17033965378E+02  0.24689511476E+03  0.81417215770E+02 0.  0.
        254    2    1    2    0    0 -0.73407370262E+02  0.22056662640E+03 -0.53898672065E+03  0.10917999544E+04  0.92058795166E+03 0.  0.
         23    2    4    4    0    0 -0.62575657666E+02 -0.13073146205E+03 -0.68021674982E+03  0.70163245620E+03  0.92665251104E+02 0.  0.
         23    2    4    4    0    0 -0.10831712596E+02  0.35129808844E+03  0.14123002917E+03  0.39016749822E+03  0.93579285003E+02 0.  0.
          3    1    3    3  502    0 -0.17049798487E+02 -0.29873228517E+02  0.47116056148E+01  0.34717497576E+02  0.00000000000E+00 0. -1.
         -4    1    3    3    0  502  0.90457168749E+02 -0.19069339788E+03 -0.21745570992E+02  0.21217761718E+03  0.00000000000E+00 0.  1.
         11    1    5    5    0    0  0.20571407397E+02 -0.50996602556E+01 -0.73904856295E+02  0.76883789715E+02  0.00000000000E+00 0. -1.
        -11    1    5    5    0    0 -0.83147065063E+02 -0.12563180179E+03 -0.60631189352E+03  0.62474866649E+03  0.00000000000E+00 0.  1.
          3    1    6    6  503    0 -0.85373065990E+01  0.18950272886E+01 -0.64126037571E+01  0.10844271268E+02  0.00000000000E+00 0. -1.
         -3    1    6    6    0  503 -0.22944059965E+01  0.34940306116E+03  0.14764263293E+03  0.37932322695E+03  0.00000000000E+00 0.  1.
<mgrwt>
<rscale>  0 0.12177625E+04</rscale>
<asrwt>0</asrwt>
<pdfrwt beam="1">  1        1 0.14574737E+00 0.12177625E+04</pdfrwt>
<pdfrwt beam="2">  1       -4 0.60205722E-01 0.12177625E+04</pdfrwt>
<totfact> 0.20861524E+01</totfact>
</mgrwt>
</event>
<event>
12    4  0.4183215E-008  0.1073144E+04  0.7818608E-02  0.9231770E-01
         -2   -1    0    0    0  501 -0.00000000000E+00  0.00000000000E+00  0.16051924326E+04  0.16051924326E+04  0.00000000000E+00 0.  1.
          1   -1    0    0  501    0  0.00000000000E+00 -0.00000000000E+00 -0.17936148633E+03  0.17936148633E+03  0.00000000000E+00 0. -1.
        -24    2    1    2    0    0 -0.79601958091E+01  0.34457125634E+02  0.40111258224E+03  0.41037070777E+03  0.79133785108E+02 0.  0.
        254    2    1    2    0    0  0.79601958091E+01 -0.34457125634E+02  0.10247183641E+04  0.13741832112E+04  0.91492137040E+03 0.  0.
         23    2    4    4    0    0  0.54459801510E+02  0.19099839304E+02 -0.15486754245E+03  0.18902059983E+03  0.91728717492E+02 0.  0.
         23    2    4    4    0    0 -0.46499605701E+02 -0.53556964937E+02  0.11795859065E+04  0.11851626114E+04  0.90315794148E+02 0.  0.
          3    1    3    3  502    0  0.11703278874E+02 -0.17275713132E+02  0.40737560843E+02  0.45770797066E+02  0.00000000000E+00 0. -1.
         -4    1    3    3    0  502 -0.19663474683E+02  0.51732838765E+02  0.36037502139E+03  0.36459991071E+03  0.00000000000E+00 0.  1.
         11    1    5    5    0    0  0.52302369628E+02 -0.61135897766E+01 -0.15501470681E+03  0.16371460892E+03  0.00000000000E+00 0.  1.
        -11    1    5    5    0    0  0.21574318822E+01  0.25213429080E+02  0.14716435577E+00  0.25305990905E+02  0.00000000000E+00 0. -1.
          4    1    6    6  503    0 -0.27636687521E+01 -0.62244802394E+02  0.46055918160E+03  0.46475457292E+03  0.00000000000E+00 0. -1.
         -4    1    6    6    0  503 -0.43735936949E+02  0.86878374570E+01  0.71902672492E+03  0.72040803844E+03  0.00000000000E+00 0.  1.
<mgrwt>
<rscale>  0 0.10731444E+04</rscale>
<asrwt>0</asrwt>
<pdfrwt beam="1">  1        1 0.27594076E-01 0.10731444E+04</pdfrwt>
<pdfrwt beam="2">  1       -2 0.24695267E+00 0.10731444E+04</pdfrwt>
<totfact> 0.10054192E+01</totfact>
</mgrwt>
</event>
<event>
12    4  0.4183215E-008  0.1469859E+04  0.7818608E-02  0.8904747E-01
         -2   -1    0    0    0  501 -0.00000000000E+00  0.00000000000E+00  0.40144139564E+03  0.40144139564E+03  0.00000000000E+00 0.  1.
          1   -1    0    0  501    0  0.00000000000E+00 -0.00000000000E+00 -0.13454552054E+04  0.13454552054E+04  0.00000000000E+00 0. -1.
        -24    2    1    2    0    0 -0.39714889781E+03 -0.56294481972E+01 -0.61856591946E+03  0.73920922587E+03  0.77765964138E+02 0.  0.
        254    2    1    2    0    0  0.39714889781E+03  0.56294481972E+01 -0.32544789027E+03  0.10076873751E+04  0.86704012538E+03 0.  0.
         23    2    4    4    0    0  0.32671640213E+03 -0.37476119737E+03 -0.15530375152E+02  0.50565761895E+03  0.90878339397E+02 0.  0.
         23    2    4    4    0    0  0.70432495674E+02  0.38039064556E+03 -0.30991751512E+03  0.50202975619E+03  0.79543888815E+02 0.  0.
          1    1    3    3  502    0 -0.26706873383E+03 -0.39679817289E+02 -0.42543300631E+03  0.50387839738E+03  0.00000000000E+00 0. -1.
         -2    1    3    3    0  502 -0.13008016398E+03  0.34050369092E+02 -0.19313291315E+03  0.23533082849E+03  0.00000000000E+00 0.  1.
         11    1    5    5    0    0  0.32815695723E+02 -0.91570896717E+02 -0.17036055421E+01  0.97288238154E+02  0.00000000000E+00 0. -1.
        -11    1    5    5    0    0  0.29390070641E+03 -0.28319030065E+03 -0.13826769610E+02  0.40836938079E+03  0.00000000000E+00 0.  1.
          4    1    6    6  503    0  0.32121687908E+02  0.12454876978E+03 -0.15127652874E+03  0.19856683267E+03  0.00000000000E+00 0. -1.
         -4    1    6    6    0  503  0.38310807766E+02  0.25584187578E+03 -0.15864098637E+03  0.30346292352E+03  0.00000000000E+00 0.  1.
<mgrwt>
<rscale>  0 0.14698591E+04</rscale>
<asrwt>0</asrwt>
<pdfrwt beam="1">  1        1 0.20699311E+00 0.14698591E+04</pdfrwt>
<pdfrwt beam="2">  1       -2 0.61760214E-01 0.14698591E+04</pdfrwt>
<totfact> 0.17395206E+01</totfact>
</mgrwt>
</event>
<event>
12    4  0.4183215E-008  0.1344272E+04  0.7818608E-02  0.8995176E-01
         -2   -1    0    0    0  501 -0.00000000000E+00  0.00000000000E+00  0.32035685366E+03  0.32035685366E+03  0.00000000000E+00 0.  1.
          1   -1    0    0  501    0  0.00000000000E+00 -0.00000000000E+00 -0.14101982095E+04  0.14101982095E+04  0.00000000000E+00 0. -1.
        -24    2    1    2    0    0  0.21450407788E+03 -0.26412550130E+03 -0.48011489444E+03  0.59371713461E+03  0.78838088573E+02 0.  0.
        254    2    1    2    0    0 -0.21450407788E+03  0.26412550130E+03 -0.60972646138E+03  0.11368379285E+04  0.89713980971E+03 0.  0.
         23    2    4    4    0    0  0.23126051457E+03  0.29542009488E+03 -0.55713458446E+03  0.67781498034E+03  0.90993100355E+02 0.  0.
         23    2    4    4    0    0 -0.44576459245E+03 -0.31294593579E+02 -0.52591876916E+02  0.45902294818E+03  0.90833572922E+02 0.  0.
          1    1    3    3  502    0  0.20436948252E+03 -0.26736255599E+03 -0.47440131239E+03  0.58164097769E+03  0.00000000000E+00 0. -1.
         -2    1    3    3    0  502  0.10134595361E+02  0.32370546948E+01 -0.57135820504E+01  0.12076156925E+02  0.00000000000E+00 0.  1.
         11    1    5    5    0    0  0.22905197929E+01  0.20145578249E+02 -0.72355125846E+02  0.75142232067E+02  0.00000000000E+00 0.  1.
        -11    1    5    5    0    0  0.22896999478E+03  0.27527451663E+03 -0.48477945862E+03  0.60267274828E+03  0.00000000000E+00 0. -1.
          4    1    6    6  503    0 -0.44093112327E+03 -0.39688442050E+02 -0.60090924227E+02  0.44677326136E+03  0.00000000000E+00 0. -1.
         -4    1    6    6    0  503 -0.48334691855E+01  0.83938484712E+01  0.74990473114E+01  0.12249686817E+02  0.00000000000E+00 0.  1.
<mgrwt>
<rscale>  0 0.13442718E+04</rscale>
<asrwt>0</asrwt>
<pdfrwt beam="1">  1        1 0.21695357E+00 0.13442718E+04</pdfrwt>
<pdfrwt beam="2">  1       -2 0.49285671E-01 0.13442718E+04</pdfrwt>
<totfact> 0.25300010E+01</totfact>
</mgrwt>
</event>
<event>
12    4  0.4183215E-008  0.1722398E+04  0.7818608E-02  0.8748692E-01
          1   -1    0    0  501    0  0.00000000000E+00  0.00000000000E+00  0.14315262213E+04  0.14315262213E+04  0.00000000000E+00 0. -1.
         -2   -1    0    0    0  501 -0.00000000000E+00 -0.00000000000E+00 -0.51809325146E+03  0.51809325146E+03  0.00000000000E+00 0.  1.
        -24    2    1    2    0    0 -0.37432010784E+02 -0.45226415524E+03 -0.11566574194E+03  0.47544092568E+03  0.81984684002E+02 0.  0.
        254    2    1    2    0    0  0.37432010784E+02  0.45226415524E+03  0.10290987117E+04  0.14741785470E+04  0.95300273269E+03 0.  0.
         23    2    4    4    0    0 -0.39759561336E+03  0.27189204418E+00  0.29099234942E+03  0.50105657161E+03  0.91097721419E+02 0.  0.
         23    2    4    4    0    0  0.43502762414E+03  0.45199226319E+03  0.73810636232E+03  0.97312197543E+03  0.92840385713E+02 0.  0.
          1    1    3    3  502    0  0.14739951112E+01  0.19315771729E+01  0.35028450220E+01  0.42630476435E+01  0.00000000000E+00 0. -1.
         -4    1    3    3    0  502 -0.38906005895E+02 -0.45419573241E+03 -0.11916858696E+03  0.47117787804E+03  0.00000000000E+00 0.  1.
         11    1    5    5    0    0 -0.74670727294E+02 -0.33448154775E+02  0.75815170598E+02  0.11154567076E+03  0.00000000000E+00 0.  1.
        -11    1    5    5    0    0 -0.32292488606E+03  0.33720046819E+02  0.21517717882E+03  0.38951090085E+03  0.00000000000E+00 0. -1.
          1    1    6    6  503    0  0.34140837722E+03  0.30260863226E+03  0.50000265583E+03  0.67685620348E+03  0.00000000000E+00 0. -1.
         -1    1    6    6    0  503  0.93619246919E+02  0.14938363094E+03  0.23810370649E+03  0.29626577195E+03  0.00000000000E+00 0.  1.
<mgrwt>
<rscale>  0 0.17223984E+04</rscale>
<asrwt>0</asrwt>
<pdfrwt beam="1">  1        1 0.22023480E+00 0.17223984E+04</pdfrwt>
<pdfrwt beam="2">  1       -2 0.79706655E-01 0.17223984E+04</pdfrwt>
<totfact> 0.84812618E+00</totfact>
</mgrwt>
</event>
<event>
12    4  0.4183215E-008  0.1884966E+04  0.7818608E-02  0.8662376E-01
         -2   -1    0    0    0  501 -0.00000000000E+00  0.00000000000E+00  0.46257854933E+03  0.46257854933E+03  0.00000000000E+00 0.  1.
          1   -1    0    0  501    0  0.00000000000E+00 -0.00000000000E+00 -0.19202667624E+04  0.19202667624E+04  0.00000000000E+00 0. -1.
        -24    2    1    2    0    0 -0.60001263310E+03 -0.40440109017E+03 -0.54987600389E+03  0.91229767453E+03  0.79799910371E+02 0.  0.
        254    2    1    2    0    0  0.60001263310E+03  0.40440109017E+03 -0.90781220922E+03  0.14705476372E+04  0.90268042217E+03 0.  0.
         23    2    4    4    0    0  0.70794650390E+03  0.36975328099E+03 -0.10120420459E+04  0.12923720263E+04  0.89947821968E+02 0.  0.
         23    2    4    4    0    0 -0.10793387080E+03  0.34647809176E+02  0.10422983666E+03  0.17817561089E+03  0.89624206089E+02 0.  0.
          3    1    3    3  502    0 -0.48120182950E+03 -0.30859167336E+03 -0.39493910300E+03  0.69480998601E+03  0.00000000000E+00 0. -1.
         -4    1    3    3    0  502 -0.11881080360E+03 -0.95809416808E+02 -0.15493690089E+03  0.21748768852E+03  0.00000000000E+00 0.  1.
         11    1    5    5    0    0  0.18529539043E+03  0.53727112193E+02 -0.24876254957E+03  0.31480754497E+03  0.00000000000E+00 0. -1.
        -11    1    5    5    0    0  0.52265111347E+03  0.31602616880E+03 -0.76327949630E+03  0.97756448138E+03  0.00000000000E+00 0.  1.
          4    1    6    6  503    0 -0.28575861937E+02  0.24922550310E+02 -0.95619217546E+01  0.39104267632E+02  0.00000000000E+00 0. -1.
         -4    1    6    6    0  503 -0.79358008867E+02  0.97252588654E+01  0.11379175841E+03  0.13907134325E+03  0.00000000000E+00 0.  1.
<mgrwt>
<rscale>  0 0.18849660E+04</rscale>
<asrwt>0</asrwt>
<pdfrwt beam="1">  1        1 0.29542565E+00 0.18849660E+04</pdfrwt>
<pdfrwt beam="2">  1       -2 0.71165931E-01 0.18849660E+04</pdfrwt>
<totfact> 0.49780733E+00</totfact>
</mgrwt>
</event>
<event>
12    4  0.4183215E-008  0.1137074E+04  0.7818608E-02  0.9169792E-01
         -2   -1    0    0    0  501 -0.00000000000E+00  0.00000000000E+00  0.46979818004E+03  0.46979818004E+03  0.00000000000E+00 0.  1.
          1   -1    0    0  501    0  0.00000000000E+00 -0.00000000000E+00 -0.68802799556E+03  0.68802799556E+03  0.00000000000E+00 0. -1.
        -24    2    1    2    0    0  0.67392842784E+02  0.53592013228E+02  0.14518869325E+03  0.18679958906E+03  0.80002691735E+02 0.  0.
        254    2    1    2    0    0 -0.67392842784E+02 -0.53592013228E+02 -0.36341850877E+03  0.97102658654E+03  0.89632902447E+03 0.  0.
         23    2    4    4    0    0  0.65377315688E+02  0.38108374969E+03 -0.26219875607E+02  0.39795567202E+03  0.90455609763E+02 0.  0.
         23    2    4    4    0    0 -0.13277015847E+03 -0.43467576291E+03 -0.33719863317E+03  0.57307091451E+03  0.90202111978E+02 0.  0.
          3    1    3    3  502    0  0.39157027327E+02 -0.13493422441E+02  0.32487578991E+02  0.52638275304E+02  0.00000000000E+00 0. -1.
         -4    1    3    3    0  502  0.28235815457E+02  0.67085435669E+02  0.11270111426E+03  0.13416131376E+03  0.00000000000E+00 0.  1.
         11    1    5    5    0    0 -0.12482581871E+02  0.10886319817E+02  0.74549525402E+01  0.18163235579E+02  0.00000000000E+00 0.  1.
        -11    1    5    5    0    0  0.77859897559E+02  0.37019742987E+03 -0.33674828147E+02  0.37979243644E+03  0.00000000000E+00 0. -1.
          2    1    6    6  503    0 -0.13841430778E+03 -0.32400742947E+03 -0.26395415893E+03  0.44023985845E+03  0.00000000000E+00 0. -1.
         -2    1    6    6    0  503  0.56441493123E+01 -0.11066833344E+03 -0.73244474237E+02  0.13283105606E+03  0.00000000000E+00 0.  1.
<mgrwt>
<rscale>  0 0.11370740E+04</rscale>
<asrwt>0</asrwt>
<pdfrwt beam="1">  1        1 0.10585046E+00 0.11370740E+04</pdfrwt>
<pdfrwt beam="2">  1       -2 0.72276643E-01 0.11370740E+04</pdfrwt>
<totfact> 0.42200727E+01</totfact>
</mgrwt>
</event>
<event>
12    4  0.4183215E-008  0.1188080E+04  0.7818608E-02  0.9123354E-01
         -2   -1    0    0    0  501 -0.00000000000E+00  0.00000000000E+00  0.24514121833E+03  0.24514121833E+03  0.00000000000E+00 0.  1.
          1   -1    0    0  501    0  0.00000000000E+00 -0.00000000000E+00 -0.14395113089E+04  0.14395113089E+04  0.00000000000E+00 0. -1.
        -24    2    1    2    0    0 -0.31437086067E+02 -0.24733421820E+03 -0.79453118028E+02  0.27363295248E+03  0.79998055264E+02 0.  0.
        254    2    1    2    0    0  0.31437086067E+02  0.24733421820E+03 -0.11149169725E+04  0.14110195747E+04  0.82811465314E+03 0.  0.
         23    2    4    4    0    0 -0.20057254886E+03  0.38128078921E+03 -0.10210948360E+04  0.11119699354E+04  0.90763900235E+02 0.  0.
         23    2    4    4    0    0  0.23200963492E+03 -0.13394657101E+03 -0.93822136477E+02  0.29904963926E+03  0.94116623753E+02 0.  0.
          3    1    3    3  502    0 -0.13600424475E+02 -0.58236287394E+02 -0.56573638053E+02  0.82322616806E+02  0.00000000000E+00 0. -1.
         -4    1    3    3    0  502 -0.17836661592E+02 -0.18909793081E+03 -0.22879479975E+02  0.19131033567E+03  0.00000000000E+00 0.  1.
         11    1    5    5    0    0  0.81839976397E+01  0.34777703562E+02 -0.80092956340E+02  0.87700331457E+02  0.00000000000E+00 0.  1.
        -11    1    5    5    0    0 -0.20875654650E+03  0.34650308565E+03 -0.94100187968E+03  0.10242696040E+04  0.00000000000E+00 0. -1.
          1    1    6    6  503    0  0.13194448903E+03 -0.32802893514E+02 -0.75720850901E+02  0.15562462938E+03  0.00000000000E+00 0. -1.
         -1    1    6    6    0  503  0.10006514590E+03 -0.10114367750E+03 -0.18101285576E+02  0.14342500989E+03  0.00000000000E+00 0.  1.
<mgrwt>
<rscale>  0 0.11880801E+04</rscale>
<asrwt>0</asrwt>
<pdfrwt beam="1">  1        1 0.22146328E+00 0.11880801E+04</pdfrwt>
<pdfrwt beam="2">  1       -2 0.37714033E-01 0.11880801E+04</pdfrwt>
<totfact> 0.41548097E+01</totfact>
</mgrwt>
</event>
<event>
12    4  0.4183215E-008  0.2349670E+04  0.7818608E-02  0.8458591E-01
         -2   -1    0    0    0  501 -0.00000000000E+00  0.00000000000E+00  0.82916342632E+03  0.82916342632E+03  0.00000000000E+00 0.  1.
          1   -1    0    0  501    0  0.00000000000E+00 -0.00000000000E+00 -0.16646136708E+04  0.16646136708E+04  0.00000000000E+00 0. -1.
        -24    2    1    2    0    0 -0.29197597320E+03 -0.50784100578E+03 -0.12215064762E+04  0.13570702777E+04  0.80057549787E+02 0.  0.
        254    2    1    2    0    0  0.29197597320E+03  0.50784100578E+03  0.38605623169E+03  0.11367068194E+04  0.89437717052E+03 0.  0.
         23    2    4    4    0    0  0.35117373065E+03  0.64070973332E+03  0.53475677369E+03  0.91007736930E+03  0.91891564445E+02 0.  0.
         23    2    4    4    0    0 -0.59197757449E+02 -0.13286872755E+03 -0.14870054200E+03  0.22662945010E+03  0.89947669298E+02 0.  0.
          3    1    3    3  502    0 -0.16773773057E+03 -0.36629408851E+03 -0.82631855253E+03  0.91929845849E+03  0.00000000000E+00 0. -1.
         -2    1    3    3    0  502 -0.12423824263E+03 -0.14154691727E+03 -0.39518792364E+03  0.43777181922E+03  0.00000000000E+00 0.  1.
         11    1    5    5    0    0  0.23536385929E+03  0.34991902572E+03  0.33714448972E+03  0.53991284276E+03  0.00000000000E+00 0.  1.
        -11    1    5    5    0    0  0.11580987136E+03  0.29079070760E+03  0.19761228397E+03  0.37016452654E+03  0.00000000000E+00 0. -1.
          2    1    6    6  503    0 -0.41359227659E+02 -0.29092679065E+02 -0.84775674224E+01  0.51272203358E+02  0.00000000000E+00 0. -1.
         -2    1    6    6    0  503 -0.17838529790E+02 -0.10377604848E+03 -0.14022297458E+03  0.17535724674E+03  0.00000000000E+00 0.  1.
<mgrwt>
<rscale>  0 0.23496696E+04</rscale>
<asrwt>0</asrwt>
<pdfrwt beam="1">  1        1 0.25609441E+00 0.23496696E+04</pdfrwt>
<pdfrwt beam="2">  1       -2 0.12756360E+00 0.23496696E+04</pdfrwt>
<totfact> 0.18146293E+00</totfact>
</mgrwt>
</event>
<event>
12    4  0.4183215E-008  0.1368312E+04  0.7818608E-02  0.8977081E-01
         -2   -1    0    0    0  501 -0.00000000000E+00  0.00000000000E+00  0.19781161429E+03  0.19781161429E+03  0.00000000000E+00 0.  1.
          1   -1    0    0  501    0  0.00000000000E+00 -0.00000000000E+00 -0.23662385054E+04  0.23662385054E+04  0.00000000000E+00 0. -1.
        -24    2    1    2    0    0 -0.98533326424E+02  0.80127623910E+02  0.53140735594E+02  0.15999212135E+03  0.81512505705E+02 0.  0.
        254    2    1    2    0    0  0.98533326424E+02 -0.80127623910E+02 -0.22215676267E+04  0.24040579984E+04  0.90994663954E+03 0.  0.
         23    2    4    4    0    0  0.11180017056E+03 -0.27038480882E+03 -0.18968050402E+03  0.36129946858E+03  0.94611782650E+02 0.  0.
         23    2    4    4    0    0 -0.13266844139E+02  0.19025718491E+03 -0.20318871227E+04  0.20427585298E+04  0.89013066187E+02 0.  0.
          1    1    3    3  502    0 -0.60974795221E+02  0.73349015686E+02  0.10160041388E+01  0.95388867374E+02  0.00000000000E+00 0. -1.
         -2    1    3    3    0  502 -0.37558531203E+02  0.67786082236E+01  0.52124731456E+02  0.64603253981E+02  0.00000000000E+00 0.  1.
         11    1    5    5    0    0  0.57556651260E+02 -0.11421702328E+03 -0.29820422076E+02  0.13132994359E+03  0.00000000000E+00 0. -1.
        -11    1    5    5    0    0  0.54243519303E+02 -0.15616778554E+03 -0.15986008194E+03  0.22996952499E+03  0.00000000000E+00 0.  1.
          3    1    6    6  503    0  0.79370401378E+01  0.67529270942E+02 -0.11635529108E+04  0.11655378910E+04  0.00000000000E+00 0. -1.
         -3    1    6    6    0  503 -0.21203884276E+02  0.12272791397E+03 -0.86833421188E+03  0.87722063878E+03  0.00000000000E+00 0.  1.
<mgrwt>
<rscale>  0 0.13683120E+04</rscale>
<asrwt>0</asrwt>
<pdfrwt beam="1">  1        1 0.36403670E+00 0.13683120E+04</pdfrwt>
<pdfrwt beam="2">  1       -2 0.30432555E-01 0.13683120E+04</pdfrwt>
<totfact> 0.14402342E+01</totfact>
</mgrwt>
</event>
<event>
12    4  0.4183215E-008  0.1503988E+04  0.7818608E-02  0.8881805E-01
         -2   -1    0    0    0  501 -0.00000000000E+00  0.00000000000E+00  0.58064076468E+03  0.58064076468E+03  0.00000000000E+00 0.  1.
          1   -1    0    0  501    0  0.00000000000E+00 -0.00000000000E+00 -0.97391528545E+03  0.97391528545E+03  0.00000000000E+00 0. -1.
        -24    2    1    2    0    0  0.10948128961E+03 -0.22699829881E+03 -0.54638840575E+03  0.60738696216E+03  0.82850778103E+02 0.  0.
        254    2    1    2    0    0 -0.10948128961E+03  0.22699829881E+03  0.15311388498E+03  0.94716908796E+03  0.90009501664E+03 0.  0.
         23    2    4    4    0    0  0.92825681446E+02  0.50124455854E+03  0.25858643014E+03  0.57872856257E+03  0.90537796943E+02 0.  0.
         23    2    4    4    0    0 -0.20230697106E+03 -0.27424625973E+03 -0.10547254516E+03  0.36844052539E+03  0.92113199115E+02 0.  0.
          3    1    3    3  502    0  0.12178947158E+03 -0.20479455742E+03 -0.51113726365E+03  0.56394573181E+03  0.00000000000E+00 0. -1.
         -4    1    3    3    0  502 -0.12308181972E+02 -0.22203741390E+02 -0.35251142094E+02  0.43441230347E+02  0.00000000000E+00 0.  1.
         11    1    5    5    0    0  0.73525931771E+02  0.48363738037E+03  0.23187667131E+03  0.54136676019E+03  0.00000000000E+00 0. -1.
        -11    1    5    5    0    0  0.19299749675E+02  0.17607178173E+02  0.26709758827E+02  0.37361802383E+02  0.00000000000E+00 0.  1.
          2    1    6    6  503    0 -0.17418922022E+03 -0.26423724551E+03 -0.11557888286E+03  0.33692979167E+03  0.00000000000E+00 0. -1.
         -2    1    6    6    0  503 -0.28117750836E+02 -0.10009014229E+02  0.10106337696E+02  0.31510733720E+02  0.00000000000E+00 0.  1.
<mgrwt>
<rscale>  0 0.15039879E+04</rscale>
<asrwt>0</asrwt>
<pdfrwt beam="1">  1        1 0.14983312E+00 0.15039879E+04</pdfrwt>
<pdfrwt beam="2">  1       -2 0.89329348E-01 0.15039879E+04</pdfrwt>
<totfact> 0.14459734E+01</totfact>
</mgrwt>
</event>
<event>
12    4  0.4183215E-008  0.2117700E+04  0.7818608E-02  0.8553486E-01
          1   -1    0    0  501    0  0.00000000000E+00  0.00000000000E+00  0.29958168856E+04  0.29958168856E+04  0.00000000000E+00 0. -1.
         -2   -1    0    0    0  501 -0.00000000000E+00 -0.00000000000E+00 -0.37424306367E+03  0.37424306367E+03  0.00000000000E+00 0.  1.
        -24    2    1    2    0    0 -0.47532349351E+03 -0.71508165366E+03  0.99773828257E+03  0.13188992267E+04  0.82093208084E+02 0.  0.
        254    2    1    2    0    0  0.47532349351E+03  0.71508165366E+03  0.16238355394E+04  0.20511607226E+04  0.91276736140E+03 0.  0.
         23    2    4    4    0    0  0.42259027532E+03  0.29248720925E+03  0.15149794387E+04  0.16022349471E+04  0.88672530338E+02 0.  0.
         23    2    4    4    0    0  0.52733218197E+02  0.42259444441E+03  0.10885610067E+03  0.44892577548E+03  0.91202217598E+02 0.  0.
          3    1    3    3  502    0 -0.23849823188E+03 -0.30804487777E+03  0.40657003078E+03  0.56309168282E+03  0.00000000000E+00 0. -1.
         -4    1    3    3    0  502 -0.23682526164E+03 -0.40703677589E+03  0.59116825179E+03  0.75580754389E+03  0.00000000000E+00 0.  1.
         11    1    5    5    0    0  0.58523590585E+02  0.81444118646E+02  0.31790043092E+03  0.33334492511E+03  0.00000000000E+00 0.  1.
        -11    1    5    5    0    0  0.36406668473E+03  0.21104309060E+03  0.11970790078E+04  0.12688900220E+04  0.00000000000E+00 0. -1.
          2    1    6    6  503    0  0.76411664915E+02  0.35589714356E+03  0.10071255714E+03  0.37768311916E+03  0.00000000000E+00 0. -1.
         -2    1    6    6    0  503 -0.23678446718E+02  0.66697300845E+02  0.81435435251E+01  0.71242656325E+02  0.00000000000E+00 0.  1.
<mgrwt>
<rscale>  0 0.21177003E+04</rscale>
<asrwt>0</asrwt>
<pdfrwt beam="1">  1        1 0.46089489E+00 0.21177003E+04</pdfrwt>
<pdfrwt beam="2">  1       -2 0.57575858E-01 0.21177003E+04</pdfrwt>
<totfact> 0.13740391E+00</totfact>
</mgrwt>
</event>
<event>
12    4  0.4183215E-008  0.1422820E+04  0.7818608E-02  0.8937464E-01
          1   -1    0    0  501    0  0.00000000000E+00  0.00000000000E+00  0.38409810889E+04  0.38409810889E+04  0.00000000000E+00 0. -1.
         -2   -1    0    0    0  501 -0.00000000000E+00 -0.00000000000E+00 -0.13176436945E+03  0.13176436945E+03  0.00000000000E+00 0.  1.
        -24    2    1    2    0    0  0.37531718264E+03 -0.83757336409E+02  0.15672147529E+04  0.16156213099E+04  0.78688348858E+02 0.  0.
        254    2    1    2    0    0 -0.37531718264E+03  0.83757336409E+02  0.21420019665E+04  0.23571241485E+04  0.90552942946E+03 0.  0.
         23    2    4    4    0    0  0.81575477112E+02  0.21978616781E+02  0.17241231253E+04  0.17286782429E+04  0.92683862093E+02 0.  0.
         23    2    4    4    0    0 -0.45689265975E+03  0.61778719629E+02  0.41787884125E+03  0.62844590555E+03  0.88056899233E+02 0.  0.
          1    1    3    3  502    0  0.36436585255E+03 -0.83223438168E+02  0.15546511395E+04  0.15989461469E+04  0.00000000000E+00 0. -1.
         -2    1    3    3    0  502  0.10951330094E+02 -0.53389824179E+00  0.12563613351E+02  0.16675162925E+02  0.00000000000E+00 0.  1.
         11    1    5    5    0    0  0.63212421804E+02  0.54146715817E+02  0.93892096077E+03  0.94260291092E+03  0.00000000000E+00 0.  1.
        -11    1    5    5    0    0  0.18363055308E+02 -0.32168099036E+02  0.78520216452E+03  0.78607533199E+03  0.00000000000E+00 0. -1.
          3    1    6    6  503    0 -0.56024392866E+02  0.26248748723E+02  0.90692273931E+02  0.10978532669E+03  0.00000000000E+00 0. -1.
         -3    1    6    6    0  503 -0.40086826689E+03  0.35529970906E+02  0.32718656731E+03  0.51866057886E+03  0.00000000000E+00 0.  1.
<mgrwt>
<rscale>  0 0.14228204E+04</rscale>
<asrwt>0</asrwt>
<pdfrwt beam="1">  1        1 0.59092008E+00 0.14228204E+04</pdfrwt>
<pdfrwt beam="2">  1       -2 0.20271444E-01 0.14228204E+04</pdfrwt>
<totfact> 0.23944627E+00</totfact>
</mgrwt>
</event>
<event>
12    4  0.4183215E-008  0.1733366E+04  0.7818608E-02  0.8742560E-01
         -2   -1    0    0    0  501 -0.00000000000E+00  0.00000000000E+00  0.14084035827E+04  0.14084035827E+04  0.00000000000E+00 0.  1.
          1   -1    0    0  501    0  0.00000000000E+00 -0.00000000000E+00 -0.53332693961E+03  0.53332693961E+03  0.00000000000E+00 0. -1.
        -24    2    1    2    0    0  0.56563371656E+03 -0.28405733082E+03  0.12466195898E+03  0.65361493205E+03  0.10508000231E+03 0.  0.
        254    2    1    2    0    0 -0.56563371656E+03  0.28405733082E+03  0.75041468414E+03  0.12881155903E+04  0.83396013529E+03 0.  0.
         23    2    4    4    0    0 -0.43709660675E+03  0.33694948272E+03  0.90386168342E+03  0.10629963349E+04  0.91688973191E+02 0.  0.
         23    2    4    4    0    0 -0.12853710981E+03 -0.52892151902E+02 -0.15344699928E+03  0.22511925534E+03  0.88393038212E+02 0.  0.
          1    1    3    3  502    0  0.55098250738E+03 -0.25386648598E+03  0.12759901678E+03  0.61992856462E+03  0.00000000000E+00 0. -1.
         -2    1    3    3    0  502  0.14651209176E+02 -0.30190844841E+02 -0.29370577990E+01  0.33686367436E+02  0.00000000000E+00 0.  1.
         11    1    5    5    0    0 -0.12159319869E+03  0.53924565983E+02  0.26180760066E+03  0.29365964065E+03  0.00000000000E+00 0.  1.
        -11    1    5    5    0    0 -0.31550340806E+03  0.28302491674E+03  0.64205408276E+03  0.76933669429E+03  0.00000000000E+00 0. -1.
          3    1    6    6  503    0 -0.12512282826E+03 -0.59367845367E+02 -0.99138126267E+02  0.17031920413E+03  0.00000000000E+00 0. -1.
         -3    1    6    6    0  503 -0.34142815500E+01  0.64756934647E+01 -0.54308873018E+02  0.54800051212E+02  0.00000000000E+00 0.  1.
<mgrwt>
<rscale>  0 0.17333662E+04</rscale>
<asrwt>0</asrwt>
<pdfrwt beam="1">  1        1 0.82050299E-01 0.17333662E+04</pdfrwt>
<pdfrwt beam="2">  1       -2 0.21667747E+00 0.17333662E+04</pdfrwt>
<totfact> 0.34881114E+00</totfact>
</mgrwt>
</event>
<event>
12    4  0.4183215E-008  0.1382013E+04  0.7818608E-02  0.8966942E-01
         -2   -1    0    0    0  501 -0.00000000000E+00  0.00000000000E+00  0.10741477586E+04  0.10741477586E+04  0.00000000000E+00 0.  1.
          1   -1    0    0  501    0  0.00000000000E+00 -0.00000000000E+00 -0.44452919214E+03  0.44452919214E+03  0.00000000000E+00 0. -1.
        -24    2    1    2    0    0  0.15602296606E+02 -0.19527865213E+03 -0.19130252357E+03  0.28391619967E+03  0.75063768042E+02 0.  0.
        254    2    1    2    0    0 -0.15602296606E+02  0.19527865213E+03  0.82092109000E+03  0.12347607510E+04  0.90130210954E+03 0.  0.
         23    2    4    4    0    0 -0.22938453034E+03  0.33999235195E+03  0.86120040049E+03  0.95829191891E+03  0.91897823115E+02 0.  0.
         23    2    4    4    0    0  0.21378223374E+03 -0.14471369982E+03 -0.40279310484E+02  0.27646883213E+03  0.90375294797E+02 0.  0.
          3    1    3    3  502    0 -0.14045945561E+02 -0.16217895167E+03 -0.16723165311E+03  0.23337893383E+03  0.00000000000E+00 0. -1.
         -2    1    3    3    0  502  0.29648242167E+02 -0.33099700458E+02 -0.24070870458E+02  0.50537265840E+02  0.00000000000E+00 0.  1.
         11    1    5    5    0    0 -0.22184765914E+02  0.92262756970E+02  0.15486897388E+03  0.18162868505E+03  0.00000000000E+00 0.  1.
        -11    1    5    5    0    0 -0.20719976443E+03  0.24772959498E+03  0.70633142661E+03  0.77666323386E+03  0.00000000000E+00 0. -1.
          4    1    6    6  503    0  0.19152822621E+03 -0.90572554182E+02 -0.48536948674E+02  0.21735290288E+03  0.00000000000E+00 0. -1.
         -4    1    6    6    0  503  0.22254007529E+02 -0.54141145642E+02  0.82576381901E+01  0.59115929249E+02  0.00000000000E+00 0.  1.
<mgrwt>
<rscale>  0 0.13820131E+04</rscale>
<asrwt>0</asrwt>
<pdfrwt beam="1">  1        1 0.68389107E-01 0.13820131E+04</pdfrwt>
<pdfrwt beam="2">  1       -2 0.16525350E+00 0.13820131E+04</pdfrwt>
<totfact> 0.10233347E+01</totfact>
</mgrwt>
</event>
<event>
12    4  0.4183215E-008  0.1995645E+04  0.7818608E-02  0.8608660E-01
          1   -1    0    0  501    0  0.00000000000E+00  0.00000000000E+00  0.19085793008E+04  0.19085793008E+04  0.00000000000E+00 0. -1.
         -2   -1    0    0    0  501 -0.00000000000E+00 -0.00000000000E+00 -0.52167042295E+03  0.52167042295E+03  0.00000000000E+00 0.  1.
        -24    2    1    2    0    0  0.56444429071E+03  0.34210902660E+03  0.10875218327E+04  0.12747589582E+04  0.81674485458E+02 0.  0.
        254    2    1    2    0    0 -0.56444429071E+03 -0.34210902660E+03  0.29938704515E+03  0.11554907655E+04  0.89993908852E+03 0.  0.
         23    2    4    4    0    0 -0.56203450490E+03 -0.54850872784E+03  0.42379583252E+03  0.89705663735E+03  0.91449952041E+02 0.  0.
         23    2    4    4    0    0 -0.24097858034E+01  0.20639970124E+03 -0.12440878737E+03  0.25843412819E+03  0.93295275869E+02 0.  0.
          1    1    3    3  502    0  0.38791969505E+03  0.21414587641E+03  0.66157372491E+03  0.79625369053E+03  0.00000000000E+00 0. -1.
         -2    1    3    3    0  502  0.17652459566E+03  0.12796315018E+03  0.42594810781E+03  0.47850526771E+03  0.00000000000E+00 0.  1.
         11    1    5    5    0    0 -0.31990370975E+03 -0.30768315770E+03  0.18783428031E+03  0.48196371846E+03  0.00000000000E+00 0.  1.
        -11    1    5    5    0    0 -0.24213079515E+03 -0.24082557014E+03  0.23596155221E+03  0.41509291889E+03  0.00000000000E+00 0. -1.
          4    1    6    6  503    0  0.22688872398E+01  0.31468113536E+01  0.12657519872E+02  0.13238696322E+02  0.00000000000E+00 0. -1.
         -4    1    6    6    0  503 -0.46786730432E+01  0.20325288989E+03 -0.13706630724E+03  0.24519543187E+03  0.00000000000E+00 0.  1.
<mgrwt>
<rscale>  0 0.19956446E+04</rscale>
<asrwt>0</asrwt>
<pdfrwt beam="1">  1        1 0.29362758E+00 0.19956446E+04</pdfrwt>
<pdfrwt beam="2">  1       -2 0.80256989E-01 0.19956446E+04</pdfrwt>
<totfact> 0.38444360E+00</totfact>
</mgrwt>
</event>
<event>
12    4  0.4183215E-008  0.1087238E+04  0.7818608E-02  0.9217720E-01
          1   -1    0    0  501    0  0.00000000000E+00  0.00000000000E+00  0.20804920370E+03  0.20804920370E+03  0.00000000000E+00 0. -1.
         -2   -1    0    0    0  501 -0.00000000000E+00 -0.00000000000E+00 -0.14204420605E+04  0.14204420605E+04  0.00000000000E+00 0.  1.
        -24    2    1    2    0    0 -0.33933060250E+02  0.14546014519E+03 -0.15803447857E+03  0.23188800234E+03  0.80542180224E+02 0.  0.
        254    2    1    2    0    0  0.33933060250E+02 -0.14546014519E+03 -0.10543583782E+04  0.13966032619E+04  0.90361439501E+03 0.  0.
         23    2    4    4    0    0 -0.47600817985E+02  0.35353894908E+03 -0.26162808529E+03  0.45223021267E+03  0.93847130212E+02 0.  0.
         23    2    4    4    0    0  0.81533878235E+02 -0.49899909427E+03 -0.79273029294E+03  0.94437304918E+03  0.88154803058E+02 0.  0.
          1    1    3    3  502    0 -0.18504496508E+02  0.12926110765E+03 -0.85741431481E+02  0.15621281450E+03  0.00000000000E+00 0. -1.
         -2    1    3    3    0  502 -0.15428563742E+02  0.16199037534E+02 -0.72293047090E+02  0.75675187834E+02  0.00000000000E+00 0.  1.
         11    1    5    5    0    0  0.26342588703E+02  0.13784029280E+03 -0.11132025931E+03  0.17912587315E+03  0.00000000000E+00 0. -1.
        -11    1    5    5    0    0 -0.73943406688E+02  0.21569865628E+03 -0.15030782598E+03  0.27310433952E+03  0.00000000000E+00 0.  1.
          1    1    6    6  503    0  0.20479446004E+02 -0.16024847230E+03 -0.18228199994E+03  0.24356869275E+03  0.00000000000E+00 0. -1.
         -1    1    6    6    0  503  0.61054432231E+02 -0.33875062197E+03 -0.61044829300E+03  0.70080435644E+03  0.00000000000E+00 0.  1.
<mgrwt>
<rscale>  0 0.10872384E+04</rscale>
<asrwt>0</asrwt>
<pdfrwt beam="1">  1        1 0.32007571E-01 0.10872384E+04</pdfrwt>
<pdfrwt beam="2">  1       -2 0.21852954E+00 0.10872384E+04</pdfrwt>
<totfact> 0.12418102E+01</totfact>
</mgrwt>
</event>
<event>
12    4  0.4183215E-008  0.1822164E+04  0.7818608E-02  0.8694601E-01
         -2   -1    0    0    0  501 -0.00000000000E+00  0.00000000000E+00  0.44339930660E+03  0.44339930660E+03  0.00000000000E+00 0.  1.
          1   -1    0    0  501    0  0.00000000000E+00 -0.00000000000E+00 -0.18720603165E+04  0.18720603165E+04  0.00000000000E+00 0. -1.
        -24    2    1    2    0    0 -0.26664742243E+02 -0.47766775447E+02 -0.14121380843E+04  0.14154291409E+04  0.79454456443E+02 0.  0.
        254    2    1    2    0    0  0.26664742243E+02  0.47766775447E+02 -0.16522925616E+02  0.90003048214E+03  0.89821444455E+03 0.  0.
         23    2    4    4    0    0 -0.35448720997E+03 -0.13621516380E+03  0.16757555083E+03  0.42718739172E+03  0.10095419519E+03 0.  0.
         23    2    4    4    0    0  0.38115195222E+03  0.18398193925E+03 -0.18409847644E+03  0.47284309042E+03  0.10277244030E+03 0.  0.
          3    1    3    3  502    0 -0.31872099262E+02 -0.27282883588E+02 -0.13284867017E+04  0.13291490146E+04  0.00000000000E+00 0. -1.
         -4    1    3    3    0  502  0.52073570191E+01 -0.20483891859E+02 -0.83651382591E+02  0.86280126345E+02  0.00000000000E+00 0.  1.
         11    1    5    5    0    0 -0.15290904048E+03 -0.10263158919E+03  0.47582527916E+02  0.19020650547E+03  0.00000000000E+00 0. -1.
        -11    1    5    5    0    0 -0.20157816949E+03 -0.33583574608E+02  0.11999302291E+03  0.23698088625E+03  0.00000000000E+00 0.  1.
          2    1    6    6  503    0  0.22444955161E+03  0.71215285841E+02 -0.14287516504E+03  0.27543153585E+03  0.00000000000E+00 0.  1.
         -2    1    6    6    0  503  0.15670240061E+03  0.11276665341E+03 -0.41223311405E+02  0.19741155457E+03  0.00000000000E+00 0. -1.
<mgrwt>
<rscale>  0 0.18221638E+04</rscale>
<asrwt>0</asrwt>
<pdfrwt beam="1">  1        1 0.28800928E+00 0.18221638E+04</pdfrwt>
<pdfrwt beam="2">  1       -2 0.68215277E-01 0.18221638E+04</pdfrwt>
<totfact> 0.59188774E+00</totfact>
</mgrwt>
</event>
<event>
12    4  0.4183215E-008  0.2167396E+04  0.7818608E-02  0.8532123E-01
          1   -1    0    0  501    0  0.00000000000E+00  0.00000000000E+00  0.30646160565E+04  0.30646160565E+04  0.00000000000E+00 0. -1.
         -2   -1    0    0    0  501 -0.00000000000E+00 -0.00000000000E+00 -0.38321307248E+03  0.38321307248E+03  0.00000000000E+00 0.  1.
        -24    2    1    2    0    0  0.87369885463E+03  0.44597480333E+02  0.14096219202E+04  0.16608743088E+04  0.78299985918E+02 0.  0.
        254    2    1    2    0    0 -0.87369885463E+03 -0.44597480333E+02  0.12717810638E+04  0.17869548202E+04  0.90024542843E+03 0.  0.
         23    2    4    4    0    0 -0.94822343255E+03  0.13471470391E+03  0.12425744355E+04  0.15715117148E+04  0.91553877901E+02 0.  0.
         23    2    4    4    0    0  0.74524577927E+02 -0.17931218424E+03  0.29206628329E+02  0.21544310541E+03  0.88633697882E+02 0.  0.
          1    1    3    3  502    0  0.24689939853E+03 -0.10848224879E+02  0.34908895165E+03  0.42771496717E+03  0.00000000000E+00 0. -1.
         -2    1    3    3    0  502  0.62679945609E+03  0.55445705212E+02  0.10605329686E+04  0.12331593416E+04  0.00000000000E+00 0.  1.
         11    1    5    5    0    0 -0.27499606947E+03  0.39500973019E+02  0.29487751146E+03  0.40513690508E+03  0.00000000000E+00 0.  1.
        -11    1    5    5    0    0 -0.67322736308E+03  0.95213730888E+02  0.94769692403E+03  0.11663748097E+04  0.00000000000E+00 0. -1.
          4    1    6    6  503    0  0.48981269306E+02 -0.43037726718E+02  0.39801953329E+02  0.76391139229E+02  0.00000000000E+00 0.  1.
         -4    1    6    6    0  503  0.25543308621E+02 -0.13627445752E+03 -0.10595325001E+02  0.13905196619E+03  0.00000000000E+00 0. -1.
<mgrwt>
<rscale>  0 0.21673956E+04</rscale>
<asrwt>0</asrwt>
<pdfrwt beam="1">  1        1 0.47147938E+00 0.21673956E+04</pdfrwt>
<pdfrwt beam="2">  1       -2 0.58955859E-01 0.21673956E+04</pdfrwt>
<totfact> 0.11589208E+00</totfact>
</mgrwt>
</event>
<event>
12    4  0.4183215E-008  0.3246413E+04  0.7818608E-02  0.8176666E-01
          1   -1    0    0  501    0  0.00000000000E+00  0.00000000000E+00  0.21261639289E+04  0.21261639289E+04  0.00000000000E+00 0. -1.
         -2   -1    0    0    0  501 -0.00000000000E+00 -0.00000000000E+00 -0.12392265088E+04  0.12392265088E+04  0.00000000000E+00 0.  1.
        -24    2    1    2    0    0 -0.56468040008E+03  0.79275027150E+03  0.15801377579E+04  0.18576100323E+04  0.81010806028E+02 0.  0.
        254    2    1    2    0    0  0.56468040008E+03 -0.79275027150E+03 -0.69320033788E+03  0.15077804054E+04  0.91954232928E+03 0.  0.
         23    2    4    4    0    0  0.64508331238E+03 -0.13822342755E+03 -0.26432656041E+03  0.71648053475E+03  0.90761392137E+02 0.  0.
         23    2    4    4    0    0 -0.80402912300E+02 -0.65452684395E+03 -0.42887377747E+03  0.79129987067E+03  0.85748181068E+02 0.  0.
          1    1    3    3  502    0 -0.30641748218E+03  0.39821835345E+03  0.88346355596E+03  0.10163549504E+04  0.00000000000E+00 0. -1.
         -2    1    3    3    0  502 -0.25826291791E+03  0.39453191805E+03  0.69667420199E+03  0.84125508192E+03  0.00000000000E+00 0.  1.
         11    1    5    5    0    0  0.37958182732E+03 -0.51865760048E+02 -0.18961047092E+03  0.42746292398E+03  0.00000000000E+00 0. -1.
        -11    1    5    5    0    0  0.26550148507E+03 -0.86357667498E+02 -0.74716089489E+02  0.28901761077E+03  0.00000000000E+00 0.  1.
          1    1    6    6  503    0 -0.86456530810E+02 -0.40674047616E+03 -0.29251478352E+03  0.50840677144E+03  0.00000000000E+00 0.  1.
         -1    1    6    6    0  503  0.60536185097E+01 -0.24778636779E+03 -0.13635899395E+03  0.28289309923E+03  0.00000000000E+00 0. -1.
<mgrwt>
<rscale>  0 0.32464126E+04</rscale>
<asrwt>0</asrwt>
<pdfrwt beam="1">  1        1 0.32710214E+00 0.32464126E+04</pdfrwt>
<pdfrwt beam="2">  1       -2 0.19065023E+00 0.32464126E+04</pdfrwt>
<totfact> 0.27508773E-01</totfact>
</mgrwt>
</event>
<event>
12    4  0.4183215E-008  0.1252964E+04  0.7818608E-02  0.9067720E-01
          3   -1    0    0  501    0  0.00000000000E+00  0.00000000000E+00  0.88162067016E+03  0.88162067016E+03  0.00000000000E+00 0. -1.
         -4   -1    0    0    0  501 -0.00000000000E+00 -0.00000000000E+00 -0.44518005434E+03  0.44518005434E+03  0.00000000000E+00 0.  1.
        -24    2    1    2    0    0  0.21612735621E+03  0.17194611515E+03  0.24184612775E+03  0.37614943392E+03  0.81989917135E+02 0.  0.
        254    2    1    2    0    0 -0.21612735621E+03 -0.17194611515E+03  0.19459448807E+03  0.95065129059E+03  0.88859122260E+03 0.  0.
         23    2    4    4    0    0 -0.24203721432E+03  0.12092658477E+03 -0.27001840700E+03  0.39312514749E+03  0.91826953818E+02 0.  0.
         23    2    4    4    0    0  0.25909858108E+02 -0.29287269992E+03  0.46461289507E+03  0.55752614310E+03  0.92328321029E+02 0.  0.
          3    1    3    3  502    0  0.18145058626E+02  0.22932148687E+02  0.66334922913E+02  0.72494472850E+02  0.00000000000E+00 0. -1.
         -4    1    3    3    0  502  0.19798229759E+03  0.14901396646E+03  0.17551120483E+03  0.30365496107E+03  0.00000000000E+00 0.  1.
         11    1    5    5    0    0  0.59572161113E+01 -0.47460277530E+01 -0.57149812006E+01  0.95223008434E+01  0.00000000000E+00 0.  1.
        -11    1    5    5    0    0 -0.24799443043E+03  0.12567261252E+03 -0.26430342580E+03  0.38360284665E+03  0.00000000000E+00 0. -1.
          3    1    6    6  503    0 -0.72473818503E+01 -0.26271483831E+03  0.40797453020E+03  0.48529869988E+03  0.00000000000E+00 0. -1.
         -3    1    6    6    0  503  0.33157239959E+02 -0.30157861611E+02  0.56638364873E+02  0.72227443220E+02  0.00000000000E+00 0.  1.
<mgrwt>
<rscale>  0 0.12529644E+04</rscale>
<asrwt>0</asrwt>
<pdfrwt beam="1">  1        3 0.13563395E+00 0.12529644E+04</pdfrwt>
<pdfrwt beam="2">  1       -4 0.68489239E-01 0.12529644E+04</pdfrwt>
<totfact> 0.18505718E+00</totfact>
</mgrwt>
</event>
<event>
12    4  0.4183215E-008  0.1190145E+04  0.7818608E-02  0.9121527E-01
         -2   -1    0    0    0  501 -0.00000000000E+00  0.00000000000E+00  0.46764506253E+03  0.46764506253E+03  0.00000000000E+00 0.  1.
          1   -1    0    0  501    0  0.00000000000E+00 -0.00000000000E+00 -0.75722231670E+03  0.75722231670E+03  0.00000000000E+00 0. -1.
        -24    2    1    2    0    0  0.24345910475E+03 -0.53636040072E+01 -0.79390335287E+02  0.26854568393E+03  0.80702261970E+02 0.  0.
        254    2    1    2    0    0 -0.24345910475E+03  0.53636040072E+01 -0.21018691888E+03  0.95632169529E+03  0.90059510330E+03 0.  0.
         23    2    4    4    0    0  0.25853699879E+02 -0.33050071324E+03 -0.35328057467E+03  0.49348131824E+03  0.93901606858E+02 0.  0.
         23    2    4    4    0    0 -0.26931280463E+03  0.33586431725E+03  0.14309365579E+03  0.46284037705E+03  0.91712561644E+02 0.  0.
          1    1    3    3  502    0  0.22657346219E+03 -0.20057475981E+02 -0.88913761976E+02  0.24422017358E+03  0.00000000000E+00 0. -1.
         -2    1    3    3    0  502  0.16885642562E+02  0.14693871974E+02  0.95234266885E+01  0.24325510359E+02  0.00000000000E+00 0.  1.
         11    1    5    5    0    0  0.54914294654E+02 -0.23336252027E+03 -0.21508035457E+03  0.32207639551E+03  0.00000000000E+00 0.  1.
        -11    1    5    5    0    0 -0.29060594775E+02 -0.97138192967E+02 -0.13820022010E+03  0.17140492273E+03  0.00000000000E+00 0. -1.
          3    1    6    6  503    0 -0.14064100202E+03  0.24432570905E+03  0.10043403763E+03  0.29926900853E+03  0.00000000000E+00 0. -1.
         -3    1    6    6    0  503 -0.12867180261E+03  0.91538608193E+02  0.42659618159E+02  0.16357136852E+03  0.00000000000E+00 0.  1.
<mgrwt>
<rscale>  0 0.11901450E+04</rscale>
<asrwt>0</asrwt>
<pdfrwt beam="1">  1        1 0.11649574E+00 0.11901450E+04</pdfrwt>
<pdfrwt beam="2">  1       -2 0.71945396E-01 0.11901450E+04</pdfrwt>
<totfact> 0.36650864E+01</totfact>
</mgrwt>
</event>
<event>
12    4  0.4183215E-008  0.1351915E+04  0.7818608E-02  0.8989379E-01
          1   -1    0    0  501    0  0.00000000000E+00  0.00000000000E+00  0.10084082786E+04  0.10084082786E+04  0.00000000000E+00 0. -1.
         -2   -1    0    0    0  501 -0.00000000000E+00 -0.00000000000E+00 -0.45310891746E+03  0.45310891746E+03  0.00000000000E+00 0.  1.
        -24    2    1    2    0    0  0.19854414576E+03 -0.30846289310E+03  0.21460242524E+03  0.43246079351E+03  0.79993767045E+02 0.  0.
        254    2    1    2    0    0 -0.19854414576E+03  0.30846289310E+03  0.34069693594E+03  0.10290564026E+04  0.89906259145E+03 0.  0.
         23    2    4    4    0    0 -0.46459296075E+03  0.87020034604E+02 -0.67785088962E+02  0.48614179546E+03  0.91213603204E+02 0.  0.
         23    2    4    4    0    0  0.26604881499E+03  0.22144285849E+03  0.40848202491E+03  0.54291460714E+03  0.89887676829E+02 0.  0.
          3    1    3    3  502    0  0.76962206779E+02 -0.11069369864E+03  0.12426097591E+03  0.18334957411E+03  0.00000000000E+00 0. -1.
         -4    1    3    3    0  502  0.12158193899E+03 -0.19776919445E+03  0.90341449328E+02  0.24911121940E+03  0.00000000000E+00 0.  1.
         11    1    5    5    0    0 -0.47849198258E+02 -0.10840106349E+02 -0.27316596318E+02  0.56153807654E+02  0.00000000000E+00 0. -1.
        -11    1    5    5    0    0 -0.41674376249E+03  0.97860140953E+02 -0.40468492644E+02  0.42998798781E+03  0.00000000000E+00 0.  1.
          3    1    6    6  503    0  0.49819109338E+02  0.44488051962E+02  0.14144216158E+03  0.15641935780E+03  0.00000000000E+00 0. -1.
         -3    1    6    6    0  503  0.21622970565E+03  0.17695480653E+03  0.26703986333E+03  0.38649524934E+03  0.00000000000E+00 0.  1.
<mgrwt>
<rscale>  0 0.13519154E+04</rscale>
<asrwt>0</asrwt>
<pdfrwt beam="1">  1        1 0.15513973E+00 0.13519154E+04</pdfrwt>
<pdfrwt beam="2">  1       -2 0.69709064E-01 0.13519154E+04</pdfrwt>
<totfact> 0.23989966E+01</totfact>
</mgrwt>
</event>
<event>
12    4  0.4183215E-008  0.2056622E+04  0.7818608E-02  0.8580596E-01
         -2   -1    0    0    0  501 -0.00000000000E+00  0.00000000000E+00  0.50911766088E+03  0.50911766088E+03  0.00000000000E+00 0.  1.
          1   -1    0    0  501    0  0.00000000000E+00 -0.00000000000E+00 -0.20769737048E+04  0.20769737048E+04  0.00000000000E+00 0. -1.
        -24    2    1    2    0    0 -0.38360613618E+03  0.71398679711E+03 -0.85201935252E+03  0.11786593328E+04  0.79812477586E+02 0.  0.
        254    2    1    2    0    0  0.38360613618E+03 -0.71398679711E+03 -0.71583669143E+03  0.14074320329E+04  0.90083957743E+03 0.  0.
         23    2    4    4    0    0  0.10956377087E+03  0.18265982227E+03 -0.29567999491E+03  0.37625529583E+03  0.93661932976E+02 0.  0.
         23    2    4    4    0    0  0.27404236531E+03 -0.89664661938E+03 -0.42015669652E+03  0.10311767371E+04  0.87860317679E+02 0.  0.
          1    1    3    3  502    0 -0.36349791539E+03  0.69684419301E+03 -0.80719320772E+03  0.11266247993E+04  0.00000000000E+00 0. -1.
         -2    1    3    3    0  502 -0.20108220794E+02  0.17142604098E+02 -0.44826144800E+02  0.52034533498E+02  0.00000000000E+00 0.  1.
         11    1    5    5    0    0  0.97047673899E+02  0.75031515562E+02 -0.17925539021E+03  0.21721066791E+03  0.00000000000E+00 0.  1.
        -11    1    5    5    0    0  0.12516096970E+02  0.10762830671E+03 -0.11642460470E+03  0.15904462791E+03  0.00000000000E+00 0. -1.
          2    1    6    6  503    0  0.19534313646E+03 -0.49169404330E+03 -0.24321939761E+03  0.58230374252E+03  0.00000000000E+00 0. -1.
         -2    1    6    6    0  503  0.78699228856E+02 -0.40495257608E+03 -0.17693729891E+03  0.44887299456E+03  0.00000000000E+00 0.  1.
<mgrwt>
<rscale>  0 0.20566225E+04</rscale>
<asrwt>0</asrwt>
<pdfrwt beam="1">  1        1 0.31953442E+00 0.20566225E+04</pdfrwt>
<pdfrwt beam="2">  1       -2 0.78325794E-01 0.20566225E+04</pdfrwt>
<totfact> 0.31051346E+00</totfact>
</mgrwt>
</event>
<event>
12    4  0.4183215E-008  0.1684183E+04  0.7818608E-02  0.8770437E-01
          1   -1    0    0  501    0  0.00000000000E+00  0.00000000000E+00  0.95284650678E+03  0.95284650678E+03  0.00000000000E+00 0. -1.
         -2   -1    0    0    0  501 -0.00000000000E+00 -0.00000000000E+00 -0.74421048095E+03  0.74421048095E+03  0.00000000000E+00 0.  1.
        -24    2    1    2    0    0  0.36097376958E+03 -0.29137366489E+03 -0.30769697232E+03  0.56220398435E+03  0.78709709210E+02 0.  0.
        254    2    1    2    0    0 -0.36097376958E+03  0.29137366489E+03  0.51633299815E+03  0.11348530034E+04  0.89782565088E+03 0.  0.
         23    2    4    4    0    0 -0.10164256568E+03  0.38589546482E+03  0.68494819989E+03  0.79782599430E+03  0.90142995976E+02 0.  0.
         23    2    4    4    0    0 -0.25933120390E+03 -0.94521799929E+02 -0.16861520174E+03  0.33702700908E+03  0.94705198426E+02 0.  0.
          1    1    3    3  502    0  0.26778925685E+03 -0.18010445755E+03 -0.18388475469E+03  0.37143277281E+03  0.00000000000E+00 0. -1.
         -2    1    3    3    0  502  0.93184512734E+02 -0.11126920735E+03 -0.12381221763E+03  0.19077121154E+03  0.00000000000E+00 0.  1.
         11    1    5    5    0    0 -0.49133692668E+02  0.59439552588E+02  0.15626807614E+03  0.17426098756E+03  0.00000000000E+00 0.  1.
        -11    1    5    5    0    0 -0.52508873011E+02  0.32645591223E+03  0.52868012375E+03  0.62356500674E+03  0.00000000000E+00 0. -1.
          2    1    6    6  503    0 -0.17506068933E+03 -0.58722622753E+02 -0.16129638916E+03  0.24517568502E+03  0.00000000000E+00 0. -1.
         -2    1    6    6    0  503 -0.84270514570E+02 -0.35799177176E+02 -0.73188125864E+01  0.91851324051E+02  0.00000000000E+00 0.  1.
<mgrwt>
<rscale>  0 0.16841833E+04</rscale>
<asrwt>0</asrwt>
<pdfrwt beam="1">  1        1 0.14659177E+00 0.16841833E+04</pdfrwt>
<pdfrwt beam="2">  1       -2 0.11449392E+00 0.16841833E+04</pdfrwt>
<totfact> 0.82075048E+00</totfact>
</mgrwt>
</event>
<event>
12    4  0.4183215E-008  0.1365295E+04  0.7818608E-02  0.8979330E-01
         -2   -1    0    0    0  501 -0.00000000000E+00  0.00000000000E+00  0.19212521315E+03  0.19212521315E+03  0.00000000000E+00 0.  1.
          1   -1    0    0  501    0  0.00000000000E+00 -0.00000000000E+00 -0.24255413396E+04  0.24255413396E+04  0.00000000000E+00 0. -1.
        -24    2    1    2    0    0  0.36048440031E+03 -0.32858584305E+02 -0.76401171232E+03  0.84897965597E+03  0.77613595892E+02 0.  0.
        254    2    1    2    0    0 -0.36048440031E+03  0.32858584305E+02 -0.14694044141E+04  0.17686868968E+04  0.91546453625E+03 0.  0.
         23    2    4    4    0    0 -0.29821364865E+03 -0.26738596037E+03 -0.13750918655E+04  0.14352053094E+04  0.92249712508E+02 0.  0.
         23    2    4    4    0    0 -0.62270751663E+02  0.30024454468E+03 -0.94312548631E+02  0.33348158740E+03  0.91053166798E+02 0.  0.
          3    1    3    3  502    0  0.11303354303E+03 -0.12161087483E+02 -0.16337325122E+03  0.19903590911E+03  0.00000000000E+00 0. -1.
         -4    1    3    3    0  502  0.24745085728E+03 -0.20697496822E+02 -0.60063846110E+03  0.64994374687E+03  0.00000000000E+00 0.  1.
         11    1    5    5    0    0 -0.26752251760E+03 -0.27000651976E+03 -0.12624574190E+04  0.13184348876E+04  0.00000000000E+00 0.  1.
        -11    1    5    5    0    0 -0.30691131045E+02  0.26205593858E+01 -0.11263444654E+03  0.11677042178E+03  0.00000000000E+00 0. -1.
          2    1    6    6  503    0 -0.75985561815E+02  0.29385827225E+03 -0.83230559754E+02  0.31472816183E+03  0.00000000000E+00 0.  1.
         -2    1    6    6    0  503  0.13714810152E+02  0.63862724285E+01 -0.11081988877E+02  0.18753425567E+02  0.00000000000E+00 0. -1.
<mgrwt>
<rscale>  0 0.13652951E+04</rscale>
<asrwt>0</asrwt>
<pdfrwt beam="1">  1        1 0.37316022E+00 0.13652951E+04</pdfrwt>
<pdfrwt beam="2">  1       -2 0.29557724E-01 0.13652951E+04</pdfrwt>
<totfact> 0.13851898E+01</totfact>
</mgrwt>
</event>
<event>
12    4  0.4183215E-008  0.1841323E+04  0.7818608E-02  0.8684628E-01
         -2   -1    0    0    0  501 -0.00000000000E+00  0.00000000000E+00  0.20406274247E+04  0.20406274247E+04  0.00000000000E+00 0.  1.
          1   -1    0    0  501    0  0.00000000000E+00 -0.00000000000E+00 -0.41537095649E+03  0.41537095649E+03  0.00000000000E+00 0. -1.
        -24    2    1    2    0    0 -0.11183276457E+03 -0.23719728469E+03 -0.24412726145E+03  0.36794504825E+03  0.83763474457E+02 0.  0.
        254    2    1    2    0    0  0.11183276457E+03  0.23719728469E+03  0.18693837296E+04  0.20880533329E+04  0.89252567097E+03 0.  0.
         23    2    4    4    0    0  0.83888281380E+02  0.39992659230E+03  0.32001355754E+03  0.52651806061E+03  0.88510271455E+02 0.  0.
         23    2    4    4    0    0  0.27944483186E+02 -0.16272930761E+03  0.15493701721E+04  0.15615352723E+04  0.10287251703E+03 0.  0.
          1    1    3    3  502    0 -0.46736074357E+02 -0.28229024682E+02 -0.66649087942E+02  0.86158223080E+02  0.00000000000E+00 0. -1.
         -2    1    3    3    0  502 -0.65096690208E+02 -0.20896826001E+03 -0.17747817351E+03  0.28178682517E+03  0.00000000000E+00 0.  1.
         11    1    5    5    0    0 -0.42609621142E+01  0.12476288117E+03  0.13262146905E+03  0.18213288107E+03  0.00000000000E+00 0. -1.
        -11    1    5    5    0    0  0.88149243494E+02  0.27516371113E+03  0.18739208849E+03  0.34438517953E+03  0.00000000000E+00 0.  1.
          1    1    6    6  503    0  0.64904519044E+02 -0.74094997721E+02  0.78035480567E+03  0.78654706663E+03  0.00000000000E+00 0. -1.
         -1    1    6    6    0  503 -0.36960035858E+02 -0.88634309889E+02  0.76901536643E+03  0.77498820569E+03  0.00000000000E+00 0.  1.
<mgrwt>
<rscale>  0 0.18413227E+04</rscale>
<asrwt>0</asrwt>
<pdfrwt beam="1">  1        1 0.63903225E-01 0.18413227E+04</pdfrwt>
<pdfrwt beam="2">  1       -2 0.31394267E+00 0.18413227E+04</pdfrwt>
<totfact> 0.12269461E+00</totfact>
</mgrwt>
</event>
<event>
12    4  0.4183215E-008  0.1914918E+04  0.7818608E-02  0.8647466E-01
          1   -1    0    0  501    0  0.00000000000E+00  0.00000000000E+00  0.23886707117E+04  0.23886707117E+04  0.00000000000E+00 0. -1.
         -2   -1    0    0    0  501 -0.00000000000E+00 -0.00000000000E+00 -0.38378158783E+03  0.38378158783E+03  0.00000000000E+00 0.  1.
        -24    2    1    2    0    0  0.63543034850E+03  0.25705984339E+03  0.12512765414E+04  0.14289593723E+04  0.79877492231E+02 0.  0.
        254    2    1    2    0    0 -0.63543034850E+03 -0.25705984339E+03  0.75361258248E+03  0.13434929272E+04  0.87589373225E+03 0.  0.
         23    2    4    4    0    0 -0.97557213406E+02  0.28827949748E+03  0.10117584871E+03  0.33351917853E+03  0.91520552515E+02 0.  0.
         23    2    4    4    0    0 -0.53787313509E+03 -0.54533934087E+03  0.65243673377E+03  0.10099737487E+04  0.87582962682E+02 0.  0.
          3    1    3    3  502    0  0.38062738911E+03  0.18719015536E+03  0.72125317676E+03  0.83673383377E+03  0.00000000000E+00 0. -1.
         -4    1    3    3    0  502  0.25480295939E+03  0.69869688026E+02  0.53002336462E+03  0.59222553850E+03  0.00000000000E+00 0.  1.
         11    1    5    5    0    0 -0.87068870831E+02  0.28143716067E+03  0.11372861009E+03  0.31578799918E+03  0.00000000000E+00 0.  1.
        -11    1    5    5    0    0 -0.10488342574E+02  0.68423368105E+01 -0.12552761380E+02  0.17731179353E+02  0.00000000000E+00 0. -1.
          2    1    6    6  503    0 -0.60926053585E+02 -0.29934434695E+02  0.44644641493E+02  0.81247759353E+02  0.00000000000E+00 0. -1.
         -2    1    6    6    0  503 -0.47694708151E+03 -0.51540490617E+03  0.60779209228E+03  0.92872598935E+03  0.00000000000E+00 0.  1.
<mgrwt>
<rscale>  0 0.19149181E+04</rscale>
<asrwt>0</asrwt>
<pdfrwt beam="1">  1        1 0.36748779E+00 0.19149181E+04</pdfrwt>
<pdfrwt beam="2">  1       -2 0.59043323E-01 0.19149181E+04</pdfrwt>
<totfact> 0.35589284E+00</totfact>
</mgrwt>
</event>
<event>
12    4  0.4183215E-008  0.1843562E+04  0.7818608E-02  0.8683471E-01
          1   -1    0    0  501    0  0.00000000000E+00  0.00000000000E+00  0.10967323948E+04  0.10967323948E+04  0.00000000000E+00 0. -1.
         -2   -1    0    0    0  501 -0.00000000000E+00 -0.00000000000E+00 -0.77473797584E+03  0.77473797584E+03  0.00000000000E+00 0.  1.
        -24    2    1    2    0    0  0.81545827787E+02 -0.65479686585E+03  0.39189891788E+02  0.66588912703E+03  0.80397912446E+02 0.  0.
        254    2    1    2    0    0 -0.81545827787E+02  0.65479686585E+03  0.28280452717E+03  0.12055812436E+04  0.96852417461E+03 0.  0.
         23    2    4    4    0    0  0.35046469905E+03  0.63315825864E+03  0.19991697868E+03  0.75536201897E+03  0.83006599557E+02 0.  0.
         23    2    4    4    0    0 -0.43201052684E+03  0.21638607209E+02  0.82887548490E+02  0.45021922465E+03  0.93411347952E+02 0.  0.
          3    1    3    3  502    0  0.44361658582E+02 -0.53767170082E+03  0.53629588791E+02  0.54215767762E+03  0.00000000000E+00 0. -1.
         -4    1    3    3    0  502  0.37184169205E+02 -0.11712516503E+03 -0.14439697003E+02  0.12373144941E+03  0.00000000000E+00 0.  1.
         11    1    5    5    0    0  0.13436502197E+03  0.29600547815E+03  0.12307568062E+03  0.34759290180E+03  0.00000000000E+00 0. -1.
        -11    1    5    5    0    0  0.21609967708E+03  0.33715278049E+03  0.76841298062E+02  0.40776911716E+03  0.00000000000E+00 0.  1.
          1    1    6    6  503    0 -0.17733184615E+03  0.31854117849E+02 -0.60306768014E+01  0.18027101138E+03  0.00000000000E+00 0. -1.
         -1    1    6    6    0  503 -0.25467868069E+03 -0.10215510640E+02  0.88918225292E+02  0.26994821327E+03  0.00000000000E+00 0.  1.
<mgrwt>
<rscale>  0 0.18435620E+04</rscale>
<asrwt>0</asrwt>
<pdfrwt beam="1">  1        1 0.16872806E+00 0.18435620E+04</pdfrwt>
<pdfrwt beam="2">  1       -2 0.11919046E+00 0.18435620E+04</pdfrwt>
<totfact> 0.56764224E+00</totfact>
</mgrwt>
</event>
<event>
12    4  0.4183215E-008  0.2014239E+04  0.7818608E-02  0.8599992E-01
          3   -1    0    0  501    0  0.00000000000E+00  0.00000000000E+00  0.49576130501E+03  0.49576130501E+03  0.00000000000E+00 0. -1.
         -4   -1    0    0    0  501 -0.00000000000E+00 -0.00000000000E+00 -0.20459239604E+04  0.20459239604E+04  0.00000000000E+00 0.  1.
        -24    2    1    2    0    0  0.64738706187E+03 -0.47222495682E+03 -0.44080636966E+03  0.91817847922E+03  0.81455794466E+02 0.  0.
        254    2    1    2    0    0 -0.64738706187E+03  0.47222495682E+03 -0.11093562858E+04  0.16235067862E+04  0.87349670773E+03 0.  0.
         23    2    4    4    0    0  0.19243818478E+02 -0.60556264016E+02  0.93486165296E+02  0.14506693948E+03  0.90925068972E+02 0.  0.
         23    2    4    4    0    0 -0.66663088035E+03  0.53278122083E+03 -0.12028424511E+04  0.14784398467E+04  0.10344978704E+03 0.  0.
          3    1    3    3  502    0  0.98900566662E+02 -0.78005200134E+02 -0.37279310921E+02  0.13136163959E+03  0.00000000000E+00 0. -1.
         -4    1    3    3    0  502  0.54848649521E+03 -0.39421975668E+03 -0.40352705874E+03  0.78681683963E+03  0.00000000000E+00 0.  1.
         11    1    5    5    0    0 -0.16341709543E+02 -0.56650747172E+02  0.91956181477E+02  0.10923505819E+03  0.00000000000E+00 0.  1.
        -11    1    5    5    0    0  0.35585528022E+02 -0.39055168445E+01  0.15299838187E+01  0.35831881292E+02  0.00000000000E+00 0. -1.
          2    1    6    6  503    0 -0.21224874240E+03  0.19042456466E+03 -0.32498713383E+03  0.43235133934E+03  0.00000000000E+00 0. -1.
         -2    1    6    6    0  503 -0.45438213795E+03  0.34235665618E+03 -0.87785531724E+03  0.10460885074E+04  0.00000000000E+00 0.  1.
<mgrwt>
<rscale>  0 0.20142392E+04</rscale>
<asrwt>0</asrwt>
<pdfrwt beam="1">  1        3 0.76270970E-01 0.20142392E+04</pdfrwt>
<pdfrwt beam="2">  1       -4 0.31475753E+00 0.20142392E+04</pdfrwt>
<totfact> 0.85656854E-02</totfact>
</mgrwt>
</event>
<event>
12    4  0.4183215E-008  0.1550085E+04  0.7818608E-02  0.8851814E-01
          1   -1    0    0  501    0  0.00000000000E+00  0.00000000000E+00  0.25760724438E+04  0.25760724438E+04  0.00000000000E+00 0. -1.
         -2   -1    0    0    0  501 -0.00000000000E+00 -0.00000000000E+00 -0.23318086698E+03  0.23318086698E+03  0.00000000000E+00 0.  1.
        -24    2    1    2    0    0 -0.24259556639E+03  0.65963839609E+02  0.16181683157E+04  0.16395223440E+04  0.79755761931E+02 0.  0.
        254    2    1    2    0    0  0.24259556639E+03 -0.65963839609E+02  0.72472326110E+03  0.11697309668E+04  0.88308713751E+03 0.  0.
         23    2    4    4    0    0  0.12593662850E+03  0.35502949221E+03  0.97081254395E+02  0.39995763088E+03  0.92926647487E+02 0.  0.
         23    2    4    4    0    0  0.11665893790E+03 -0.42099333181E+03  0.62764200671E+03  0.76977333588E+03  0.88157851707E+02 0.  0.
          3    1    3    3  502    0 -0.17251511677E+03  0.80203808280E+02  0.12603457917E+04  0.12746237213E+04  0.00000000000E+00 0. -1.
         -2    1    3    3    0  502 -0.70080449621E+02 -0.14239968670E+02  0.35782252404E+03  0.36489862268E+03  0.00000000000E+00 0.  1.
         11    1    5    5    0    0  0.11996111494E+02  0.12865408376E+03  0.64571258117E+02  0.14444800910E+03  0.00000000000E+00 0. -1.
        -11    1    5    5    0    0  0.11394051700E+03  0.22637540845E+03  0.32509996277E+02  0.25550962178E+03  0.00000000000E+00 0.  1.
          2    1    6    6  503    0  0.30368938588E+02 -0.22319544685E+03  0.37561927213E+03  0.43798209726E+03  0.00000000000E+00 0.  1.
         -2    1    6    6    0  503  0.86289999311E+02 -0.19779788497E+03  0.25202273458E+03  0.33179123862E+03  0.00000000000E+00 0. -1.
<mgrwt>
<rscale>  0 0.15500849E+04</rscale>
<asrwt>0</asrwt>
<pdfrwt beam="1">  1        1 0.39631882E+00 0.15500849E+04</pdfrwt>
<pdfrwt beam="2">  1       -2 0.35873981E-01 0.15500849E+04</pdfrwt>
<totfact> 0.74325540E+00</totfact>
</mgrwt>
</event>
<event>
12    4  0.4183215E-008  0.1784911E+04  0.7818608E-02  0.8714365E-01
          1   -1    0    0  501    0  0.00000000000E+00  0.00000000000E+00  0.18721529886E+04  0.18721529886E+04  0.00000000000E+00 0. -1.
         -2   -1    0    0    0  501 -0.00000000000E+00 -0.00000000000E+00 -0.42543373367E+03  0.42543373367E+03  0.00000000000E+00 0.  1.
        -24    2    1    2    0    0  0.25045183541E+02  0.35488154787E+03  0.12585616822E+04  0.13103966849E+04  0.81202152723E+02 0.  0.
        254    2    1    2    0    0 -0.25045183541E+02 -0.35488154787E+03  0.18815757279E+03  0.98719003745E+03  0.90142815776E+03 0.  0.
         23    2    4    4    0    0 -0.40353363822E+03  0.38860417948E+02  0.97485460179E+02  0.42674426724E+03  0.90872027724E+02 0.  0.
         23    2    4    4    0    0  0.37848845468E+03 -0.39374196582E+03  0.90672112616E+02  0.56044577021E+03  0.87130840490E+02 0.  0.
          3    1    3    3  502    0  0.15412790907E+01  0.24787128364E+03  0.98501645658E+03  0.10157263256E+04  0.00000000000E+00 0. -1.
         -4    1    3    3    0  502  0.23503904450E+02  0.10701026424E+03  0.27354522559E+03  0.29467035925E+03  0.00000000000E+00 0.  1.
         11    1    5    5    0    0 -0.28816816705E+03 -0.95639582183E+01  0.87109744238E+02  0.30119838867E+03  0.00000000000E+00 0. -1.
        -11    1    5    5    0    0 -0.11536547117E+03  0.48424376166E+02  0.10375715941E+02  0.12554587857E+03  0.00000000000E+00 0.  1.
          2    1    6    6  503    0  0.37831060668E+03 -0.37005069855E+03  0.83969331856E+02  0.53582392940E+03  0.00000000000E+00 0. -1.
         -2    1    6    6    0  503  0.17784799493E+00 -0.23691267270E+02  0.67027807605E+01  0.24621840806E+02  0.00000000000E+00 0.  1.
<mgrwt>
<rscale>  0 0.17849112E+04</rscale>
<asrwt>0</asrwt>
<pdfrwt beam="1">  1        1 0.28802353E+00 0.17849112E+04</pdfrwt>
<pdfrwt beam="2">  1       -2 0.65451345E-01 0.17849112E+04</pdfrwt>
<totfact> 0.64930003E+00</totfact>
</mgrwt>
</event>
<event>
12    4  0.4183215E-008  0.1484370E+04  0.7818608E-02  0.8894914E-01
          1   -1    0    0  501    0  0.00000000000E+00  0.00000000000E+00  0.55133479063E+03  0.55133479063E+03  0.00000000000E+00 0. -1.
         -2   -1    0    0    0  501 -0.00000000000E+00 -0.00000000000E+00 -0.99910009516E+03  0.99910009516E+03  0.00000000000E+00 0.  1.
        -24    2    1    2    0    0  0.34495923153E+03 -0.28149808587E+03  0.77700151959E+01  0.45161131190E+03  0.75195479441E+02 0.  0.
        254    2    1    2    0    0 -0.34495923153E+03  0.28149808587E+03 -0.45553531973E+03  0.10988235739E+04  0.89535622813E+03 0.  0.
         23    2    4    4    0    0 -0.38291194242E+03  0.91092763574E+02 -0.67846015259E+03  0.78964629004E+03  0.91179150609E+02 0.  0.
         23    2    4    4    0    0  0.37952710883E+02  0.19040532230E+03  0.22292483286E+03  0.30917728386E+03  0.90556704483E+02 0.  0.
          3    1    3    3  502    0  0.17598782040E+03 -0.14773136766E+03  0.41454759682E+02  0.23348397593E+03  0.00000000000E+00 0. -1.
         -4    1    3    3    0  502  0.16897141114E+03 -0.13376671821E+03 -0.33684744486E+02  0.21812733596E+03  0.00000000000E+00 0.  1.
         11    1    5    5    0    0 -0.87936553657E+02 -0.95258703658E+00 -0.95288046172E+02  0.12966709928E+03  0.00000000000E+00 0.  1.
        -11    1    5    5    0    0 -0.29497538876E+03  0.92045350611E+02 -0.58317210641E+03  0.65997919076E+03  0.00000000000E+00 0. -1.
          4    1    6    6  503    0  0.92836810110E+00  0.32852072555E+02 -0.10081986646E+01  0.32880647850E+02  0.00000000000E+00 0.  1.
         -4    1    6    6    0  503  0.37024342782E+02  0.15755324974E+03  0.22393303152E+03  0.27629663601E+03  0.00000000000E+00 0. -1.
<mgrwt>
<rscale>  0 0.14843701E+04</rscale>
<asrwt>0</asrwt>
<pdfrwt beam="1">  1        1 0.84820739E-01 0.14843701E+04</pdfrwt>
<pdfrwt beam="2">  1       -2 0.15370770E+00 0.14843701E+04</pdfrwt>
<totfact> 0.91892315E+00</totfact>
</mgrwt>
</event>
<event>
12    4  0.5776477E-008  0.1816518E+04  0.7818608E-02  0.8697565E-01
          1   -1    0    0  501    0  0.00000000000E+00  0.00000000000E+00  0.11049906152E+04  0.11049906152E+04  0.00000000000E+00 0. -1.
         -2   -1    0    0    0  501 -0.00000000000E+00 -0.00000000000E+00 -0.74655307455E+03  0.74655307455E+03  0.00000000000E+00 0.  1.
        -24    2    1    2    0    0 -0.13614718844E+03 -0.27578426838E+03 -0.48443559896E+03  0.57932873259E+03  0.79692604799E+02 0.  0.
        254    2    1    2    0    0  0.13614718844E+03  0.27578426838E+03  0.84287313963E+03  0.12722149572E+04  0.90194387196E+03 0.  0.
         23    2    4    4    0    0  0.17889824738E+03  0.58189179918E+03  0.43931808876E+03  0.75594843411E+03  0.88628455130E+02 0.  0.
         23    2    4    4    0    0 -0.42751058939E+02 -0.30610753079E+03  0.40355505087E+03  0.51626652307E+03  0.90249489261E+02 0.  0.
          1    1    3    3  502    0 -0.26240715258E+02 -0.26241423325E+02 -0.23952265184E+02  0.44168976022E+02  0.00000000000E+00 0. -1.
         -2    1    3    3    0  502 -0.10990647318E+03 -0.24954284506E+03 -0.46048333377E+03  0.53515975657E+03  0.00000000000E+00 0.  1.
         11    1    5    5    0    0  0.10419357205E+03  0.45245887918E+03  0.30958471569E+03  0.55804841546E+03  0.00000000000E+00 0.  1.
        -11    1    5    5    0    0  0.74704675334E+02  0.12943292000E+03  0.12973337307E+03  0.19790001865E+03  0.00000000000E+00 0. -1.
          4    1    6    6  503    0 -0.12997543309E+02 -0.20868431217E+02  0.47309697369E+01  0.25036166404E+02  0.00000000000E+00 0. -1.
         -4    1    6    6    0  503 -0.29753515630E+02 -0.28523909958E+03  0.39882408114E+03  0.49123035667E+03  0.00000000000E+00 0.  1.
<mgrwt>
<rscale>  0 0.18165177E+04</rscale>
<asrwt>0</asrwt>
<pdfrwt beam="1">  1        1 0.16999856E+00 0.18165177E+04</pdfrwt>
<pdfrwt beam="2">  1       -2 0.11485432E+00 0.18165177E+04</pdfrwt>
<totfact> 0.61432523E+00</totfact>
</mgrwt>
</event>
<event>
12    4  0.4183215E-008  0.2097850E+04  0.7818608E-02  0.8562191E-01
          1   -1    0    0  501    0  0.00000000000E+00  0.00000000000E+00  0.11469546079E+04  0.11469546079E+04  0.00000000000E+00 0. -1.
         -2   -1    0    0    0  501 -0.00000000000E+00 -0.00000000000E+00 -0.95927426535E+03  0.95927426535E+03  0.00000000000E+00 0.  1.
        -24    2    1    2    0    0 -0.67171170633E+03 -0.18979115020E+02  0.61161213535E+03  0.91228783235E+03  0.81503752756E+02 0.  0.
        254    2    1    2    0    0  0.67171170633E+03  0.18979115020E+02 -0.42393179276E+03  0.11939410410E+04  0.89119033946E+03 0.  0.
         23    2    4    4    0    0  0.20869518053E+03 -0.39198063718E+03 -0.33143731422E+03  0.56158791909E+03  0.91256776777E+02 0.  0.
         23    2    4    4    0    0  0.46301652580E+03  0.41095975220E+03 -0.92494478533E+02  0.63235312186E+03  0.89682891775E+02 0.  0.
          1    1    3    3  502    0 -0.63895867156E+03 -0.86445121988E+01  0.55660163089E+03  0.84743630266E+03  0.00000000000E+00 0. -1.
         -2    1    3    3    0  502 -0.32753034771E+02 -0.10334602821E+02  0.55010504460E+02  0.64851529690E+02  0.00000000000E+00 0.  1.
         11    1    5    5    0    0  0.18357854219E+03 -0.35433163650E+03 -0.32734346718E+03  0.51614507193E+03  0.00000000000E+00 0. -1.
        -11    1    5    5    0    0  0.25116638345E+02 -0.37649000686E+02 -0.40938470418E+01  0.45442847160E+02  0.00000000000E+00 0.  1.
          1    1    6    6  503    0  0.61274206427E+02  0.58742222660E+02  0.17993130104E+02  0.86769406055E+02  0.00000000000E+00 0. -1.
         -1    1    6    6    0  503  0.40174231937E+03  0.35221752954E+03 -0.11048760864E+03  0.54558371581E+03  0.00000000000E+00 0.  1.
<mgrwt>
<rscale>  0 0.20978504E+04</rscale>
<asrwt>0</asrwt>
<pdfrwt beam="1">  1        1 0.17645456E+00 0.20978504E+04</pdfrwt>
<pdfrwt beam="2">  1       -2 0.14758066E+00 0.20978504E+04</pdfrwt>
<totfact> 0.29508787E+00</totfact>
</mgrwt>
</event>
<event>
12    4  0.4183215E-008  0.1312587E+04  0.7818608E-02  0.9019643E-01
         -2   -1    0    0    0  501 -0.00000000000E+00  0.00000000000E+00  0.14234199910E+03  0.14234199910E+03  0.00000000000E+00 0.  1.
          1   -1    0    0  501    0  0.00000000000E+00 -0.00000000000E+00 -0.30259596454E+04  0.30259596454E+04  0.00000000000E+00 0. -1.
        -24    2    1    2    0    0 -0.57246282584E+02 -0.31987829758E+03 -0.46777656824E+03  0.57546902519E+03  0.82160933681E+02 0.  0.
        254    2    1    2    0    0  0.57246282584E+02  0.31987829758E+03 -0.24158410781E+04  0.25928326194E+04  0.88368185181E+03 0.  0.
         23    2    4    4    0    0 -0.12940042567E+03  0.33917913062E+03 -0.33952545022E+03  0.50605253283E+03  0.94998325407E+02 0.  0.
         23    2    4    4    0    0  0.18664670826E+03 -0.19300833033E+02 -0.20763156279E+04  0.20867800865E+04  0.91405837115E+02 0.  0.
          1    1    3    3  502    0 -0.37649335991E+02 -0.23719665797E+03 -0.40091037516E+03  0.46734233273E+03  0.00000000000E+00 0. -1.
         -2    1    3    3    0  502 -0.19596946593E+02 -0.82681639615E+02 -0.66866193087E+02  0.10812669246E+03  0.00000000000E+00 0.  1.
         11    1    5    5    0    0 -0.50833320959E+02  0.15148615023E+03 -0.21364347139E+03  0.26678758048E+03  0.00000000000E+00 0.  1.
        -11    1    5    5    0    0 -0.78567104712E+02  0.18769298039E+03 -0.12588197882E+03  0.23926495235E+03  0.00000000000E+00 0. -1.
          4    1    6    6  503    0  0.16251774808E+03  0.18021046985E+02 -0.15549367726E+04  0.15635105191E+04  0.00000000000E+00 0. -1.
         -4    1    6    6    0  503  0.24128960179E+02 -0.37321880018E+02 -0.52137885528E+03  0.52326956742E+03  0.00000000000E+00 0.  1.
<mgrwt>
<rscale>  0 0.13125870E+04</rscale>
<asrwt>0</asrwt>
<pdfrwt beam="1">  1        1 0.46553220E+00 0.13125870E+04</pdfrwt>
<pdfrwt beam="2">  1       -2 0.21898772E-01 0.13125870E+04</pdfrwt>
<totfact> 0.90689230E+00</totfact>
</mgrwt>
</event>
<event>
12    4  0.4183215E-008  0.3687149E+04  0.7818608E-02  0.8070816E-01
         -2   -1    0    0    0  501 -0.00000000000E+00  0.00000000000E+00  0.11660584170E+04  0.11660584170E+04  0.00000000000E+00 0.  1.
          1   -1    0    0  501    0  0.00000000000E+00 -0.00000000000E+00 -0.29147485888E+04  0.29147485888E+04  0.00000000000E+00 0. -1.
        -24    2    1    2    0    0  0.15065348543E+04  0.59155410278E+03 -0.14973329419E+04  0.22060243267E+04  0.70383714502E+02 0.  0.
        254    2    1    2    0    0 -0.15065348543E+04 -0.59155410278E+03 -0.25135722991E+03  0.18747826791E+04  0.91216561717E+03 0.  0.
         23    2    4    4    0    0 -0.16134135403E+04 -0.51897302550E+03 -0.19866437085E+03  0.17086712560E+04  0.87485287769E+02 0.  0.
         23    2    4    4    0    0  0.10687868599E+03 -0.72581077284E+02 -0.52692859060E+02  0.16611142314E+03  0.90141007320E+02 0.  0.
          1    1    3    3  502    0  0.90280531070E+03  0.33867841328E+03 -0.93422393214E+03  0.13425851377E+04  0.00000000000E+00 0. -1.
         -2    1    3    3    0  502  0.60372954359E+03  0.25287568951E+03 -0.56310900979E+03  0.86343918898E+03  0.00000000000E+00 0.  1.
         11    1    5    5    0    0 -0.23094413867E+03 -0.46901840079E+02 -0.43066477299E+02  0.23956147281E+03  0.00000000000E+00 0. -1.
        -11    1    5    5    0    0 -0.13824694016E+04 -0.47207118542E+03 -0.15559789355E+03  0.14691097832E+04  0.00000000000E+00 0.  1.
          3    1    6    6  503    0  0.65050552010E+01 -0.19427785968E+02  0.22086441996E+02  0.30125828301E+02  0.00000000000E+00 0. -1.
         -3    1    6    6    0  503  0.10037363079E+03 -0.53153291316E+02 -0.74779301055E+02  0.13598559484E+03  0.00000000000E+00 0.  1.
<mgrwt>
<rscale>  0 0.36871491E+04</rscale>
<asrwt>0</asrwt>
<pdfrwt beam="1">  1        1 0.44842286E+00 0.36871491E+04</pdfrwt>
<pdfrwt beam="2">  1       -2 0.17939360E+00 0.36871491E+04</pdfrwt>
<totfact> 0.89212798E-02</totfact>
</mgrwt>
</event>
<event>
12    4  0.4183215E-008  0.1221514E+04  0.7818608E-02  0.9094231E-01
         -2   -1    0    0    0  501 -0.00000000000E+00  0.00000000000E+00  0.64899248574E+03  0.64899248574E+03  0.00000000000E+00 0.  1.
          1   -1    0    0  501    0  0.00000000000E+00 -0.00000000000E+00 -0.57477428686E+03  0.57477428686E+03  0.00000000000E+00 0. -1.
        -24    2    1    2    0    0 -0.12057192311E+03  0.17980538175E+03  0.17872654347E+03  0.29183437118E+03  0.79728030907E+02 0.  0.
        254    2    1    2    0    0  0.12057192311E+03 -0.17980538175E+03 -0.10450834460E+03  0.93193240142E+03  0.90039349330E+03 0.  0.
         23    2    4    4    0    0 -0.99123550778E+02  0.33333290044E+03 -0.50543717940E+02  0.36405858367E+03  0.95119314972E+02 0.  0.
         23    2    4    4    0    0  0.21969547389E+03 -0.51313828219E+03 -0.53964626661E+02  0.56787381775E+03  0.89395156796E+02 0.  0.
          1    1    3    3  502    0 -0.22225220761E+02  0.47465407379E+00  0.34892991664E+01  0.22502465266E+02  0.00000000000E+00 0. -1.
         -2    1    3    3    0  502 -0.98346702349E+02  0.17933072768E+03  0.17523724431E+03  0.26933190592E+03  0.00000000000E+00 0.  1.
         11    1    5    5    0    0 -0.17675167351E+02  0.41753505875E+02  0.25354407342E+02  0.51948173841E+02  0.00000000000E+00 0.  1.
        -11    1    5    5    0    0 -0.81448383427E+02  0.29157939457E+03 -0.75898125282E+02  0.31211040982E+03  0.00000000000E+00 0. -1.
          3    1    6    6  503    0  0.22569557087E+03 -0.51061652729E+03 -0.55951306498E+02  0.56106887041E+03  0.00000000000E+00 0. -1.
         -3    1    6    6    0  503 -0.60000969771E+01 -0.25217549088E+01  0.19866798373E+01  0.68049473422E+01  0.00000000000E+00 0.  1.
<mgrwt>
<rscale>  0 0.12215141E+04</rscale>
<asrwt>0</asrwt>
<pdfrwt beam="1">  1        1 0.88426813E-01 0.12215141E+04</pdfrwt>
<pdfrwt beam="2">  1       -2 0.99844998E-01 0.12215141E+04</pdfrwt>
<totfact> 0.26120518E+01</totfact>
</mgrwt>
</event>
<event>
12    4  0.4183215E-008  0.2171316E+04  0.7818608E-02  0.8530463E-01
         -2   -1    0    0    0  501 -0.00000000000E+00  0.00000000000E+00  0.87244884463E+03  0.87244884463E+03  0.00000000000E+00 0.  1.
          1   -1    0    0  501    0  0.00000000000E+00 -0.00000000000E+00 -0.13509717914E+04  0.13509717914E+04  0.00000000000E+00 0. -1.
        -24    2    1    2    0    0 -0.68013545770E+02  0.39478400779E+03  0.62321381612E+03  0.74655244864E+03  0.92004580078E+02 0.  0.
        254    2    1    2    0    0  0.68013545770E+02 -0.39478400779E+03 -0.11017367629E+04  0.14768681874E+04  0.89824022010E+03 0.  0.
         23    2    4    4    0    0  0.35088304815E+03  0.55703931273E+02 -0.74420204449E+03  0.82941167790E+03  0.88686002141E+02 0.  0.
         23    2    4    4    0    0 -0.28286950238E+03 -0.45048793906E+03 -0.35753471839E+03  0.64745650948E+03  0.91729592804E+02 0.  0.
          3    1    3    3  502    0  0.21193437185E+02  0.76727252812E+02  0.10042074118E+03  0.12814272653E+03  0.00000000000E+00 0. -1.
         -4    1    3    3    0  502 -0.89206982955E+02  0.31805675498E+03  0.52279307494E+03  0.61840972211E+03  0.00000000000E+00 0.  1.
         11    1    5    5    0    0  0.34835220900E+03  0.41464773555E+02 -0.72456610430E+03  0.80502461357E+03  0.00000000000E+00 0. -1.
        -11    1    5    5    0    0  0.25308391518E+01  0.14239157718E+02 -0.19635940198E+02  0.24387064333E+02  0.00000000000E+00 0.  1.
          1    1    6    6  503    0 -0.24893721300E+03 -0.38630025562E+03 -0.34289937793E+03  0.57339132091E+03  0.00000000000E+00 0. -1.
         -1    1    6    6    0  503 -0.33932289380E+02 -0.64187683440E+02 -0.14635340469E+02  0.74065188575E+02  0.00000000000E+00 0.  1.
<mgrwt>
<rscale>  0 0.21713164E+04</rscale>
<asrwt>0</asrwt>
<pdfrwt beam="1">  1        1 0.20784181E+00 0.21713164E+04</pdfrwt>
<pdfrwt beam="2">  1       -2 0.13422290E+00 0.21713164E+04</pdfrwt>
<totfact> 0.26721844E+00</totfact>
</mgrwt>
</event>
<event>
12    4  0.4183215E-008  0.1378230E+04  0.7818608E-02  0.8969730E-01
          1   -1    0    0  501    0  0.00000000000E+00  0.00000000000E+00  0.10480526170E+04  0.10480526170E+04  0.00000000000E+00 0. -1.
         -2   -1    0    0    0  501 -0.00000000000E+00 -0.00000000000E+00 -0.45310621657E+03  0.45310621657E+03  0.00000000000E+00 0.  1.
        -24    2    1    2    0    0  0.30727315165E+03  0.19300238798E+03  0.23691298466E+03  0.43965070896E+03  0.74150334422E+02 0.  0.
        254    2    1    2    0    0 -0.30727315165E+03 -0.19300238798E+03  0.35803341573E+03  0.10615081246E+04  0.93109873818E+03 0.  0.
         23    2    4    4    0    0 -0.29345257057E+03 -0.20801422672E+02 -0.26633199202E+03  0.40731251657E+03  0.91780421761E+02 0.  0.
         23    2    4    4    0    0 -0.13820581078E+02 -0.17220096531E+03  0.62436540775E+03  0.65419560799E+03  0.91079911154E+02 0.  0.
          3    1    3    3  502    0  0.27905425447E+03  0.15052229171E+03  0.22003320035E+03  0.38593114217E+03  0.00000000000E+00 0. -1.
         -4    1    3    3    0  502  0.28218897179E+02  0.42480096275E+02  0.16879784304E+02  0.53719566785E+02  0.00000000000E+00 0.  1.
         11    1    5    5    0    0 -0.20517718977E+03 -0.56582794859E+02 -0.17952923906E+03  0.27844216554E+03  0.00000000000E+00 0. -1.
        -11    1    5    5    0    0 -0.88275380808E+02  0.35781372187E+02 -0.86802752954E+02  0.12887035102E+03  0.00000000000E+00 0.  1.
          3    1    6    6  503    0 -0.15120028180E+02 -0.17515178935E+03  0.62625190148E+03  0.65045999775E+03  0.00000000000E+00 0. -1.
         -3    1    6    6    0  503  0.12994471022E+01  0.29508240447E+01 -0.18864937322E+01  0.37356102467E+01  0.00000000000E+00 0.  1.
<mgrwt>
<rscale>  0 0.13782295E+04</rscale>
<asrwt>0</asrwt>
<pdfrwt beam="1">  1        1 0.16123886E+00 0.13782295E+04</pdfrwt>
<pdfrwt beam="2">  1       -2 0.69708649E-01 0.13782295E+04</pdfrwt>
<totfact> 0.22310099E+01</totfact>
</mgrwt>
</event>
<event>
12    4  0.4183215E-008  0.1141037E+04  0.7818608E-02  0.9166092E-01
         -2   -1    0    0    0  501 -0.00000000000E+00  0.00000000000E+00  0.33153792076E+03  0.33153792076E+03  0.00000000000E+00 0.  1.
          1   -1    0    0  501    0  0.00000000000E+00 -0.00000000000E+00 -0.98176179238E+03  0.98176179238E+03  0.00000000000E+00 0. -1.
        -24    2    1    2    0    0  0.13966746953E+03  0.35421545628E+02 -0.28589487132E+03  0.33018507687E+03  0.80775117471E+02 0.  0.
        254    2    1    2    0    0 -0.13966746953E+03 -0.35421545628E+02 -0.36432900030E+03  0.98311463628E+03  0.90167459743E+03 0.  0.
         23    2    4    4    0    0 -0.50205179242E+03  0.90966707735E+02 -0.19500828336E+03  0.55357942657E+03  0.89950023606E+02 0.  0.
         23    2    4    4    0    0  0.36238432290E+03 -0.12638825336E+03 -0.16932071694E+03  0.42953520971E+03  0.92382915760E+02 0.  0.
          3    1    3    3  502    0  0.12167738045E+03  0.32017949893E+02 -0.28536146681E+03  0.31186808232E+03  0.00000000000E+00 0. -1.
         -4    1    3    3    0  502  0.17990089079E+02  0.34035957355E+01 -0.53340450606E+00  0.18316994551E+02  0.00000000000E+00 0.  1.
         11    1    5    5    0    0 -0.43579107352E+03  0.10914013375E+03 -0.17342043591E+03  0.48156004417E+03  0.00000000000E+00 0.  1.
        -11    1    5    5    0    0 -0.66260718906E+02 -0.18173426012E+02 -0.21587847449E+02  0.72019382394E+02  0.00000000000E+00 0. -1.
          1    1    6    6  503    0  0.27328514798E+02 -0.20226128324E+02 -0.45692765531E+02  0.56954128998E+02  0.00000000000E+00 0. -1.
         -1    1    6    6    0  503  0.33505580810E+03 -0.10616212504E+03 -0.12362795141E+03  0.37258108071E+03  0.00000000000E+00 0.  1.
<mgrwt>
<rscale>  0 0.11410368E+04</rscale>
<asrwt>0</asrwt>
<pdfrwt beam="1">  1        1 0.15104028E+00 0.11410368E+04</pdfrwt>
<pdfrwt beam="2">  1       -2 0.51005834E-01 0.11410368E+04</pdfrwt>
<totfact> 0.49493096E+01</totfact>
</mgrwt>
</event>
<event>
12    4  0.4183215E-008  0.1884461E+04  0.7818608E-02  0.8662630E-01
         -2   -1    0    0    0  501 -0.00000000000E+00  0.00000000000E+00  0.46017128344E+03  0.46017128344E+03  0.00000000000E+00 0.  1.
          1   -1    0    0  501    0  0.00000000000E+00 -0.00000000000E+00 -0.19292772028E+04  0.19292772028E+04  0.00000000000E+00 0. -1.
        -24    2    1    2    0    0 -0.67263028145E+03 -0.78686060699E+02 -0.91313413007E+03  0.11396268232E+04  0.79450393911E+02 0.  0.
        254    2    1    2    0    0  0.67263028145E+03  0.78686060699E+02 -0.55597178927E+03  0.12498216630E+04  0.89125000260E+03 0.  0.
         23    2    4    4    0    0  0.13751515739E+03 -0.18145782662E+03  0.17619259090E+03  0.30188822622E+03  0.90858740302E+02 0.  0.
         23    2    4    4    0    0  0.53511512405E+03  0.26014388732E+03 -0.73216438018E+03  0.94793343676E+03  0.92141645475E+02 0.  0.
          3    1    3    3  502    0 -0.55705690423E+03 -0.63684185888E+02 -0.70162208618E+03  0.89813229643E+03  0.00000000000E+00 0. -1.
         -4    1    3    3    0  502 -0.11557337722E+03 -0.15001874811E+02 -0.21151204389E+03  0.24149452681E+03  0.00000000000E+00 0.  1.
         11    1    5    5    0    0  0.66351752811E+02 -0.21141447103E+02  0.53961648982E+02  0.88098668818E+02  0.00000000000E+00 0. -1.
        -11    1    5    5    0    0  0.71163404583E+02 -0.16031637952E+03  0.12223094192E+03  0.21378955741E+03  0.00000000000E+00 0.  1.
          3    1    6    6  503    0  0.51954829876E+03  0.24862595550E+03 -0.72770419856E+03  0.92806179810E+03  0.00000000000E+00 0.  1.
         -3    1    6    6    0  503  0.15566825287E+02  0.11517931820E+02 -0.44601816197E+01  0.19871638660E+02  0.00000000000E+00 0. -1.
<mgrwt>
<rscale>  0 0.18844606E+04</rscale>
<asrwt>0</asrwt>
<pdfrwt beam="1">  1        1 0.29681187E+00 0.18844606E+04</pdfrwt>
<pdfrwt beam="2">  1       -2 0.70795584E-01 0.18844606E+04</pdfrwt>
<totfact> 0.49652264E+00</totfact>
</mgrwt>
</event>
<event>
12    4  0.4183215E-008  0.1101001E+04  0.7818608E-02  0.9204217E-01
          1   -1    0    0  501    0  0.00000000000E+00  0.00000000000E+00  0.48112351162E+03  0.48112351162E+03  0.00000000000E+00 0. -1.
         -2   -1    0    0    0  501 -0.00000000000E+00 -0.00000000000E+00 -0.62988155782E+03  0.62988155782E+03  0.00000000000E+00 0.  1.
        -24    2    1    2    0    0 -0.14173001668E+03  0.22588367869E+02  0.46697518023E+02  0.17056573926E+03  0.79463080914E+02 0.  0.
        254    2    1    2    0    0  0.14173001668E+03 -0.22588367869E+02 -0.19545556422E+03  0.94043933019E+03  0.90863943574E+03 0.  0.
         23    2    4    4    0    0  0.45666088466E+03  0.21027044880E+03 -0.53738040358E+02  0.51372329761E+03  0.90945171990E+02 0.  0.
         23    2    4    4    0    0 -0.31493086798E+03 -0.23285881667E+03 -0.14171752386E+03  0.42671603258E+03  0.92725593972E+02 0.  0.
          1    1    3    3  502    0 -0.11032956572E+03  0.37038654016E+02  0.63010909062E+02  0.13234367996E+03  0.00000000000E+00 0. -1.
         -2    1    3    3    0  502 -0.31400450956E+02 -0.14450286147E+02 -0.16313391039E+02  0.38222059301E+02  0.00000000000E+00 0.  1.
         11    1    5    5    0    0  0.10045173643E+02 -0.88258670221E+01 -0.45496959083E-01  0.13371743050E+02  0.00000000000E+00 0.  1.
        -11    1    5    5    0    0  0.44661571102E+03  0.21909631582E+03 -0.53692543398E+02  0.50035155456E+03  0.00000000000E+00 0. -1.
          1    1    6    6  503    0 -0.30211989258E+03 -0.20976730748E+03 -0.15253650665E+03  0.39817852609E+03  0.00000000000E+00 0. -1.
         -1    1    6    6    0  503 -0.12810975401E+02 -0.23091509196E+02  0.10818982790E+02  0.28537506483E+02  0.00000000000E+00 0.  1.
<mgrwt>
<rscale>  0 0.11010010E+04</rscale>
<asrwt>0</asrwt>
<pdfrwt beam="1">  1        1 0.74019002E-01 0.11010010E+04</pdfrwt>
<pdfrwt beam="2">  1       -2 0.96904855E-01 0.11010010E+04</pdfrwt>
<totfact> 0.36232545E+01</totfact>
</mgrwt>
</event>
<event>
12    4  0.4183215E-008  0.1967689E+04  0.7818608E-02  0.8621878E-01
         -2   -1    0    0    0  501 -0.00000000000E+00  0.00000000000E+00  0.78198563762E+03  0.78198563762E+03  0.00000000000E+00 0.  1.
          1   -1    0    0  501    0  0.00000000000E+00 -0.00000000000E+00 -0.12378100259E+04  0.12378100259E+04  0.00000000000E+00 0. -1.
        -24    2    1    2    0    0  0.40382735773E+03  0.36717233286E+03 -0.84985893415E+03  0.10132240699E+04  0.80440978412E+02 0.  0.
        254    2    1    2    0    0 -0.40382735773E+03 -0.36717233286E+03  0.39403454588E+03  0.10065715936E+04  0.74835225185E+03 0.  0.
         23    2    4    4    0    0 -0.16017993172E+03  0.17630837798E+02 -0.18585652198E+03  0.26325218999E+03  0.93758262610E+02 0.  0.
         23    2    4    4    0    0 -0.24364742601E+03 -0.38480317066E+03  0.57989106786E+03  0.74331940361E+03  0.93875113079E+02 0.  0.
          1    1    3    3  502    0  0.18550009015E+03  0.19289286743E+03 -0.48206852097E+03  0.55136920540E+03  0.00000000000E+00 0. -1.
         -2    1    3    3    0  502  0.21832726758E+03  0.17427946543E+03 -0.36779041318E+03  0.46185486450E+03  0.00000000000E+00 0.  1.
         11    1    5    5    0    0 -0.71030723214E+02  0.52643810487E+01 -0.15059371056E+03  0.16658794377E+03  0.00000000000E+00 0. -1.
        -11    1    5    5    0    0 -0.89149208505E+02  0.12366456749E+02 -0.35262811420E+02  0.96664246228E+02  0.00000000000E+00 0.  1.
          1    1    6    6  503    0 -0.10969632295E+03 -0.14985953189E+03  0.30912808119E+03  0.36062630679E+03  0.00000000000E+00 0.  1.
         -1    1    6    6    0  503 -0.13395110307E+03 -0.23494363877E+03  0.27076298667E+03  0.38269309683E+03  0.00000000000E+00 0. -1.
<mgrwt>
<rscale>  0 0.19676887E+04</rscale>
<asrwt>0</asrwt>
<pdfrwt beam="1">  1        1 0.19043231E+00 0.19676887E+04</pdfrwt>
<pdfrwt beam="2">  1       -2 0.12030548E+00 0.19676887E+04</pdfrwt>
<totfact> 0.43183657E+00</totfact>
</mgrwt>
</event>
<event>
12    4  0.4183215E-008  0.2391038E+04  0.7818608E-02  0.8442866E-01
          1   -1    0    0  501    0  0.00000000000E+00  0.00000000000E+00  0.25604090443E+04  0.25604090443E+04  0.00000000000E+00 0. -1.
         -2   -1    0    0    0  501 -0.00000000000E+00 -0.00000000000E+00 -0.55821768291E+03  0.55821768291E+03  0.00000000000E+00 0.  1.
        -24    2    1    2    0    0  0.82466959779E+03 -0.59948563459E+03  0.95883225301E+03  0.14018041315E+04  0.78946577293E+02 0.  0.
        254    2    1    2    0    0 -0.82466959779E+03  0.59948563459E+03  0.10433591084E+04  0.17168225957E+04  0.90521744601E+03 0.  0.
         23    2    4    4    0    0 -0.13902232770E+03 -0.10647048218E+03  0.60332157982E+03  0.63485471618E+03  0.91544583693E+02 0.  0.
         23    2    4    4    0    0 -0.68564727009E+03  0.70595611677E+03  0.44003752859E+03  0.10819678796E+04  0.92386406196E+02 0.  0.
          1    1    3    3  502    0  0.57612656625E+03 -0.38799507254E+03  0.68892737717E+03  0.97830615232E+03  0.00000000000E+00 0. -1.
         -2    1    3    3    0  502  0.24854303154E+03 -0.21149056204E+03  0.26990487585E+03  0.42349797918E+03  0.00000000000E+00 0.  1.
         11    1    5    5    0    0 -0.34004457366E+02 -0.33787177276E+02  0.60385384762E+02  0.77099099618E+02  0.00000000000E+00 0. -1.
        -11    1    5    5    0    0 -0.10501787033E+03 -0.72683304907E+02  0.54293619506E+03  0.55775561657E+03  0.00000000000E+00 0.  1.
          3    1    6    6  503    0 -0.25429194503E+03  0.29241456011E+03  0.12987136413E+03  0.40870189563E+03  0.00000000000E+00 0. -1.
         -3    1    6    6    0  503 -0.43135532506E+03  0.41354155666E+03  0.31016616446E+03  0.67326598393E+03  0.00000000000E+00 0.  1.
<mgrwt>
<rscale>  0 0.23910379E+04</rscale>
<asrwt>0</asrwt>
<pdfrwt beam="1">  1        1 0.39390908E+00 0.23910379E+04</pdfrwt>
<pdfrwt beam="2">  1       -2 0.85879645E-01 0.23910379E+04</pdfrwt>
<totfact> 0.11407972E+00</totfact>
</mgrwt>
</event>
<event>
12    4  0.4183215E-008  0.2307848E+04  0.7818608E-02  0.8474833E-01
          1   -1    0    0  501    0  0.00000000000E+00  0.00000000000E+00  0.61153421858E+03  0.61153421858E+03  0.00000000000E+00 0. -1.
         -2   -1    0    0    0  501 -0.00000000000E+00 -0.00000000000E+00 -0.21773772472E+04  0.21773772472E+04  0.00000000000E+00 0.  1.
        -24    2    1    2    0    0 -0.71285986007E+03 -0.52757208076E+03 -0.11594969082E+04  0.14619535794E+04  0.79835503205E+02 0.  0.
        254    2    1    2    0    0  0.71285986007E+03  0.52757208076E+03 -0.40634612036E+03  0.13269578864E+04  0.89955465770E+03 0.  0.
         23    2    4    4    0    0 -0.10207017316E+03  0.26857103499E+03  0.11203004568E+03  0.32284960344E+03  0.95563665798E+02 0.  0.
         23    2    4    4    0    0  0.81493003323E+03  0.25900104577E+03 -0.51837616604E+03  0.10041082829E+04  0.91252909963E+02 0.  0.
          3    1    3    3  502    0 -0.61534161994E+03 -0.44489042372E+03 -0.94532708904E+03  0.12125246817E+04  0.00000000000E+00 0. -1.
         -4    1    3    3    0  502 -0.97518240134E+02 -0.82681657036E+02 -0.21416981920E+03  0.24942889773E+03  0.00000000000E+00 0.  1.
         11    1    5    5    0    0 -0.57689323538E+02  0.23518039686E+03  0.66729600576E+02  0.25117865497E+03  0.00000000000E+00 0. -1.
        -11    1    5    5    0    0 -0.44380849624E+02  0.33390638124E+02  0.45300445104E+02  0.71670948467E+02  0.00000000000E+00 0.  1.
          1    1    6    6  503    0  0.55937327292E+03  0.14056996162E+03 -0.31992205988E+03  0.65955173941E+03  0.00000000000E+00 0. -1.
         -1    1    6    6    0  503  0.25555676031E+03  0.11843108415E+03 -0.19845410616E+03  0.34455654353E+03  0.00000000000E+00 0.  1.
<mgrwt>
<rscale>  0 0.23078481E+04</rscale>
<asrwt>0</asrwt>
<pdfrwt beam="1">  1        1 0.94082188E-01 0.23078481E+04</pdfrwt>
<pdfrwt beam="2">  1       -2 0.33498111E+00 0.23078481E+04</pdfrwt>
<totfact> 0.51002116E-01</totfact>
</mgrwt>
</event>
<event>
12    4  0.4183215E-008  0.1293997E+04  0.7818608E-02  0.9034339E-01
         -2   -1    0    0    0  501 -0.00000000000E+00  0.00000000000E+00  0.59905636205E+03  0.59905636205E+03  0.00000000000E+00 0.  1.
          1   -1    0    0  501    0  0.00000000000E+00 -0.00000000000E+00 -0.69877730111E+03  0.69877730111E+03  0.00000000000E+00 0. -1.
        -24    2    1    2    0    0 -0.48442324880E+02  0.31829316544E+03  0.30906218378E+02  0.33366439760E+03  0.81972787463E+02 0.  0.
        254    2    1    2    0    0  0.48442324880E+02 -0.31829316544E+03 -0.13062715743E+03  0.96416926556E+03  0.89938963769E+03 0.  0.
         23    2    4    4    0    0 -0.12619662149E+03 -0.59444121125E+03 -0.67704846839E+02  0.61791624303E+03  0.89166115825E+02 0.  0.
         23    2    4    4    0    0  0.17463894637E+03  0.27614804581E+03 -0.62922310592E+02  0.34625302253E+03  0.95788483883E+02 0.  0.
          1    1    3    3  502    0 -0.12220553528E+02  0.87096901975E+02 -0.28088092466E+02  0.92326340773E+02  0.00000000000E+00 0. -1.
         -2    1    3    3    0  502 -0.36221771351E+02  0.23119626347E+03  0.58994310844E+02  0.24133805683E+03  0.00000000000E+00 0.  1.
         11    1    5    5    0    0 -0.30911485484E+02 -0.22062807906E+03 -0.65251662740E+02  0.23214230268E+03  0.00000000000E+00 0.  1.
        -11    1    5    5    0    0 -0.95285136009E+02 -0.37381313219E+03 -0.24531840989E+01  0.38577394035E+03  0.00000000000E+00 0. -1.
          3    1    6    6  503    0  0.91335627444E+02  0.11950650995E+03 -0.75682261408E+02  0.16837994968E+03  0.00000000000E+00 0. -1.
         -3    1    6    6    0  503  0.83303318928E+02  0.15664153586E+03  0.12759950816E+02  0.17787307285E+03  0.00000000000E+00 0.  1.
<mgrwt>
<rscale>  0 0.12939969E+04</rscale>
<asrwt>0</asrwt>
<pdfrwt beam="1">  1        1 0.10750420E+00 0.12939969E+04</pdfrwt>
<pdfrwt beam="2">  1       -2 0.92162517E-01 0.12939969E+04</pdfrwt>
<totfact> 0.23522725E+01</totfact>
</mgrwt>
</event>
<event>
12    4  0.4183215E-008  0.2889000E+04  0.7818608E-02  0.8276158E-01
         -2   -1    0    0    0  501 -0.00000000000E+00  0.00000000000E+00  0.22198741162E+04  0.22198741162E+04  0.00000000000E+00 0.  1.
          1   -1    0    0  501    0  0.00000000000E+00 -0.00000000000E+00 -0.93995457643E+03  0.93995457643E+03  0.00000000000E+00 0. -1.
        -24    2    1    2    0    0  0.40846515285E+03  0.35124406801E+03  0.18769244183E+04  0.19542476119E+04  0.77603351884E+02 0.  0.
        254    2    1    2    0    0 -0.40846515285E+03 -0.35124406801E+03 -0.59700487858E+03  0.12055810807E+04  0.89821753524E+03 0.  0.
         23    2    4    4    0    0  0.18804067518E+03 -0.36750398345E+03 -0.13448070594E+03  0.44506486714E+03  0.97873399467E+02 0.  0.
         23    2    4    4    0    0 -0.59650582803E+03  0.16259915441E+02 -0.46252417264E+03  0.76051621352E+03  0.91502530207E+02 0.  0.
          3    1    3    3  502    0  0.14632917772E+03  0.17284470610E+03  0.83222732458E+03  0.86249048716E+03  0.00000000000E+00 0. -1.
         -4    1    3    3    0  502  0.26213597513E+03  0.17839936191E+03  0.10446970937E+04  0.10917571248E+04  0.00000000000E+00 0.  1.
         11    1    5    5    0    0  0.41846881193E+02 -0.87293097491E+02  0.10443734751E+02  0.97366924213E+02  0.00000000000E+00 0. -1.
        -11    1    5    5    0    0  0.14619379398E+03 -0.28021088596E+03 -0.14492444069E+03  0.34769794293E+03  0.00000000000E+00 0.  1.
          1    1    6    6  503    0 -0.11022896668E+03  0.11851463528E+01 -0.13379372452E+03  0.17335682965E+03  0.00000000000E+00 0. -1.
         -1    1    6    6    0  503 -0.48627686134E+03  0.15074769089E+02 -0.32873044813E+03  0.58715938387E+03  0.00000000000E+00 0.  1.
<mgrwt>
<rscale>  0 0.28890004E+04</rscale>
<asrwt>0</asrwt>
<pdfrwt beam="1">  1        1 0.14460840E+00 0.28890004E+04</pdfrwt>
<pdfrwt beam="2">  1       -2 0.34151909E+00 0.28890004E+04</pdfrwt>
<totfact> 0.22386260E-01</totfact>
</mgrwt>
</event>
<event>
12    4  0.4183215E-008  0.4863168E+04  0.7818608E-02  0.7849969E-01
          1   -1    0    0  501    0  0.00000000000E+00  0.00000000000E+00  0.27632549774E+04  0.27632549774E+04  0.00000000000E+00 0. -1.
         -2   -1    0    0    0  501 -0.00000000000E+00 -0.00000000000E+00 -0.21397227767E+04  0.21397227767E+04  0.00000000000E+00 0.  1.
        -24    2    1    2    0    0 -0.20724068965E+03 -0.62698346001E+03  0.25689351769E+04  0.26536561116E+04  0.80036573108E+02 0.  0.
        254    2    1    2    0    0  0.20724068965E+03  0.62698346001E+03 -0.19454029761E+04  0.22493216425E+04  0.91585924102E+03 0.  0.
         23    2    4    4    0    0  0.27269629664E+03  0.17354470514E+03 -0.10681028608E+03  0.35220500878E+03  0.90326608036E+02 0.  0.
         23    2    4    4    0    0 -0.65455606988E+02  0.45343875488E+03 -0.18385926901E+04  0.18971166337E+04  0.93473531863E+02 0.  0.
          3    1    3    3  502    0 -0.16894904797E+03 -0.39020046050E+03  0.16187706387E+04  0.16736841281E+04  0.00000000000E+00 0. -1.
         -4    1    3    3    0  502 -0.38291641675E+02 -0.23678299951E+03  0.95016453823E+03  0.97997198347E+03  0.00000000000E+00 0.  1.
         11    1    5    5    0    0  0.69666735265E+02  0.93664599174E+02 -0.26401654760E+02  0.11968106999E+03  0.00000000000E+00 0.  1.
        -11    1    5    5    0    0  0.20302956137E+03  0.79880105963E+02 -0.80408631319E+02  0.23252393879E+03  0.00000000000E+00 0. -1.
          3    1    6    6  503    0 -0.21261298441E+02  0.23140388118E+03 -0.11140816325E+04  0.11380587344E+04  0.00000000000E+00 0. -1.
         -3    1    6    6    0  503 -0.44194308547E+02  0.22203487369E+03 -0.72451105755E+03  0.75905789934E+03  0.00000000000E+00 0.  1.
<mgrwt>
<rscale>  0 0.48631675E+04</rscale>
<asrwt>0</asrwt>
<pdfrwt beam="1">  1        1 0.42511615E+00 0.48631675E+04</pdfrwt>
<pdfrwt beam="2">  1       -2 0.32918812E+00 0.48631675E+04</pdfrwt>
<totfact> 0.11932996E-02</totfact>
</mgrwt>
</event>
<event>
12    4  0.4183215E-008  0.4873763E+04  0.7818608E-02  0.7848281E-01
         -2   -1    0    0    0  501 -0.00000000000E+00  0.00000000000E+00  0.17816686513E+04  0.17816686513E+04  0.00000000000E+00 0.  1.
          1   -1    0    0  501    0  0.00000000000E+00 -0.00000000000E+00 -0.33330511014E+04  0.33330511014E+04  0.00000000000E+00 0. -1.
        -24    2    1    2    0    0 -0.98544442875E+03 -0.15821640772E+04 -0.22586199056E+04  0.29294105778E+04  0.75753319728E+02 0.  0.
        254    2    1    2    0    0  0.98544442875E+03  0.15821640772E+04  0.70723745550E+03  0.21853091750E+04  0.89501255984E+03 0.  0.
         23    2    4    4    0    0  0.11136346755E+04  0.15443188226E+04  0.67224331004E+03  0.20212462310E+04  0.91773865496E+02 0.  0.
         23    2    4    4    0    0 -0.12819024671E+03  0.37845254624E+02  0.34994145455E+02  0.16406294391E+03  0.88470654455E+02 0.  0.
          3    1    3    3  502    0 -0.45127441090E+03 -0.65689809481E+03 -0.98260752208E+03  0.12651803205E+04  0.00000000000E+00 0. -1.
         -4    1    3    3    0  502 -0.53417001785E+03 -0.92526598241E+03 -0.12760123836E+04  0.16642302573E+04  0.00000000000E+00 0.  1.
         11    1    5    5    0    0  0.30679697723E+03  0.37403839845E+03  0.19873812739E+03  0.52299708607E+03  0.00000000000E+00 0. -1.
        -11    1    5    5    0    0  0.80683769823E+03  0.11702804241E+04  0.47350518265E+03  0.14982491450E+04  0.00000000000E+00 0.  1.
          1    1    6    6  503    0 -0.11551020431E+03  0.34097735330E+02 -0.64006128973E+01  0.12060775555E+03  0.00000000000E+00 0. -1.
         -1    1    6    6    0  503 -0.12680042400E+02  0.37475192944E+01  0.41394758352E+02  0.43455188357E+02  0.00000000000E+00 0.  1.
<mgrwt>
<rscale>  0 0.48737635E+04</rscale>
<asrwt>0</asrwt>
<pdfrwt beam="1">  1        1 0.51277708E+00 0.48737635E+04</pdfrwt>
<pdfrwt beam="2">  1       -2 0.27410287E+00 0.48737635E+04</pdfrwt>
<totfact> 0.98891158E-03</totfact>
</mgrwt>
</event>
<event>
12    4  0.4183215E-008  0.1677361E+04  0.7818608E-02  0.8774382E-01
         -2   -1    0    0    0  501 -0.00000000000E+00  0.00000000000E+00  0.10977249916E+04  0.10977249916E+04  0.00000000000E+00 0.  1.
          1   -1    0    0  501    0  0.00000000000E+00 -0.00000000000E+00 -0.64076629625E+03  0.64076629625E+03  0.00000000000E+00 0. -1.
        -24    2    1    2    0    0 -0.11361865295E+03 -0.58466095318E+03  0.23243081876E+03  0.64461687395E+03  0.82275149327E+02 0.  0.
        254    2    1    2    0    0  0.11361865295E+03  0.58466095318E+03  0.22452787657E+03  0.10938744139E+04  0.88961274582E+03 0.  0.
         23    2    4    4    0    0  0.11753305977E+03  0.76285025842E+03 -0.21939009417E+02  0.77625927929E+03  0.79640515087E+02 0.  0.
         23    2    4    4    0    0 -0.39144068264E+01 -0.17818930524E+03  0.24646688599E+03  0.31761513459E+03  0.91469649344E+02 0.  0.
          3    1    3    3  502    0 -0.53273362511E+02 -0.10840843839E+03  0.37357919378E+02  0.12643597118E+03  0.00000000000E+00 0. -1.
         -4    1    3    3    0  502 -0.60345290437E+02 -0.47625251479E+03  0.19507289938E+03  0.51818090277E+03  0.00000000000E+00 0.  1.
         11    1    5    5    0    0  0.81500844205E+02  0.36538686653E+03 -0.41673080058E+02  0.37667837135E+03  0.00000000000E+00 0. -1.
        -11    1    5    5    0    0  0.36032215569E+02  0.39746339189E+03  0.19734070641E+02  0.39958090794E+03  0.00000000000E+00 0.  1.
          4    1    6    6  503    0  0.39788385761E+01 -0.13801255527E+01  0.61391132071E+02  0.61535412568E+02  0.00000000000E+00 0. -1.
         -4    1    6    6    0  503 -0.78932454025E+01 -0.17680917968E+03  0.18507575392E+03  0.25607972203E+03  0.00000000000E+00 0.  1.
<mgrwt>
<rscale>  0 0.16773612E+04</rscale>
<asrwt>0</asrwt>
<pdfrwt beam="1">  1        1 0.98579430E-01 0.16773612E+04</pdfrwt>
<pdfrwt beam="2">  1       -2 0.16888077E+00 0.16773612E+04</pdfrwt>
<totfact> 0.56322952E+00</totfact>
</mgrwt>
</event>
<event>
12    4  0.4183215E-008  0.1287498E+04  0.7818608E-02  0.9039539E-01
          1   -1    0    0  501    0  0.00000000000E+00  0.00000000000E+00  0.18626623974E+04  0.18626623974E+04  0.00000000000E+00 0. -1.
         -2   -1    0    0    0  501 -0.00000000000E+00 -0.00000000000E+00 -0.22248408218E+03  0.22248408218E+03  0.00000000000E+00 0.  1.
        -24    2    1    2    0    0  0.21443145706E+03  0.19310437401E+03  0.19713878415E+03  0.35743988990E+03  0.75029498413E+02 0.  0.
        254    2    1    2    0    0 -0.21443145706E+03 -0.19310437401E+03  0.14430395310E+04  0.17277065897E+04  0.90517226136E+03 0.  0.
         23    2    4    4    0    0  0.20528362819E+03 -0.83272561606E+01  0.15514447966E+02  0.22564954653E+03  0.92012545639E+02 0.  0.
         23    2    4    4    0    0 -0.41971508526E+03 -0.18477711785E+03  0.14275250831E+04  0.15020570431E+04  0.89689251867E+02 0.  0.
          1    1    3    3  502    0  0.48623942388E+02  0.43220051999E+02  0.85963726245E+02  0.10780548640E+03  0.00000000000E+00 0. -1.
         -2    1    3    3    0  502  0.16580751468E+03  0.14988432202E+03  0.11117505790E+03  0.24963440350E+03  0.00000000000E+00 0.  1.
         11    1    5    5    0    0  0.12845022915E+03  0.22187743685E+02 -0.26340072973E+02  0.13298705495E+03  0.00000000000E+00 0.  1.
        -11    1    5    5    0    0  0.76833399043E+02 -0.30514999846E+02  0.41854520939E+02  0.92662491587E+02  0.00000000000E+00 0. -1.
          3    1    6    6  503    0 -0.13590572311E+02 -0.20726807094E+01  0.11978975954E+03  0.12057605962E+03  0.00000000000E+00 0. -1.
         -3    1    6    6    0  503 -0.40612451295E+03 -0.18270443714E+03  0.13077353235E+04  0.13814809835E+04  0.00000000000E+00 0.  1.
<mgrwt>
<rscale>  0 0.12874979E+04</rscale>
<asrwt>0</asrwt>
<pdfrwt beam="1">  1        1 0.28656343E+00 0.12874979E+04</pdfrwt>
<pdfrwt beam="2">  1       -2 0.34228322E-01 0.12874979E+04</pdfrwt>
<totfact> 0.25508886E+01</totfact>
</mgrwt>
</event>
<event>
12    4  0.4183215E-008  0.1777389E+04  0.7818608E-02  0.8718417E-01
         -2   -1    0    0    0  501 -0.00000000000E+00  0.00000000000E+00  0.24908393775E+04  0.24908393775E+04  0.00000000000E+00 0.  1.
          1   -1    0    0  501    0  0.00000000000E+00 -0.00000000000E+00 -0.31707300928E+03  0.31707300928E+03  0.00000000000E+00 0. -1.
        -24    2    1    2    0    0  0.42464379873E+02  0.65195035747E+03  0.69377633532E+03  0.95629077516E+03  0.79523273604E+02 0.  0.
        254    2    1    2    0    0 -0.42464379873E+02 -0.65195035747E+03  0.14799900329E+04  0.18516216116E+04  0.90071616115E+03 0.  0.
         23    2    4    4    0    0 -0.20549104382E+03 -0.45218196139E+02  0.10737404025E+04  0.10980151754E+04  0.91910929702E+02 0.  0.
         23    2    4    4    0    0  0.16302666395E+03 -0.60673216133E+03  0.40624963034E+03  0.75360643621E+03  0.90456010270E+02 0.  0.
          3    1    3    3  502    0  0.90552278823E+01  0.81260400240E+02  0.12871622708E+03  0.15248972724E+03  0.00000000000E+00 0. -1.
         -4    1    3    3    0  502  0.33409151991E+02  0.57068995722E+03  0.56506010824E+03  0.80380104792E+03  0.00000000000E+00 0.  1.
         11    1    5    5    0    0 -0.94806790941E+02  0.13633747727E+02  0.61674286864E+03  0.62413618122E+03  0.00000000000E+00 0. -1.
        -11    1    5    5    0    0 -0.11068425288E+03 -0.58851943866E+02  0.45699753388E+03  0.47387899416E+03  0.00000000000E+00 0.  1.
          2    1    6    6  503    0  0.14255618825E+03 -0.59261808432E+03  0.38529798639E+03  0.72109153302E+03  0.00000000000E+00 0. -1.
         -2    1    6    6    0  503  0.20470475703E+02 -0.14114077003E+02  0.20951643945E+02  0.32514903185E+02  0.00000000000E+00 0.  1.
<mgrwt>
<rscale>  0 0.17773890E+04</rscale>
<asrwt>0</asrwt>
<pdfrwt beam="1">  1        1 0.48780465E-01 0.17773890E+04</pdfrwt>
<pdfrwt beam="2">  1       -2 0.38320605E+00 0.17773890E+04</pdfrwt>
<totfact> 0.64638289E-01</totfact>
</mgrwt>
</event>
<event>
12    4  0.4183215E-008  0.1825704E+04  0.7818608E-02  0.8692748E-01
         -2   -1    0    0    0  501 -0.00000000000E+00  0.00000000000E+00  0.75847921439E+03  0.75847921439E+03  0.00000000000E+00 0.  1.
          1   -1    0    0  501    0  0.00000000000E+00 -0.00000000000E+00 -0.10986447068E+04  0.10986447068E+04  0.00000000000E+00 0. -1.
        -24    2    1    2    0    0  0.13502714882E+03  0.14888410640E+03  0.54016605901E+03  0.58338333367E+03  0.90321285600E+02 0.  0.
        254    2    1    2    0    0 -0.13502714882E+03 -0.14888410640E+03 -0.88033155139E+03  0.12737405875E+04  0.89834995173E+03 0.  0.
         23    2    4    4    0    0 -0.43594505440E+03 -0.21625786764E+03 -0.80273714238E+03  0.94306294222E+03  0.90361703518E+02 0.  0.
         23    2    4    4    0    0  0.30091790558E+03  0.67373761241E+02 -0.77594409012E+02  0.33067764526E+03  0.90752427854E+02 0.  0.
          1    1    3    3  502    0  0.43283128992E+02  0.14926603037E+02  0.53865824162E+02  0.70694835357E+02  0.00000000000E+00 0. -1.
         -2    1    3    3    0  502  0.91744019830E+02  0.13395750337E+03  0.48630023485E+03  0.51268849831E+03  0.00000000000E+00 0.  1.
         11    1    5    5    0    0 -0.33149039613E+03 -0.20516262179E+03 -0.63877383481E+03  0.74833788902E+03  0.00000000000E+00 0. -1.
        -11    1    5    5    0    0 -0.10445465827E+03 -0.11095245854E+02 -0.16396330757E+03  0.19472505320E+03  0.00000000000E+00 0.  1.
          1    1    6    6  503    0  0.25825482151E+03  0.73751563548E+02 -0.36407729680E+02  0.27103573333E+03  0.00000000000E+00 0. -1.
         -1    1    6    6    0  503  0.42663084069E+02 -0.63778023064E+01 -0.41186679332E+02  0.59641911933E+02  0.00000000000E+00 0.  1.
<mgrwt>
<rscale>  0 0.18257044E+04</rscale>
<asrwt>0</asrwt>
<pdfrwt beam="1">  1        1 0.16902226E+00 0.18257044E+04</pdfrwt>
<pdfrwt beam="2">  1       -2 0.11668911E+00 0.18257044E+04</pdfrwt>
<totfact> 0.59701908E+00</totfact>
</mgrwt>
</event>
<event>
12    4  0.4183215E-008  0.3632805E+04  0.7818608E-02  0.8083018E-01
         -2   -1    0    0    0  501 -0.00000000000E+00  0.00000000000E+00  0.99575038912E+03  0.99575038912E+03  0.00000000000E+00 0.  1.
          1   -1    0    0  501    0  0.00000000000E+00 -0.00000000000E+00 -0.33133992116E+04  0.33133992116E+04  0.00000000000E+00 0. -1.
        -24    2    1    2    0    0 -0.79860282681E+03 -0.57425718348E+03  0.56425991074E+03  0.11367882966E+04  0.79753348863E+02 0.  0.
        254    2    1    2    0    0  0.79860282681E+03  0.57425718348E+03 -0.28819087332E+04  0.31723613041E+04  0.88934836227E+03 0.  0.
         23    2    4    4    0    0  0.91053381291E+03  0.59383327416E+03 -0.19927114342E+04  0.22717457347E+04  0.90664444394E+02 0.  0.
         23    2    4    4    0    0 -0.11193098610E+03 -0.19576090679E+02 -0.88919729901E+03  0.90061556933E+03  0.86745594663E+02 0.  0.
          1    1    3    3  502    0 -0.11960860909E+03 -0.88643910261E+02  0.53744849508E+02  0.15827972405E+03  0.00000000000E+00 0. -1.
         -2    1    3    3    0  502 -0.67899421772E+03 -0.48561327322E+03  0.51051506123E+03  0.97850857256E+03  0.00000000000E+00 0.  1.
         11    1    5    5    0    0  0.31207065425E+03  0.25503548790E+03 -0.75147379297E+03  0.85272742119E+03  0.00000000000E+00 0. -1.
        -11    1    5    5    0    0  0.59846315866E+03  0.33879778626E+03 -0.12412376412E+04  0.14190183135E+04  0.00000000000E+00 0.  1.
          1    1    6    6  503    0 -0.53628613647E+02 -0.46630882601E+02 -0.31974403389E+03  0.32754650757E+03  0.00000000000E+00 0. -1.
         -1    1    6    6    0  503 -0.58302372456E+02  0.27054791922E+02 -0.56945326512E+03  0.57306906177E+03  0.00000000000E+00 0.  1.
<mgrwt>
<rscale>  0 0.36328053E+04</rscale>
<asrwt>0</asrwt>
<pdfrwt beam="1">  1        1 0.50975372E+00 0.36328053E+04</pdfrwt>
<pdfrwt beam="2">  1       -2 0.15319237E+00 0.36328053E+04</pdfrwt>
<totfact> 0.70144552E-02</totfact>
</mgrwt>
</event>
<event>
12    4  0.4183215E-008  0.1313023E+04  0.7818608E-02  0.9019301E-01
          1   -1    0    0  501    0  0.00000000000E+00  0.00000000000E+00  0.25830545151E+03  0.25830545151E+03  0.00000000000E+00 0. -1.
         -2   -1    0    0    0  501 -0.00000000000E+00 -0.00000000000E+00 -0.16685968748E+04  0.16685968748E+04  0.00000000000E+00 0.  1.
        -24    2    1    2    0    0 -0.18038690592E+03 -0.22739941257E+02 -0.81030745505E+03  0.83404251204E+03  0.77280006544E+02 0.  0.
        254    2    1    2    0    0  0.18038690592E+03  0.22739941257E+02 -0.59998396824E+03  0.10928598143E+04  0.89515656215E+03 0.  0.
         23    2    4    4    0    0 -0.63649671790E+02  0.24639264961E+03 -0.68661117731E+03  0.73833474718E+03  0.94565699826E+02 0.  0.
         23    2    4    4    0    0  0.24403657771E+03 -0.22365270835E+03  0.86627209069E+02  0.35452506710E+03  0.92786661938E+02 0.  0.
          1    1    3    3  502    0 -0.23949702467E+02  0.57192215954E+01 -0.26173893227E+03  0.26289459182E+03  0.00000000000E+00 0. -1.
         -2    1    3    3    0  502 -0.15643720345E+03 -0.28459162852E+02 -0.54856852279E+03  0.57114792022E+03  0.00000000000E+00 0.  1.
         11    1    5    5    0    0 -0.52988383767E+02  0.60806534292E+02 -0.27724806424E+03  0.28874156707E+03  0.00000000000E+00 0.  1.
        -11    1    5    5    0    0 -0.10661288023E+02  0.18558611532E+03 -0.40936311306E+03  0.44959318011E+03  0.00000000000E+00 0. -1.
          4    1    6    6  503    0  0.50131133074E+02 -0.84609652563E+02  0.58087417310E+02  0.11421940229E+03  0.00000000000E+00 0. -1.
         -4    1    6    6    0  503  0.19390544464E+03 -0.13904305579E+03  0.28539791759E+02  0.24030566480E+03  0.00000000000E+00 0.  1.
<mgrwt>
<rscale>  0 0.13130235E+04</rscale>
<asrwt>0</asrwt>
<pdfrwt beam="1">  1        1 0.39739299E-01 0.13130235E+04</pdfrwt>
<pdfrwt beam="2">  1       -2 0.25670722E+00 0.13130235E+04</pdfrwt>
<totfact> 0.53462082E+00</totfact>
</mgrwt>
</event>
<event>
12    4  0.4183215E-008  0.1414276E+04  0.7818608E-02  0.8943549E-01
         -2   -1    0    0    0  501 -0.00000000000E+00  0.00000000000E+00  0.57633293375E+03  0.57633293375E+03  0.00000000000E+00 0.  1.
          1   -1    0    0  501    0  0.00000000000E+00 -0.00000000000E+00 -0.86763073678E+03  0.86763073678E+03  0.00000000000E+00 0. -1.
        -24    2    1    2    0    0  0.16753110099E+03 -0.98143196778E+02 -0.45367463313E+03  0.50005681977E+03  0.80854148778E+02 0.  0.
        254    2    1    2    0    0 -0.16753110099E+03  0.98143196778E+02  0.16237683010E+03  0.94390685076E+03  0.90933775413E+03 0.  0.
         23    2    4    4    0    0 -0.29033847266E+03  0.35552349931E+03 -0.16947771254E+03  0.49739380709E+03  0.89356124650E+02 0.  0.
         23    2    4    4    0    0  0.12280737167E+03 -0.25738030253E+03  0.33185454264E+03  0.44651304367E+03  0.88995449480E+02 0.  0.
          3    1    3    3  502    0  0.95802637079E+02 -0.85842686957E+02 -0.21510242446E+03  0.25063153270E+03  0.00000000000E+00 0. -1.
         -4    1    3    3    0  502  0.71728463908E+02 -0.12300509821E+02 -0.23857220867E+03  0.24942528707E+03  0.00000000000E+00 0.  1.
         11    1    5    5    0    0 -0.34957820223E+02  0.28661812812E+02  0.85467032748E+01  0.46006465255E+02  0.00000000000E+00 0. -1.
        -11    1    5    5    0    0 -0.25538065244E+03  0.32686168650E+03 -0.17802441582E+03  0.45138734184E+03  0.00000000000E+00 0.  1.
          4    1    6    6  503    0  0.97405939118E+02 -0.10239405327E+03  0.16819552506E+03  0.21968658077E+03  0.00000000000E+00 0. -1.
         -4    1    6    6    0  503  0.25401432556E+02 -0.15498624927E+03  0.16365901758E+03  0.22682646290E+03  0.00000000000E+00 0.  1.
<mgrwt>
<rscale>  0 0.14142760E+04</rscale>
<asrwt>0</asrwt>
<pdfrwt beam="1">  1        1 0.13348165E+00 0.14142760E+04</pdfrwt>
<pdfrwt beam="2">  1       -2 0.88666606E-01 0.14142760E+04</pdfrwt>
<totfact> 0.18071309E+01</totfact>
</mgrwt>
</event>
<event>
12    4  0.4183215E-008  0.1577313E+04  0.7818608E-02  0.8834608E-01
          1   -1    0    0  501    0  0.00000000000E+00  0.00000000000E+00  0.15428645311E+04  0.15428645311E+04  0.00000000000E+00 0. -1.
         -2   -1    0    0    0  501 -0.00000000000E+00 -0.00000000000E+00 -0.40313251039E+03  0.40313251039E+03  0.00000000000E+00 0.  1.
        -24    2    1    2    0    0  0.38939479450E+03 -0.38879818832E+02 -0.53528599644E+02  0.40303574195E+03  0.80203192025E+02 0.  0.
        254    2    1    2    0    0 -0.38939479450E+03  0.38879818832E+02  0.11932606203E+04  0.15429612995E+04  0.89650360705E+03 0.  0.
         23    2    4    4    0    0 -0.26286072842E+03  0.27956049974E+03  0.11923086824E+04  0.12558982914E+04  0.91818781812E+02 0.  0.
         23    2    4    4    0    0 -0.12653406609E+03 -0.24068068091E+03  0.95193797168E+00  0.28706300813E+03  0.92011979715E+02 0.  0.
          3    1    3    3  502    0  0.19644151021E+03  0.17942133925E+02 -0.11833779007E+02  0.19761382904E+03  0.00000000000E+00 0. -1.
         -4    1    3    3    0  502  0.19295328429E+03 -0.56821952756E+02 -0.41694820637E+02  0.20542191291E+03  0.00000000000E+00 0.  1.
         11    1    5    5    0    0 -0.25253046123E+03  0.28663718303E+03  0.11571339739E+04  0.12185612591E+04  0.00000000000E+00 0.  1.
        -11    1    5    5    0    0 -0.10330267182E+02 -0.70766832887E+01  0.35174708432E+02  0.37337032283E+02  0.00000000000E+00 0. -1.
          1    1    6    6  503    0 -0.94526917854E+01 -0.10304469816E+03  0.19903178474E+02  0.10537409413E+03  0.00000000000E+00 0. -1.
         -1    1    6    6    0  503 -0.11708137430E+03 -0.13763598275E+03 -0.18951240502E+02  0.18168891401E+03  0.00000000000E+00 0.  1.
<mgrwt>
<rscale>  0 0.15773127E+04</rscale>
<asrwt>0</asrwt>
<pdfrwt beam="1">  1        1 0.23736377E+00 0.15773127E+04</pdfrwt>
<pdfrwt beam="2">  1       -2 0.62020387E-01 0.15773127E+04</pdfrwt>
<totfact> 0.12441341E+01</totfact>
</mgrwt>
</event>
<event>
12    4  0.4183215E-008  0.3109431E+04  0.7818608E-02  0.8213154E-01
          1   -1    0    0  501    0  0.00000000000E+00  0.00000000000E+00  0.17515269868E+04  0.17515269868E+04  0.00000000000E+00 0. -1.
         -2   -1    0    0    0  501 -0.00000000000E+00 -0.00000000000E+00 -0.13800190555E+04  0.13800190555E+04  0.00000000000E+00 0.  1.
        -24    2    1    2    0    0  0.24028656968E+03  0.30586104150E+03  0.15481485319E+04  0.15982631985E+04  0.79954752735E+02 0.  0.
        254    2    1    2    0    0 -0.24028656968E+03 -0.30586104150E+03 -0.11766406006E+04  0.15332828439E+04  0.90287571899E+03 0.  0.
         23    2    4    4    0    0  0.12792413221E+03 -0.13363744170E+03 -0.10881851076E+04  0.11075278206E+04  0.90815723393E+02 0.  0.
         23    2    4    4    0    0 -0.36821070188E+03 -0.17222359980E+03 -0.88455493096E+02  0.42575502330E+03  0.90569731693E+02 0.  0.
          3    1    3    3  502    0  0.23462138656E+03  0.25808948025E+03  0.13761151315E+04  0.14196303146E+04  0.00000000000E+00 0. -1.
         -4    1    3    3    0  502  0.56651831158E+01  0.47771561254E+02  0.17203340036E+03  0.17863288388E+03  0.00000000000E+00 0.  1.
         11    1    5    5    0    0  0.12079527008E+03 -0.98674581337E+02 -0.67416793095E+03  0.69197584452E+03  0.00000000000E+00 0. -1.
        -11    1    5    5    0    0  0.71288621308E+01 -0.34962860362E+02 -0.41401717660E+03  0.41555197605E+03  0.00000000000E+00 0.  1.
          2    1    6    6  503    0 -0.35081604089E+03 -0.17786420265E+03 -0.69509244222E+02  0.39942346471E+03  0.00000000000E+00 0. -1.
         -2    1    6    6    0  503 -0.17394660992E+02  0.56406028451E+01 -0.18946248873E+02  0.26331558591E+02  0.00000000000E+00 0.  1.
<mgrwt>
<rscale>  0 0.31094312E+04</rscale>
<asrwt>0</asrwt>
<pdfrwt beam="1">  1        1 0.26946569E+00 0.31094312E+04</pdfrwt>
<pdfrwt beam="2">  1       -2 0.21231062E+00 0.31094312E+04</pdfrwt>
<totfact> 0.36040009E-01</totfact>
</mgrwt>
</event>
<event>
12    4  0.4183215E-008  0.1870524E+04  0.7818608E-02  0.8669669E-01
         -2   -1    0    0    0  501 -0.00000000000E+00  0.00000000000E+00  0.75895645058E+03  0.75895645058E+03  0.00000000000E+00 0.  1.
          1   -1    0    0  501    0  0.00000000000E+00 -0.00000000000E+00 -0.11525234417E+04  0.11525234417E+04  0.00000000000E+00 0. -1.
        -24    2    1    2    0    0  0.40753090488E+03 -0.31967639279E+03 -0.65086814157E+03  0.83560801633E+03  0.79605180153E+02 0.  0.
        254    2    1    2    0    0 -0.40753090488E+03  0.31967639279E+03  0.25730115049E+03  0.10758718759E+04  0.90720558683E+03 0.  0.
         23    2    4    4    0    0 -0.39735401072E+03 -0.58115608971E+02 -0.21421233439E+03  0.46426995097E+03  0.91608019971E+02 0.  0.
         23    2    4    4    0    0 -0.10176894157E+02  0.37779200176E+03  0.47151348488E+03  0.61160192494E+03  0.94348197616E+02 0.  0.
          1    1    3    3  502    0  0.26682863364E+03 -0.16666663194E+03 -0.42308394834E+03  0.52723364202E+03  0.00000000000E+00 0. -1.
         -2    1    3    3    0  502  0.14070227124E+03 -0.15300976085E+03 -0.22778419322E+03  0.30837437431E+03  0.00000000000E+00 0.  1.
         11    1    5    5    0    0 -0.52029770021E+02 -0.38138544690E+02 -0.19816678067E+02  0.67485896965E+02  0.00000000000E+00 0.  1.
        -11    1    5    5    0    0 -0.34532424070E+03 -0.19977064281E+02 -0.19439565632E+03  0.39678405400E+03  0.00000000000E+00 0. -1.
          2    1    6    6  503    0  0.10187279509E+02  0.25971584343E+03  0.38199568805E+03  0.46203550262E+03  0.00000000000E+00 0. -1.
         -2    1    6    6    0  503 -0.20364173666E+02  0.11807615833E+03  0.89517796828E+02  0.14956642231E+03  0.00000000000E+00 0.  1.
<mgrwt>
<rscale>  0 0.18705241E+04</rscale>
<asrwt>0</asrwt>
<pdfrwt beam="1">  1        1 0.17731130E+00 0.18705241E+04</pdfrwt>
<pdfrwt beam="2">  1       -2 0.11676253E+00 0.18705241E+04</pdfrwt>
<totfact> 0.54129310E+00</totfact>
</mgrwt>
</event>
<event>
12    4  0.4183215E-008  0.2146422E+04  0.7818608E-02  0.8541065E-01
          1   -1    0    0  501    0  0.00000000000E+00  0.00000000000E+00  0.72766039499E+03  0.72766039499E+03  0.00000000000E+00 0. -1.
         -2   -1    0    0    0  501 -0.00000000000E+00 -0.00000000000E+00 -0.15828560273E+04  0.15828560273E+04  0.00000000000E+00 0.  1.
        -24    2    1    2    0    0  0.27631117222E+03 -0.58471940341E+03 -0.99623287540E+03  0.11905029911E+04  0.81072716011E+02 0.  0.
        254    2    1    2    0    0 -0.27631117222E+03  0.58471940341E+03  0.14103724306E+03  0.11200134312E+04  0.90348986572E+03 0.  0.
         23    2    4    4    0    0 -0.53673730980E+03  0.45923118270E+03  0.30521032329E+03  0.77504740875E+03  0.92546882608E+02 0.  0.
         23    2    4    4    0    0  0.26042613758E+03  0.12548822071E+03 -0.16417308022E+03  0.34496602242E+03  0.92085230556E+02 0.  0.
          3    1    3    3  502    0  0.24971455008E+02 -0.15146407817E+02 -0.43227933173E+02  0.52169353469E+02  0.00000000000E+00 0. -1.
         -4    1    3    3    0  502  0.25133971721E+03 -0.56957299559E+03 -0.95300494223E+03  0.11383336377E+04  0.00000000000E+00 0.  1.
         11    1    5    5    0    0 -0.91305261101E+02  0.11991832854E+03  0.42933759193E+02  0.15671746521E+03  0.00000000000E+00 0. -1.
        -11    1    5    5    0    0 -0.44543204869E+03  0.33931285416E+03  0.26227656409E+03  0.61832994354E+03  0.00000000000E+00 0.  1.
          1    1    6    6  503    0  0.86715926269E+02  0.21817754492E+00 -0.27790550069E+02  0.91060497161E+02  0.00000000000E+00 0. -1.
         -1    1    6    6    0  503  0.17371021131E+03  0.12527004317E+03 -0.13638253015E+03  0.25390552526E+03  0.00000000000E+00 0.  1.
<mgrwt>
<rscale>  0 0.21464218E+04</rscale>
<asrwt>0</asrwt>
<pdfrwt beam="1">  1        1 0.11194775E+00 0.21464218E+04</pdfrwt>
<pdfrwt beam="2">  1       -2 0.24351631E+00 0.21464218E+04</pdfrwt>
<totfact> 0.14512894E+00</totfact>
</mgrwt>
</event>
<event>
12    4  0.4183215E-008  0.2917302E+04  0.7818608E-02  0.8267748E-01
          1   -1    0    0  501    0  0.00000000000E+00  0.00000000000E+00  0.29312567703E+04  0.29312567703E+04  0.00000000000E+00 0. -1.
         -2   -1    0    0    0  501 -0.00000000000E+00 -0.00000000000E+00 -0.72585356203E+03  0.72585356203E+03  0.00000000000E+00 0.  1.
        -24    2    1    2    0    0 -0.84101828751E+03 -0.84732003941E+03  0.30146729172E+03  0.12339674627E+04  0.80809416976E+02 0.  0.
        254    2    1    2    0    0  0.84101828751E+03  0.84732003941E+03  0.19039359166E+04  0.24231428697E+04  0.90630369262E+03 0.  0.
         23    2    4    4    0    0  0.66911145549E+02  0.27053355318E+03  0.11730987693E+04  0.12090150182E+04  0.88831789034E+02 0.  0.
         23    2    4    4    0    0  0.77410714196E+03  0.57678648623E+03  0.73083714724E+03  0.12141278515E+04  0.89771855613E+02 0.  0.
          1    1    3    3  502    0 -0.23739027239E+03 -0.19511963271E+03  0.60190844821E+02  0.31312737073E+03  0.00000000000E+00 0. -1.
         -2    1    3    3    0  502 -0.60362801512E+03 -0.65220040670E+03  0.24127644689E+03  0.92084009196E+03  0.00000000000E+00 0.  1.
         11    1    5    5    0    0  0.24657738840E+02  0.29568723953E+02  0.29401853533E+03  0.29652860341E+03  0.00000000000E+00 0. -1.
        -11    1    5    5    0    0  0.42253406709E+02  0.24096482923E+03  0.87908023401E+03  0.91248641476E+03  0.00000000000E+00 0.  1.
          1    1    6    6  503    0  0.31185775491E+03  0.28101643474E+03  0.34361898368E+03  0.54249378046E+03  0.00000000000E+00 0. -1.
         -1    1    6    6    0  503  0.46224938705E+03  0.29577005149E+03  0.38721816356E+03  0.67163407104E+03  0.00000000000E+00 0.  1.
<mgrwt>
<rscale>  0 0.29173023E+04</rscale>
<asrwt>0</asrwt>
<pdfrwt beam="1">  1        1 0.45096257E+00 0.29173023E+04</pdfrwt>
<pdfrwt beam="2">  1       -2 0.11166978E+00 0.29173023E+04</pdfrwt>
<totfact> 0.32020047E-01</totfact>
</mgrwt>
</event>
<event>
12    4  0.4183215E-008  0.1393797E+04  0.7818608E-02  0.8958321E-01
         -2   -1    0    0    0  501 -0.00000000000E+00  0.00000000000E+00  0.11285581548E+04  0.11285581548E+04  0.00000000000E+00 0.  1.
          1   -1    0    0  501    0  0.00000000000E+00 -0.00000000000E+00 -0.43034319695E+03  0.43034319695E+03  0.00000000000E+00 0. -1.
        -24    2    1    2    0    0 -0.27427456830E+03  0.22547585994E+03  0.41877356201E+03  0.55411819377E+03  0.74898425894E+02 0.  0.
        254    2    1    2    0    0  0.27427456830E+03 -0.22547585994E+03  0.27944139588E+03  0.10047831580E+04  0.89746075050E+03 0.  0.
         23    2    4    4    0    0  0.38046969703E+03 -0.21066905135E+02 -0.21864146453E+03  0.44850250061E+03  0.90274017235E+02 0.  0.
         23    2    4    4    0    0 -0.10619512873E+03 -0.20440895480E+03  0.49808286041E+03  0.55628065742E+03  0.91110964280E+02 0.  0.
          3    1    3    3  502    0 -0.21337462680E+03  0.16421822133E+03  0.26523576955E+03  0.37795022030E+03  0.00000000000E+00 0. -1.
         -4    1    3    3    0  502 -0.60899941496E+02  0.61257638609E+02  0.15353779246E+03  0.17616797347E+03  0.00000000000E+00 0.  1.
         11    1    5    5    0    0  0.33319742576E+03  0.10221222431E+02 -0.17211100948E+03  0.37516289463E+03  0.00000000000E+00 0. -1.
        -11    1    5    5    0    0  0.47272271266E+02 -0.31288127566E+02 -0.46530455055E+02  0.73339605977E+02  0.00000000000E+00 0.  1.
          4    1    6    6  503    0 -0.10216134449E+03 -0.10272774893E+03  0.31766360959E+03  0.34914194759E+03  0.00000000000E+00 0. -1.
         -4    1    6    6    0  503 -0.40337842451E+01 -0.10168120587E+03  0.18041925082E+03  0.20713870983E+03  0.00000000000E+00 0.  1.
<mgrwt>
<rscale>  0 0.13937967E+04</rscale>
<asrwt>0</asrwt>
<pdfrwt beam="1">  1        1 0.66206646E-01 0.13937967E+04</pdfrwt>
<pdfrwt beam="2">  1       -2 0.17362433E+00 0.13937967E+04</pdfrwt>
<totfact> 0.93078292E+00</totfact>
</mgrwt>
</event>
<event>
12    4  0.4183215E-008  0.1452010E+04  0.7818608E-02  0.8917008E-01
         -2   -1    0    0    0  501 -0.00000000000E+00  0.00000000000E+00  0.56264946443E+03  0.56264946443E+03  0.00000000000E+00 0.  1.
          1   -1    0    0  501    0  0.00000000000E+00 -0.00000000000E+00 -0.93678776236E+03  0.93678776236E+03  0.00000000000E+00 0. -1.
        -24    2    1    2    0    0 -0.55812639803E+02 -0.38847995037E+03  0.15122258886E+03  0.42779326806E+03  0.78147848401E+02 0.  0.
        254    2    1    2    0    0  0.55812639803E+02  0.38847995037E+03 -0.52536088679E+03  0.10716439587E+04  0.84757594958E+03 0.  0.
         23    2    4    4    0    0 -0.21793874468E+03  0.42981987970E+03 -0.59659045641E+03  0.77234638792E+03  0.91413045233E+02 0.  0.
         23    2    4    4    0    0  0.27375138448E+03 -0.41339929321E+02  0.71229569616E+02  0.29929757081E+03  0.88637317451E+02 0.  0.
          1    1    3    3  502    0 -0.10881396118E+02 -0.18296188981E+03  0.32222342257E+02  0.18609604306E+03  0.00000000000E+00 0. -1.
         -2    1    3    3    0  502 -0.44931243686E+02 -0.20551806057E+03  0.11900024661E+03  0.24169722499E+03  0.00000000000E+00 0.  1.
         11    1    5    5    0    0 -0.10049678811E+03  0.14330400093E+03 -0.16033183286E+03  0.23736456714E+03  0.00000000000E+00 0. -1.
        -11    1    5    5    0    0 -0.11744195657E+03  0.28651587876E+03 -0.43625862355E+03  0.53498182078E+03  0.00000000000E+00 0.  1.
          2    1    6    6  503    0  0.52866985580E+02 -0.29835215371E+02 -0.13936298613E+02  0.62283855529E+02  0.00000000000E+00 0.  1.
         -2    1    6    6    0  503  0.22088439890E+03 -0.11504713950E+02  0.85165868229E+02  0.23701371528E+03  0.00000000000E+00 0. -1.
<mgrwt>
<rscale>  0 0.14520098E+04</rscale>
<asrwt>0</asrwt>
<pdfrwt beam="1">  1        1 0.14412119E+00 0.14520098E+04</pdfrwt>
<pdfrwt beam="2">  1       -2 0.86561457E-01 0.14520098E+04</pdfrwt>
<totfact> 0.16710524E+01</totfact>
</mgrwt>
</event>
<event>
12    4  0.4183215E-008  0.1931245E+04  0.7818608E-02  0.8639458E-01
         -2   -1    0    0    0  501 -0.00000000000E+00  0.00000000000E+00  0.35256723459E+03  0.35256723459E+03  0.00000000000E+00 0.  1.
          1   -1    0    0  501    0  0.00000000000E+00 -0.00000000000E+00 -0.26446786355E+04  0.26446786355E+04  0.00000000000E+00 0. -1.
        -24    2    1    2    0    0 -0.54175841104E+01  0.33291072778E+02 -0.20677446441E+04  0.20695754200E+04  0.80230044164E+02 0.  0.
        254    2    1    2    0    0  0.54175841104E+01 -0.33291072778E+02 -0.22436675675E+03  0.92767045007E+03  0.89949673521E+03 0.  0.
         23    2    4    4    0    0 -0.16251116582E+03  0.36743613343E+03 -0.25129636110E+03  0.48350131942E+03  0.95939947960E+02 0.  0.
         23    2    4    4    0    0  0.16792874993E+03 -0.40072720621E+03  0.26929604344E+02  0.44416913065E+03  0.88196678957E+02 0.  0.
          1    1    3    3  502    0  0.18501651106E+02 -0.19066301590E+02 -0.43035032271E+03  0.43116961304E+03  0.00000000000E+00 0. -1.
         -2    1    3    3    0  502 -0.23919235216E+02  0.52357374369E+02 -0.16373943214E+04  0.16384058070E+04  0.00000000000E+00 0.  1.
         11    1    5    5    0    0 -0.15781052138E+03  0.37147539674E+03 -0.25384827890E+03  0.47679878328E+03  0.00000000000E+00 0.  1.
        -11    1    5    5    0    0 -0.47006444408E+01 -0.40392633071E+01  0.25519178019E+01  0.67025361387E+01  0.00000000000E+00 0. -1.
          1    1    6    6  503    0  0.82974934305E+02 -0.99739285236E+02 -0.47015863173E+01  0.12982630572E+03  0.00000000000E+00 0. -1.
         -1    1    6    6    0  503  0.84953815623E+02 -0.30098792098E+03  0.31631190661E+02  0.31434282493E+03  0.00000000000E+00 0.  1.
<mgrwt>
<rscale>  0 0.19312452E+04</rscale>
<asrwt>0</asrwt>
<pdfrwt beam="1">  1        1 0.40687364E+00 0.19312452E+04</pdfrwt>
<pdfrwt beam="2">  1       -2 0.54241113E-01 0.19312452E+04</pdfrwt>
<totfact> 0.28188601E+00</totfact>
</mgrwt>
</event>
<event>
12    4  0.4183215E-008  0.1360679E+04  0.7818608E-02  0.8982783E-01
         -2   -1    0    0    0  501 -0.00000000000E+00  0.00000000000E+00  0.53136014363E+03  0.53136014363E+03  0.00000000000E+00 0.  1.
          1   -1    0    0  501    0  0.00000000000E+00 -0.00000000000E+00 -0.87108916952E+03  0.87108916952E+03  0.00000000000E+00 0. -1.
        -24    2    1    2    0    0  0.28484865397E+03 -0.21137237690E+03  0.31150063371E+02  0.36512836284E+03  0.80816814536E+02 0.  0.
        254    2    1    2    0    0 -0.28484865397E+03  0.21137237690E+03 -0.37087908927E+03  0.10373209503E+04  0.90148012608E+03 0.  0.
         23    2    4    4    0    0  0.76987648862E+02 -0.20064678469E+03  0.14851055458E+03  0.27687187124E+03  0.91741037587E+02 0.  0.
         23    2    4    4    0    0 -0.36183630284E+03  0.41201916159E+03 -0.51938964385E+03  0.76044907908E+03  0.88498023524E+02 0.  0.
          1    1    3    3  502    0  0.17773688658E+02 -0.18579742282E+02 -0.18961929924E+02  0.31947857804E+02  0.00000000000E+00 0. -1.
         -2    1    3    3    0  502  0.26707496532E+03 -0.19279263462E+03  0.50111993295E+02  0.33318050503E+03  0.00000000000E+00 0.  1.
         11    1    5    5    0    0  0.15309142981E+02 -0.82456089696E+02  0.97239598620E+01  0.84427080857E+02  0.00000000000E+00 0.  1.
        -11    1    5    5    0    0  0.61678505881E+02 -0.11819069499E+03  0.13878659472E+03  0.19244479038E+03  0.00000000000E+00 0. -1.
          3    1    6    6  503    0 -0.23598640274E+03  0.20796837072E+03 -0.31889320900E+03  0.44792109154E+03  0.00000000000E+00 0. -1.
         -3    1    6    6    0  503 -0.12584990009E+03  0.20405079087E+03 -0.20049643485E+03  0.31252798754E+03  0.00000000000E+00 0.  1.
<mgrwt>
<rscale>  0 0.13606793E+04</rscale>
<asrwt>0</asrwt>
<pdfrwt beam="1">  1        1 0.13401372E+00 0.13606793E+04</pdfrwt>
<pdfrwt beam="2">  1       -2 0.81747714E-01 0.13606793E+04</pdfrwt>
<totfact> 0.21697637E+01</totfact>
</mgrwt>
</event>
<event>
12    4  0.4183215E-008  0.1222703E+04  0.7818608E-02  0.9093214E-01
         -2   -1    0    0    0  501 -0.00000000000E+00  0.00000000000E+00  0.39823739703E+03  0.39823739703E+03  0.00000000000E+00 0.  1.
          1   -1    0    0  501    0  0.00000000000E+00 -0.00000000000E+00 -0.93851164174E+03  0.93851164174E+03  0.00000000000E+00 0. -1.
        -24    2    1    2    0    0  0.23719750078E+03  0.12058426527E+03 -0.13223058314E+03  0.30763492440E+03  0.79693790139E+02 0.  0.
        254    2    1    2    0    0 -0.23719750078E+03 -0.12058426527E+03 -0.40804366157E+03  0.10291141144E+04  0.90651696687E+03 0.  0.
         23    2    4    4    0    0  0.11760532708E+03  0.30998868275E+03 -0.21764478661E+02  0.34458644283E+03  0.91335248695E+02 0.  0.
         23    2    4    4    0    0 -0.35480282786E+03 -0.43057294802E+03 -0.38627918291E+03  0.68452767154E+03  0.89935619891E+02 0.  0.
          3    1    3    3  502    0  0.16537730220E+03  0.11257462672E+03 -0.12284423067E+03  0.23476244093E+03  0.00000000000E+00 0. -1.
         -4    1    3    3    0  502  0.71820198584E+02  0.80096385520E+01 -0.93863524653E+01  0.72872483469E+02  0.00000000000E+00 0.  1.
         11    1    5    5    0    0  0.11639043818E+03  0.30436917594E+03 -0.39720595594E+01  0.32588818116E+03  0.00000000000E+00 0.  1.
        -11    1    5    5    0    0  0.12148889075E+01  0.56195068122E+01 -0.17792419101E+02  0.18698261667E+02  0.00000000000E+00 0. -1.
          3    1    6    6  503    0 -0.23291525126E+03 -0.21253605237E+03 -0.21845276791E+03  0.38359183989E+03  0.00000000000E+00 0. -1.
         -3    1    6    6    0  503 -0.12188757661E+03 -0.21803689565E+03 -0.16782641500E+03  0.30093583165E+03  0.00000000000E+00 0.  1.
<mgrwt>
<rscale>  0 0.12227026E+04</rscale>
<asrwt>0</asrwt>
<pdfrwt beam="1">  1        1 0.14438641E+00 0.12227026E+04</pdfrwt>
<pdfrwt beam="2">  1       -2 0.61267292E-01 0.12227026E+04</pdfrwt>
<totfact> 0.36334313E+01</totfact>
</mgrwt>
</event>
<event>
12    4  0.4183215E-008  0.2273952E+04  0.7818608E-02  0.8488263E-01
          1   -1    0    0  501    0  0.00000000000E+00  0.00000000000E+00  0.17608969800E+04  0.17608969800E+04  0.00000000000E+00 0. -1.
         -2   -1    0    0    0  501 -0.00000000000E+00 -0.00000000000E+00 -0.73412253327E+03  0.73412253327E+03  0.00000000000E+00 0.  1.
        -24    2    1    2    0    0  0.56174003880E+03 -0.11438060203E+03 -0.40766881344E+03  0.70793852415E+03  0.79676214918E+02 0.  0.
        254    2    1    2    0    0 -0.56174003880E+03  0.11438060203E+03  0.14344432602E+04  0.17870809891E+04  0.89855228102E+03 0.  0.
         23    2    4    4    0    0 -0.58376635523E+03 -0.20988181999E+03  0.12602530599E+04  0.14075986578E+04  0.90899232596E+02 0.  0.
         23    2    4    4    0    0  0.22026316432E+02  0.32426242202E+03  0.17419020029E+03  0.37948233138E+03  0.89628884847E+02 0.  0.
          3    1    3    3  502    0  0.83553034870E+02 -0.46176853697E+02 -0.59137798684E+02  0.11229733161E+03  0.00000000000E+00 0. -1.
         -4    1    3    3    0  502  0.47818700393E+03 -0.68203748333E+02 -0.34853101475E+03  0.59564119255E+03  0.00000000000E+00 0.  1.
         11    1    5    5    0    0 -0.86171231745E+02 -0.43926899035E+01  0.21952277690E+03  0.23587078344E+03  0.00000000000E+00 0.  1.
        -11    1    5    5    0    0 -0.49759512349E+03 -0.20548913009E+03  0.10407302830E+04  0.11717278743E+04  0.00000000000E+00 0. -1.
          3    1    6    6  503    0 -0.22161517889E+02  0.50209138621E+02  0.53976519400E+02  0.76977627417E+02  0.00000000000E+00 0.  1.
         -3    1    6    6    0  503  0.44187834321E+02  0.27405328340E+03  0.12021368089E+03  0.30250470396E+03  0.00000000000E+00 0. -1.
<mgrwt>
<rscale>  0 0.22739518E+04</rscale>
<asrwt>0</asrwt>
<pdfrwt beam="1">  1        1 0.27090723E+00 0.22739518E+04</pdfrwt>
<pdfrwt beam="2">  1       -2 0.11294193E+00 0.22739518E+04</pdfrwt>
<totfact> 0.21236509E+00</totfact>
</mgrwt>
</event>
<event>
12    4  0.4183215E-008  0.1716894E+04  0.7818608E-02  0.8751787E-01
         -2   -1    0    0    0  501 -0.00000000000E+00  0.00000000000E+00  0.14474310395E+04  0.14474310395E+04  0.00000000000E+00 0.  1.
          1   -1    0    0  501    0  0.00000000000E+00 -0.00000000000E+00 -0.50913068524E+03  0.50913068524E+03  0.00000000000E+00 0. -1.
        -24    2    1    2    0    0 -0.29608797946E+03 -0.36658096056E+03 -0.11464537472E+03  0.49176119706E+03  0.81460547311E+02 0.  0.
        254    2    1    2    0    0  0.29608797946E+03  0.36658096056E+03  0.10529457290E+04  0.14648005277E+04  0.90271600487E+03 0.  0.
         23    2    4    4    0    0 -0.21617863199E+03  0.42850751349E+03  0.44834422066E+03  0.66398431832E+03  0.97523047188E+02 0.  0.
         23    2    4    4    0    0  0.51226661144E+03 -0.61926552925E+02  0.60460150831E+03  0.80081620934E+03  0.97527627548E+02 0.  0.
          1    1    3    3  502    0 -0.25152133557E+03 -0.30306742154E+03 -0.63753499776E+02  0.39897036604E+03  0.00000000000E+00 0. -1.
         -2    1    3    3    0  502 -0.44566643884E+02 -0.63513539021E+02 -0.50891874945E+02  0.92790831020E+02  0.00000000000E+00 0.  1.
         11    1    5    5    0    0  0.82514941869E+01  0.27364870146E+02  0.39874003881E+02  0.49059753974E+02  0.00000000000E+00 0. -1.
        -11    1    5    5    0    0 -0.22443012617E+03  0.40114264334E+03  0.40847021677E+03  0.61492456434E+03  0.00000000000E+00 0.  1.
          4    1    6    6  503    0  0.11059781025E+03 -0.51808089662E+02  0.16462071993E+03  0.20497788958E+03  0.00000000000E+00 0. -1.
         -4    1    6    6    0  503  0.40166880120E+03 -0.10118463263E+02  0.43998078838E+03  0.59583831976E+03  0.00000000000E+00 0.  1.
<mgrwt>
<rscale>  0 0.17168944E+04</rscale>
<asrwt>0</asrwt>
<pdfrwt beam="1">  1        1 0.78327798E-01 0.17168944E+04</pdfrwt>
<pdfrwt beam="2">  1       -2 0.22268170E+00 0.17168944E+04</pdfrwt>
<totfact> 0.34137793E+00</totfact>
</mgrwt>
</event>
<event>
12    4  0.4183215E-008  0.1440236E+04  0.7818608E-02  0.8925198E-01
          1   -1    0    0  501    0  0.00000000000E+00  0.00000000000E+00  0.37347951248E+03  0.37347951248E+03  0.00000000000E+00 0. -1.
         -2   -1    0    0    0  501 -0.00000000000E+00 -0.00000000000E+00 -0.13884824813E+04  0.13884824813E+04  0.00000000000E+00 0.  1.
        -24    2    1    2    0    0  0.24742218675E+03 -0.11105138231E+03 -0.72525591928E+03  0.77817452715E+03  0.77519663683E+02 0.  0.
        254    2    1    2    0    0 -0.24742218675E+03  0.11105138231E+03 -0.28974704950E+03  0.98378746658E+03  0.90018569123E+03 0.  0.
         23    2    4    4    0    0 -0.34637592449E+02 -0.24783103148E+03 -0.45388429421E+03  0.52616030679E+03  0.90629647103E+02 0.  0.
         23    2    4    4    0    0 -0.21278459430E+03  0.35888241379E+03  0.16413724472E+03  0.45762715979E+03  0.91693575399E+02 0.  0.
          1    1    3    3  502    0  0.33617357181E+02 -0.31677032010E+02 -0.65784658538E+02  0.80381480204E+02  0.00000000000E+00 0. -1.
         -2    1    3    3    0  502  0.21380482957E+03 -0.79374350300E+02 -0.65947126074E+03  0.69779304695E+03  0.00000000000E+00 0.  1.
         11    1    5    5    0    0 -0.29431921295E+02 -0.25430849279E+03 -0.42543222988E+03  0.49651951595E+03  0.00000000000E+00 0. -1.
        -11    1    5    5    0    0 -0.52056711536E+01  0.64774613067E+01 -0.28452064327E+02  0.29640790840E+02  0.00000000000E+00 0.  1.
          1    1    6    6  503    0 -0.14286051633E+03  0.30603100047E+03  0.11292838556E+03  0.35611363445E+03  0.00000000000E+00 0. -1.
         -1    1    6    6    0  503 -0.69924077968E+02  0.52851413319E+02  0.51208859158E+02  0.10151352533E+03  0.00000000000E+00 0.  1.
<mgrwt>
<rscale>  0 0.14402358E+04</rscale>
<asrwt>0</asrwt>
<pdfrwt beam="1">  1        1 0.57458387E-01 0.14402358E+04</pdfrwt>
<pdfrwt beam="2">  1       -2 0.21361269E+00 0.14402358E+04</pdfrwt>
<totfact> 0.60554310E+00</totfact>
</mgrwt>
</event>
<event>
12    4  0.4183215E-008  0.1634730E+04  0.7818608E-02  0.8799492E-01
          1   -1    0    0  501    0  0.00000000000E+00  0.00000000000E+00  0.75941765665E+03  0.75941765665E+03  0.00000000000E+00 0. -1.
         -2   -1    0    0    0  501 -0.00000000000E+00 -0.00000000000E+00 -0.87973366653E+03  0.87973366653E+03  0.00000000000E+00 0.  1.
        -24    2    1    2    0    0  0.22237343746E+03  0.50841708945E+03  0.92428952743E+02  0.56806560494E+03  0.78851364455E+02 0.  0.
        254    2    1    2    0    0 -0.22237343746E+03 -0.50841708945E+03 -0.21274496262E+03  0.10710857182E+04  0.89108154181E+03 0.  0.
         23    2    4    4    0    0 -0.23481016802E+02 -0.62276273680E+03  0.13477529046E+03  0.64426026417E+03  0.92315353984E+02 0.  0.
         23    2    4    4    0    0 -0.19889242066E+03  0.11434564735E+03 -0.34752025308E+03  0.42682545407E+03  0.93683082121E+02 0.  0.
          3    1    3    3  502    0  0.20614857164E+03  0.39320493633E+03  0.67395630118E+02  0.44905403517E+03  0.00000000000E+00 0. -1.
         -2    1    3    3    0  502  0.16224865824E+02  0.11521215312E+03  0.25033322625E+02  0.11901156977E+03  0.00000000000E+00 0.  1.
         11    1    5    5    0    0 -0.12153138803E+02 -0.18361631249E+03 -0.24471577339E+01  0.18403433803E+03  0.00000000000E+00 0.  1.
        -11    1    5    5    0    0 -0.11327877999E+02 -0.43914642431E+03  0.13722244819E+03  0.46022592614E+03  0.00000000000E+00 0. -1.
          1    1    6    6  503    0 -0.19854099110E+03  0.96192967970E+02 -0.34347557801E+03  0.40822430712E+03  0.00000000000E+00 0. -1.
         -1    1    6    6    0  503 -0.35142955835E+00  0.18152679378E+02 -0.40446750699E+01  0.18601146947E+02  0.00000000000E+00 0.  1.
<mgrwt>
<rscale>  0 0.16347297E+04</rscale>
<asrwt>0</asrwt>
<pdfrwt beam="1">  1        1 0.11683349E+00 0.16347297E+04</pdfrwt>
<pdfrwt beam="2">  1       -2 0.13534364E+00 0.16347297E+04</pdfrwt>
<totfact> 0.78863474E+00</totfact>
</mgrwt>
</event>
<event>
12    4  0.4183215E-008  0.3395734E+04  0.7818608E-02  0.8138954E-01
          1   -1    0    0  501    0  0.00000000000E+00  0.00000000000E+00  0.32155912083E+04  0.32155912083E+04  0.00000000000E+00 0. -1.
         -2   -1    0    0    0  501 -0.00000000000E+00 -0.00000000000E+00 -0.89649192100E+03  0.89649192100E+03  0.00000000000E+00 0.  1.
        -24    2    1    2    0    0 -0.14715933807E+04  0.48417184085E+03  0.72404738646E+03  0.17118891955E+04  0.79438972043E+02 0.  0.
        254    2    1    2    0    0  0.14715933807E+04 -0.48417184085E+03  0.15950519009E+04  0.24001939339E+04  0.90373165491E+03 0.  0.
         23    2    4    4    0    0  0.15005248540E+04 -0.62219774173E+03  0.14590299578E+04  0.21852721758E+04  0.89113395066E+02 0.  0.
         23    2    4    4    0    0 -0.28931473278E+02  0.13802590087E+03  0.13602194306E+03  0.21492175810E+03  0.88324479343E+02 0.  0.
          3    1    3    3  502    0 -0.84361788946E+03  0.29371925156E+03  0.37741965313E+03  0.96974622285E+03  0.00000000000E+00 0. -1.
         -4    1    3    3    0  502 -0.62797549121E+03  0.19045258929E+03  0.34662773332E+03  0.74214297264E+03  0.00000000000E+00 0.  1.
         11    1    5    5    0    0  0.96748822850E+03 -0.37707694663E+03  0.88272404522E+03  0.13628727879E+04  0.00000000000E+00 0.  1.
        -11    1    5    5    0    0  0.53303662545E+03 -0.24512079510E+03  0.57630591260E+03  0.82239938786E+03  0.00000000000E+00 0. -1.
          1    1    6    6  503    0 -0.42179833970E+02  0.98756492714E+02  0.47990607555E+02  0.11762262393E+03  0.00000000000E+00 0. -1.
         -1    1    6    6    0  503  0.13248360692E+02  0.39269408160E+02  0.88031335510E+02  0.97299134168E+02  0.00000000000E+00 0.  1.
<mgrwt>
<rscale>  0 0.33957335E+04</rscale>
<asrwt>0</asrwt>
<pdfrwt beam="1">  1        1 0.49470634E+00 0.33957335E+04</pdfrwt>
<pdfrwt beam="2">  1       -2 0.13792184E+00 0.33957335E+04</pdfrwt>
<totfact> 0.11185135E-01</totfact>
</mgrwt>
</event>
<event>
12    4  0.4183215E-008  0.2025230E+04  0.7818608E-02  0.8594915E-01
         -2   -1    0    0    0  501 -0.00000000000E+00  0.00000000000E+00  0.12161264992E+04  0.12161264992E+04  0.00000000000E+00 0.  1.
          1   -1    0    0  501    0  0.00000000000E+00 -0.00000000000E+00 -0.84315977379E+03  0.84315977379E+03  0.00000000000E+00 0. -1.
        -24    2    1    2    0    0  0.56143633469E+03 -0.47138494676E+03 -0.20582267152E+03  0.76547186924E+03  0.78547339463E+02 0.  0.
        254    2    1    2    0    0 -0.56143633469E+03  0.47138494676E+03  0.57878939689E+03  0.12938144037E+04  0.89528990799E+03 0.  0.
         23    2    4    4    0    0 -0.62792091323E+03  0.14592225467E+03  0.67276940256E+03  0.93625753259E+03  0.91550645166E+02 0.  0.
         23    2    4    4    0    0  0.66484578537E+02  0.32546269209E+03 -0.93980005677E+02  0.35755687112E+03  0.93104841389E+02 0.  0.
          1    1    3    3  502    0  0.30582075356E+03 -0.25715626436E+03 -0.15268884288E+03  0.42774941303E+03  0.00000000000E+00 0. -1.
         -2    1    3    3    0  502  0.25561558113E+03 -0.21422868240E+03 -0.53133828642E+02  0.33772245620E+03  0.00000000000E+00 0.  1.
         11    1    5    5    0    0 -0.15060206438E+03  0.69677624212E+02  0.14237615472E+03  0.21864794201E+03  0.00000000000E+00 0. -1.
        -11    1    5    5    0    0 -0.47731884885E+03  0.76244630455E+02  0.53039324784E+03  0.71760959058E+03  0.00000000000E+00 0.  1.
          1    1    6    6  503    0 -0.62286991092E+01  0.10246160477E+03  0.54518225109E+01  0.10279542555E+03  0.00000000000E+00 0. -1.
         -1    1    6    6    0  503  0.72713277646E+02  0.22300108732E+03 -0.99431828188E+02  0.25476144557E+03  0.00000000000E+00 0.  1.
<mgrwt>
<rscale>  0 0.20252298E+04</rscale>
<asrwt>0</asrwt>
<pdfrwt beam="1">  1        1 0.12971689E+00 0.20252298E+04</pdfrwt>
<pdfrwt beam="2">  1       -2 0.18709639E+00 0.20252298E+04</pdfrwt>
<totfact> 0.26684622E+00</totfact>
</mgrwt>
</event>
<event>
12    4  0.4183215E-008  0.2172006E+04  0.7818608E-02  0.8530171E-01
          3   -1    0    0  501    0  0.00000000000E+00  0.00000000000E+00  0.89065226107E+03  0.89065226107E+03  0.00000000000E+00 0. -1.
         -2   -1    0    0    0  501 -0.00000000000E+00 -0.00000000000E+00 -0.13242008523E+04  0.13242008523E+04  0.00000000000E+00 0.  1.
        -24    2    1    2    0    0  0.29958297867E+03  0.32140787828E+03 -0.97233392815E+03  0.10700649698E+04  0.80949283447E+02 0.  0.
        254    2    1    2    0    0 -0.29958297867E+03 -0.32140787828E+03  0.53878533689E+03  0.11447881436E+04  0.90950385875E+03 0.  0.
         23    2    4    4    0    0  0.26491830567E+03 -0.11501742098E+03  0.43174315643E+03  0.52758231379E+03  0.92359238245E+02 0.  0.
         23    2    4    4    0    0 -0.56450128434E+03 -0.20639045730E+03  0.10704218046E+03  0.61720582978E+03  0.90698881113E+02 0.  0.
          3    1    3    3  502    0  0.17015517818E+03  0.12378392701E+03 -0.47052062127E+03  0.51542691071E+03  0.00000000000E+00 0. -1.
         -4    1    3    3    0  502  0.12942780049E+03  0.19762395128E+03 -0.50181330688E+03  0.55463805912E+03  0.00000000000E+00 0.  1.
         11    1    5    5    0    0  0.25371431245E+03 -0.12461110148E+03  0.42701203139E+03  0.51209193892E+03  0.00000000000E+00 0. -1.
        -11    1    5    5    0    0  0.11203993217E+02  0.95936804972E+01  0.47311250460E+01  0.15490374873E+02  0.00000000000E+00 0.  1.
          1    1    6    6  503    0 -0.18722360245E+03 -0.99642841249E+02  0.53998219928E+01  0.21215685519E+03  0.00000000000E+00 0. -1.
         -1    1    6    6    0  503 -0.37727768189E+03 -0.10674761606E+03  0.10164235847E+03  0.40504897460E+03  0.00000000000E+00 0.  1.
<mgrwt>
<rscale>  0 0.21720060E+04</rscale>
<asrwt>0</asrwt>
<pdfrwt beam="1">  1        3 0.13702343E+00 0.21720060E+04</pdfrwt>
<pdfrwt beam="2">  1       -2 0.20372321E+00 0.21720060E+04</pdfrwt>
<totfact> 0.19499022E-01</totfact>
</mgrwt>
</event>
<event>
12    4  0.4183215E-008  0.3363462E+04  0.7818608E-02  0.8146932E-01
         -2   -1    0    0    0  501 -0.00000000000E+00  0.00000000000E+00  0.74698279504E+03  0.74698279504E+03  0.00000000000E+00 0.  1.
          1   -1    0    0  501    0  0.00000000000E+00 -0.00000000000E+00 -0.37861914350E+04  0.37861914350E+04  0.00000000000E+00 0. -1.
        -24    2    1    2    0    0  0.45360057145E+03 -0.93327299627E+03  0.15756509316E+03  0.10528956706E+04  0.83729150338E+02 0.  0.
        254    2    1    2    0    0 -0.45360057145E+03  0.93327299627E+03 -0.31967737332E+04  0.34802785595E+04  0.90345148544E+03 0.  0.
         23    2    4    4    0    0  0.26177632424E+03  0.17105517216E+03 -0.70329889652E+03  0.77502527261E+03  0.90819158138E+02 0.  0.
         23    2    4    4    0    0 -0.71537689569E+03  0.76221782410E+03 -0.24934748366E+04  0.27052532869E+04  0.90766022633E+02 0.  0.
          1    1    3    3  502    0  0.33876255583E+03 -0.70359148312E+03  0.15478507463E+03  0.79609011028E+03  0.00000000000E+00 0. -1.
         -2    1    3    3    0  502  0.11483801562E+03 -0.22968151315E+03  0.27800185296E+01  0.25680556033E+03  0.00000000000E+00 0.  1.
         11    1    5    5    0    0 -0.85849039929E+00 -0.99241011752E+00 -0.51817696042E+02  0.51834308202E+02  0.00000000000E+00 0. -1.
        -11    1    5    5    0    0  0.26263481464E+03  0.17204758228E+03 -0.65148120048E+03  0.72319096441E+03  0.00000000000E+00 0.  1.
          1    1    6    6  503    0 -0.25095272274E+03  0.26005532414E+03 -0.75425239477E+03  0.83636278951E+03  0.00000000000E+00 0. -1.
         -1    1    6    6    0  503 -0.46442417295E+03  0.50216249997E+03 -0.17392224419E+04  0.18688904974E+04  0.00000000000E+00 0.  1.
<mgrwt>
<rscale>  0 0.33634624E+04</rscale>
<asrwt>0</asrwt>
<pdfrwt beam="1">  1        1 0.58249100E+00 0.33634624E+04</pdfrwt>
<pdfrwt beam="2">  1       -2 0.11492043E+00 0.33634624E+04</pdfrwt>
<totfact> 0.62729240E-02</totfact>
</mgrwt>
</event>
<event>
12    4  0.4183215E-008  0.1258378E+04  0.7818608E-02  0.9063239E-01
          1   -1    0    0  501    0  0.00000000000E+00  0.00000000000E+00  0.13452752374E+04  0.13452752374E+04  0.00000000000E+00 0. -1.
         -2   -1    0    0    0  501 -0.00000000000E+00 -0.00000000000E+00 -0.29427333720E+03  0.29427333720E+03  0.00000000000E+00 0.  1.
        -24    2    1    2    0    0  0.90717635337E+02 -0.48593556488E+02  0.62779832469E+03  0.64117847519E+03  0.79925449424E+02 0.  0.
        254    2    1    2    0    0 -0.90717635337E+02  0.48593556488E+02  0.42320357547E+03  0.99837009937E+03  0.89835993117E+03 0.  0.
         23    2    4    4    0    0 -0.12579098113E+03  0.43917027968E+03  0.36365886084E+03  0.59141552732E+03  0.93971556352E+02 0.  0.
         23    2    4    4    0    0  0.35073345797E+02 -0.39057672319E+03  0.59544714630E+02  0.40695457205E+03  0.91028206540E+02 0.  0.
          1    1    3    3  502    0  0.69303228834E+02 -0.34561005943E+02  0.59268088585E+03  0.59771902522E+03  0.00000000000E+00 0. -1.
         -2    1    3    3    0  502  0.21414406503E+02 -0.14032550546E+02  0.35117438842E+02  0.43459449968E+02  0.00000000000E+00 0.  1.
         11    1    5    5    0    0 -0.93932221840E+02  0.19238690144E+03  0.13247979468E+03  0.25176750812E+03  0.00000000000E+00 0. -1.
        -11    1    5    5    0    0 -0.31858759294E+02  0.24678337824E+03  0.23117906616E+03  0.33964801921E+03  0.00000000000E+00 0.  1.
          1    1    6    6  503    0  0.29948433310E+01  0.15134197489E+00  0.11611546905E+02  0.11992498176E+02  0.00000000000E+00 0. -1.
         -1    1    6    6    0  503  0.32078502466E+02 -0.39072806517E+03  0.47933167725E+02  0.39496207387E+03  0.00000000000E+00 0.  1.
<mgrwt>
<rscale>  0 0.12583777E+04</rscale>
<asrwt>0</asrwt>
<pdfrwt beam="1">  1        1 0.20696542E+00 0.12583777E+04</pdfrwt>
<pdfrwt beam="2">  1       -2 0.45272822E-01 0.12583777E+04</pdfrwt>
<totfact> 0.33588560E+01</totfact>
</mgrwt>
</event>
<event>
12    4  0.4183215E-008  0.1976148E+04  0.7818608E-02  0.8617854E-01
          1   -1    0    0  501    0  0.00000000000E+00  0.00000000000E+00  0.11709644514E+04  0.11709644514E+04  0.00000000000E+00 0. -1.
         -2   -1    0    0    0  501 -0.00000000000E+00 -0.00000000000E+00 -0.83374846591E+03  0.83374846591E+03  0.00000000000E+00 0.  1.
        -24    2    1    2    0    0 -0.72470581657E+03  0.51906323838E+02  0.48124983087E+03  0.87376488817E+03  0.63015022473E+02 0.  0.
        254    2    1    2    0    0  0.72470581657E+03 -0.51906323838E+02 -0.14403384535E+03  0.11309480292E+04  0.85463729678E+03 0.  0.
         23    2    4    4    0    0  0.69617256023E+03  0.29450682797E+03 -0.81075687314E+02  0.76661491464E+03  0.98664355028E+02 0.  0.
         23    2    4    4    0    0  0.28533256345E+02 -0.34641315180E+03 -0.62958158035E+02  0.36433311453E+03  0.89211379410E+02 0.  0.
          3    1    3    3  502    0 -0.64726937284E+03  0.36519909693E+02  0.44836265004E+03  0.78823880314E+03  0.00000000000E+00 0. -1.
         -4    1    3    3    0  502 -0.77436443726E+02  0.15386414145E+02  0.32887180833E+02  0.85526085028E+02  0.00000000000E+00 0.  1.
         11    1    5    5    0    0  0.48802801830E+03  0.16805091953E+03 -0.25349749897E+02  0.51677371065E+03  0.00000000000E+00 0. -1.
        -11    1    5    5    0    0  0.20814454192E+03  0.12645590844E+03 -0.55725937417E+02  0.24984120399E+03  0.00000000000E+00 0.  1.
          2    1    6    6  503    0  0.16006363399E+02 -0.31726828353E+03 -0.30800195737E+02  0.31916143166E+03  0.00000000000E+00 0. -1.
         -2    1    6    6    0  503  0.12526892946E+02 -0.29144868277E+02 -0.32157962299E+02  0.45171682866E+02  0.00000000000E+00 0.  1.
<mgrwt>
<rscale>  0 0.19761476E+04</rscale>
<asrwt>0</asrwt>
<pdfrwt beam="1">  1        1 0.18014838E+00 0.19761476E+04</pdfrwt>
<pdfrwt beam="2">  1       -2 0.12826899E+00 0.19761476E+04</pdfrwt>
<totfact> 0.41115319E+00</totfact>
</mgrwt>
</event>
<event>
12    4  0.4183215E-008  0.1049043E+04  0.7818608E-02  0.9256333E-01
         -2   -1    0    0    0  501 -0.00000000000E+00  0.00000000000E+00  0.14885596298E+04  0.14885596298E+04  0.00000000000E+00 0.  1.
          1   -1    0    0  501    0  0.00000000000E+00 -0.00000000000E+00 -0.18482484884E+03  0.18482484884E+03  0.00000000000E+00 0. -1.
        -24    2    1    2    0    0  0.12489926790E+03  0.45729006162E+02  0.17417801803E+03  0.23328033757E+03  0.79942259176E+02 0.  0.
        254    2    1    2    0    0 -0.12489926790E+03 -0.45729006162E+02  0.11295567629E+04  0.14401041411E+04  0.88335184798E+03 0.  0.
         23    2    4    4    0    0  0.35774371308E+03  0.46042754478E+02  0.63316761461E+03  0.73430276598E+03  0.90547360202E+02 0.  0.
         23    2    4    4    0    0 -0.48264298098E+03 -0.91771760640E+02  0.49638914831E+03  0.70580137509E+03  0.10191708087E+03 0.  0.
          3    1    3    3  502    0  0.91786946074E+01  0.28597073005E+02  0.71790858158E+02  0.77820102379E+02  0.00000000000E+00 0. -1.
         -4    1    3    3    0  502  0.11572057329E+03  0.17131933157E+02  0.10238715987E+03  0.15546023519E+03  0.00000000000E+00 0.  1.
         11    1    5    5    0    0  0.27344675357E+03  0.12922489437E+02  0.40523652770E+03  0.48903656423E+03  0.00000000000E+00 0. -1.
        -11    1    5    5    0    0  0.84296959515E+02  0.33120265041E+02  0.22793108691E+03  0.24526620175E+03  0.00000000000E+00 0.  1.
          3    1    6    6  503    0 -0.18057326609E+03 -0.68915229153E+02  0.24558433853E+03  0.31251828837E+03  0.00000000000E+00 0. -1.
         -3    1    6    6    0  503 -0.30206971489E+03 -0.22856531486E+02  0.25080480977E+03  0.39328308671E+03  0.00000000000E+00 0.  1.
<mgrwt>
<rscale>  0 0.10490430E+04</rscale>
<asrwt>0</asrwt>
<pdfrwt beam="1">  1        1 0.28434593E-01 0.10490430E+04</pdfrwt>
<pdfrwt beam="2">  1       -2 0.22900917E+00 0.10490430E+04</pdfrwt>
<totfact> 0.12493458E+01</totfact>
</mgrwt>
</event>
<event>
12    4  0.4183215E-008  0.3747923E+04  0.7818608E-02  0.8057424E-01
          1   -1    0    0  501    0  0.00000000000E+00  0.00000000000E+00  0.26983142018E+04  0.26983142018E+04  0.00000000000E+00 0. -1.
         -2   -1    0    0    0  501 -0.00000000000E+00 -0.00000000000E+00 -0.13014536756E+04  0.13014536756E+04  0.00000000000E+00 0.  1.
        -24    2    1    2    0    0 -0.11525434129E+04  0.84596247377E+02 -0.76405642080E+03  0.13876116241E+04  0.78555467782E+02 0.  0.
        254    2    1    2    0    0  0.11525434129E+04 -0.84596247377E+02  0.21609169470E+04  0.26121562533E+04  0.90459128663E+03 0.  0.
         23    2    4    4    0    0  0.80263719653E+03  0.34305840354E+03  0.15657866661E+04  0.17949198830E+04  0.90188497414E+02 0.  0.
         23    2    4    4    0    0  0.34990621640E+03 -0.42765465091E+03  0.59513028088E+03  0.81723637027E+03  0.91500671824E+02 0.  0.
          3    1    3    3  502    0 -0.50892939161E+03  0.16026700708E+02 -0.29740716586E+03  0.58967533701E+03  0.00000000000E+00 0. -1.
         -4    1    3    3    0  502 -0.64361402133E+03  0.68569546669E+02 -0.46664925494E+03  0.79793628713E+03  0.00000000000E+00 0.  1.
         11    1    5    5    0    0  0.13147001261E+03  0.38301911173E+02  0.30773368817E+03  0.33682550891E+03  0.00000000000E+00 0. -1.
        -11    1    5    5    0    0  0.67116718392E+03  0.30475649236E+03  0.12580529780E+04  0.14580943741E+04  0.00000000000E+00 0.  1.
          3    1    6    6  503    0  0.11982264168E+03 -0.10482477297E+03  0.12595967651E+03  0.20300625260E+03  0.00000000000E+00 0. -1.
         -3    1    6    6    0  503  0.23008357473E+03 -0.32282987794E+03  0.46917060437E+03  0.61423011768E+03  0.00000000000E+00 0.  1.
<mgrwt>
<rscale>  0 0.37479226E+04</rscale>
<asrwt>0</asrwt>
<pdfrwt beam="1">  1        1 0.41512526E+00 0.37479226E+04</pdfrwt>
<pdfrwt beam="2">  1       -2 0.20022364E+00 0.37479226E+04</pdfrwt>
<totfact> 0.91730380E-02</totfact>
</mgrwt>
</event>
<event>
12    4  0.4183215E-008  0.4128147E+04  0.7818608E-02  0.7979183E-01
          1   -1    0    0  501    0  0.00000000000E+00  0.00000000000E+00  0.17920823708E+04  0.17920823708E+04  0.00000000000E+00 0. -1.
         -2   -1    0    0    0  501 -0.00000000000E+00 -0.00000000000E+00 -0.23773457727E+04  0.23773457727E+04  0.00000000000E+00 0.  1.
        -24    2    1    2    0    0 -0.18025471714E+04  0.62463999293E+03  0.20585990994E+03  0.19205363256E+04  0.82036881198E+02 0.  0.
        254    2    1    2    0    0  0.18025471714E+04 -0.62463999293E+03 -0.79112331179E+03  0.22488918178E+04  0.89010498713E+03 0.  0.
         23    2    4    4    0    0  0.92656665998E+03 -0.71861638877E+03 -0.67371286955E+03  0.13553011795E+04  0.89537517283E+02 0.  0.
         23    2    4    4    0    0  0.87598051137E+03  0.93976395843E+02 -0.11741044224E+03  0.89359063831E+03  0.92442401807E+02 0.  0.
          1    1    3    3  502    0 -0.12791882085E+04  0.41965493894E+03  0.17535512921E+03  0.13576384503E+04  0.00000000000E+00 0. -1.
         -2    1    3    3    0  502 -0.52335896290E+03  0.20498505399E+03  0.30504780727E+02  0.56289787533E+03  0.00000000000E+00 0.  1.
         11    1    5    5    0    0  0.42707767878E+03 -0.32628436362E+03 -0.36017204267E+03  0.64697815263E+03  0.00000000000E+00 0.  1.
        -11    1    5    5    0    0  0.49948898120E+03 -0.39233202516E+03 -0.31354082688E+03  0.70832302689E+03  0.00000000000E+00 0. -1.
          3    1    6    6  503    0  0.24575109320E+03  0.67919816931E+02 -0.27378139564E+02  0.25642984200E+03  0.00000000000E+00 0. -1.
         -3    1    6    6    0  503  0.63022941817E+03  0.26056578912E+02 -0.90032302680E+02  0.63716079632E+03  0.00000000000E+00 0.  1.
<mgrwt>
<rscale>  0 0.41281470E+04</rscale>
<asrwt>0</asrwt>
<pdfrwt beam="1">  1        1 0.27570498E+00 0.41281470E+04</pdfrwt>
<pdfrwt beam="2">  1       -2 0.36574550E+00 0.41281470E+04</pdfrwt>
<totfact> 0.34678142E-02</totfact>
</mgrwt>
</event>
<event>
12    4  0.4183215E-008  0.1403565E+04  0.7818608E-02  0.8951242E-01
         -2   -1    0    0    0  501 -0.00000000000E+00  0.00000000000E+00  0.78062237029E+03  0.78062237029E+03  0.00000000000E+00 0.  1.
          1   -1    0    0  501    0  0.00000000000E+00 -0.00000000000E+00 -0.63090527831E+03  0.63090527831E+03  0.00000000000E+00 0. -1.
        -24    2    1    2    0    0  0.11567541449E+03 -0.22252928288E+03 -0.29568703584E+03  0.39575024030E+03  0.79292788322E+02 0.  0.
        254    2    1    2    0    0 -0.11567541449E+03  0.22252928288E+03  0.44540412782E+03  0.10157774083E+04  0.87779201571E+03 0.  0.
         23    2    4    4    0    0  0.36010540565E+02 -0.32324324323E+03  0.18646895085E+03  0.38634064845E+03  0.93303127969E+02 0.  0.
         23    2    4    4    0    0 -0.15168595506E+03  0.54577252611E+03  0.25893517697E+03  0.62943675983E+03  0.90922656921E+02 0.  0.
          1    1    3    3  502    0  0.10080011087E+03 -0.21213900020E+03 -0.29567257238E+03  0.37760546582E+03  0.00000000000E+00 0. -1.
         -2    1    3    3    0  502  0.14875303619E+02 -0.10390282674E+02 -0.14463458957E-01  0.18144774482E+02  0.00000000000E+00 0.  1.
         11    1    5    5    0    0  0.50275627730E+02 -0.31904051105E+03  0.17361063559E+03  0.36668125016E+03  0.00000000000E+00 0. -1.
        -11    1    5    5    0    0 -0.14265087164E+02 -0.42027321838E+01  0.12858315267E+02  0.19659398290E+02  0.00000000000E+00 0.  1.
          1    1    6    6  503    0 -0.14451802019E+03  0.50125206032E+03  0.20852913809E+03  0.56180378030E+03  0.00000000000E+00 0. -1.
         -1    1    6    6    0  503 -0.71679348706E+01  0.44520465792E+02  0.50406038880E+02  0.67632979531E+02  0.00000000000E+00 0.  1.
<mgrwt>
<rscale>  0 0.14035651E+04</rscale>
<asrwt>0</asrwt>
<pdfrwt beam="1">  1        1 0.97062350E-01 0.14035651E+04</pdfrwt>
<pdfrwt beam="2">  1       -2 0.12009575E+00 0.14035651E+04</pdfrwt>
<totfact> 0.14387519E+01</totfact>
</mgrwt>
</event>
<event>
12    4  0.4183215E-008  0.1765519E+04  0.7818608E-02  0.8724854E-01
          1   -1    0    0  501    0  0.00000000000E+00  0.00000000000E+00  0.18583060300E+04  0.18583060300E+04  0.00000000000E+00 0. -1.
         -2   -1    0    0    0  501 -0.00000000000E+00 -0.00000000000E+00 -0.41934141394E+03  0.41934141394E+03  0.00000000000E+00 0.  1.
        -24    2    1    2    0    0 -0.45457993983E+02 -0.25922521236E+03 -0.23151873233E+03  0.35974947978E+03  0.80960637639E+02 0.  0.
        254    2    1    2    0    0  0.45457993983E+02  0.25922521236E+03  0.16704833484E+04  0.19178979642E+04  0.90473965524E+03 0.  0.
         23    2    4    4    0    0  0.34002976807E+03  0.32294904683E+03  0.44534716154E+03  0.65293926923E+03  0.89884731679E+02 0.  0.
         23    2    4    4    0    0 -0.29457177409E+03 -0.63723834473E+02  0.12251361868E+04  0.12649586949E+04  0.91260979505E+02 0.  0.
          3    1    3    3  502    0 -0.13730131346E+02 -0.58361215124E+01  0.20183984087E+00  0.14920374003E+02  0.00000000000E+00 0. -1.
         -4    1    3    3    0  502 -0.31727862637E+02 -0.25338909085E+03 -0.23172057217E+03  0.34482910578E+03  0.00000000000E+00 0.  1.
         11    1    5    5    0    0  0.10617237985E+03  0.13310387858E+03  0.11271172362E+03  0.20418900405E+03  0.00000000000E+00 0. -1.
        -11    1    5    5    0    0  0.23385738823E+03  0.18984516825E+03  0.33263543792E+03  0.44875026518E+03  0.00000000000E+00 0.  1.
          1    1    6    6  503    0 -0.52466718777E+02  0.67744335350E+01  0.35852063050E+03  0.36240266558E+03  0.00000000000E+00 0. -1.
         -1    1    6    6    0  503 -0.24210505531E+03 -0.70498268008E+02  0.86661555635E+03  0.90255602935E+03  0.00000000000E+00 0.  1.
<mgrwt>
<rscale>  0 0.17655194E+04</rscale>
<asrwt>0</asrwt>
<pdfrwt beam="1">  1        1 0.28589323E+00 0.17655194E+04</pdfrwt>
<pdfrwt beam="2">  1       -2 0.64514065E-01 0.17655194E+04</pdfrwt>
<totfact> 0.68554628E+00</totfact>
</mgrwt>
</event>
<event>
12    4  0.4183215E-008  0.1507397E+04  0.7818608E-02  0.8879549E-01
          1   -1    0    0  501    0  0.00000000000E+00  0.00000000000E+00  0.58186001528E+03  0.58186001528E+03  0.00000000000E+00 0. -1.
         -2   -1    0    0    0  501 -0.00000000000E+00 -0.00000000000E+00 -0.97628578829E+03  0.97628578829E+03  0.00000000000E+00 0.  1.
        -24    2    1    2    0    0  0.94655427768E+02 -0.15347492567E+03  0.33411823872E+03  0.38999900154E+03  0.89162889937E+02 0.  0.
        254    2    1    2    0    0 -0.94655427768E+02  0.15347492567E+03 -0.72854401173E+03  0.11681468020E+04  0.89514041984E+03 0.  0.
         23    2    4    4    0    0 -0.44996902141E+02  0.22691220263E+03  0.14274905402E+03  0.28763004304E+03  0.94020637792E+02 0.  0.
         23    2    4    4    0    0 -0.49658525627E+02 -0.73437276958E+02 -0.87129306575E+03  0.88051675898E+03  0.91099690483E+02 0.  0.
          1    1    3    3  502    0  0.10351556577E+03 -0.11240344266E+03  0.29669338421E+03  0.33373188417E+03  0.00000000000E+00 0. -1.
         -2    1    3    3    0  502 -0.88601379998E+01 -0.41071483011E+02  0.37424854512E+02  0.56267117372E+02  0.00000000000E+00 0.  1.
         11    1    5    5    0    0 -0.53692954309E+02  0.13528965605E+03  0.12915912108E+03  0.19459779787E+03  0.00000000000E+00 0.  1.
        -11    1    5    5    0    0  0.86960521682E+01  0.91622546576E+02  0.13589932944E+02  0.93032245172E+02  0.00000000000E+00 0. -1.
          4    1    6    6  503    0  0.23289408152E+02 -0.12294806518E+02 -0.10147786148E+03  0.10483947334E+03  0.00000000000E+00 0. -1.
         -4    1    6    6    0  503 -0.72947933780E+02 -0.61142470439E+02 -0.76981520427E+03  0.77567728565E+03  0.00000000000E+00 0.  1.
<mgrwt>
<rscale>  0 0.15073973E+04</rscale>
<asrwt>0</asrwt>
<pdfrwt beam="1">  1        1 0.89516925E-01 0.15073973E+04</pdfrwt>
<pdfrwt beam="2">  1       -2 0.15019781E+00 0.15073973E+04</pdfrwt>
<totfact> 0.90355735E+00</totfact>
</mgrwt>
</event>
<event>
12    4  0.4183215E-008  0.1672606E+04  0.7818608E-02  0.8777144E-01
          1   -1    0    0  501    0  0.00000000000E+00  0.00000000000E+00  0.14940305807E+04  0.14940305807E+04  0.00000000000E+00 0. -1.
         -2   -1    0    0    0  501 -0.00000000000E+00 -0.00000000000E+00 -0.46813147613E+03  0.46813147613E+03  0.00000000000E+00 0.  1.
        -24    2    1    2    0    0 -0.37077408390E+03 -0.20776032129E+02  0.89195400056E+03  0.96952073372E+03  0.80519868239E+02 0.  0.
        254    2    1    2    0    0  0.37077408390E+03  0.20776032129E+02  0.13394510396E+03  0.99264132306E+03  0.91076365791E+03 0.  0.
         23    2    4    4    0    0  0.40265813146E+03 -0.16231907166E+03  0.43951636745E+03  0.62429074937E+03  0.89906899823E+02 0.  0.
         23    2    4    4    0    0 -0.31884047559E+02  0.18309510378E+03 -0.30557126349E+03  0.36835057369E+03  0.88135909540E+02 0.  0.
          1    1    3    3  502    0 -0.32713831104E+03 -0.24403994925E+02  0.83872202713E+03  0.90059406411E+03  0.00000000000E+00 0. -1.
         -2    1    3    3    0  502 -0.43635772866E+02  0.36279627966E+01  0.53231973438E+02  0.68926669611E+02  0.00000000000E+00 0.  1.
         11    1    5    5    0    0  0.27008804072E+03 -0.95365909267E+02  0.34432088490E+03  0.44788288443E+03  0.00000000000E+00 0.  1.
        -11    1    5    5    0    0  0.13257009074E+03 -0.66953162389E+02  0.95195482550E+02  0.17640786494E+03  0.00000000000E+00 0. -1.
          2    1    6    6  503    0 -0.36346391529E+02  0.18840047789E+03 -0.26488408390E+03  0.32707702174E+03  0.00000000000E+00 0. -1.
         -2    1    6    6    0  503  0.44623439700E+01 -0.53053741019E+01 -0.40687179588E+02  0.41273551954E+02  0.00000000000E+00 0.  1.
<mgrwt>
<rscale>  0 0.16726060E+04</rscale>
<asrwt>0</asrwt>
<pdfrwt beam="1">  1        1 0.22985086E+00 0.16726060E+04</pdfrwt>
<pdfrwt beam="2">  1       -2 0.72020228E-01 0.16726060E+04</pdfrwt>
<totfact> 0.96535650E+00</totfact>
</mgrwt>
</event>
<event>
12    4  0.4183215E-008  0.2905957E+04  0.7818608E-02  0.8271107E-01
         -2   -1    0    0    0  501 -0.00000000000E+00  0.00000000000E+00  0.92942174297E+03  0.92942174297E+03  0.00000000000E+00 0.  1.
          1   -1    0    0  501    0  0.00000000000E+00 -0.00000000000E+00 -0.22714623016E+04  0.22714623016E+04  0.00000000000E+00 0. -1.
        -24    2    1    2    0    0  0.22591585235E+03 -0.34760236345E+03 -0.19893836386E+04  0.20337692042E+04  0.81881249488E+02 0.  0.
        254    2    1    2    0    0 -0.22591585235E+03  0.34760236345E+03  0.64734307995E+03  0.11671148404E+04  0.87820191986E+03 0.  0.
         23    2    4    4    0    0  0.29561736995E+03  0.19097526292E+03  0.74644172045E+02  0.37154242743E+03  0.92794625338E+02 0.  0.
         23    2    4    4    0    0 -0.52153322231E+03  0.15662710052E+03  0.57269890791E+03  0.79557241295E+03  0.91774040661E+02 0.  0.
          1    1    3    3  502    0  0.15898353958E+03 -0.20343346526E+03 -0.10672026705E+04  0.10979902005E+04  0.00000000000E+00 0. -1.
         -2    1    3    3    0  502  0.66932312776E+02 -0.14416889819E+03 -0.92218096812E+03  0.93577900364E+03  0.00000000000E+00 0.  1.
         11    1    5    5    0    0  0.16622037722E+03  0.13853749396E+03  0.72393171014E+01  0.21650463909E+03  0.00000000000E+00 0. -1.
        -11    1    5    5    0    0  0.12939699273E+03  0.52437768965E+02  0.67404854944E+02  0.15503778834E+03  0.00000000000E+00 0.  1.
          1    1    6    6  503    0 -0.29857439618E+03  0.11643398137E+03  0.38824703670E+03  0.50342755544E+03  0.00000000000E+00 0. -1.
         -1    1    6    6    0  503 -0.22295882613E+03  0.40193119151E+02  0.18445187120E+03  0.29214485751E+03  0.00000000000E+00 0.  1.
<mgrwt>
<rscale>  0 0.29059570E+04</rscale>
<asrwt>0</asrwt>
<pdfrwt beam="1">  1        1 0.34945574E+00 0.29059570E+04</pdfrwt>
<pdfrwt beam="2">  1       -2 0.14298796E+00 0.29059570E+04</pdfrwt>
<totfact> 0.49919685E-01</totfact>
</mgrwt>
</event>
<event>
12    4  0.4183215E-008  0.2453552E+04  0.7818608E-02  0.8419722E-01
         -2   -1    0    0    0  501 -0.00000000000E+00  0.00000000000E+00  0.77081557168E+03  0.77081557168E+03  0.00000000000E+00 0.  1.
          1   -1    0    0  501    0  0.00000000000E+00 -0.00000000000E+00 -0.19524512857E+04  0.19524512857E+04  0.00000000000E+00 0. -1.
        -24    2    1    2    0    0  0.10538419952E+04 -0.59180140035E+02 -0.57405992351E+03  0.12043108578E+04  0.82064648806E+02 0.  0.
        254    2    1    2    0    0 -0.10538419952E+04  0.59180140035E+02 -0.60757579050E+03  0.15189559996E+04  0.90774101347E+03 0.  0.
         23    2    4    4    0    0 -0.92883418463E+03  0.13356461797E+03 -0.60190834082E+02  0.94484938896E+03  0.92439069656E+02 0.  0.
         23    2    4    4    0    0 -0.12500781059E+03 -0.74384477931E+02 -0.54738495642E+03  0.57410661060E+03  0.93851513341E+02 0.  0.
          3    1    3    3  502    0  0.61500271458E+03  0.26690944554E+00 -0.35729652997E+03  0.71125889837E+03  0.00000000000E+00 0. -1.
         -4    1    3    3    0  502  0.43883928064E+03 -0.59447049480E+02 -0.21676339354E+03  0.49305195944E+03  0.00000000000E+00 0.  1.
         11    1    5    5    0    0 -0.41641551360E+01  0.78379193862E+01 -0.46497058924E+01  0.10019627398E+02  0.00000000000E+00 0. -1.
        -11    1    5    5    0    0 -0.92467002949E+03  0.12572669858E+03 -0.55541128189E+02  0.93482976156E+03  0.00000000000E+00 0.  1.
          3    1    6    6  503    0 -0.34798378999E+02 -0.60865568341E+02 -0.34592183325E+03  0.35295532198E+03  0.00000000000E+00 0.  1.
         -3    1    6    6    0  503 -0.90209431592E+02 -0.13518909591E+02 -0.20146312317E+03  0.22115128862E+03  0.00000000000E+00 0. -1.
<mgrwt>
<rscale>  0 0.24535524E+04</rscale>
<asrwt>0</asrwt>
<pdfrwt beam="1">  1        1 0.30037712E+00 0.24535524E+04</pdfrwt>
<pdfrwt beam="2">  1       -2 0.11858701E+00 0.24535524E+04</pdfrwt>
<totfact> 0.13757255E+00</totfact>
</mgrwt>
</event>
<event>
12    4  0.4183215E-008  0.2483890E+04  0.7818608E-02  0.8408747E-01
         -2   -1    0    0    0  501 -0.00000000000E+00  0.00000000000E+00  0.55057767224E+03  0.55057767224E+03  0.00000000000E+00 0.  1.
          1   -1    0    0  501    0  0.00000000000E+00 -0.00000000000E+00 -0.28014713726E+04  0.28014713726E+04  0.00000000000E+00 0. -1.
        -24    2    1    2    0    0  0.16113455769E+03  0.34712727994E+03  0.39540590193E+03  0.55561042224E+03  0.76781637533E+02 0.  0.
        254    2    1    2    0    0 -0.16113455769E+03 -0.34712727994E+03 -0.26462996023E+04  0.27964386226E+04  0.81896623296E+03 0.  0.
         23    2    4    4    0    0  0.22662990789E+03  0.13262601877E+03 -0.90558042779E+03  0.94744488017E+03  0.92871490572E+02 0.  0.
         23    2    4    4    0    0 -0.38776446558E+03 -0.47975329871E+03 -0.17407191745E+04  0.18489937425E+04  0.90277941295E+02 0.  0.
          1    1    3    3  502    0  0.92260447608E+02  0.26742219869E+03  0.26152238973E+03  0.38525392000E+03  0.00000000000E+00 0. -1.
         -2    1    3    3    0  502  0.68874110085E+02  0.79705081246E+02  0.13388351220E+03  0.17035650224E+03  0.00000000000E+00 0.  1.
         11    1    5    5    0    0  0.16495293497E+03  0.12768000806E+03 -0.58827130757E+03  0.62415926375E+03  0.00000000000E+00 0. -1.
        -11    1    5    5    0    0  0.61676972918E+02  0.49460107095E+01 -0.31730912022E+03  0.32328561642E+03  0.00000000000E+00 0.  1.
          1    1    6    6  503    0 -0.35262494445E+03 -0.46222729976E+03 -0.16669616248E+04  0.17654346452E+04  0.00000000000E+00 0. -1.
         -1    1    6    6    0  503 -0.35139521127E+02 -0.17525998948E+02 -0.73757549748E+02  0.83559097225E+02  0.00000000000E+00 0.  1.
<mgrwt>
<rscale>  0 0.24838902E+04</rscale>
<asrwt>0</asrwt>
<pdfrwt beam="1">  1        1 0.43099560E+00 0.24838902E+04</pdfrwt>
<pdfrwt beam="2">  1       -2 0.84704257E-01 0.24838902E+04</pdfrwt>
<totfact> 0.78971300E-01</totfact>
</mgrwt>
</event>
<event>
12    4  0.4183215E-008  0.1562531E+04  0.7818608E-02  0.8843903E-01
         -2   -1    0    0    0  501 -0.00000000000E+00  0.00000000000E+00  0.54413767295E+03  0.54413767295E+03  0.00000000000E+00 0.  1.
          1   -1    0    0  501    0  0.00000000000E+00 -0.00000000000E+00 -0.11217302691E+04  0.11217302691E+04  0.00000000000E+00 0. -1.
        -24    2    1    2    0    0  0.17255407055E+02 -0.23920214598E+03  0.29429383389E+03  0.38791834799E+03  0.79726835661E+02 0.  0.
        254    2    1    2    0    0 -0.17255407055E+02  0.23920214598E+03 -0.87188643007E+03  0.12779495941E+04  0.90302480718E+03 0.  0.
         23    2    4    4    0    0  0.17582557097E+03  0.43359138160E+03 -0.86705368544E+03  0.98919092044E+03  0.88320247080E+02 0.  0.
         23    2    4    4    0    0 -0.19308097802E+03 -0.19438923562E+03 -0.48327446329E+01  0.28875867365E+03  0.91053704982E+02 0.  0.
          3    1    3    3  502    0 -0.21222674407E+02 -0.10897740744E+03  0.91553042194E+02  0.14390426253E+03  0.00000000000E+00 0. -1.
         -4    1    3    3    0  502  0.38478081462E+02 -0.13022473855E+03  0.20274079169E+03  0.24401408545E+03  0.00000000000E+00 0.  1.
         11    1    5    5    0    0  0.18492382427E+03  0.40567414782E+03 -0.82710575947E+03  0.93961283109E+03  0.00000000000E+00 0.  1.
        -11    1    5    5    0    0 -0.90982532978E+01  0.27917233777E+02 -0.39947925973E+02  0.49578089358E+02  0.00000000000E+00 0. -1.
          1    1    6    6  503    0 -0.87195001891E+02 -0.36875812306E+02 -0.24937509723E+02  0.97901344624E+02  0.00000000000E+00 0. -1.
         -1    1    6    6    0  503 -0.10588597613E+03 -0.15751342331E+03  0.20104765090E+02  0.19085732903E+03  0.00000000000E+00 0.  1.
<mgrwt>
<rscale>  0 0.15625309E+04</rscale>
<asrwt>0</asrwt>
<pdfrwt beam="1">  1        1 0.17257389E+00 0.15625309E+04</pdfrwt>
<pdfrwt beam="2">  1       -2 0.83713489E-01 0.15625309E+04</pdfrwt>
<totfact> 0.12856821E+01</totfact>
</mgrwt>
</event>
<event>
12    4  0.4183215E-008  0.1561029E+04  0.7818608E-02  0.8844854E-01
         -2   -1    0    0    0  501 -0.00000000000E+00  0.00000000000E+00  0.69680615891E+03  0.69680615891E+03  0.00000000000E+00 0.  1.
          1   -1    0    0  501    0  0.00000000000E+00 -0.00000000000E+00 -0.87427863146E+03  0.87427863146E+03  0.00000000000E+00 0. -1.
        -24    2    1    2    0    0 -0.69841507297E+02  0.21996012652E+03  0.40790480652E+03  0.47544848359E+03  0.80028969534E+02 0.  0.
        254    2    1    2    0    0  0.69841507297E+02 -0.21996012652E+03 -0.58537727907E+03  0.10956363068E+04  0.89693481619E+03 0.  0.
         23    2    4    4    0    0 -0.36441091872E+03 -0.17773937036E+03 -0.48484014674E+03  0.63856110300E+03  0.91124710823E+02 0.  0.
         23    2    4    4    0    0  0.43425242602E+03 -0.42220756168E+02 -0.10053713233E+03  0.45707520378E+03  0.91936201689E+02 0.  0.
          1    1    3    3  502    0  0.11255762613E+02  0.76711694779E+02  0.10267904304E+03  0.12866375631E+03  0.00000000000E+00 0. -1.
         -2    1    3    3    0  502 -0.81097269911E+02  0.14324843175E+03  0.30522576347E+03  0.34678472728E+03  0.00000000000E+00 0.  1.
         11    1    5    5    0    0 -0.34780211288E+02 -0.49613169204E+02 -0.54010284209E+02  0.81167976789E+02  0.00000000000E+00 0. -1.
        -11    1    5    5    0    0 -0.32963070743E+03 -0.12812620115E+03 -0.43082986253E+03  0.55739312621E+03  0.00000000000E+00 0.  1.
          4    1    6    6  503    0  0.42746682167E+03 -0.47463093369E+02 -0.83674416844E+02  0.43815754803E+03  0.00000000000E+00 0.  1.
         -4    1    6    6    0  503  0.67856043502E+01  0.52423372009E+01 -0.16862715485E+02  0.18917655754E+02  0.00000000000E+00 0. -1.
<mgrwt>
<rscale>  0 0.15610288E+04</rscale>
<asrwt>0</asrwt>
<pdfrwt beam="1">  1        1 0.13450440E+00 0.15610288E+04</pdfrwt>
<pdfrwt beam="2">  1       -2 0.10720095E+00 0.15610288E+04</pdfrwt>
<totfact> 0.11271543E+01</totfact>
</mgrwt>
</event>
<event>
12    4  0.4183215E-008  0.1108382E+04  0.7818608E-02  0.9197060E-01
         -2   -1    0    0    0  501 -0.00000000000E+00  0.00000000000E+00  0.30622569484E+03  0.30622569484E+03  0.00000000000E+00 0.  1.
          1   -1    0    0  501    0  0.00000000000E+00 -0.00000000000E+00 -0.10029456584E+04  0.10029456584E+04  0.00000000000E+00 0. -1.
        -24    2    1    2    0    0 -0.81727461230E+02  0.11693826316E+02  0.78954153845E+02  0.13863522769E+03  0.78548357433E+02 0.  0.
        254    2    1    2    0    0  0.81727461230E+02 -0.11693826316E+02 -0.77567411740E+03  0.11705361255E+04  0.87273613498E+03 0.  0.
         23    2    4    4    0    0  0.29270135340E+02  0.61023749961E+02 -0.94808331757E+03  0.95507929759E+03  0.93455062703E+02 0.  0.
         23    2    4    4    0    0  0.52457325890E+02 -0.72717576277E+02  0.17240920017E+03  0.21545682795E+03  0.93043513837E+02 0.  0.
          1    1    3    3  502    0 -0.18265800518E+02  0.40367381350E+02  0.29824065154E+02  0.53410109604E+02  0.00000000000E+00 0. -1.
         -2    1    3    3    0  502 -0.63461660712E+02 -0.28673555034E+02  0.49130088692E+02  0.85225118090E+02  0.00000000000E+00 0.  1.
         11    1    5    5    0    0  0.16891468185E+02  0.40675855194E+01 -0.26706140101E+02  0.31860396553E+02  0.00000000000E+00 0. -1.
        -11    1    5    5    0    0  0.12378667155E+02  0.56956164442E+02 -0.92137717747E+03  0.92321890104E+03  0.00000000000E+00 0.  1.
          2    1    6    6  503    0  0.19230597506E+02 -0.11876101444E+02  0.13461738132E+03  0.13650163742E+03  0.00000000000E+00 0.  1.
         -2    1    6    6    0  503  0.33226728384E+02 -0.60841474834E+02  0.37791818854E+02  0.78955190528E+02  0.00000000000E+00 0. -1.
<mgrwt>
<rscale>  0 0.11083821E+04</rscale>
<asrwt>0</asrwt>
<pdfrwt beam="1">  1        1 0.15429933E+00 0.11083821E+04</pdfrwt>
<pdfrwt beam="2">  1       -2 0.47111645E-01 0.11083821E+04</pdfrwt>
<totfact> 0.56108930E+01</totfact>
</mgrwt>
</event>
<event>
12    4  0.4183215E-008  0.1276456E+04  0.7818608E-02  0.9048447E-01
          1   -1    0    0  501    0  0.00000000000E+00  0.00000000000E+00  0.23201099944E+04  0.23201099944E+04  0.00000000000E+00 0. -1.
         -2   -1    0    0    0  501 -0.00000000000E+00 -0.00000000000E+00 -0.17556717084E+03  0.17556717084E+03  0.00000000000E+00 0.  1.
        -24    2    1    2    0    0  0.87635465200E+02  0.17890619789E+03  0.68815351075E+02  0.22248410722E+03  0.71247617616E+02 0.  0.
        254    2    1    2    0    0 -0.87635465200E+02 -0.17890619789E+03  0.20757274725E+04  0.22731930580E+04  0.90502747837E+03 0.  0.
         23    2    4    4    0    0 -0.20931709171E+03  0.29052618692E+03  0.49721324102E+03  0.61936905291E+03  0.90431778081E+02 0.  0.
         23    2    4    4    0    0  0.12168162651E+03 -0.46943238481E+03  0.15785142315E+04  0.16538240051E+04  0.90848658757E+02 0.  0.
          3    1    3    3  502    0  0.35120805204E+02  0.13008104502E+03  0.67651901716E+02  0.15076912495E+03  0.00000000000E+00 0. -1.
         -4    1    3    3    0  502  0.52514659995E+02  0.48825152866E+02  0.11634493582E+01  0.71714982265E+02  0.00000000000E+00 0.  1.
         11    1    5    5    0    0 -0.10864283767E+03  0.18105430145E+03  0.35813852453E+03  0.41574887733E+03  0.00000000000E+00 0.  1.
        -11    1    5    5    0    0 -0.10067425404E+03  0.10947188548E+03  0.13907471649E+03  0.20362017558E+03  0.00000000000E+00 0. -1.
          1    1    6    6  503    0  0.34055976170E+02 -0.47838595043E+02  0.12971343318E+03  0.14238650018E+03  0.00000000000E+00 0. -1.
         -1    1    6    6    0  503  0.87625650341E+02 -0.42159378977E+03  0.14488007983E+04  0.15114375049E+04  0.00000000000E+00 0.  1.
<mgrwt>
<rscale>  0 0.12764563E+04</rscale>
<asrwt>0</asrwt>
<pdfrwt beam="1">  1        1 0.35693998E+00 0.12764563E+04</pdfrwt>
<pdfrwt beam="2">  1       -2 0.27010336E-01 0.12764563E+04</pdfrwt>
<totfact> 0.19473771E+01</totfact>
</mgrwt>
</event>
<event>
12    4  0.4183215E-008  0.1615835E+04  0.7818608E-02  0.8810879E-01
         -2   -1    0    0    0  501 -0.00000000000E+00  0.00000000000E+00  0.50794346309E+03  0.50794346309E+03  0.00000000000E+00 0.  1.
          1   -1    0    0  501    0  0.00000000000E+00 -0.00000000000E+00 -0.12850452557E+04  0.12850452557E+04  0.00000000000E+00 0. -1.
        -24    2    1    2    0    0 -0.45720897952E+03 -0.10588024093E+03 -0.71038766470E+03  0.85511839175E+03  0.79537119519E+02 0.  0.
        254    2    1    2    0    0  0.45720897952E+03  0.10588024093E+03 -0.66714127961E+02  0.93787032708E+03  0.80925848725E+03 0.  0.
         23    2    4    4    0    0  0.55581641770E+03  0.10071288676E+03  0.22684633427E+03  0.61519379507E+03  0.89045889218E+02 0.  0.
         23    2    4    4    0    0 -0.98607438172E+02  0.51673541769E+01 -0.29356046223E+03  0.32267653201E+03  0.90511164582E+02 0.  0.
          1    1    3    3  502    0 -0.27465942672E+03 -0.44163022144E+02 -0.47978505390E+03  0.55460064114E+03  0.00000000000E+00 0. -1.
         -2    1    3    3    0  502 -0.18254955281E+03 -0.61717218791E+02 -0.23060261080E+03  0.30051775061E+03  0.00000000000E+00 0.  1.
         11    1    5    5    0    0  0.29349509333E+03  0.84827283242E+01  0.12383477930E+03  0.31866342598E+03  0.00000000000E+00 0. -1.
        -11    1    5    5    0    0  0.26232132436E+03  0.92230158434E+02  0.10301155497E+03  0.29653036910E+03  0.00000000000E+00 0.  1.
          1    1    6    6  503    0  0.12440442878E+02  0.14368566411E+02 -0.21584676896E+02  0.28759669616E+02  0.00000000000E+00 0. -1.
         -1    1    6    6    0  503 -0.11104788105E+03 -0.92012122339E+01 -0.27197578533E+03  0.29391686239E+03  0.00000000000E+00 0.  1.
<mgrwt>
<rscale>  0 0.16158346E+04</rscale>
<asrwt>0</asrwt>
<pdfrwt beam="1">  1        1 0.19769927E+00 0.16158346E+04</pdfrwt>
<pdfrwt beam="2">  1       -2 0.78145150E-01 0.16158346E+04</pdfrwt>
<totfact> 0.11356245E+01</totfact>
</mgrwt>
</event>
<event>
12    4  0.4183215E-008  0.2063080E+04  0.7818608E-02  0.8577684E-01
         -2   -1    0    0    0  501 -0.00000000000E+00  0.00000000000E+00  0.48733937189E+03  0.48733937189E+03  0.00000000000E+00 0.  1.
          1   -1    0    0  501    0  0.00000000000E+00 -0.00000000000E+00 -0.21834371283E+04  0.21834371283E+04  0.00000000000E+00 0. -1.
        -24    2    1    2    0    0 -0.18931748566E+03 -0.79200040471E+02  0.35397315745E+03  0.41720926448E+03  0.81564804832E+02 0.  0.
        254    2    1    2    0    0  0.18931748566E+03  0.79200040471E+02 -0.20500709138E+04  0.22535672357E+04  0.91305025998E+03 0.  0.
         23    2    4    4    0    0  0.26781837259E+03 -0.10869612919E+03 -0.20037424684E+04  0.20263481397E+04  0.86956164374E+02 0.  0.
         23    2    4    4    0    0 -0.78500886927E+02  0.18789616966E+03 -0.46328445424E+02  0.22721909595E+03  0.89525599074E+02 0.  0.
          3    1    3    3  502    0 -0.50153540048E+02  0.14231301645E+02  0.10244085058E+03  0.11494361833E+03  0.00000000000E+00 0. -1.
         -4    1    3    3    0  502 -0.13916394562E+03 -0.93431342116E+02  0.25153230686E+03  0.30226564616E+03  0.00000000000E+00 0.  1.
         11    1    5    5    0    0  0.58666967869E+02 -0.55664755521E+02 -0.39445011260E+03  0.40265527372E+03  0.00000000000E+00 0. -1.
        -11    1    5    5    0    0  0.20915140472E+03 -0.53031373665E+02 -0.16092923558E+04  0.16236928660E+04  0.00000000000E+00 0.  1.
          1    1    6    6  503    0  0.13023675028E+02  0.47528627976E+02 -0.32599566644E+02  0.59087378804E+02  0.00000000000E+00 0. -1.
         -1    1    6    6    0  503 -0.91524561955E+02  0.14036754168E+03 -0.13728878780E+02  0.16813171715E+03  0.00000000000E+00 0.  1.
<mgrwt>
<rscale>  0 0.20630801E+04</rscale>
<asrwt>0</asrwt>
<pdfrwt beam="1">  1        1 0.33591341E+00 0.20630801E+04</pdfrwt>
<pdfrwt beam="2">  1       -2 0.74975287E-01 0.20630801E+04</pdfrwt>
<totfact> 0.28957580E+00</totfact>
</mgrwt>
</event>
<event>
12    4  0.4183215E-008  0.1722780E+04  0.7818608E-02  0.8748478E-01
         -2   -1    0    0    0  501 -0.00000000000E+00  0.00000000000E+00  0.31526576152E+03  0.31526576152E+03  0.00000000000E+00 0.  1.
          1   -1    0    0  501    0  0.00000000000E+00 -0.00000000000E+00 -0.23535457595E+04  0.23535457595E+04  0.00000000000E+00 0. -1.
        -24    2    1    2    0    0  0.34795638653E+02 -0.15590730816E+03 -0.16744834254E+04  0.16839724733E+04  0.79691428321E+02 0.  0.
        254    2    1    2    0    0 -0.34795638653E+02  0.15590730816E+03 -0.36379657255E+03  0.98483904767E+03  0.90113382935E+03 0.  0.
         23    2    4    4    0    0  0.17336104822E+03 -0.11099927745E+03  0.21329216006E+03  0.30964034294E+03  0.89491361579E+02 0.  0.
         23    2    4    4    0    0 -0.20815668687E+03  0.26690658562E+03 -0.57708873261E+03  0.67519870473E+03  0.91068950927E+02 0.  0.
          1    1    3    3  502    0  0.27251105757E+02 -0.16410069947E+03 -0.16056237551E+04  0.16142178618E+04  0.00000000000E+00 0. -1.
         -2    1    3    3    0  502  0.75445328958E+01  0.81933913090E+01 -0.68859670278E+02  0.69754611521E+02  0.00000000000E+00 0.  1.
         11    1    5    5    0    0  0.44969985920E+02 -0.80941511628E+02  0.86934300814E+02  0.12700945082E+03  0.00000000000E+00 0. -1.
        -11    1    5    5    0    0  0.12839106230E+03 -0.30057765826E+02  0.12635785925E+03  0.18263089213E+03  0.00000000000E+00 0.  1.
          4    1    6    6  503    0 -0.45885950917E+02  0.12604360364E+03 -0.25270564155E+03  0.28609902443E+03  0.00000000000E+00 0. -1.
         -4    1    6    6    0  503 -0.16227073596E+03  0.14086298198E+03 -0.32438309107E+03  0.38909968030E+03  0.00000000000E+00 0.  1.
<mgrwt>
<rscale>  0 0.17227796E+04</rscale>
<asrwt>0</asrwt>
<pdfrwt beam="1">  1        1 0.36208398E+00 0.17227796E+04</pdfrwt>
<pdfrwt beam="2">  1       -2 0.48502423E-01 0.17227796E+04</pdfrwt>
<totfact> 0.57482559E+00</totfact>
</mgrwt>
</event>
<event>
12    4  0.4183215E-008  0.9530450E+03  0.7818608E-02  0.9361598E-01
          1   -1    0    0  501    0  0.00000000000E+00  0.00000000000E+00  0.53838200461E+03  0.53838200461E+03  0.00000000000E+00 0. -1.
         -2   -1    0    0    0  501 -0.00000000000E+00 -0.00000000000E+00 -0.42177059253E+03  0.42177059253E+03  0.00000000000E+00 0.  1.
        -24    2    1    2    0    0  0.22184921318E+02  0.23883189982E+02  0.15698480676E+03  0.17914177875E+03  0.79906006308E+02 0.  0.
        254    2    1    2    0    0 -0.22184921318E+02 -0.23883189982E+02 -0.40373394680E+02  0.78101081839E+03  0.77928512750E+03 0.  0.
         23    2    4    4    0    0  0.24357906497E+02 -0.38274084533E+03 -0.91840157063E+02  0.40432545364E+03  0.89222170533E+02 0.  0.
         23    2    4    4    0    0 -0.46542827815E+02  0.35885765535E+03  0.51466762383E+02  0.37668536475E+03  0.91093275069E+02 0.  0.
          1    1    3    3  502    0  0.46043882704E+02  0.11259971015E+02  0.13860426366E+03  0.14648538489E+03  0.00000000000E+00 0. -1.
         -2    1    3    3    0  502 -0.23858961386E+02  0.12623218966E+02  0.18380543099E+02  0.32656393862E+02  0.00000000000E+00 0.  1.
         11    1    5    5    0    0 -0.30703990426E+02 -0.19932406548E+03 -0.58055301480E+02  0.20986480443E+03  0.00000000000E+00 0. -1.
        -11    1    5    5    0    0  0.55061896922E+02 -0.18341677985E+03 -0.33784855583E+02  0.19446064921E+03  0.00000000000E+00 0.  1.
          3    1    6    6  503    0 -0.39339275073E+01  0.28896169482E+03  0.22543298453E+02  0.28986641262E+03  0.00000000000E+00 0. -1.
         -3    1    6    6    0  503 -0.42608900307E+02  0.69895960534E+02  0.28923463930E+02  0.86818952137E+02  0.00000000000E+00 0.  1.
<mgrwt>
<rscale>  0 0.95304501E+03</rscale>
<asrwt>0</asrwt>
<pdfrwt beam="1">  1        1 0.82828001E-01 0.95304501E+03</pdfrwt>
<pdfrwt beam="2">  1       -2 0.64887784E-01 0.95304501E+03</pdfrwt>
<totfact> 0.77099907E+01</totfact>
</mgrwt>
</event>
<event>
12    4  0.4183215E-008  0.5013175E+04  0.7818608E-02  0.7826478E-01
          1   -1    0    0  501    0  0.00000000000E+00  0.00000000000E+00  0.30407322073E+04  0.30407322073E+04  0.00000000000E+00 0. -1.
         -2   -1    0    0    0  501 -0.00000000000E+00 -0.00000000000E+00 -0.20662724929E+04  0.20662724929E+04  0.00000000000E+00 0.  1.
        -24    2    1    2    0    0  0.41184520876E+03  0.21264215439E+04  0.15841429479E+04  0.26847875275E+04  0.85382256517E+02 0.  0.
        254    2    1    2    0    0 -0.41184520876E+03 -0.21264215439E+04 -0.60968323351E+03  0.24222171728E+04  0.89673704527E+03 0.  0.
         23    2    4    4    0    0 -0.26249628848E+03 -0.29281298324E+03  0.14907558566E+03  0.43012515805E+03  0.90224036265E+02 0.  0.
         23    2    4    4    0    0 -0.14934892028E+03 -0.18336085607E+04 -0.75875881917E+03  0.19920920147E+04  0.91050511427E+02 0.  0.
          3    1    3    3  502    0  0.36575493111E+03  0.17155009593E+04  0.12737956488E+04  0.21677812542E+04  0.00000000000E+00 0. -1.
         -4    1    3    3    0  502  0.46090277652E+02  0.41092058459E+03  0.31034729912E+03  0.51700627328E+03  0.00000000000E+00 0.  1.
         11    1    5    5    0    0 -0.26857848805E+03 -0.27772382153E+03  0.14831523090E+03  0.41383853494E+03  0.00000000000E+00 0. -1.
        -11    1    5    5    0    0  0.60821995646E+01 -0.15089161716E+02  0.76035476830E+00  0.16286623106E+02  0.00000000000E+00 0.  1.
          3    1    6    6  503    0 -0.82701584789E+02 -0.13996995243E+04 -0.55273877265E+03  0.15071557522E+04  0.00000000000E+00 0. -1.
         -3    1    6    6    0  503 -0.66647335488E+02 -0.43390903638E+03 -0.20602004652E+03  0.48493626257E+03  0.00000000000E+00 0.  1.
<mgrwt>
<rscale>  0 0.50131752E+04</rscale>
<asrwt>0</asrwt>
<pdfrwt beam="1">  1        1 0.46780495E+00 0.50131752E+04</pdfrwt>
<pdfrwt beam="2">  1       -2 0.31788808E+00 0.50131752E+04</pdfrwt>
<totfact> 0.87359657E-03</totfact>
</mgrwt>
</event>
<event>
12    4  0.4183215E-008  0.1557452E+04  0.7818608E-02  0.8847122E-01
          1   -1    0    0  501    0  0.00000000000E+00  0.00000000000E+00  0.27350124166E+03  0.27350124166E+03  0.00000000000E+00 0. -1.
         -2   -1    0    0    0  501 -0.00000000000E+00 -0.00000000000E+00 -0.22172262170E+04  0.22172262170E+04  0.00000000000E+00 0.  1.
        -24    2    1    2    0    0  0.24690163519E+02  0.23101774010E+03 -0.13701546031E+04  0.13920468922E+04  0.80573652035E+02 0.  0.
        254    2    1    2    0    0 -0.24690163519E+02 -0.23101774010E+03 -0.57357037230E+03  0.10986805665E+04  0.90782003434E+03 0.  0.
         23    2    4    4    0    0  0.38879761193E+03 -0.30756244639E+03 -0.26946489937E+03  0.57154011174E+03  0.91041341521E+02 0.  0.
         23    2    4    4    0    0 -0.41348777545E+03  0.76544706292E+02 -0.30410547293E+03  0.52714045473E+03  0.92551001306E+02 0.  0.
          1    1    3    3  502    0  0.43977710390E+02  0.65612071117E+02 -0.47843031226E+03  0.48490674008E+03  0.00000000000E+00 0. -1.
         -4    1    3    3    0  502 -0.19287546872E+02  0.16540566898E+03 -0.89172429082E+03  0.90714015215E+03  0.00000000000E+00 0.  1.
         11    1    5    5    0    0  0.32205519967E+02 -0.29892259255E+02  0.26042777732E+01  0.44017325480E+02  0.00000000000E+00 0. -1.
        -11    1    5    5    0    0  0.35659209196E+03 -0.27767018713E+03 -0.27206917714E+03  0.52752278626E+03  0.00000000000E+00 0.  1.
          2    1    6    6  503    0 -0.21360419889E+01  0.31045409911E+01 -0.23519053425E+02  0.23819041210E+02  0.00000000000E+00 0. -1.
         -2    1    6    6    0  503 -0.41135173346E+03  0.73440165301E+02 -0.28058641950E+03  0.50332141352E+03  0.00000000000E+00 0.  1.
<mgrwt>
<rscale>  0 0.15574519E+04</rscale>
<asrwt>0</asrwt>
<pdfrwt beam="1">  1        1 0.42077115E-01 0.15574519E+04</pdfrwt>
<pdfrwt beam="2">  1       -2 0.34111172E+00 0.15574519E+04</pdfrwt>
<totfact> 0.14802592E+00</totfact>
</mgrwt>
</event>
<event>
12    4  0.4183215E-008  0.2396862E+04  0.7818608E-02  0.8440679E-01
         -2   -1    0    0    0  501 -0.00000000000E+00  0.00000000000E+00  0.35223644080E+03  0.35223644080E+03  0.00000000000E+00 0.  1.
          1   -1    0    0  501    0  0.00000000000E+00 -0.00000000000E+00 -0.40774799886E+04  0.40774799886E+04  0.00000000000E+00 0. -1.
        -24    2    1    2    0    0 -0.26424636151E+03 -0.98096296404E+03 -0.12873156213E+04  0.16419640217E+04  0.82157552297E+02 0.  0.
        254    2    1    2    0    0  0.26424636151E+03  0.98096296404E+03 -0.24379279265E+04  0.27877524077E+04  0.89216390614E+03 0.  0.
         23    2    4    4    0    0  0.37427868539E+03  0.19468749833E+03 -0.14727573907E+04  0.15347116477E+04  0.91311299863E+02 0.  0.
         23    2    4    4    0    0 -0.11003232388E+03  0.78627546571E+03 -0.96517053579E+03  0.12530407600E+04  0.90668421560E+02 0.  0.
          1    1    3    3  502    0 -0.18779373789E+03 -0.72745958572E+03 -0.89320597069E+03  0.11671678726E+04  0.00000000000E+00 0. -1.
         -2    1    3    3    0  502 -0.76452623613E+02 -0.25350337831E+03 -0.39410965064E+03  0.47479614910E+03  0.00000000000E+00 0.  1.
         11    1    5    5    0    0  0.84838993120E+02  0.90238736494E+02 -0.43680327131E+03  0.45402398852E+03  0.00000000000E+00 0.  1.
        -11    1    5    5    0    0  0.28943969227E+03  0.10444876183E+03 -0.10359541194E+04  0.10806876592E+04  0.00000000000E+00 0. -1.
          4    1    6    6  503    0 -0.11735290208E+03  0.59577993490E+03 -0.76348036862E+03  0.97551407356E+03  0.00000000000E+00 0. -1.
         -4    1    6    6    0  503  0.73205781978E+01  0.19049553082E+03 -0.20169016718E+03  0.27752668639E+03  0.00000000000E+00 0.  1.
<mgrwt>
<rscale>  0 0.23968621E+04</rscale>
<asrwt>0</asrwt>
<pdfrwt beam="1">  1        1 0.62730463E+00 0.23968621E+04</pdfrwt>
<pdfrwt beam="2">  1       -2 0.54190221E-01 0.23968621E+04</pdfrwt>
<totfact> 0.20766257E-01</totfact>
</mgrwt>
</event>
<event>
12    4  0.4183215E-008  0.1871898E+04  0.7818608E-02  0.8668972E-01
          1   -1    0    0  501    0  0.00000000000E+00  0.00000000000E+00  0.10152940468E+04  0.10152940468E+04  0.00000000000E+00 0. -1.
         -2   -1    0    0    0  501 -0.00000000000E+00 -0.00000000000E+00 -0.86280458008E+03  0.86280458008E+03  0.00000000000E+00 0.  1.
        -24    2    1    2    0    0 -0.23987549773E+03 -0.22075131899E+03  0.70299719999E+03  0.77862270826E+03  0.76005653590E+02 0.  0.
        254    2    1    2    0    0  0.23987549773E+03  0.22075131899E+03 -0.55050773326E+03  0.10994759186E+04  0.89415721885E+03 0.  0.
         23    2    4    4    0    0 -0.19866232365E+03  0.23363265711E+03 -0.56693681738E+03  0.65100048092E+03  0.91287096249E+02 0.  0.
         23    2    4    4    0    0  0.43853782138E+03 -0.12881338118E+02  0.16429084126E+02  0.44847543771E+03  0.91536625311E+02 0.  0.
          3    1    3    3  502    0 -0.10530332255E+03 -0.12716848591E+03  0.42436603330E+03  0.45535386653E+03  0.00000000000E+00 0. -1.
         -4    1    3    3    0  502 -0.13457217518E+03 -0.93582833080E+02  0.27863116669E+03  0.32326884173E+03  0.00000000000E+00 0.  1.
         11    1    5    5    0    0 -0.15872446917E+03  0.21224012814E+03 -0.41460414746E+03  0.49207309233E+03  0.00000000000E+00 0. -1.
        -11    1    5    5    0    0 -0.39937854482E+02  0.21392528972E+02 -0.15233266993E+03  0.15892738859E+03  0.00000000000E+00 0.  1.
          1    1    6    6  503    0  0.25611695746E+03 -0.50057372719E+02 -0.54788659074E+01  0.26102040999E+03  0.00000000000E+00 0. -1.
         -1    1    6    6    0  503  0.18242086393E+03  0.37176034600E+02  0.21907950033E+02  0.18745502772E+03  0.00000000000E+00 0.  1.
<mgrwt>
<rscale>  0 0.18718978E+04</rscale>
<asrwt>0</asrwt>
<pdfrwt beam="1">  1        1 0.15619908E+00 0.18718978E+04</pdfrwt>
<pdfrwt beam="2">  1       -2 0.13273917E+00 0.18718978E+04</pdfrwt>
<totfact> 0.49850262E+00</totfact>
</mgrwt>
</event>
<event>
12    4  0.4183215E-008  0.1345047E+04  0.7818608E-02  0.8994586E-01
         -2   -1    0    0    0  501 -0.00000000000E+00  0.00000000000E+00  0.21634411579E+04  0.21634411579E+04  0.00000000000E+00 0.  1.
          1   -1    0    0  501    0  0.00000000000E+00 -0.00000000000E+00 -0.20905939091E+03  0.20905939091E+03  0.00000000000E+00 0. -1.
        -24    2    1    2    0    0  0.28497438623E+03 -0.34053426228E+02  0.95182789220E+03  0.99731428870E+03  0.79305847484E+02 0.  0.
        254    2    1    2    0    0 -0.28497438623E+03  0.34053426228E+02  0.10025538748E+04  0.13751862601E+04  0.89646692159E+03 0.  0.
         23    2    4    4    0    0  0.13247609154E+03  0.36349995605E+03  0.36629085033E+03  0.54087727941E+03  0.93258305054E+02 0.  0.
         23    2    4    4    0    0 -0.41745047777E+03 -0.32944652983E+03  0.63626302450E+03  0.83430898074E+03  0.91874488249E+02 0.  0.
          3    1    3    3  502    0  0.27191461253E+02 -0.27672000877E+02  0.98068420469E+02  0.10546340735E+03  0.00000000000E+00 0. -1.
         -4    1    3    3    0  502  0.25778292498E+03 -0.63814253514E+01  0.85375947173E+03  0.89185088135E+03  0.00000000000E+00 0.  1.
         11    1    5    5    0    0  0.12679790878E+03  0.25103484125E+03  0.22478965017E+03  0.36003692590E+03  0.00000000000E+00 0. -1.
        -11    1    5    5    0    0  0.56781827602E+01  0.11246511481E+03  0.14150120016E+03  0.18084035350E+03  0.00000000000E+00 0.  1.
          4    1    6    6  503    0 -0.11135060533E+03 -0.50737791082E+02  0.10837515298E+03  0.16345780659E+03  0.00000000000E+00 0. -1.
         -4    1    6    6    0  503 -0.30609987244E+03 -0.27870873874E+03  0.52788787152E+03  0.67085117415E+03  0.00000000000E+00 0.  1.
<mgrwt>
<rscale>  0 0.13450468E+04</rscale>
<asrwt>0</asrwt>
<pdfrwt beam="1">  1        1 0.32162985E-01 0.13450468E+04</pdfrwt>
<pdfrwt beam="2">  1       -2 0.33283709E+00 0.13450468E+04</pdfrwt>
<totfact> 0.24106622E+00</totfact>
</mgrwt>
</event>
<event>
12    4  0.4183215E-008  0.1923921E+04  0.7818608E-02  0.8643040E-01
          1   -1    0    0  501    0  0.00000000000E+00  0.00000000000E+00  0.55358507853E+03  0.55358507853E+03  0.00000000000E+00 0. -1.
         -2   -1    0    0    0  501 -0.00000000000E+00 -0.00000000000E+00 -0.16715916952E+04  0.16715916952E+04  0.00000000000E+00 0.  1.
        -24    2    1    2    0    0 -0.18098161571E+03 -0.35148238316E+03  0.30798784883E+03  0.50759069065E+03  0.80607588449E+02 0.  0.
        254    2    1    2    0    0  0.18098161571E+03  0.35148238316E+03 -0.14259944655E+04  0.17175860830E+04  0.87197908588E+03 0.  0.
         23    2    4    4    0    0 -0.24736525326E+03  0.41951337033E+03 -0.58863414047E+03  0.77027990049E+03  0.98284980365E+02 0.  0.
         23    2    4    4    0    0  0.42834686897E+03 -0.68030987173E+02 -0.83736032498E+03  0.94730618254E+03  0.90041291919E+02 0.  0.
          1    1    3    3  502    0 -0.16983660266E+03 -0.29688522365E+03  0.29172521521E+03  0.44954299996E+03  0.00000000000E+00 0. -1.
         -4    1    3    3    0  502 -0.11145013044E+02 -0.54597159512E+02  0.16262633621E+02  0.58047690694E+02  0.00000000000E+00 0.  1.
         11    1    5    5    0    0 -0.19394261084E+03  0.29334354431E+03 -0.48206815294E+03  0.59670250156E+03  0.00000000000E+00 0. -1.
        -11    1    5    5    0    0 -0.53422642424E+02  0.12616982602E+03 -0.10656598753E+03  0.17357739893E+03  0.00000000000E+00 0.  1.
          1    1    6    6  503    0  0.36045642467E+03 -0.89762703150E+02 -0.71311412762E+03  0.80406339052E+03  0.00000000000E+00 0. -1.
         -1    1    6    6    0  503  0.67890444298E+02  0.21731715977E+02 -0.12424619736E+03  0.14324279202E+03  0.00000000000E+00 0.  1.
<mgrwt>
<rscale>  0 0.19239212E+04</rscale>
<asrwt>0</asrwt>
<pdfrwt beam="1">  1        1 0.85166937E-01 0.19239212E+04</pdfrwt>
<pdfrwt beam="2">  1       -2 0.25716795E+00 0.19239212E+04</pdfrwt>
<totfact> 0.18243166E+00</totfact>
</mgrwt>
</event>
<event>
12    4  0.4183215E-008  0.2928187E+04  0.7818608E-02  0.8264540E-01
          1   -1    0    0  501    0  0.00000000000E+00  0.00000000000E+00  0.35841561916E+04  0.35841561916E+04  0.00000000000E+00 0. -1.
         -2   -1    0    0    0  501 -0.00000000000E+00 -0.00000000000E+00 -0.59806806438E+03  0.59806806438E+03  0.00000000000E+00 0.  1.
        -24    2    1    2    0    0 -0.56389353631E+03  0.94181778369E+03  0.24135060687E+04  0.26526001544E+04  0.79242524022E+02 0.  0.
        254    2    1    2    0    0  0.56389353631E+03 -0.94181778369E+03  0.57258205854E+03  0.15296241016E+04  0.89827780804E+03 0.  0.
         23    2    4    4    0    0  0.60200022304E+03 -0.66010871566E+03  0.76148879440E+03  0.11774990248E+04  0.92146537543E+02 0.  0.
         23    2    4    4    0    0 -0.38106686732E+02 -0.28170906803E+03 -0.18890673585E+03  0.35212507678E+03  0.86569026014E+02 0.  0.
          3    1    3    3  502    0 -0.53611894168E+03  0.92171271356E+03  0.23378348230E+04  0.25695232059E+04  0.00000000000E+00 0. -1.
         -4    1    3    3    0  502 -0.27774594628E+02  0.20105070134E+02  0.75671245650E+02  0.83076948488E+02  0.00000000000E+00 0.  1.
         11    1    5    5    0    0  0.39876137117E+03 -0.45061527613E+03  0.45597956017E+03  0.75497160047E+03  0.00000000000E+00 0.  1.
        -11    1    5    5    0    0  0.20323885187E+03 -0.20949343953E+03  0.30550923422E+03  0.42252742433E+03  0.00000000000E+00 0. -1.
          2    1    6    6  503    0 -0.53618371685E+02 -0.95670139273E+02 -0.82575705628E+02  0.13728238230E+03  0.00000000000E+00 0. -1.
         -2    1    6    6    0  503  0.15511684953E+02 -0.18603892876E+03 -0.10633103023E+03  0.21484269448E+03  0.00000000000E+00 0.  1.
<mgrwt>
<rscale>  0 0.29281867E+04</rscale>
<asrwt>0</asrwt>
<pdfrwt beam="1">  1        1 0.55140863E+00 0.29281867E+04</pdfrwt>
<pdfrwt beam="2">  1       -2 0.92010473E-01 0.29281867E+04</pdfrwt>
<totfact> 0.16199099E-01</totfact>
</mgrwt>
</event>
<event>
12    4  0.4183215E-008  0.1844763E+04  0.7818608E-02  0.8682851E-01
          1   -1    0    0  501    0  0.00000000000E+00  0.00000000000E+00  0.41072172818E+04  0.41072172818E+04  0.00000000000E+00 0. -1.
         -2   -1    0    0    0  501 -0.00000000000E+00 -0.00000000000E+00 -0.20714451232E+03  0.20714451232E+03  0.00000000000E+00 0.  1.
        -24    2    1    2    0    0  0.95235657457E+02 -0.47759430452E+03  0.30874160372E+03  0.58162410690E+03  0.76151649374E+02 0.  0.
        254    2    1    2    0    0 -0.95235657457E+02  0.47759430452E+03  0.35913311658E+04  0.37327376872E+04  0.89359104134E+03 0.  0.
         23    2    4    4    0    0 -0.18065341137E+03  0.66041841476E+02  0.29660694948E+04  0.29736927367E+04  0.91011344109E+02 0.  0.
         23    2    4    4    0    0  0.85417753909E+02  0.41155246305E+03  0.62526167103E+03  0.75904495052E+03  0.92333402043E+02 0.  0.
          3    1    3    3  502    0  0.46816226233E+02 -0.13880764804E+03  0.12834137472E+03  0.19475839046E+03  0.00000000000E+00 0. -1.
         -4    1    3    3    0  502  0.48419431224E+02 -0.33878665649E+03  0.18040022900E+03  0.38686571644E+03  0.00000000000E+00 0.  1.
         11    1    5    5    0    0 -0.17276261792E+03  0.50240746891E+02  0.28901948443E+04  0.28957895802E+04  0.00000000000E+00 0.  1.
        -11    1    5    5    0    0 -0.78907934424E+01  0.15801094585E+02  0.75874650453E+02  0.77903156499E+02  0.00000000000E+00 0. -1.
          3    1    6    6  503    0 -0.59403364247E+01 -0.14094039811E+01  0.34123056151E+01  0.69941293977E+01  0.00000000000E+00 0. -1.
         -3    1    6    6    0  503  0.91358090333E+02  0.41296186703E+03  0.62184936541E+03  0.75205082112E+03  0.00000000000E+00 0.  1.
<mgrwt>
<rscale>  0 0.18447629E+04</rscale>
<asrwt>0</asrwt>
<pdfrwt beam="1">  1        1 0.63187952E+00 0.18447629E+04</pdfrwt>
<pdfrwt beam="2">  1       -2 0.31868390E-01 0.18447629E+04</pdfrwt>
<totfact> 0.58881423E-01</totfact>
</mgrwt>
</event>
<event>
12    4  0.4183215E-008  0.1299067E+04  0.7818608E-02  0.9030306E-01
         -4   -1    0    0    0  501 -0.00000000000E+00  0.00000000000E+00  0.10958680883E+04  0.10958680883E+04  0.00000000000E+00 0.  1.
          3   -1    0    0  501    0  0.00000000000E+00 -0.00000000000E+00 -0.38498567734E+03  0.38498567734E+03  0.00000000000E+00 0. -1.
        -24    2    1    2    0    0 -0.23127560570E+02  0.92325501915E+02 -0.17728220206E+03  0.22177702498E+03  0.93258711550E+02 0.  0.
        254    2    1    2    0    0  0.23127560570E+02 -0.92325501915E+02  0.88816461299E+03  0.12590767406E+04  0.88734377591E+03 0.  0.
         23    2    4    4    0    0  0.53189359628E+02 -0.15614969095E+03  0.10462077748E+04  0.10630716885E+04  0.91426871686E+02 0.  0.
         23    2    4    4    0    0 -0.30061799058E+02  0.63824189040E+02 -0.15804316183E+03  0.19600505211E+03  0.91995111734E+02 0.  0.
          3    1    3    3  502    0 -0.13673754937E+01  0.10691777520E+03 -0.13846473645E+03  0.17494503025E+03  0.00000000000E+00 0. -1.
         -4    1    3    3    0  502 -0.21760185077E+02 -0.14592273281E+02 -0.38817465618E+02  0.46831994738E+02  0.00000000000E+00 0.  1.
         11    1    5    5    0    0 -0.11676723625E+02  0.49182229076E+01  0.39011060021E+02  0.41017040302E+02  0.00000000000E+00 0.  1.
        -11    1    5    5    0    0  0.64866083253E+02 -0.16106791386E+03  0.10071967148E+04  0.10220546482E+04  0.00000000000E+00 0. -1.
          2    1    6    6  503    0 -0.55424784318E+02  0.66825610941E+02 -0.99007380466E+02  0.13168154913E+03  0.00000000000E+00 0. -1.
         -2    1    6    6    0  503  0.25362985260E+02 -0.30014219009E+01 -0.59035781362E+02  0.64323502981E+02  0.00000000000E+00 0.  1.
<mgrwt>
<rscale>  0 0.12990666E+04</rscale>
<asrwt>0</asrwt>
<pdfrwt beam="1">  1        3 0.59228566E-01 0.12990666E+04</pdfrwt>
<pdfrwt beam="2">  1       -4 0.16859509E+00 0.12990666E+04</pdfrwt>
<totfact> 0.13541306E+00</totfact>
</mgrwt>
</event>
<event>
12    4  0.4183215E-008  0.1475524E+04  0.7818608E-02  0.8900894E-01
         -2   -1    0    0    0  501 -0.00000000000E+00  0.00000000000E+00  0.74588629657E+03  0.74588629657E+03  0.00000000000E+00 0.  1.
          1   -1    0    0  501    0  0.00000000000E+00 -0.00000000000E+00 -0.72972607093E+03  0.72972607093E+03  0.00000000000E+00 0. -1.
        -24    2    1    2    0    0  0.18626385777E+03  0.69172750748E+02  0.40720956220E+03  0.46008040476E+03  0.79845207398E+02 0.  0.
        254    2    1    2    0    0 -0.18626385777E+03 -0.69172750748E+02 -0.39104933656E+03  0.10155319627E+04  0.91591838587E+03 0.  0.
         23    2    4    4    0    0 -0.26965164432E+03 -0.16041149956E+03 -0.64221516400E+03  0.72069991582E+03  0.92326557986E+02 0.  0.
         23    2    4    4    0    0  0.83387786549E+02  0.91238748812E+02  0.25116582745E+03  0.29483204692E+03  0.92539887526E+02 0.  0.
          1    1    3    3  502    0  0.48527582094E+02  0.25655936716E+02  0.48011531778E+02  0.72926404658E+02  0.00000000000E+00 0. -1.
         -2    1    3    3    0  502  0.13773627568E+03  0.43516814032E+02  0.35919803042E+03  0.38715400011E+03  0.00000000000E+00 0.  1.
         11    1    5    5    0    0 -0.15868521848E+03 -0.76070297078E+02 -0.26081996119E+03  0.31463429695E+03  0.00000000000E+00 0.  1.
        -11    1    5    5    0    0 -0.11096642585E+03 -0.84341202482E+02 -0.38139520281E+03  0.40606561887E+03  0.00000000000E+00 0. -1.
          3    1    6    6  503    0  0.53738947285E+02  0.99522110887E+02  0.23321990891E+03  0.25919886366E+03  0.00000000000E+00 0. -1.
         -3    1    6    6    0  503  0.29648839265E+02 -0.82833620752E+01  0.17945918535E+02  0.35633183258E+02  0.00000000000E+00 0.  1.
<mgrwt>
<rscale>  0 0.14755239E+04</rscale>
<asrwt>0</asrwt>
<pdfrwt beam="1">  1        1 0.11226555E+00 0.14755239E+04</pdfrwt>
<pdfrwt beam="2">  1       -2 0.11475174E+00 0.14755239E+04</pdfrwt>
<totfact> 0.12858447E+01</totfact>
</mgrwt>
</event>
<event>
12    4  0.4183215E-008  0.1430627E+04  0.7818608E-02  0.8931943E-01
         -2   -1    0    0    0  501 -0.00000000000E+00  0.00000000000E+00  0.63435214850E+03  0.63435214850E+03  0.00000000000E+00 0.  1.
          1   -1    0    0  501    0  0.00000000000E+00 -0.00000000000E+00 -0.80660788528E+03  0.80660788528E+03  0.00000000000E+00 0. -1.
        -24    2    1    2    0    0 -0.14767869286E+03 -0.41179578793E+03  0.11618463645E+02  0.44266694060E+03  0.66590271918E+02 0.  0.
        254    2    1    2    0    0  0.14767869286E+03  0.41179578793E+03 -0.18387420043E+03  0.99829309318E+03  0.87829073263E+03 0.  0.
         23    2    4    4    0    0  0.27359860629E+02  0.49489393452E+03 -0.45436489152E+03  0.67831200079E+03  0.89393217753E+02 0.  0.
         23    2    4    4    0    0  0.12031883223E+03 -0.83098146585E+02  0.27049069109E+03  0.31998109239E+03  0.88548078253E+02 0.  0.
          3    1    3    3  502    0 -0.12973661226E+03 -0.35272140399E+03  0.33144053885E+02  0.37728305779E+03  0.00000000000E+00 0. -1.
         -4    1    3    3    0  502 -0.17942080601E+02 -0.59074383947E+02 -0.21525590239E+02  0.65383882801E+02  0.00000000000E+00 0.  1.
         11    1    5    5    0    0  0.51360856709E+02  0.30559457288E+03 -0.31619680755E+03  0.44272610232E+03  0.00000000000E+00 0.  1.
        -11    1    5    5    0    0 -0.24000996080E+02  0.18929936164E+03 -0.13816808397E+03  0.23558589847E+03  0.00000000000E+00 0. -1.
          1    1    6    6  503    0 -0.63807698290E+01 -0.33913006843E+02  0.65370255853E+02  0.73919392632E+02  0.00000000000E+00 0. -1.
         -1    1    6    6    0  503  0.12669960206E+03 -0.49185139742E+02  0.20512043524E+03  0.24606169975E+03  0.00000000000E+00 0.  1.
<mgrwt>
<rscale>  0 0.14306271E+04</rscale>
<asrwt>0</asrwt>
<pdfrwt beam="1">  1        1 0.12409352E+00 0.14306271E+04</pdfrwt>
<pdfrwt beam="2">  1       -2 0.97592638E-01 0.14306271E+04</pdfrwt>
<totfact> 0.16268494E+01</totfact>
</mgrwt>
</event>
<event>
12    4  0.4183215E-008  0.1693195E+04  0.7818608E-02  0.8765255E-01
          1   -1    0    0  501    0  0.00000000000E+00  0.00000000000E+00  0.83717967375E+03  0.83717967375E+03  0.00000000000E+00 0. -1.
         -2   -1    0    0    0  501 -0.00000000000E+00 -0.00000000000E+00 -0.85612138663E+03  0.85612138663E+03  0.00000000000E+00 0.  1.
        -24    2    1    2    0    0 -0.38374781378E+03  0.31936423546E+03  0.32243134427E+03  0.59962170907E+03  0.79550755760E+02 0.  0.
        254    2    1    2    0    0  0.38374781378E+03 -0.31936423546E+03 -0.34137305714E+03  0.10936793513E+04  0.91123161703E+03 0.  0.
         23    2    4    4    0    0  0.51038315605E+03 -0.34504684839E+03  0.94422770146E+02  0.63018818465E+03  0.93129989735E+02 0.  0.
         23    2    4    4    0    0 -0.12663534227E+03  0.25682612927E+02 -0.43579582729E+03  0.46349116667E+03  0.90608785332E+02 0.  0.
          1    1    3    3  502    0 -0.36408064710E+03  0.27367364012E+03  0.29707655241E+03  0.54378898195E+03  0.00000000000E+00 0. -1.
         -2    1    3    3    0  502 -0.19667166680E+02  0.45690595339E+02  0.25354791857E+02  0.55832727121E+02  0.00000000000E+00 0.  1.
         11    1    5    5    0    0  0.14076627084E+03 -0.14700418011E+03  0.38577958006E+02  0.20715605427E+03  0.00000000000E+00 0.  1.
        -11    1    5    5    0    0  0.36961688521E+03 -0.19804266827E+03  0.55844812140E+02  0.42303213038E+03  0.00000000000E+00 0. -1.
          4    1    6    6  503    0 -0.10661939524E+03  0.47087923795E+02 -0.40296785711E+03  0.41948547278E+03  0.00000000000E+00 0. -1.
         -4    1    6    6    0  503 -0.20015947024E+02 -0.21405310867E+02 -0.32827970179E+02  0.44005693889E+02  0.00000000000E+00 0.  1.
<mgrwt>
<rscale>  0 0.16931951E+04</rscale>
<asrwt>0</asrwt>
<pdfrwt beam="1">  1        1 0.12879687E+00 0.16931951E+04</pdfrwt>
<pdfrwt beam="2">  1       -2 0.13171098E+00 0.16931951E+04</pdfrwt>
<totfact> 0.71956326E+00</totfact>
</mgrwt>
</event>
<event>
12    4  0.4183215E-008  0.1197151E+04  0.7818608E-02  0.9115354E-01
          1   -1    0    0  501    0  0.00000000000E+00  0.00000000000E+00  0.99092270804E+03  0.99092270804E+03  0.00000000000E+00 0. -1.
         -2   -1    0    0    0  501 -0.00000000000E+00 -0.00000000000E+00 -0.36157449007E+03  0.36157449007E+03  0.00000000000E+00 0.  1.
        -24    2    1    2    0    0  0.95376060028E+02 -0.23948734275E+03  0.13584591432E+03  0.30297255448E+03  0.82990819782E+02 0.  0.
        254    2    1    2    0    0 -0.95376060028E+02  0.23948734275E+03  0.49350230364E+03  0.10495246436E+04  0.88966660819E+03 0.  0.
         23    2    4    4    0    0 -0.46347034621E+02  0.45424317621E+03 -0.37133492461E+02  0.46737461792E+03  0.92602518631E+02 0.  0.
         23    2    4    4    0    0 -0.49029025407E+02 -0.21475583346E+03  0.53063579610E+03  0.58215002571E+03  0.93810399175E+02 0.  0.
          3    1    3    3  502    0  0.99140118162E+02 -0.17818808991E+03  0.12873341801E+03  0.24114736434E+03  0.00000000000E+00 0. -1.
         -4    1    3    3    0  502 -0.37640581340E+01 -0.61299252835E+02  0.71124963043E+01  0.61825190137E+02  0.00000000000E+00 0.  1.
         11    1    5    5    0    0  0.54290461243E+01  0.18976026824E+02  0.16557707143E+02  0.25762798794E+02  0.00000000000E+00 0.  1.
        -11    1    5    5    0    0 -0.51776080745E+02  0.43526714939E+03 -0.53691199605E+02  0.44161181912E+03  0.00000000000E+00 0. -1.
          4    1    6    6  503    0 -0.62936797558E+02 -0.21531551039E+03  0.48355179166E+03  0.53305172799E+03  0.00000000000E+00 0. -1.
         -4    1    6    6    0  503  0.13907772151E+02  0.55967692519E+00  0.47084004447E+02  0.49098297722E+02  0.00000000000E+00 0.  1.
<mgrwt>
<rscale>  0 0.11971506E+04</rscale>
<asrwt>0</asrwt>
<pdfrwt beam="1">  1        1 0.15244965E+00 0.11971506E+04</pdfrwt>
<pdfrwt beam="2">  1       -2 0.55626845E-01 0.11971506E+04</pdfrwt>
<totfact> 0.40529997E+01</totfact>
</mgrwt>
</event>
<event>
12    4  0.4183215E-008  0.1640550E+04  0.7818608E-02  0.8796017E-01
         -2   -1    0    0    0  501 -0.00000000000E+00  0.00000000000E+00  0.19057787316E+04  0.19057787316E+04  0.00000000000E+00 0.  1.
          1   -1    0    0  501    0  0.00000000000E+00 -0.00000000000E+00 -0.35305834610E+03  0.35305834610E+03  0.00000000000E+00 0. -1.
        -24    2    1    2    0    0  0.54183106085E+03 -0.11131792303E+03  0.34528616102E+03  0.65734864857E+03  0.83139246482E+02 0.  0.
        254    2    1    2    0    0 -0.54183106085E+03  0.11131792303E+03  0.12074342245E+04  0.16014884291E+04  0.89492748514E+03 0.  0.
         23    2    4    4    0    0 -0.60356926563E+03 -0.24902797428E+03  0.90108446213E+03  0.11164608375E+04  0.90668645607E+02 0.  0.
         23    2    4    4    0    0  0.61738204780E+02  0.36034589731E+03  0.30634976234E+03  0.48502759165E+03  0.87981908033E+02 0.  0.
          3    1    3    3  502    0  0.14384954778E+03 -0.32073929730E+02  0.13699604428E+03  0.20121964495E+03  0.00000000000E+00 0. -1.
         -4    1    3    3    0  502  0.39798151307E+03 -0.79243993302E+02  0.20829011674E+03  0.45612900363E+03  0.00000000000E+00 0.  1.
         11    1    5    5    0    0 -0.14497192030E+03 -0.93108302476E+02  0.28096900703E+03  0.32959004320E+03  0.00000000000E+00 0. -1.
        -11    1    5    5    0    0 -0.45859734533E+03 -0.15591967180E+03  0.62011545510E+03  0.78687079426E+03  0.00000000000E+00 0.  1.
          3    1    6    6  503    0  0.37560726976E+02  0.61780900047E+02  0.90402321892E+02  0.11575952499E+03  0.00000000000E+00 0. -1.
         -3    1    6    6    0  503  0.24177477804E+02  0.29856499726E+03  0.21594744045E+03  0.36926806667E+03  0.00000000000E+00 0.  1.
<mgrwt>
<rscale>  0 0.16405500E+04</rscale>
<asrwt>0</asrwt>
<pdfrwt beam="1">  1        1 0.54316670E-01 0.16405500E+04</pdfrwt>
<pdfrwt beam="2">  1       -2 0.29319672E+00 0.16405500E+04</pdfrwt>
<totfact> 0.20747598E+00</totfact>
</mgrwt>
</event>
<event>
12    4  0.4183215E-008  0.1793818E+04  0.7818608E-02  0.8709594E-01
         -2   -1    0    0    0  501 -0.00000000000E+00  0.00000000000E+00  0.14944394895E+04  0.14944394895E+04  0.00000000000E+00 0.  1.
          1   -1    0    0  501    0  0.00000000000E+00 -0.00000000000E+00 -0.53829237907E+03  0.53829237907E+03  0.00000000000E+00 0. -1.
        -24    2    1    2    0    0  0.23342040959E+03 -0.31286873109E+03  0.97229556422E+03  0.10508880056E+04  0.81455543872E+02 0.  0.
        254    2    1    2    0    0 -0.23342040959E+03  0.31286873109E+03 -0.16148453816E+02  0.98184386294E+03  0.90076893160E+03 0.  0.
         23    2    4    4    0    0 -0.30953715634E+03  0.46801901897E+03  0.27536995155E+03  0.63164565070E+03  0.91063519407E+02 0.  0.
         23    2    4    4    0    0  0.76116746748E+02 -0.15515028788E+03 -0.29151840536E+03  0.35019821224E+03  0.88263447832E+02 0.  0.
          1    1    3    3  502    0  0.30156854326E+01 -0.40608900729E+01  0.24366767632E-01  0.50582388785E+01  0.00000000000E+00 0. -1.
         -2    1    3    3    0  502  0.23040472416E+03 -0.30880784101E+03  0.97227119745E+03  0.10458297667E+04  0.00000000000E+00 0.  1.
         11    1    5    5    0    0 -0.25616925132E+03  0.42356649931E+03  0.21523946957E+03  0.53977707799E+03  0.00000000000E+00 0.  1.
        -11    1    5    5    0    0 -0.53367905018E+02  0.44452519659E+02  0.60130481978E+02  0.91868572716E+02  0.00000000000E+00 0. -1.
          2    1    6    6  503    0  0.16731027693E+02  0.64993575862E+01 -0.53368289609E+02  0.56305801410E+02  0.00000000000E+00 0. -1.
         -2    1    6    6    0  503  0.59385719054E+02 -0.16164964547E+03 -0.23815011575E+03  0.29389241083E+03  0.00000000000E+00 0.  1.
<mgrwt>
<rscale>  0 0.17938176E+04</rscale>
<asrwt>0</asrwt>
<pdfrwt beam="1">  1        1 0.82814212E-01 0.17938176E+04</pdfrwt>
<pdfrwt beam="2">  1       -2 0.22991377E+00 0.17938176E+04</pdfrwt>
<totfact> 0.28269959E+00</totfact>
</mgrwt>
</event>
<event>
12    4  0.4183215E-008  0.1648145E+04  0.7818608E-02  0.8791504E-01
          1   -1    0    0  501    0  0.00000000000E+00  0.00000000000E+00  0.15211628320E+04  0.15211628320E+04  0.00000000000E+00 0. -1.
         -2   -1    0    0    0  501 -0.00000000000E+00 -0.00000000000E+00 -0.44643197535E+03  0.44643197535E+03  0.00000000000E+00 0.  1.
        -24    2    1    2    0    0 -0.36741197294E+03  0.16981633666E+03  0.84257098392E+03  0.93851237766E+03  0.83967100769E+02 0.  0.
        254    2    1    2    0    0  0.36741197294E+03 -0.16981633666E+03  0.23215987270E+03  0.10290824297E+04  0.91721496635E+03 0.  0.
         23    2    4    4    0    0 -0.27136851182E+03  0.51834803693E+02 -0.45927005262E+02  0.29238196935E+03  0.83965529303E+02 0.  0.
         23    2    4    4    0    0  0.63878048476E+03 -0.22165114035E+03  0.27808687796E+03  0.73670046031E+03  0.90694656964E+02 0.  0.
          3    1    3    3  502    0 -0.19195228838E+03  0.10458534448E+03  0.54194036384E+03  0.58436558185E+03  0.00000000000E+00 0. -1.
         -4    1    3    3    0  502 -0.17545968457E+03  0.65230992179E+02  0.30063062007E+03  0.35414679580E+03  0.00000000000E+00 0.  1.
         11    1    5    5    0    0 -0.20701104355E+03  0.59006808711E+02 -0.41062931222E+01  0.21529569728E+03  0.00000000000E+00 0.  1.
        -11    1    5    5    0    0 -0.64357468269E+02 -0.71720050182E+01 -0.41820712140E+02  0.77086272072E+02  0.00000000000E+00 0. -1.
          3    1    6    6  503    0  0.28040570619E+03 -0.14399918045E+03  0.11787348102E+03  0.33653719194E+03  0.00000000000E+00 0. -1.
         -3    1    6    6    0  503  0.35837477857E+03 -0.77651959900E+02  0.16021339694E+03  0.40016326837E+03  0.00000000000E+00 0.  1.
<mgrwt>
<rscale>  0 0.16481453E+04</rscale>
<asrwt>0</asrwt>
<pdfrwt beam="1">  1        1 0.23402505E+00 0.16481453E+04</pdfrwt>
<pdfrwt beam="2">  1       -2 0.68681843E-01 0.16481453E+04</pdfrwt>
<totfact> 0.10277466E+01</totfact>
</mgrwt>
</event>
<event>
12    4  0.4183215E-008  0.1222924E+04  0.7818608E-02  0.9093025E-01
         -2   -1    0    0    0  501 -0.00000000000E+00  0.00000000000E+00  0.33111858907E+03  0.33111858907E+03  0.00000000000E+00 0.  1.
          1   -1    0    0  501    0  0.00000000000E+00 -0.00000000000E+00 -0.11291589883E+04  0.11291589883E+04  0.00000000000E+00 0. -1.
        -24    2    1    2    0    0  0.21890157263E+03 -0.12696256201E+03 -0.47186069666E+02  0.27069073115E+03  0.83723091866E+02 0.  0.
        254    2    1    2    0    0 -0.21890157263E+03  0.12696256201E+03 -0.75085432954E+03  0.11895868462E+04  0.88729772331E+03 0.  0.
         23    2    4    4    0    0 -0.22087653858E+03  0.32373425817E+03 -0.85809476933E+03  0.94802608489E+03  0.94002708878E+02 0.  0.
         23    2    4    4    0    0  0.19749659508E+01 -0.19677169616E+03  0.10724043979E+03  0.24156076131E+03  0.90155912597E+02 0.  0.
          3    1    3    3  502    0  0.49363784490E+02 -0.75205809121E+00 -0.31904052751E+02  0.58781097238E+02  0.00000000000E+00 0. -1.
         -4    1    3    3    0  502  0.16953778814E+03 -0.12621050392E+03 -0.15282016915E+02  0.21190963392E+03  0.00000000000E+00 0.  1.
         11    1    5    5    0    0 -0.19046490721E+03  0.20347360661E+03 -0.57764649405E+03  0.64136874070E+03  0.00000000000E+00 0. -1.
        -11    1    5    5    0    0 -0.30411631369E+02  0.12026065156E+03 -0.28044827528E+03  0.30665734419E+03  0.00000000000E+00 0.  1.
          3    1    6    6  503    0  0.41620604876E+02 -0.53649027556E+02  0.35763138091E+02  0.76743044988E+02  0.00000000000E+00 0. -1.
         -3    1    6    6    0  503 -0.39645638925E+02 -0.14312266861E+03  0.71477301696E+02  0.16481771632E+03  0.00000000000E+00 0.  1.
<mgrwt>
<rscale>  0 0.12229236E+04</rscale>
<asrwt>0</asrwt>
<pdfrwt beam="1">  1        1 0.17371677E+00 0.12229236E+04</pdfrwt>
<pdfrwt beam="2">  1       -2 0.50941321E-01 0.12229236E+04</pdfrwt>
<totfact> 0.38045500E+01</totfact>
</mgrwt>
</event>
<event>
12    4  0.4183215E-008  0.1457713E+04  0.7818608E-02  0.8913071E-01
         -2   -1    0    0    0  501 -0.00000000000E+00  0.00000000000E+00  0.32768750274E+03  0.32768750274E+03  0.00000000000E+00 0.  1.
          1   -1    0    0  501    0  0.00000000000E+00 -0.00000000000E+00 -0.16211542102E+04  0.16211542102E+04  0.00000000000E+00 0. -1.
        -24    2    1    2    0    0 -0.22418251900E+03 -0.13851083138E+03 -0.89500700191E+03  0.93800067171E+03  0.96771247882E+02 0.  0.
        254    2    1    2    0    0  0.22418251900E+03  0.13851083138E+03 -0.39845970551E+03  0.10108410412E+04  0.89083467682E+03 0.  0.
         23    2    4    4    0    0 -0.99061760722E+02  0.40832487420E+03 -0.87497605772E+01  0.42986880362E+03  0.90378065288E+02 0.  0.
         23    2    4    4    0    0  0.32324427972E+03 -0.26981404282E+03 -0.38970994494E+03  0.58097223758E+03  0.91479055452E+02 0.  0.
          3    1    3    3  502    0 -0.20243366566E+03 -0.15267704691E+03 -0.78320013704E+03  0.82322058059E+03  0.00000000000E+00 0. -1.
         -4    1    3    3    0  502 -0.21748853340E+02  0.14166215538E+02 -0.11180686487E+03  0.11478009112E+03  0.00000000000E+00 0.  1.
         11    1    5    5    0    0 -0.18553003741E+02  0.19771343240E+03 -0.38995397087E+02  0.20237454458E+03  0.00000000000E+00 0.  1.
        -11    1    5    5    0    0 -0.80508756981E+02  0.21061144179E+03  0.30245636510E+02  0.22749425903E+03  0.00000000000E+00 0. -1.
          3    1    6    6  503    0  0.27175338490E+03 -0.25760724615E+03 -0.36371044378E+03  0.52201214774E+03  0.00000000000E+00 0. -1.
         -3    1    6    6    0  503  0.51490894817E+02 -0.12206796674E+02 -0.25999501158E+02  0.58960089846E+02  0.00000000000E+00 0.  1.
<mgrwt>
<rscale>  0 0.14577132E+04</rscale>
<asrwt>0</asrwt>
<pdfrwt beam="1">  1        1 0.24940834E+00 0.14577132E+04</pdfrwt>
<pdfrwt beam="2">  1       -2 0.50413462E-01 0.14577132E+04</pdfrwt>
<totfact> 0.17106141E+01</totfact>
</mgrwt>
</event>
<event>
12    4  0.4183215E-008  0.2286720E+04  0.7818608E-02  0.8483176E-01
          1   -1    0    0  501    0  0.00000000000E+00  0.00000000000E+00  0.10920887406E+04  0.10920887406E+04  0.00000000000E+00 0. -1.
         -2   -1    0    0    0  501 -0.00000000000E+00 -0.00000000000E+00 -0.11970380727E+04  0.11970380727E+04  0.00000000000E+00 0.  1.
        -24    2    1    2    0    0  0.30533332787E+03  0.90906631237E+03 -0.13703062908E+03  0.97186182929E+03  0.78153825977E+02 0.  0.
        254    2    1    2    0    0 -0.30533332787E+03 -0.90906631237E+03  0.32081297046E+02  0.13172649840E+04  0.90251195402E+03 0.  0.
         23    2    4    4    0    0  0.86151628378E+02 -0.90511252784E+03  0.48093911382E+02  0.91575931612E+03  0.98241079142E+02 0.  0.
         23    2    4    4    0    0 -0.39148495625E+03 -0.39537845344E+01 -0.16012614336E+02  0.40150566792E+03  0.87603048843E+02 0.  0.
          3    1    3    3  502    0  0.25277843416E+03  0.79730066998E+03 -0.96932386365E+02  0.84201020341E+03  0.00000000000E+00 0. -1.
         -4    1    3    3    0  502  0.52554893711E+02  0.11176564240E+03 -0.40098242718E+02  0.12985162588E+03  0.00000000000E+00 0.  1.
         11    1    5    5    0    0  0.36757288740E+02 -0.52957540841E+03 -0.18530581129E+02  0.53117284748E+03  0.00000000000E+00 0. -1.
        -11    1    5    5    0    0  0.49394339637E+02 -0.37553711943E+03  0.66624492511E+02  0.38458646864E+03  0.00000000000E+00 0.  1.
          3    1    6    6  503    0 -0.27131211029E+03 -0.70585106988E+01  0.29420194087E+02  0.27299383067E+03  0.00000000000E+00 0. -1.
         -3    1    6    6    0  503 -0.12017284596E+03  0.31047261643E+01 -0.45432808423E+02  0.12851183724E+03  0.00000000000E+00 0.  1.
<mgrwt>
<rscale>  0 0.22867197E+04</rscale>
<asrwt>0</asrwt>
<pdfrwt beam="1">  1        1 0.16801365E+00 0.22867197E+04</pdfrwt>
<pdfrwt beam="2">  1       -2 0.18415970E+00 0.22867197E+04</pdfrwt>
<totfact> 0.17319738E+00</totfact>
</mgrwt>
</event>
<event>
12    4  0.4183215E-008  0.1964320E+04  0.7818608E-02  0.8623487E-01
         -2   -1    0    0    0  501 -0.00000000000E+00  0.00000000000E+00  0.27491406581E+04  0.27491406581E+04  0.00000000000E+00 0.  1.
          1   -1    0    0  501    0  0.00000000000E+00 -0.00000000000E+00 -0.35088704418E+03  0.35088704418E+03  0.00000000000E+00 0. -1.
        -24    2    1    2    0    0 -0.61831782776E+03  0.14395215433E+03  0.27720036827E+03  0.69732398478E+03  0.79884521124E+02 0.  0.
        254    2    1    2    0    0  0.61831782776E+03 -0.14395215433E+03  0.21210532456E+04  0.24027037175E+04  0.93331619741E+03 0.  0.
         23    2    4    4    0    0  0.35208639330E+03 -0.39873977349E+03  0.18731990614E+04  0.19493940001E+04  0.91126333505E+02 0.  0.
         23    2    4    4    0    0  0.26623143446E+03  0.25478761916E+03  0.24785418421E+03  0.45330971737E+03  0.90896070651E+02 0.  0.
          1    1    3    3  502    0 -0.47005252047E+03  0.89194952000E+02  0.23855020790E+03  0.53461323697E+03  0.00000000000E+00 0. -1.
         -2    1    3    3    0  502 -0.14826530729E+03  0.54757202332E+02  0.38650160367E+02  0.16271074780E+03  0.00000000000E+00 0.  1.
         11    1    5    5    0    0  0.30258906599E+03 -0.37559292984E+03  0.16153629767E+04  0.16858314680E+04  0.00000000000E+00 0. -1.
        -11    1    5    5    0    0  0.49497327306E+02 -0.23146843649E+02  0.25783608467E+03  0.26356253212E+03  0.00000000000E+00 0.  1.
          4    1    6    6  503    0  0.23071115813E+03  0.21454226727E+03  0.16786821321E+03  0.35698145601E+03  0.00000000000E+00 0. -1.
         -4    1    6    6    0  503  0.35520276331E+02  0.40245351888E+02  0.79985970998E+02  0.96328261355E+02  0.00000000000E+00 0.  1.
<mgrwt>
<rscale>  0 0.19643196E+04</rscale>
<asrwt>0</asrwt>
<pdfrwt beam="1">  1        1 0.53982624E-01 0.19643196E+04</pdfrwt>
<pdfrwt beam="2">  1       -2 0.42294470E+00 0.19643196E+04</pdfrwt>
<totfact> 0.30545853E-01</totfact>
</mgrwt>
</event>
<event>
12    4  0.4183215E-008  0.4229439E+04  0.7818608E-02  0.7959796E-01
         -2   -1    0    0    0  501 -0.00000000000E+00  0.00000000000E+00  0.21659768227E+04  0.21659768227E+04  0.00000000000E+00 0.  1.
          1   -1    0    0  501    0  0.00000000000E+00 -0.00000000000E+00 -0.20646748670E+04  0.20646748670E+04  0.00000000000E+00 0. -1.
        -24    2    1    2    0    0 -0.12609386145E+04 -0.14268865952E+04 -0.62261663545E+03  0.20050077479E+04  0.80206292918E+02 0.  0.
        254    2    1    2    0    0  0.12609386145E+04  0.14268865952E+04  0.72391859110E+03  0.22256439418E+04  0.89636001926E+03 0.  0.
         23    2    4    4    0    0  0.92674869118E+03  0.10963342716E+04  0.10373828006E+03  0.14415257994E+04  0.80143794938E+02 0.  0.
         23    2    4    4    0    0  0.33418992329E+03  0.33055232363E+03  0.62018031104E+03  0.78411814244E+03  0.96280317903E+02 0.  0.
          3    1    3    3  502    0 -0.32338858141E+03 -0.32344627533E+03 -0.17009281566E+03  0.48798487020E+03  0.00000000000E+00 0. -1.
         -4    1    3    3    0  502 -0.93755003306E+03 -0.11034403199E+04 -0.45252381979E+03  0.15170228777E+04  0.00000000000E+00 0.  1.
         11    1    5    5    0    0  0.16923131223E+03  0.17233530900E+03  0.41564757116E+02  0.24508432182E+03  0.00000000000E+00 0.  1.
        -11    1    5    5    0    0  0.75751737895E+03  0.92399896256E+03  0.62173522946E+02  0.11964414775E+04  0.00000000000E+00 0. -1.
          2    1    6    6  503    0  0.15470901276E+03  0.10948363159E+03  0.19110501900E+03  0.26915176482E+03  0.00000000000E+00 0. -1.
         -2    1    6    6    0  503  0.17948091053E+03  0.22106869203E+03  0.42907529204E+03  0.51496637762E+03  0.00000000000E+00 0.  1.
<mgrwt>
<rscale>  0 0.42294387E+04</rscale>
<asrwt>0</asrwt>
<pdfrwt beam="1">  1        1 0.31764229E+00 0.42294387E+04</pdfrwt>
<pdfrwt beam="2">  1       -2 0.33322720E+00 0.42294387E+04</pdfrwt>
<totfact> 0.36036473E-02</totfact>
</mgrwt>
</event>
<event>
12    4  0.4183215E-008  0.1972733E+04  0.7818608E-02  0.8619476E-01
         -2   -1    0    0    0  501 -0.00000000000E+00  0.00000000000E+00  0.70882475693E+03  0.70882475693E+03  0.00000000000E+00 0.  1.
          1   -1    0    0  501    0  0.00000000000E+00 -0.00000000000E+00 -0.13725801859E+04  0.13725801859E+04  0.00000000000E+00 0. -1.
        -24    2    1    2    0    0  0.48949939399E+03  0.54772413914E+03 -0.53283467494E+03  0.91097868614E+03  0.79736983126E+02 0.  0.
        254    2    1    2    0    0 -0.48949939399E+03 -0.54772413914E+03 -0.13092075399E+03  0.11704262567E+04  0.90174607797E+03 0.  0.
         23    2    4    4    0    0 -0.14528145650E+03 -0.99773837397E+02 -0.46658678337E+03  0.50700767606E+03  0.91060622351E+02 0.  0.
         23    2    4    4    0    0 -0.34421793748E+03 -0.44795030174E+03  0.33566602938E+03  0.66341858059E+03  0.91143120865E+02 0.  0.
          1    1    3    3  502    0  0.18388006907E+03  0.22142662370E+03 -0.25554682452E+03  0.38489714082E+03  0.00000000000E+00 0. -1.
         -2    1    3    3    0  502  0.30561932491E+03  0.32629751544E+03 -0.27728785041E+03  0.52608154532E+03  0.00000000000E+00 0.  1.
         11    1    5    5    0    0 -0.11841937527E+03 -0.34376938353E+02 -0.34482239381E+03  0.36620677984E+03  0.00000000000E+00 0.  1.
        -11    1    5    5    0    0 -0.26862081230E+02 -0.65396899043E+02 -0.12176438956E+03  0.14080089622E+03  0.00000000000E+00 0. -1.
          2    1    6    6  503    0 -0.26723258595E+03 -0.29188838965E+03  0.26099172001E+03  0.47405565593E+03  0.00000000000E+00 0. -1.
         -2    1    6    6    0  503 -0.76985351530E+02 -0.15606191210E+03  0.74674309368E+02  0.18936292466E+03  0.00000000000E+00 0.  1.
<mgrwt>
<rscale>  0 0.19727329E+04</rscale>
<asrwt>0</asrwt>
<pdfrwt beam="1">  1        1 0.21116618E+00 0.19727329E+04</pdfrwt>
<pdfrwt beam="2">  1       -2 0.10904996E+00 0.19727329E+04</pdfrwt>
<totfact> 0.43975872E+00</totfact>
</mgrwt>
</event>
<event>
12    4  0.4183215E-008  0.1645809E+04  0.7818608E-02  0.8792890E-01
          1   -1    0    0  501    0  0.00000000000E+00  0.00000000000E+00  0.56049920486E+03  0.56049920486E+03  0.00000000000E+00 0. -1.
         -2   -1    0    0    0  501 -0.00000000000E+00 -0.00000000000E+00 -0.12081588178E+04  0.12081588178E+04  0.00000000000E+00 0.  1.
        -24    2    1    2    0    0 -0.10410279524E+03  0.54415584493E+03 -0.38201673127E+03  0.67763068516E+03  0.79395131752E+02 0.  0.
        254    2    1    2    0    0  0.10410279524E+03 -0.54415584493E+03 -0.26564288168E+03  0.10910273375E+04  0.90157170268E+03 0.  0.
         23    2    4    4    0    0 -0.27586642233E+03  0.93447598614E+02 -0.26533664772E+02  0.30616482643E+03  0.90543519503E+02 0.  0.
         23    2    4    4    0    0  0.37996921757E+03 -0.63760344355E+03 -0.23910921691E+03  0.78486251109E+03  0.89001045942E+02 0.  0.
          3    1    3    3  502    0 -0.26283708351E+02  0.10768189596E+03 -0.11669983998E+03  0.16095054114E+03  0.00000000000E+00 0. -1.
         -4    1    3    3    0  502 -0.77819086894E+02  0.43647394898E+03 -0.26531689129E+03  0.51668014402E+03  0.00000000000E+00 0.  1.
         11    1    5    5    0    0 -0.53807831965E+02  0.57000663489E+02 -0.20640373709E+02  0.81057901810E+02  0.00000000000E+00 0.  1.
        -11    1    5    5    0    0 -0.22205859036E+03  0.36446935125E+02 -0.58932910626E+01  0.22510692462E+03  0.00000000000E+00 0. -1.
          3    1    6    6  503    0  0.32627583642E+03 -0.47666284669E+03 -0.17616916355E+03  0.60390310898E+03  0.00000000000E+00 0. -1.
         -3    1    6    6    0  503  0.53693381151E+02 -0.16094059686E+03 -0.62940053360E+02  0.18095940211E+03  0.00000000000E+00 0.  1.
<mgrwt>
<rscale>  0 0.16458093E+04</rscale>
<asrwt>0</asrwt>
<pdfrwt beam="1">  1        1 0.86230647E-01 0.16458093E+04</pdfrwt>
<pdfrwt beam="2">  1       -2 0.18587059E+00 0.16458093E+04</pdfrwt>
<totfact> 0.52163498E+00</totfact>
</mgrwt>
</event>
<event>
12    4  0.4183215E-008  0.1612472E+04  0.7818608E-02  0.8812922E-01
          1   -1    0    0  501    0  0.00000000000E+00  0.00000000000E+00  0.22325535135E+04  0.22325535135E+04  0.00000000000E+00 0. -1.
         -2   -1    0    0    0  501 -0.00000000000E+00 -0.00000000000E+00 -0.29115391166E+03  0.29115391166E+03  0.00000000000E+00 0.  1.
        -24    2    1    2    0    0  0.20241611376E+03  0.14015156003E+03 -0.96779828360E+02  0.27650268693E+03  0.80452829750E+02 0.  0.
        254    2    1    2    0    0 -0.20241611376E+03 -0.14015156003E+03  0.20381794302E+04  0.22472047383E+04  0.91385939998E+03 0.  0.
         23    2    4    4    0    0  0.17528257858E+03  0.16025569622E+03  0.14782901477E+03  0.29423596640E+03  0.91189449997E+02 0.  0.
         23    2    4    4    0    0 -0.37769869234E+03 -0.30040725625E+03  0.18903504155E+04  0.19529687719E+04  0.88099425558E+02 0.  0.
          1    1    3    3  502    0  0.64714157882E+02  0.37991279511E+01 -0.30983641099E+02  0.71849437154E+02  0.00000000000E+00 0. -1.
         -2    1    3    3    0  502  0.13770195588E+03  0.13635243208E+03 -0.65796187261E+02  0.20465324978E+03  0.00000000000E+00 0.  1.
         11    1    5    5    0    0  0.76584489453E+02  0.18393194216E+02  0.26583122401E+02  0.83127348176E+02  0.00000000000E+00 0.  1.
        -11    1    5    5    0    0  0.98698089131E+02  0.14186250200E+03  0.12124589236E+03  0.21110861822E+03  0.00000000000E+00 0. -1.
          2    1    6    6  503    0 -0.31177173567E+03 -0.25599078514E+03  0.14302263998E+04  0.14860284156E+04  0.00000000000E+00 0. -1.
         -2    1    6    6    0  503 -0.65926956674E+02 -0.44416471115E+02  0.46012401567E+03  0.46694035627E+03  0.00000000000E+00 0.  1.
<mgrwt>
<rscale>  0 0.16124722E+04</rscale>
<asrwt>0</asrwt>
<pdfrwt beam="1">  1        1 0.34346976E+00 0.16124722E+04</pdfrwt>
<pdfrwt beam="2">  1       -2 0.44792911E-01 0.16124722E+04</pdfrwt>
<totfact> 0.82423059E+00</totfact>
</mgrwt>
</event>
<event>
12    4  0.4183215E-008  0.1360957E+04  0.7818608E-02  0.8982575E-01
         -2   -1    0    0    0  501 -0.00000000000E+00  0.00000000000E+00  0.47365773641E+03  0.47365773641E+03  0.00000000000E+00 0.  1.
          1   -1    0    0  501    0  0.00000000000E+00 -0.00000000000E+00 -0.97760714770E+03  0.97760714770E+03  0.00000000000E+00 0. -1.
        -24    2    1    2    0    0 -0.15100115543E+03  0.10557506465E+03 -0.49556974389E+03  0.53479994451E+03  0.80462204615E+02 0.  0.
        254    2    1    2    0    0  0.15100115543E+03 -0.10557506465E+03 -0.83796674002E+01  0.91646493961E+03  0.89771394302E+03 0.  0.
         23    2    4    4    0    0  0.48822870126E+03 -0.16714424735E+03 -0.13231089095E+03  0.54081207559E+03  0.93097073443E+02 0.  0.
         23    2    4    4    0    0 -0.33722754583E+03  0.61569182694E+02  0.12393122355E+03  0.37565286402E+03  0.90790661113E+02 0.  0.
          3    1    3    3  502    0 -0.46449863659E+00 -0.10013309478E+02 -0.40824041551E+02  0.42036704132E+02  0.00000000000E+00 0. -1.
         -4    1    3    3    0  502 -0.15053665679E+03  0.11558837413E+03 -0.45474570234E+03  0.49276324038E+03  0.00000000000E+00 0.  1.
         11    1    5    5    0    0  0.13430534215E+03 -0.67544618909E+02 -0.82005779142E+00  0.15033586720E+03  0.00000000000E+00 0.  1.
        -11    1    5    5    0    0  0.35392335911E+03 -0.99599628439E+02 -0.13149083316E+03  0.39047620839E+03  0.00000000000E+00 0. -1.
          3    1    6    6  503    0 -0.31325486771E+03  0.59667342121E+02  0.85215632288E+02  0.33007651817E+03  0.00000000000E+00 0. -1.
         -3    1    6    6    0  503 -0.23972678126E+02  0.19018405730E+01  0.38715591264E+02  0.45576345850E+02  0.00000000000E+00 0.  1.
<mgrwt>
<rscale>  0 0.13609573E+04</rscale>
<asrwt>0</asrwt>
<pdfrwt beam="1">  1        1 0.15040110E+00 0.13609573E+04</pdfrwt>
<pdfrwt beam="2">  1       -2 0.72870422E-01 0.13609573E+04</pdfrwt>
<totfact> 0.22993433E+01</totfact>
</mgrwt>
</event>
<event>
12    4  0.4183215E-008  0.3012541E+04  0.7818608E-02  0.8240159E-01
          1   -1    0    0  501    0  0.00000000000E+00  0.00000000000E+00  0.16765463425E+04  0.16765463425E+04  0.00000000000E+00 0. -1.
         -2   -1    0    0    0  501 -0.00000000000E+00 -0.00000000000E+00 -0.13532884995E+04  0.13532884995E+04  0.00000000000E+00 0.  1.
        -24    2    1    2    0    0  0.11394517785E+04  0.61514831795E+03  0.58852415438E+03  0.14245874281E+04  0.79566646692E+02 0.  0.
        254    2    1    2    0    0 -0.11394517785E+04 -0.61514831795E+03 -0.26526631145E+03  0.16052474139E+04  0.91087608113E+03 0.  0.
         23    2    4    4    0    0 -0.41152342889E+03  0.72393716722E+02 -0.40682235141E+03  0.58981721398E+03  0.88247025741E+02 0.  0.
         23    2    4    4    0    0 -0.72792834965E+03 -0.68754203467E+03  0.14155603996E+03  0.10154301999E+04  0.92014383768E+02 0.  0.
          1    1    3    3  502    0  0.62682230884E+03  0.35696054745E+03  0.28811082088E+03  0.77674634496E+03  0.00000000000E+00 0. -1.
         -2    1    3    3    0  502  0.51262946970E+03  0.25818777050E+03  0.30041333350E+03  0.64784108313E+03  0.00000000000E+00 0.  1.
         11    1    5    5    0    0 -0.33887977578E+02  0.25437588624E+02 -0.68927344019E+02  0.80910102539E+02  0.00000000000E+00 0.  1.
        -11    1    5    5    0    0 -0.37763545132E+03  0.46956128098E+02 -0.33789500739E+03  0.50890711144E+03  0.00000000000E+00 0. -1.
          1    1    6    6  503    0 -0.40736024616E+03 -0.40569862683E+03  0.12446830941E+03  0.58823983715E+03  0.00000000000E+00 0. -1.
         -1    1    6    6    0  503 -0.32056810349E+03 -0.28184340785E+03  0.17087730554E+02  0.42719036278E+03  0.00000000000E+00 0.  1.
<mgrwt>
<rscale>  0 0.30125410E+04</rscale>
<asrwt>0</asrwt>
<pdfrwt beam="1">  1        1 0.25793021E+00 0.30125410E+04</pdfrwt>
<pdfrwt beam="2">  1       -2 0.20819823E+00 0.30125410E+04</pdfrwt>
<totfact> 0.43445476E-01</totfact>
</mgrwt>
</event>
<event>
12    4  0.4183215E-008  0.2257833E+04  0.7818608E-02  0.8494735E-01
          1   -1    0    0  501    0  0.00000000000E+00  0.00000000000E+00  0.13121404827E+04  0.13121404827E+04  0.00000000000E+00 0. -1.
         -2   -1    0    0    0  501 -0.00000000000E+00 -0.00000000000E+00 -0.97127722199E+03  0.97127722199E+03  0.00000000000E+00 0.  1.
        -24    2    1    2    0    0 -0.14707512576E+03 -0.94378546071E+03  0.65911157156E+02  0.96089557481E+03  0.81326112529E+02 0.  0.
        254    2    1    2    0    0  0.14707512576E+03  0.94378546071E+03  0.27495210354E+03  0.13225221299E+04  0.87241276715E+03 0.  0.
         23    2    4    4    0    0  0.17603038208E+03 -0.11506669281E+03  0.74244009722E+02  0.24040584081E+03  0.89753864034E+02 0.  0.
         23    2    4    4    0    0 -0.28955256318E+02  0.10588521535E+04  0.20070809382E+03  0.10821162891E+04  0.93196750181E+02 0.  0.
          1    1    3    3  502    0 -0.16625519956E+02 -0.21586198107E+02  0.13117200765E+01  0.27278058437E+02  0.00000000000E+00 0. -1.
         -2    1    3    3    0  502 -0.13044960580E+03 -0.92219926260E+03  0.64599437080E+02  0.93361751637E+03  0.00000000000E+00 0.  1.
         11    1    5    5    0    0  0.13350693485E+03 -0.41387644355E+02  0.24639114921E+02  0.14192999944E+03  0.00000000000E+00 0. -1.
        -11    1    5    5    0    0  0.42523447229E+02 -0.73679048452E+02  0.49604894801E+02  0.98475841368E+02  0.00000000000E+00 0.  1.
          4    1    6    6  503    0 -0.60314401540E+02  0.79054487039E+03  0.13734171460E+03  0.80465008899E+03  0.00000000000E+00 0. -1.
         -4    1    6    6    0  503  0.31359145222E+02  0.26830728312E+03  0.63366379218E+02  0.27746620007E+03  0.00000000000E+00 0.  1.
<mgrwt>
<rscale>  0 0.22578327E+04</rscale>
<asrwt>0</asrwt>
<pdfrwt beam="1">  1        1 0.20186777E+00 0.22578327E+04</pdfrwt>
<pdfrwt beam="2">  1       -2 0.14942726E+00 0.22578327E+04</pdfrwt>
<totfact> 0.21365862E+00</totfact>
</mgrwt>
</event>
<event>
12    4  0.4183215E-008  0.2340901E+04  0.7818608E-02  0.8461967E-01
         -4   -1    0    0    0  501 -0.00000000000E+00  0.00000000000E+00  0.10357339896E+04  0.10357339896E+04  0.00000000000E+00 0.  1.
          3   -1    0    0  501    0  0.00000000000E+00 -0.00000000000E+00 -0.13226891048E+04  0.13226891048E+04  0.00000000000E+00 0. -1.
        -24    2    1    2    0    0 -0.76954972690E+03 -0.10789598920E+03  0.50344357799E+03  0.92925858014E+03  0.78852684691E+02 0.  0.
        254    2    1    2    0    0  0.76954972690E+03  0.10789598920E+03 -0.79039869317E+03  0.14291645142E+04  0.90218223651E+03 0.  0.
         23    2    4    4    0    0  0.95332875682E+03  0.17373704400E+03 -0.68365770013E+03  0.11893910731E+04  0.90790940070E+02 0.  0.
         23    2    4    4    0    0 -0.18377902991E+03 -0.65841054803E+02 -0.10674099304E+03  0.23977344112E+03  0.89374980480E+02 0.  0.
          3    1    3    3  502    0 -0.14665993624E+03  0.10458452973E+02  0.94312447935E+02  0.17468072009E+03  0.00000000000E+00 0. -1.
         -4    1    3    3    0  502 -0.62288979066E+03 -0.11835444217E+03  0.40913113006E+03  0.75457786005E+03  0.00000000000E+00 0.  1.
         11    1    5    5    0    0  0.30659811974E+02 -0.10466666050E+02 -0.22510458042E+02  0.39449916220E+02  0.00000000000E+00 0.  1.
        -11    1    5    5    0    0  0.92266894484E+03  0.18420371005E+03 -0.66114724209E+03  0.11499411569E+04  0.00000000000E+00 0. -1.
          2    1    6    6  503    0 -0.49071486945E+02 -0.42245326167E+02 -0.75553678792E+02  0.99503953654E+02  0.00000000000E+00 0. -1.
         -2    1    6    6    0  503 -0.13470754297E+03 -0.23595728637E+02 -0.31187314246E+02  0.14026948746E+03  0.00000000000E+00 0.  1.
<mgrwt>
<rscale>  0 0.23409007E+04</rscale>
<asrwt>0</asrwt>
<pdfrwt beam="1">  1        3 0.20349063E+00 0.23409007E+04</pdfrwt>
<pdfrwt beam="2">  1       -4 0.15934369E+00 0.23409007E+04</pdfrwt>
<totfact> 0.73141569E-02</totfact>
</mgrwt>
</event>
<event>
12    4  0.4183215E-008  0.2173045E+04  0.7818608E-02  0.8529732E-01
          1   -1    0    0  501    0  0.00000000000E+00  0.00000000000E+00  0.10523793378E+04  0.10523793378E+04  0.00000000000E+00 0. -1.
         -2   -1    0    0    0  501 -0.00000000000E+00 -0.00000000000E+00 -0.11217729900E+04  0.11217729900E+04  0.00000000000E+00 0.  1.
        -24    2    1    2    0    0 -0.26886324403E+03  0.58909594415E+03 -0.64869288497E+03  0.92289586144E+03  0.10776287233E+03 0.  0.
        254    2    1    2    0    0  0.26886324403E+03 -0.58909594415E+03  0.57929923279E+03  0.12512564664E+04  0.90040750125E+03 0.  0.
         23    2    4    4    0    0  0.89337927007E+02 -0.48676776913E+03 -0.11943081373E+03  0.51686450349E+03  0.89224825196E+02 0.  0.
         23    2    4    4    0    0  0.17952531702E+03 -0.10232817502E+03  0.69873004652E+03  0.73439196296E+03  0.91692325176E+02 0.  0.
          1    1    3    3  502    0 -0.49403140923E+02  0.16994828349E+03 -0.23657173320E+03  0.29544758307E+03  0.00000000000E+00 0. -1.
         -2    1    3    3    0  502 -0.21946010310E+03  0.41914766066E+03 -0.41212115177E+03  0.62744827837E+03  0.00000000000E+00 0.  1.
         11    1    5    5    0    0  0.55261585537E+02 -0.12583468827E+03 -0.83379193824E+01  0.13768708185E+03  0.00000000000E+00 0. -1.
        -11    1    5    5    0    0  0.34076341470E+02 -0.36093308085E+03 -0.11109289435E+03  0.37917742163E+03  0.00000000000E+00 0.  1.
          4    1    6    6  503    0  0.50306680341E+02 -0.57665270029E+02  0.14409609266E+03  0.16315553737E+03  0.00000000000E+00 0. -1.
         -4    1    6    6    0  503  0.12921863668E+03 -0.44662904989E+02  0.55463395385E+03  0.57123642558E+03  0.00000000000E+00 0.  1.
<mgrwt>
<rscale>  0 0.21730446E+04</rscale>
<asrwt>0</asrwt>
<pdfrwt beam="1">  1        1 0.16190451E+00 0.21730446E+04</pdfrwt>
<pdfrwt beam="2">  1       -2 0.17258046E+00 0.21730446E+04</pdfrwt>
<totfact> 0.22565020E+00</totfact>
</mgrwt>
</event>
<event>
12    4  0.4183215E-008  0.1192613E+04  0.7818608E-02  0.9119347E-01
         -2   -1    0    0    0  501 -0.00000000000E+00  0.00000000000E+00  0.16077619563E+03  0.16077619563E+03  0.00000000000E+00 0.  1.
          1   -1    0    0  501    0  0.00000000000E+00 -0.00000000000E+00 -0.22116559214E+04  0.22116559214E+04  0.00000000000E+00 0. -1.
        -24    2    1    2    0    0  0.40312868021E+02 -0.11559559825E+03 -0.85837395744E+03  0.87083199870E+03  0.80963260121E+02 0.  0.
        254    2    1    2    0    0 -0.40312868021E+02  0.11559559825E+03 -0.11925057683E+04  0.15016001183E+04  0.90429278344E+03 0.  0.
         23    2    4    4    0    0  0.11300421739E+03 -0.36675327483E+03 -0.58837166535E+03  0.70820391242E+03  0.89964699955E+02 0.  0.
         23    2    4    4    0    0 -0.15331708541E+03  0.48234887308E+03 -0.60413410297E+03  0.79339620589E+03  0.91285054159E+02 0.  0.
          1    1    3    3  502    0  0.38859226496E+02 -0.12619871526E+03 -0.83125715445E+03  0.84167963742E+03  0.00000000000E+00 0. -1.
         -2    1    3    3    0  502  0.14536415246E+01  0.10603117014E+02 -0.27116802987E+02  0.29152361283E+02  0.00000000000E+00 0.  1.
         11    1    5    5    0    0  0.25923984759E+02 -0.15178389714E+03 -0.30788080648E+03  0.34423973538E+03  0.00000000000E+00 0. -1.
        -11    1    5    5    0    0  0.87080232632E+02 -0.21496937769E+03 -0.28049085887E+03  0.36396417704E+03  0.00000000000E+00 0.  1.
          3    1    6    6  503    0 -0.26846201412E+02  0.22991462891E+03 -0.25525892423E+03  0.34458463912E+03  0.00000000000E+00 0. -1.
         -3    1    6    6    0  503 -0.12647088400E+03  0.25243424416E+03 -0.34887517874E+03  0.44881156677E+03  0.00000000000E+00 0.  1.
<mgrwt>
<rscale>  0 0.11926133E+04</rscale>
<asrwt>0</asrwt>
<pdfrwt beam="1">  1        1 0.34025471E+00 0.11926133E+04</pdfrwt>
<pdfrwt beam="2">  1       -2 0.24734803E-01 0.11926133E+04</pdfrwt>
<totfact> 0.27295944E+01</totfact>
</mgrwt>
</event>
<event>
12    4  0.4183215E-008  0.2347940E+04  0.7818608E-02  0.8459255E-01
          1   -1    0    0  501    0  0.00000000000E+00  0.00000000000E+00  0.31249452582E+04  0.31249452582E+04  0.00000000000E+00 0. -1.
         -2   -1    0    0    0  501 -0.00000000000E+00 -0.00000000000E+00 -0.44103334821E+03  0.44103334821E+03  0.00000000000E+00 0.  1.
        -24    2    1    2    0    0 -0.72990371066E+03 -0.33737948740E+03  0.20236188340E+04  0.21789906949E+04  0.79893164681E+02 0.  0.
        254    2    1    2    0    0  0.72990371066E+03  0.33737948740E+03  0.66029307600E+03  0.13869879115E+04  0.91715002871E+03 0.  0.
         23    2    4    4    0    0  0.18597862996E+03  0.39829943541E+03  0.69865044217E+03  0.83040674428E+03  0.90732736988E+02 0.  0.
         23    2    4    4    0    0  0.54392508070E+03 -0.60919948013E+02 -0.38357366170E+02  0.55658116724E+03  0.93517777499E+02 0.  0.
          3    1    3    3  502    0 -0.70291429318E+03 -0.33408608659E+03  0.19814812967E+04  0.21288424428E+04  0.00000000000E+00 0. -1.
         -4    1    3    3    0  502 -0.26989417477E+02 -0.32934008087E+01  0.42137537259E+02  0.50148252122E+02  0.00000000000E+00 0.  1.
         11    1    5    5    0    0  0.18326959791E+03  0.40334103681E+03  0.69153953924E+03  0.82127868097E+03  0.00000000000E+00 0. -1.
        -11    1    5    5    0    0  0.27090320511E+01 -0.50416013993E+01  0.71109029296E+01  0.91280633103E+01  0.00000000000E+00 0.  1.
          4    1    6    6  503    0  0.27034755168E+03 -0.48982769097E+01  0.20583452510E+02  0.27117424349E+03  0.00000000000E+00 0.  1.
         -4    1    6    6    0  503  0.27357752902E+03 -0.56021671104E+02 -0.58940818680E+02  0.28540692375E+03  0.00000000000E+00 0. -1.
<mgrwt>
<rscale>  0 0.23479396E+04</rscale>
<asrwt>0</asrwt>
<pdfrwt beam="1">  1        1 0.48076079E+00 0.23479396E+04</pdfrwt>
<pdfrwt beam="2">  1       -2 0.67851286E-01 0.23479396E+04</pdfrwt>
<totfact> 0.76191652E-01</totfact>
</mgrwt>
</event>
<event>
12    4  0.4183215E-008  0.2023444E+04  0.7818608E-02  0.8595737E-01
          1   -1    0    0  501    0  0.00000000000E+00  0.00000000000E+00  0.19514071687E+04  0.19514071687E+04  0.00000000000E+00 0. -1.
         -2   -1    0    0    0  501 -0.00000000000E+00 -0.00000000000E+00 -0.52453525682E+03  0.52453525682E+03  0.00000000000E+00 0.  1.
        -24    2    1    2    0    0  0.77882088928E+01 -0.54929586880E+02 -0.41405580191E+03  0.42556777224E+03  0.81165300243E+02 0.  0.
        254    2    1    2    0    0 -0.77882088928E+01  0.54929586880E+02  0.18409277138E+04  0.20503746533E+04  0.90107905076E+03 0.  0.
         23    2    4    4    0    0  0.13258056768E+03 -0.33174764468E+03  0.38094001522E+03  0.53088523389E+03  0.95340073865E+02 0.  0.
         23    2    4    4    0    0 -0.14036877657E+03  0.38667723156E+03  0.14599876985E+04  0.15194894194E+04  0.89784970037E+02 0.  0.
          3    1    3    3  502    0  0.72674229575E+01  0.18316233226E+02 -0.42300421216E+02  0.46665034781E+02  0.00000000000E+00 0. -1.
         -4    1    3    3    0  502  0.52078593524E+00 -0.73245820106E+02 -0.37175538069E+03  0.37890273746E+03  0.00000000000E+00 0.  1.
         11    1    5    5    0    0  0.13855076200E+03 -0.26002444577E+03  0.27655474996E+03  0.40409349880E+03  0.00000000000E+00 0.  1.
        -11    1    5    5    0    0 -0.59701943191E+01 -0.71723198912E+02  0.10438526526E+03  0.12679173508E+03  0.00000000000E+00 0. -1.
          4    1    6    6  503    0 -0.67871332821E+02  0.81411133067E+02  0.31896180898E+03  0.33611147852E+03  0.00000000000E+00 0. -1.
         -4    1    6    6    0  503 -0.72497443754E+02  0.30526609850E+03  0.11410258896E+04  0.11833779408E+04  0.00000000000E+00 0.  1.
<mgrwt>
<rscale>  0 0.20234444E+04</rscale>
<asrwt>0</asrwt>
<pdfrwt beam="1">  1        1 0.30021648E+00 0.20234444E+04</pdfrwt>
<pdfrwt beam="2">  1       -2 0.80697733E-01 0.20234444E+04</pdfrwt>
<totfact> 0.35431902E+00</totfact>
</mgrwt>
</event>
<event>
12    4  0.4183215E-008  0.1332020E+04  0.7818608E-02  0.9004551E-01
         -2   -1    0    0    0  501 -0.00000000000E+00  0.00000000000E+00  0.37431132767E+03  0.37431132767E+03  0.00000000000E+00 0.  1.
          1   -1    0    0  501    0  0.00000000000E+00 -0.00000000000E+00 -0.11850285260E+04  0.11850285260E+04  0.00000000000E+00 0. -1.
        -24    2    1    2    0    0  0.67744294353E+02 -0.34767578732E+02  0.18722955034E+03  0.21709191750E+03  0.79220718078E+02 0.  0.
        254    2    1    2    0    0 -0.67744294353E+02  0.34767578732E+02 -0.99794674870E+03  0.13422479362E+04  0.89439014700E+03 0.  0.
         23    2    4    4    0    0  0.69204984499E+01 -0.25394264008E+03  0.27012265541E+02  0.27098498193E+03  0.90379423515E+02 0.  0.
         23    2    4    4    0    0 -0.74664792803E+02  0.28871021881E+03 -0.10249590142E+04  0.10712629543E+04  0.90193761364E+02 0.  0.
          3    1    3    3  502    0  0.10776843269E+01 -0.33979916397E+02  0.26570997332E+02  0.43148742984E+02  0.00000000000E+00 0. -1.
         -2    1    3    3    0  502  0.66666610026E+02 -0.78766233525E+00  0.16065855301E+03  0.17394317451E+03  0.00000000000E+00 0.  1.
         11    1    5    5    0    0  0.34020954853E+02 -0.16263509919E+03 -0.15111802961E+02  0.16684114435E+03  0.00000000000E+00 0.  1.
        -11    1    5    5    0    0 -0.27100456403E+02 -0.91307540884E+02  0.42124068502E+02  0.10414383758E+03  0.00000000000E+00 0. -1.
          1    1    6    6  503    0  0.12030317376E+02  0.11497561751E+03 -0.43935500546E+03  0.45430930211E+03  0.00000000000E+00 0. -1.
         -1    1    6    6    0  503 -0.86695110179E+02  0.17373460130E+03 -0.58560400878E+03  0.61695365217E+03  0.00000000000E+00 0.  1.
<mgrwt>
<rscale>  0 0.13320204E+04</rscale>
<asrwt>0</asrwt>
<pdfrwt beam="1">  1        1 0.18231208E+00 0.13320204E+04</pdfrwt>
<pdfrwt beam="2">  1       -2 0.57586359E-01 0.13320204E+04</pdfrwt>
<totfact> 0.26605316E+01</totfact>
</mgrwt>
</event>
<event>
12    4  0.4183215E-008  0.3740712E+04  0.7818608E-02  0.8058999E-01
          1   -1    0    0  501    0  0.00000000000E+00  0.00000000000E+00  0.16614093121E+04  0.16614093121E+04  0.00000000000E+00 0. -1.
         -2   -1    0    0    0  501 -0.00000000000E+00 -0.00000000000E+00 -0.21055807392E+04  0.21055807392E+04  0.00000000000E+00 0.  1.
        -24    2    1    2    0    0  0.36758618359E+03  0.12818096790E+04  0.94229104582E+03  0.16349021961E+04  0.82686880810E+02 0.  0.
        254    2    1    2    0    0 -0.36758618359E+03 -0.12818096790E+04 -0.13864624729E+04  0.21320878552E+04  0.91943720711E+03 0.  0.
         23    2    4    4    0    0 -0.13279708544E+03  0.46371275831E+02 -0.47445425734E+03  0.50138842765E+03  0.80611115494E+02 0.  0.
         23    2    4    4    0    0 -0.23478909815E+03 -0.13281809548E+04 -0.91200821554E+03  0.16306994275E+04  0.90725234973E+02 0.  0.
          3    1    3    3  502    0  0.28480552148E+03  0.10379984192E+04  0.79643893860E+03  0.13389809134E+04  0.00000000000E+00 0. -1.
         -4    1    3    3    0  502  0.82780662113E+02  0.24381125976E+03  0.14585210722E+03  0.29592128275E+03  0.00000000000E+00 0.  1.
         11    1    5    5    0    0 -0.73295718039E+01 -0.19092952139E+02 -0.67440107055E+02  0.70472913122E+02  0.00000000000E+00 0. -1.
        -11    1    5    5    0    0 -0.12546751364E+03  0.65464227970E+02 -0.40701415029E+03  0.43091551452E+03  0.00000000000E+00 0.  1.
          4    1    6    6  503    0 -0.21114250163E+01 -0.18315987652E+03 -0.13393100980E+03  0.22691300947E+03  0.00000000000E+00 0. -1.
         -4    1    6    6    0  503 -0.23267767313E+03 -0.11450210783E+04 -0.77807720574E+03  0.14037864180E+04  0.00000000000E+00 0.  1.
<mgrwt>
<rscale>  0 0.37407119E+04</rscale>
<asrwt>0</asrwt>
<pdfrwt beam="1">  1        1 0.25560143E+00 0.37407119E+04</pdfrwt>
<pdfrwt beam="2">  1       -2 0.32393550E+00 0.37407119E+04</pdfrwt>
<totfact> 0.80520435E-02</totfact>
</mgrwt>
</event>
<event>
12    4  0.4183215E-008  0.2023094E+04  0.7818608E-02  0.8595899E-01
         -2   -1    0    0    0  501 -0.00000000000E+00  0.00000000000E+00  0.74353093693E+03  0.74353093693E+03  0.00000000000E+00 0.  1.
          1   -1    0    0  501    0  0.00000000000E+00 -0.00000000000E+00 -0.13761727370E+04  0.13761727370E+04  0.00000000000E+00 0. -1.
        -24    2    1    2    0    0 -0.52470169463E+03  0.53835495520E+03  0.53090080698E+02  0.75815915258E+03  0.82757584766E+02 0.  0.
        254    2    1    2    0    0  0.52470169463E+03 -0.53835495520E+03 -0.68573188078E+03  0.13615445213E+04  0.90467527056E+03 0.  0.
         23    2    4    4    0    0 -0.22121219379E+03 -0.28571614483E+03 -0.31113791627E+03  0.48483870832E+03  0.87711003052E+02 0.  0.
         23    2    4    4    0    0  0.74591388842E+03 -0.25263881037E+03 -0.37459396451E+03  0.87670581302E+03  0.89880737107E+02 0.  0.
          1    1    3    3  502    0 -0.14134673803E+03  0.17323505121E+03  0.48242462069E+02  0.22872826337E+03  0.00000000000E+00 0. -1.
         -2    1    3    3    0  502 -0.38335495660E+03  0.36511990399E+03  0.48476186289E+01  0.52943088921E+03  0.00000000000E+00 0.  1.
         11    1    5    5    0    0 -0.17939052142E+03 -0.27035753966E+03 -0.29141515198E+03  0.43611575210E+03  0.00000000000E+00 0. -1.
        -11    1    5    5    0    0 -0.41821672363E+02 -0.15358605168E+02 -0.19722764283E+02  0.48722956221E+02  0.00000000000E+00 0.  1.
          2    1    6    6  503    0  0.73792098155E+03 -0.23734210333E+03 -0.36317325607E+03  0.85601020026E+03  0.00000000000E+00 0. -1.
         -2    1    6    6    0  503  0.79929068682E+01 -0.15296707038E+02 -0.11420708435E+02  0.20695612762E+02  0.00000000000E+00 0.  1.
<mgrwt>
<rscale>  0 0.20230937E+04</rscale>
<asrwt>0</asrwt>
<pdfrwt beam="1">  1        1 0.21171888E+00 0.20230937E+04</pdfrwt>
<pdfrwt beam="2">  1       -2 0.11438938E+00 0.20230937E+04</pdfrwt>
<totfact> 0.38757686E+00</totfact>
</mgrwt>
</event>
<event>
12    4  0.4183215E-008  0.2032447E+04  0.7818608E-02  0.8591599E-01
         -4   -1    0    0    0  501 -0.00000000000E+00  0.00000000000E+00  0.26438228832E+03  0.26438228832E+03  0.00000000000E+00 0.  1.
          3   -1    0    0  501    0  0.00000000000E+00 -0.00000000000E+00 -0.39061249061E+04  0.39061249061E+04  0.00000000000E+00 0. -1.
        -24    2    1    2    0    0 -0.74719847868E+03  0.25629593139E+03 -0.18792416582E+04  0.20400107102E+04  0.78110926745E+02 0.  0.
        254    2    1    2    0    0  0.74719847868E+03 -0.25629593139E+03 -0.17625009595E+04  0.21304964842E+04  0.89922881722E+03 0.  0.
         23    2    4    4    0    0  0.60104969990E+03  0.24866979882E+03 -0.86218238301E+03  0.10838104244E+04  0.90493998859E+02 0.  0.
         23    2    4    4    0    0  0.14614877878E+03 -0.50496573020E+03 -0.90031857653E+03  0.10466860598E+04  0.92888719985E+02 0.  0.
          3    1    3    3  502    0 -0.59416915669E+03  0.20030296883E+03 -0.15672990733E+04  0.16880712814E+04  0.00000000000E+00 0. -1.
         -4    1    3    3    0  502 -0.15302932199E+03  0.55992962559E+02 -0.31194258492E+03  0.35193942878E+03  0.00000000000E+00 0.  1.
         11    1    5    5    0    0  0.29328313749E+02  0.27438517909E+02 -0.84497952641E+02  0.93557074842E+02  0.00000000000E+00 0. -1.
        -11    1    5    5    0    0  0.57172138616E+03  0.22123128091E+03 -0.77768443037E+03  0.99025334954E+03  0.00000000000E+00 0.  1.
          4    1    6    6  503    0  0.68488851552E+02 -0.25685482355E+03 -0.36462805389E+03  0.45124133327E+03  0.00000000000E+00 0. -1.
         -4    1    6    6    0  503  0.77659927224E+02 -0.24811090666E+03 -0.53569052264E+03  0.59544472653E+03  0.00000000000E+00 0.  1.
<mgrwt>
<rscale>  0 0.20324470E+04</rscale>
<asrwt>0</asrwt>
<pdfrwt beam="1">  1        3 0.60094224E+00 0.20324470E+04</pdfrwt>
<pdfrwt beam="2">  1       -4 0.40674202E-01 0.20324470E+04</pdfrwt>
<totfact> 0.14106807E-02</totfact>
</mgrwt>
</event>
<event>
12    4  0.4183215E-008  0.2017104E+04  0.7818608E-02  0.8598665E-01
         -2   -1    0    0    0  501 -0.00000000000E+00  0.00000000000E+00  0.12849416661E+04  0.12849416661E+04  0.00000000000E+00 0.  1.
          1   -1    0    0  501    0  0.00000000000E+00 -0.00000000000E+00 -0.79161347473E+03  0.79161347473E+03  0.00000000000E+00 0. -1.
        -24    2    1    2    0    0  0.60963614381E+03 -0.46743129022E+03  0.42228074540E+03  0.88030149618E+03  0.80383190515E+02 0.  0.
        254    2    1    2    0    0 -0.60963614381E+03  0.46743129022E+03  0.71047445990E+02  0.11962536447E+04  0.91423563914E+03 0.  0.
         23    2    4    4    0    0 -0.10944927352E+03  0.59410592674E+03 -0.14745960099E+03  0.62841485539E+03  0.90663669061E+02 0.  0.
         23    2    4    4    0    0 -0.50018687030E+03 -0.12667463652E+03  0.21850704698E+03  0.56783878927E+03  0.91990174860E+02 0.  0.
          1    1    3    3  502    0  0.14337058027E+03 -0.73537650694E+02  0.71186717583E+02  0.17615464262E+03  0.00000000000E+00 0. -1.
         -2    1    3    3    0  502  0.46626556354E+03 -0.39389363953E+03  0.35109402782E+03  0.70414685356E+03  0.00000000000E+00 0.  1.
         11    1    5    5    0    0 -0.10099844043E+02  0.22008388273E+01 -0.53323378643E+01  0.11631180866E+02  0.00000000000E+00 0.  1.
        -11    1    5    5    0    0 -0.99349429475E+02  0.59190508791E+03 -0.14212726312E+03  0.61678367452E+03  0.00000000000E+00 0. -1.
          1    1    6    6  503    0 -0.28531995829E+03 -0.65006300527E+02  0.17224372052E+03  0.33956029945E+03  0.00000000000E+00 0. -1.
         -1    1    6    6    0  503 -0.21486691201E+03 -0.61668335995E+02  0.46263326458E+02  0.22827848982E+03  0.00000000000E+00 0.  1.
<mgrwt>
<rscale>  0 0.20171040E+04</rscale>
<asrwt>0</asrwt>
<pdfrwt beam="1">  1        1 0.12178669E+00 0.20171040E+04</pdfrwt>
<pdfrwt beam="2">  1       -2 0.19768333E+00 0.20171040E+04</pdfrwt>
<totfact> 0.25128820E+00</totfact>
</mgrwt>
</event>
<event>
12    4  0.4183215E-008  0.1890802E+04  0.7818608E-02  0.8659448E-01
          1   -1    0    0  501    0  0.00000000000E+00  0.00000000000E+00  0.72995741347E+03  0.72995741347E+03  0.00000000000E+00 0. -1.
         -4   -1    0    0    0  501 -0.00000000000E+00 -0.00000000000E+00 -0.12244320696E+04  0.12244320696E+04  0.00000000000E+00 0.  1.
        -24    2    1    2    0    0 -0.36325640320E+03 -0.39424557525E+02 -0.84916447759E+03  0.92781133334E+03  0.79019301804E+02 0.  0.
        254    2    1    2    0    0  0.36325640320E+03  0.39424557525E+02  0.35468982149E+03  0.10265781497E+04  0.89137439820E+03 0.  0.
         23    2    4    4    0    0 -0.15533162746E+03  0.26980074994E+03 -0.44116331758E+02  0.32689998060E+03  0.89425876751E+02 0.  0.
         23    2    4    4    0    0  0.51858803066E+03 -0.23037619242E+03  0.39880615325E+03  0.69967816910E+03  0.92176227194E+02 0.  0.
          1    1    3    3  502    0 -0.48557967025E+02  0.89606745864E+01 -0.18177566427E+03  0.18836284657E+03  0.00000000000E+00 0. -1.
         -2    1    3    3    0  502 -0.31469843618E+03 -0.48385232112E+02 -0.66738881333E+03  0.73944848676E+03  0.00000000000E+00 0.  1.
         11    1    5    5    0    0 -0.36516700384E+02  0.36624015818E+02  0.23191679925E+02  0.56680172542E+02  0.00000000000E+00 0.  1.
        -11    1    5    5    0    0 -0.11881492708E+03  0.23317673412E+03 -0.67308011683E+02  0.27021980806E+03  0.00000000000E+00 0. -1.
          3    1    6    6  503    0  0.47134017819E+03 -0.17678193909E+03  0.34632665187E+03  0.61102828687E+03  0.00000000000E+00 0. -1.
         -3    1    6    6    0  503  0.47247852473E+02 -0.53594253324E+02  0.52479501384E+02  0.88649882223E+02  0.00000000000E+00 0.  1.
<mgrwt>
<rscale>  0 0.18908022E+04</rscale>
<asrwt>0</asrwt>
<pdfrwt beam="1">  1        1 0.11230114E+00 0.18908022E+04</pdfrwt>
<pdfrwt beam="2">  1       -4 0.18837416E+00 0.18908022E+04</pdfrwt>
<totfact> 0.18120452E+00</totfact>
</mgrwt>
</event>
<event>
12    4  0.4183215E-008  0.2372445E+04  0.7818608E-02  0.8449892E-01
          1   -1    0    0  501    0  0.00000000000E+00  0.00000000000E+00  0.16372319935E+04  0.16372319935E+04  0.00000000000E+00 0. -1.
         -2   -1    0    0    0  501 -0.00000000000E+00 -0.00000000000E+00 -0.85945261491E+03  0.85945261491E+03  0.00000000000E+00 0.  1.
        -24    2    1    2    0    0  0.75851290904E+03 -0.51232649609E+03  0.79111624112E+03  0.12124711885E+04  0.80007525633E+02 0.  0.
        254    2    1    2    0    0 -0.75851290904E+03  0.51232649609E+03 -0.13336862543E+02  0.12842134199E+04  0.90066973092E+03 0.  0.
         23    2    4    4    0    0  0.52827663496E+02  0.20471118438E+03 -0.28820999215E+03  0.36946787787E+03  0.93509797135E+02 0.  0.
         23    2    4    4    0    0 -0.81134057254E+03  0.30761531170E+03  0.27487312961E+03  0.91474554204E+03  0.91123348603E+02 0.  0.
          3    1    3    3  502    0  0.53116000203E+03 -0.33838585188E+03  0.49941789282E+03  0.80377494622E+03  0.00000000000E+00 0. -1.
         -4    1    3    3    0  502  0.22735290701E+03 -0.17394064421E+03  0.29169834830E+03  0.40869624226E+03  0.00000000000E+00 0.  1.
         11    1    5    5    0    0  0.37577115365E+02  0.84282686004E+02 -0.57379622256E+02  0.10866476802E+03  0.00000000000E+00 0. -1.
        -11    1    5    5    0    0  0.15250548130E+02  0.12042849838E+03 -0.23083036990E+03  0.26080310985E+03  0.00000000000E+00 0.  1.
          1    1    6    6  503    0 -0.73903647811E+03  0.25091251997E+03  0.25044758986E+03  0.81966822796E+03  0.00000000000E+00 0. -1.
         -1    1    6    6    0  503 -0.72304094425E+02  0.56702791731E+02  0.24425539751E+02  0.95077314081E+02  0.00000000000E+00 0.  1.
<mgrwt>
<rscale>  0 0.23724446E+04</rscale>
<asrwt>0</asrwt>
<pdfrwt beam="1">  1        1 0.25188184E+00 0.23724446E+04</pdfrwt>
<pdfrwt beam="2">  1       -2 0.13222348E+00 0.23724446E+04</pdfrwt>
<totfact> 0.17266018E+00</totfact>
</mgrwt>
</event>
<event>
12    4  0.4183215E-008  0.2251228E+04  0.7818608E-02  0.8497403E-01
         -2   -1    0    0    0  501 -0.00000000000E+00  0.00000000000E+00  0.37768843327E+03  0.37768843327E+03  0.00000000000E+00 0.  1.
          1   -1    0    0  501    0  0.00000000000E+00 -0.00000000000E+00 -0.33546340452E+04  0.33546340452E+04  0.00000000000E+00 0. -1.
        -24    2    1    2    0    0 -0.33040074171E+03  0.75023007670E+01  0.21059803443E+03  0.40238689757E+03  0.91338647864E+02 0.  0.
        254    2    1    2    0    0  0.33040074171E+03 -0.75023007670E+01 -0.31875436463E+04  0.33299355809E+04  0.90488426930E+03 0.  0.
         23    2    4    4    0    0  0.57528538371E+03 -0.22229472002E+03 -0.21670403361E+04  0.22549092043E+04  0.90462622184E+02 0.  0.
         23    2    4    4    0    0 -0.24488464200E+03  0.21479241925E+03 -0.10205033103E+04  0.10750263766E+04  0.90279748088E+02 0.  0.
          3    1    3    3  502    0 -0.40928119059E+02  0.31932976983E+02  0.39625239946E+02  0.65306857140E+02  0.00000000000E+00 0. -1.
         -4    1    3    3    0  502 -0.28947262265E+03 -0.24430676216E+02  0.17097279448E+03  0.33708004043E+03  0.00000000000E+00 0.  1.
         11    1    5    5    0    0  0.69323504015E+02  0.31088111392E+01 -0.23268795150E+03  0.24281494124E+03  0.00000000000E+00 0. -1.
        -11    1    5    5    0    0  0.50596187969E+03 -0.22540353115E+03 -0.19343523846E+04  0.20120942630E+04  0.00000000000E+00 0.  1.
          2    1    6    6  503    0 -0.87984873751E+02  0.11469958578E+03 -0.33826658707E+03  0.36786086625E+03  0.00000000000E+00 0. -1.
         -2    1    6    6    0  503 -0.15689976825E+03  0.10009283347E+03 -0.68223672318E+03  0.70716551036E+03  0.00000000000E+00 0.  1.
<mgrwt>
<rscale>  0 0.22512276E+04</rscale>
<asrwt>0</asrwt>
<pdfrwt beam="1">  1        1 0.51609756E+00 0.22512276E+04</pdfrwt>
<pdfrwt beam="2">  1       -2 0.58105911E-01 0.22512276E+04</pdfrwt>
<totfact> 0.71834898E-01</totfact>
</mgrwt>
</event>
<event>
12    4  0.4183215E-008  0.1197832E+04  0.7818608E-02  0.9114756E-01
         -2   -1    0    0    0  501 -0.00000000000E+00  0.00000000000E+00  0.23519590162E+03  0.23519590162E+03  0.00000000000E+00 0.  1.
          1   -1    0    0  501    0  0.00000000000E+00 -0.00000000000E+00 -0.15251129999E+04  0.15251129999E+04  0.00000000000E+00 0. -1.
        -24    2    1    2    0    0  0.43241686907E+02 -0.22166425151E+03 -0.18130430652E+03  0.29949799444E+03  0.76308015485E+02 0.  0.
        254    2    1    2    0    0 -0.43241686907E+02  0.22166425151E+03 -0.11086127917E+04  0.14608109071E+04  0.92408944387E+03 0.  0.
         23    2    4    4    0    0  0.17987689590E+03 -0.24704674857E+03 -0.77223054829E+03  0.83548658882E+03  0.91159348023E+02 0.  0.
         23    2    4    4    0    0 -0.22311858280E+03  0.46871100008E+03 -0.33638224345E+03  0.62532431823E+03  0.91681981184E+02 0.  0.
          1    1    3    3  502    0 -0.21732319487E+02 -0.53395428248E+02 -0.51102073902E+02  0.77037571516E+02  0.00000000000E+00 0. -1.
         -2    1    3    3    0  502  0.64974006395E+02 -0.16826882326E+03 -0.13020223262E+03  0.22246042293E+03  0.00000000000E+00 0.  1.
         11    1    5    5    0    0  0.81768444991E+02 -0.82890247352E+02 -0.19192758286E+03  0.22448400559E+03  0.00000000000E+00 0. -1.
        -11    1    5    5    0    0  0.98108450906E+02 -0.16415650122E+03 -0.58030296543E+03  0.61100258323E+03  0.00000000000E+00 0.  1.
          2    1    6    6  503    0 -0.10981161284E+03  0.25592391914E+03 -0.23264997168E+03  0.36287966604E+03  0.00000000000E+00 0. -1.
         -2    1    6    6    0  503 -0.11330696996E+03  0.21278708094E+03 -0.10373227177E+03  0.26244465220E+03  0.00000000000E+00 0.  1.
<mgrwt>
<rscale>  0 0.11978319E+04</rscale>
<asrwt>0</asrwt>
<pdfrwt beam="1">  1        1 0.23463277E+00 0.11978319E+04</pdfrwt>
<pdfrwt beam="2">  1       -2 0.36183985E-01 0.11978319E+04</pdfrwt>
<totfact> 0.39228275E+01</totfact>
</mgrwt>
</event>
<event>
12    4  0.4183215E-008  0.1732917E+04  0.7818608E-02  0.8742810E-01
          1   -1    0    0  501    0  0.00000000000E+00  0.00000000000E+00  0.42273376156E+03  0.42273376156E+03  0.00000000000E+00 0. -1.
         -2   -1    0    0    0  501 -0.00000000000E+00 -0.00000000000E+00 -0.17759410916E+04  0.17759410916E+04  0.00000000000E+00 0.  1.
        -24    2    1    2    0    0 -0.13360356119E+01  0.83320405118E+02 -0.12964153719E+04  0.13015005071E+04  0.79162355973E+02 0.  0.
        254    2    1    2    0    0  0.13360356119E+01 -0.83320405118E+02 -0.56791958156E+02  0.89717434607E+03  0.89148887029E+03 0.  0.
         23    2    4    4    0    0 -0.22910655380E+03 -0.10700075378E+02 -0.39880663393E+03  0.46878772463E+03  0.90060506811E+02 0.  0.
         23    2    4    4    0    0  0.23044258941E+03 -0.72620329740E+02  0.34201467578E+03  0.42838662145E+03  0.90352419377E+02 0.  0.
          3    1    3    3  502    0 -0.23065649661E+02  0.16928794272E+02 -0.76222767060E+03  0.76276446567E+03  0.00000000000E+00 0. -1.
         -4    1    3    3    0  502  0.21729614049E+02  0.66391610846E+02 -0.53418770129E+03  0.53873604142E+03  0.00000000000E+00 0.  1.
         11    1    5    5    0    0 -0.21074212558E+03 -0.35187467748E+02 -0.36687064138E+03  0.42455208029E+03  0.00000000000E+00 0. -1.
        -11    1    5    5    0    0 -0.18364428217E+02  0.24487392370E+02 -0.31935992556E+02  0.44235644330E+02  0.00000000000E+00 0.  1.
          3    1    6    6  503    0  0.18289736981E+03 -0.92900710521E+02  0.25621480751E+03  0.32821946543E+03  0.00000000000E+00 0. -1.
         -3    1    6    6    0  503  0.47545219597E+02  0.20280380781E+02  0.85799868261E+02  0.10016715602E+03  0.00000000000E+00 0.  1.
<mgrwt>
<rscale>  0 0.17329169E+04</rscale>
<asrwt>0</asrwt>
<pdfrwt beam="1">  1        1 0.65035963E-01 0.17329169E+04</pdfrwt>
<pdfrwt beam="2">  1       -2 0.27322171E+00 0.17329169E+04</pdfrwt>
<totfact> 0.21438030E+00</totfact>
</mgrwt>
</event>
<event>
12    4  0.4183215E-008  0.1363430E+04  0.7818608E-02  0.8980724E-01
         -2   -1    0    0    0  501 -0.00000000000E+00  0.00000000000E+00  0.12185634958E+03  0.12185634958E+03  0.00000000000E+00 0.  1.
          1   -1    0    0  501    0  0.00000000000E+00 -0.00000000000E+00 -0.38137945803E+04  0.38137945803E+04  0.00000000000E+00 0. -1.
        -24    2    1    2    0    0  0.28171090965E+02  0.58772672462E+02 -0.21079776178E+04  0.21105002398E+04  0.79961161909E+02 0.  0.
        254    2    1    2    0    0 -0.28171090965E+02 -0.58772672462E+02 -0.15839606129E+04  0.18251506901E+04  0.90443130255E+03 0.  0.
         23    2    4    4    0    0 -0.13805095733E+03 -0.42721563086E+03 -0.11518343490E+04  0.12395112275E+04  0.89969179919E+02 0.  0.
         23    2    4    4    0    0  0.10987986636E+03  0.36844295840E+03 -0.43212626385E+03  0.58563946264E+03  0.91742431106E+02 0.  0.
          1    1    3    3  502    0 -0.27228064279E+02  0.27983235242E+02 -0.68499167237E+03  0.68610350542E+03  0.00000000000E+00 0. -1.
         -2    1    3    3    0  502  0.55399155244E+02  0.30789437219E+02 -0.14229859455E+04  0.14243967343E+04  0.00000000000E+00 0.  1.
         11    1    5    5    0    0 -0.10642001826E+03 -0.40256988362E+03 -0.10202236213E+04  0.11019273882E+04  0.00000000000E+00 0.  1.
        -11    1    5    5    0    0 -0.31630939064E+02 -0.24645747241E+02 -0.13161072777E+03  0.13758383927E+03  0.00000000000E+00 0. -1.
          4    1    6    6  503    0  0.15717400295E+01  0.44549735150E+02 -0.16119419584E+02  0.47402372898E+02  0.00000000000E+00 0. -1.
         -4    1    6    6    0  503  0.10830812633E+03  0.32389322325E+03 -0.41600684427E+03  0.53823708974E+03  0.00000000000E+00 0.  1.
<mgrwt>
<rscale>  0 0.13634296E+04</rscale>
<asrwt>0</asrwt>
<pdfrwt beam="1">  1        1 0.58673762E+00 0.13634296E+04</pdfrwt>
<pdfrwt beam="2">  1       -2 0.18747131E-01 0.13634296E+04</pdfrwt>
<totfact> 0.29137860E+00</totfact>
</mgrwt>
</event>
<event>
12    4  0.4183215E-008  0.3103918E+04  0.7818608E-02  0.8214664E-01
         -2   -1    0    0    0  501 -0.00000000000E+00  0.00000000000E+00  0.17703226564E+04  0.17703226564E+04  0.00000000000E+00 0.  1.
          1   -1    0    0  501    0  0.00000000000E+00 -0.00000000000E+00 -0.13605297274E+04  0.13605297274E+04  0.00000000000E+00 0. -1.
        -24    2    1    2    0    0  0.94092788631E+03 -0.50055396150E+03 -0.75925286401E+03  0.13109676822E+04  0.79194675791E+02 0.  0.
        254    2    1    2    0    0 -0.94092788631E+03  0.50055396150E+03  0.11690457930E+04  0.18198847015E+04  0.89967366581E+03 0.  0.
         23    2    4    4    0    0  0.42783585492E+02  0.30709176018E+03  0.55125933946E+03  0.63885756594E+03  0.90090764545E+02 0.  0.
         23    2    4    4    0    0 -0.98371147180E+03  0.19346220132E+03  0.61778645358E+03  0.11810271356E+04  0.89716830276E+02 0.  0.
          3    1    3    3  502    0  0.74935178293E+03 -0.42885724666E+03 -0.63318660810E+03  0.10706875890E+04  0.00000000000E+00 0. -1.
         -4    1    3    3    0  502  0.19157610338E+03 -0.71696714841E+02 -0.12606625591E+03  0.24028009319E+03  0.00000000000E+00 0.  1.
         11    1    5    5    0    0 -0.13579528378E+02  0.86811968700E+02  0.22163779330E+03  0.23841986687E+03  0.00000000000E+00 0. -1.
        -11    1    5    5    0    0  0.56363113869E+02  0.22027979148E+03  0.32962154616E+03  0.40043769906E+03  0.00000000000E+00 0.  1.
          3    1    6    6  503    0 -0.58546878140E+03  0.76282084675E+02  0.33647351653E+03  0.67956388791E+03  0.00000000000E+00 0. -1.
         -3    1    6    6    0  503 -0.39824269041E+03  0.11718011665E+03  0.28131293705E+03  0.50146324766E+03  0.00000000000E+00 0.  1.
<mgrwt>
<rscale>  0 0.31039179E+04</rscale>
<asrwt>0</asrwt>
<pdfrwt beam="1">  1        1 0.20931227E+00 0.31039179E+04</pdfrwt>
<pdfrwt beam="2">  1       -2 0.27235733E+00 0.31039179E+04</pdfrwt>
<totfact> 0.28446636E-01</totfact>
</mgrwt>
</event>
<event>
12    4  0.4183215E-008  0.1990895E+04  0.7818608E-02  0.8610889E-01
          1   -1    0    0  501    0  0.00000000000E+00  0.00000000000E+00  0.29317423076E+04  0.29317423076E+04  0.00000000000E+00 0. -1.
         -2   -1    0    0    0  501 -0.00000000000E+00 -0.00000000000E+00 -0.33799555717E+03  0.33799555717E+03  0.00000000000E+00 0.  1.
        -24    2    1    2    0    0  0.58557247706E+03 -0.48917259098E+03  0.95915309000E+03  0.12280809576E+04  0.77609526498E+02 0.  0.
        254    2    1    2    0    0 -0.58557247706E+03  0.48917259098E+03  0.16345936604E+04  0.20416569072E+04  0.95618070594E+03 0.  0.
         23    2    4    4    0    0 -0.42276055474E+03  0.67783427439E+03  0.15749611888E+04  0.17682811460E+04  0.90164709482E+02 0.  0.
         23    2    4    4    0    0 -0.16281192232E+03 -0.18866168341E+03  0.59632471556E+02  0.27337576117E+03  0.95274982507E+02 0.  0.
          3    1    3    3  502    0  0.38514652342E+03 -0.35157016610E+03  0.60830940010E+03  0.80123638986E+03  0.00000000000E+00 0. -1.
         -4    1    3    3    0  502  0.20042595364E+03 -0.13760242487E+03  0.35084368990E+03  0.42684456769E+03  0.00000000000E+00 0.  1.
         11    1    5    5    0    0 -0.30492017148E+03  0.41507380638E+03  0.10503410767E+04  0.11698200516E+04  0.00000000000E+00 0.  1.
        -11    1    5    5    0    0 -0.11784038326E+03  0.26276046801E+03  0.52462011217E+03  0.59846109444E+03  0.00000000000E+00 0. -1.
          1    1    6    6  503    0 -0.27802308808E+02  0.55786187580E+01  0.16852970992E+02  0.32986542613E+02  0.00000000000E+00 0. -1.
         -1    1    6    6    0  503 -0.13500961351E+03 -0.19424030217E+03  0.42779500564E+02  0.24038921855E+03  0.00000000000E+00 0.  1.
<mgrwt>
<rscale>  0 0.19908952E+04</rscale>
<asrwt>0</asrwt>
<pdfrwt beam="1">  1        1 0.45103726E+00 0.19908952E+04</pdfrwt>
<pdfrwt beam="2">  1       -2 0.51999318E-01 0.19908952E+04</pdfrwt>
<totfact> 0.19117804E+00</totfact>
</mgrwt>
</event>
<event>
12    4  0.4183215E-008  0.1786398E+04  0.7818608E-02  0.8713566E-01
         -2   -1    0    0    0  501 -0.00000000000E+00  0.00000000000E+00  0.13690442463E+04  0.13690442463E+04  0.00000000000E+00 0.  1.
          1   -1    0    0  501    0  0.00000000000E+00 -0.00000000000E+00 -0.58274565660E+03  0.58274565660E+03  0.00000000000E+00 0. -1.
        -24    2    1    2    0    0  0.46766371546E+03  0.13633774183E+03 -0.19529934971E+03  0.53060450744E+03  0.78115150364E+02 0.  0.
        254    2    1    2    0    0 -0.46766371546E+03 -0.13633774183E+03  0.98159793942E+03  0.14211853955E+04  0.90495087326E+03 0.  0.
         23    2    4    4    0    0 -0.39743563583E+03 -0.49031148767E+03  0.74354159043E+03  0.97949139710E+03  0.90492324185E+02 0.  0.
         23    2    4    4    0    0 -0.70228079629E+02  0.35397374584E+03  0.23805634899E+03  0.44169399837E+03  0.90517219255E+02 0.  0.
          3    1    3    3  502    0  0.26981471474E+03  0.11101495576E+03 -0.91639312420E+02  0.30581377385E+03  0.00000000000E+00 0. -1.
         -4    1    3    3    0  502  0.19784900072E+03  0.25322786065E+02 -0.10366003729E+03  0.22479073359E+03  0.00000000000E+00 0.  1.
         11    1    5    5    0    0 -0.39406407711E+03 -0.47999269158E+03  0.70534642108E+03  0.93978351473E+03  0.00000000000E+00 0. -1.
        -11    1    5    5    0    0 -0.33715587259E+01 -0.10318796094E+02  0.38195169345E+02  0.39707882371E+02  0.00000000000E+00 0.  1.
          3    1    6    6  503    0 -0.17406051727E+02  0.28119278150E+03  0.17164028417E+03  0.32989807237E+03  0.00000000000E+00 0. -1.
         -3    1    6    6    0  503 -0.52822027901E+02  0.72780964345E+02  0.66416064825E+02  0.11179592600E+03  0.00000000000E+00 0.  1.
<mgrwt>
<rscale>  0 0.17863982E+04</rscale>
<asrwt>0</asrwt>
<pdfrwt beam="1">  1        1 0.89653179E-01 0.17863982E+04</pdfrwt>
<pdfrwt beam="2">  1       -2 0.21062219E+00 0.17863982E+04</pdfrwt>
<totfact> 0.33488969E+00</totfact>
</mgrwt>
</event>
<event>
12    4  0.4183215E-008  0.1480135E+04  0.7818608E-02  0.8897772E-01
          1   -1    0    0  501    0  0.00000000000E+00  0.00000000000E+00  0.21491659001E+04  0.21491659001E+04  0.00000000000E+00 0. -1.
         -2   -1    0    0    0  501 -0.00000000000E+00 -0.00000000000E+00 -0.25484293819E+03  0.25484293819E+03  0.00000000000E+00 0.  1.
        -24    2    1    2    0    0 -0.21036661093E+02 -0.24705318626E+03  0.12161534083E+04  0.12438531584E+04  0.81631789608E+02 0.  0.
        254    2    1    2    0    0  0.21036661093E+02  0.24705318626E+03  0.67816955354E+03  0.11601556799E+04  0.90805805995E+03 0.  0.
         23    2    4    4    0    0  0.14082966438E+03 -0.22539429723E+03  0.59387201510E+03  0.65764024441E+03  0.95766054323E+02 0.  0.
         23    2    4    4    0    0 -0.11979300329E+03  0.47244748349E+03  0.84297538444E+02  0.50251543546E+03  0.88649306780E+02 0.  0.
          1    1    3    3  502    0  0.23739290848E+01 -0.23402720731E+03  0.11056145367E+04  0.11301140974E+04  0.00000000000E+00 0. -1.
         -2    1    3    3    0  502 -0.23410590177E+02 -0.13025978956E+02  0.11053887163E+03  0.11373906102E+03  0.00000000000E+00 0.  1.
         11    1    5    5    0    0  0.14569923155E+03 -0.17685703837E+03  0.52881328487E+03  0.57632470740E+03  0.00000000000E+00 0.  1.
        -11    1    5    5    0    0 -0.48695671704E+01 -0.48537258856E+02  0.65058730223E+02  0.81315537014E+02  0.00000000000E+00 0. -1.
          2    1    6    6  503    0 -0.49745302970E+02  0.14027499546E+03 -0.12912909590E+02  0.14939348296E+03  0.00000000000E+00 0. -1.
         -2    1    6    6    0  503 -0.70047700320E+02  0.33217248804E+03  0.97210448035E+02  0.35312195250E+03  0.00000000000E+00 0.  1.
<mgrwt>
<rscale>  0 0.14801348E+04</rscale>
<asrwt>0</asrwt>
<pdfrwt beam="1">  1        1 0.33064090E+00 0.14801348E+04</pdfrwt>
<pdfrwt beam="2">  1       -2 0.39206607E-01 0.14801348E+04</pdfrwt>
<totfact> 0.12359529E+01</totfact>
</mgrwt>
</event>
<event>
12    4  0.4183215E-008  0.2788477E+04  0.7818608E-02  0.8306855E-01
          1   -1    0    0  501    0  0.00000000000E+00  0.00000000000E+00  0.14827103063E+04  0.14827103063E+04  0.00000000000E+00 0. -1.
         -2   -1    0    0    0  501 -0.00000000000E+00 -0.00000000000E+00 -0.13110454956E+04  0.13110454956E+04  0.00000000000E+00 0.  1.
        -24    2    1    2    0    0  0.24396033992E+03  0.99318850052E+03 -0.64045802579E+03  0.12093365273E+04  0.79801681562E+02 0.  0.
        254    2    1    2    0    0 -0.24396033992E+03 -0.99318850052E+03  0.81212283656E+03  0.15844192746E+04  0.89716268936E+03 0.  0.
         23    2    4    4    0    0  0.28169608520E+03 -0.23863816520E+03  0.45401423023E+03  0.59346847493E+03  0.98868858481E+02 0.  0.
         23    2    4    4    0    0 -0.52565642512E+03 -0.75455033532E+03  0.35810860632E+03  0.99095079971E+03  0.89893424239E+02 0.  0.
          1    1    3    3  502    0  0.53292820765E+02  0.23167302565E+03 -0.18946036348E+03  0.30398642222E+03  0.00000000000E+00 0. -1.
         -2    1    3    3    0  502  0.19066751915E+03  0.76151547487E+03 -0.45099766231E+03  0.90535010506E+03  0.00000000000E+00 0.  1.
         11    1    5    5    0    0  0.24356886569E+03 -0.16735178618E+03  0.30982941283E+03  0.42816664714E+03  0.00000000000E+00 0.  1.
        -11    1    5    5    0    0  0.38127219513E+02 -0.71286379028E+02  0.14418481740E+03  0.16530182779E+03  0.00000000000E+00 0. -1.
          4    1    6    6  503    0 -0.43206561803E+03 -0.57569836730E+03  0.30825310932E+03  0.78302572614E+03  0.00000000000E+00 0.  1.
         -4    1    6    6    0  503 -0.93590807089E+02 -0.17885196802E+03  0.49855497003E+02  0.20792507357E+03  0.00000000000E+00 0. -1.
<mgrwt>
<rscale>  0 0.27884768E+04</rscale>
<asrwt>0</asrwt>
<pdfrwt beam="1">  1        1 0.22810928E+00 0.27884768E+04</pdfrwt>
<pdfrwt beam="2">  1       -2 0.20169931E+00 0.27884768E+04</pdfrwt>
<totfact> 0.66344860E-01</totfact>
</mgrwt>
</event>
<event>
12    4  0.4183215E-008  0.1506078E+04  0.7818608E-02  0.8880421E-01
         -4   -1    0    0    0  501 -0.00000000000E+00  0.00000000000E+00  0.76311619945E+03  0.76311619945E+03  0.00000000000E+00 0.  1.
          1   -1    0    0  501    0  0.00000000000E+00 -0.00000000000E+00 -0.74309522628E+03  0.74309522628E+03  0.00000000000E+00 0. -1.
        -24    2    1    2    0    0  0.19644692905E+03 -0.13144981571E+03  0.42291217360E+03  0.49143491395E+03  0.82359687229E+02 0.  0.
        254    2    1    2    0    0 -0.19644692905E+03  0.13144981571E+03 -0.40289120043E+03  0.10147765118E+04  0.90087712786E+03 0.  0.
         23    2    4    4    0    0 -0.42241352207E+03  0.38564233434E+03 -0.24379227029E+03  0.62835379744E+03  0.90777916044E+02 0.  0.
         23    2    4    4    0    0  0.22596659303E+03 -0.25419251863E+03 -0.15909893014E+03  0.38642271434E+03  0.91297901920E+02 0.  0.
          3    1    3    3  502    0  0.13374727014E+01 -0.19204354978E+02  0.72041543600E+02  0.74569297218E+02  0.00000000000E+00 0. -1.
         -4    1    3    3    0  502  0.19510945635E+03 -0.11224546073E+03  0.35087063000E+03  0.41686561673E+03  0.00000000000E+00 0.  1.
         11    1    5    5    0    0 -0.40186187671E+03  0.34106174559E+03 -0.23990085701E+03  0.57911009614E+03  0.00000000000E+00 0.  1.
        -11    1    5    5    0    0 -0.20551645361E+02  0.44580588755E+02 -0.38914132826E+01  0.49243701304E+02  0.00000000000E+00 0. -1.
          1    1    6    6  503    0  0.47624703293E+00 -0.40319128407E+02 -0.28149871500E+02  0.49175951361E+02  0.00000000000E+00 0. -1.
         -1    1    6    6    0  503  0.22549034599E+03 -0.21387339023E+03 -0.13094905864E+03  0.33724676298E+03  0.00000000000E+00 0.  1.
<mgrwt>
<rscale>  0 0.15060784E+04</rscale>
<asrwt>0</asrwt>
<pdfrwt beam="1">  1        1 0.11432234E+00 0.15060784E+04</pdfrwt>
<pdfrwt beam="2">  1       -4 0.11740249E+00 0.15060784E+04</pdfrwt>
<totfact> 0.64894384E+00</totfact>
</mgrwt>
</event>
<event>
12    4  0.4183215E-008  0.2583585E+04  0.7818608E-02  0.8373798E-01
         -2   -1    0    0    0  501 -0.00000000000E+00  0.00000000000E+00  0.18888529334E+04  0.18888529334E+04  0.00000000000E+00 0.  1.
          1   -1    0    0  501    0  0.00000000000E+00 -0.00000000000E+00 -0.88346131031E+03  0.88346131031E+03  0.00000000000E+00 0. -1.
        -24    2    1    2    0    0 -0.10971473932E+04 -0.19259491658E+03  0.70109181798E+03  0.13193978145E+04  0.91954616792E+02 0.  0.
        254    2    1    2    0    0  0.10971473932E+04  0.19259491658E+03  0.30429980516E+03  0.14529164292E+04  0.88178374594E+03 0.  0.
         23    2    4    4    0    0  0.98362226451E+03  0.47771102467E+03  0.19717640860E+03  0.11148836946E+04  0.91468760444E+02 0.  0.
         23    2    4    4    0    0  0.11352512866E+03 -0.28511610809E+03  0.10712339656E+03  0.33803273456E+03  0.92798478511E+02 0.  0.
          1    1    3    3  502    0 -0.80628184867E+03 -0.12530836506E+03  0.55660282705E+03  0.98772431018E+03  0.00000000000E+00 0. -1.
         -2    1    3    3    0  502 -0.29086554451E+03 -0.67286551523E+02  0.14448899092E+03  0.33167350436E+03  0.00000000000E+00 0.  1.
         11    1    5    5    0    0  0.82671687395E+03  0.36780839810E+03  0.14549138638E+03  0.91646688478E+03  0.00000000000E+00 0.  1.
        -11    1    5    5    0    0  0.15690539056E+03  0.10990262657E+03  0.51685022215E+02  0.19841680986E+03  0.00000000000E+00 0. -1.
          2    1    6    6  503    0  0.39655667086E+02 -0.18423227734E+02  0.11108478166E+02  0.45115247305E+02  0.00000000000E+00 0. -1.
         -2    1    6    6    0  503  0.73869461575E+02 -0.26669288036E+03  0.96014918394E+02  0.29291748726E+03  0.00000000000E+00 0.  1.
<mgrwt>
<rscale>  0 0.25835855E+04</rscale>
<asrwt>0</asrwt>
<pdfrwt beam="1">  1        1 0.13591712E+00 0.25835855E+04</pdfrwt>
<pdfrwt beam="2">  1       -2 0.29059276E+00 0.25835855E+04</pdfrwt>
<totfact> 0.52705643E-01</totfact>
</mgrwt>
</event>
<event>
12    4  0.4183215E-008  0.2117776E+04  0.7818608E-02  0.8553453E-01
          1   -1    0    0  501    0  0.00000000000E+00  0.00000000000E+00  0.79393334671E+03  0.79393334671E+03  0.00000000000E+00 0. -1.
         -2   -1    0    0    0  501 -0.00000000000E+00 -0.00000000000E+00 -0.14122648772E+04  0.14122648772E+04  0.00000000000E+00 0.  1.
        -24    2    1    2    0    0  0.50554837326E+03  0.65101774190E+03 -0.14237855945E+03  0.84003034299E+03  0.77305012589E+02 0.  0.
        254    2    1    2    0    0 -0.50554837326E+03 -0.65101774190E+03 -0.47595297101E+03  0.13661678809E+04  0.98004091251E+03 0.  0.
         23    2    4    4    0    0 -0.48302434030E+03 -0.66401150298E+03 -0.72577980141E+03  0.10997118193E+04  0.91574974614E+02 0.  0.
         23    2    4    4    0    0 -0.22524032967E+02  0.12993761077E+02  0.24982683040E+03  0.26645606159E+03  0.88933782575E+02 0.  0.
          3    1    3    3  502    0  0.46681661260E+03  0.60417357626E+03 -0.15200126868E+03  0.77849074865E+03  0.00000000000E+00 0. -1.
         -2    1    3    3    0  502  0.38731760659E+02  0.46844165642E+02  0.96227092305E+01  0.61539594339E+02  0.00000000000E+00 0.  1.
         11    1    5    5    0    0 -0.75119785969E+02 -0.80672851521E+02 -0.62208096936E+02  0.12657384620E+03  0.00000000000E+00 0.  1.
        -11    1    5    5    0    0 -0.40790455433E+03 -0.58333865146E+03 -0.66357170447E+03  0.97313797311E+03  0.00000000000E+00 0. -1.
          1    1    6    6  503    0  0.19439650993E+02 -0.45845481843E+00  0.19567881922E+03  0.19664259585E+03  0.00000000000E+00 0. -1.
         -1    1    6    6    0  503 -0.41963683960E+02  0.13452215896E+02  0.54148011180E+02  0.69813465740E+02  0.00000000000E+00 0.  1.
<mgrwt>
<rscale>  0 0.21177764E+04</rscale>
<asrwt>0</asrwt>
<pdfrwt beam="1">  1        1 0.12214359E+00 0.21177764E+04</pdfrwt>
<pdfrwt beam="2">  1       -2 0.21727152E+00 0.21177764E+04</pdfrwt>
<totfact> 0.18517547E+00</totfact>
</mgrwt>
</event>
<event>
12    4  0.4183215E-008  0.2155522E+04  0.7818608E-02  0.8537172E-01
          1   -1    0    0  501    0  0.00000000000E+00  0.00000000000E+00  0.10140139811E+04  0.10140139811E+04  0.00000000000E+00 0. -1.
         -2   -1    0    0    0  501 -0.00000000000E+00 -0.00000000000E+00 -0.11455151967E+04  0.11455151967E+04  0.00000000000E+00 0.  1.
        -24    2    1    2    0    0  0.20698506293E+03  0.18214731948E+03 -0.88643852729E+03  0.93166634347E+03  0.78793721933E+02 0.  0.
        254    2    1    2    0    0 -0.20698506293E+03 -0.18214731948E+03  0.75493731172E+03  0.12278628344E+04  0.92827600050E+03 0.  0.
         23    2    4    4    0    0 -0.15523198087E+03  0.33084247850E+03  0.54672179871E+03  0.66435998486E+03  0.94423253661E+02 0.  0.
         23    2    4    4    0    0 -0.51753082053E+02 -0.51298979798E+03  0.20821551301E+03  0.56350284950E+03  0.91350135215E+02 0.  0.
          1    1    3    3  502    0  0.25069734513E+02  0.42001322312E+02 -0.25776128485E+03  0.26236135887E+03  0.00000000000E+00 0. -1.
         -2    1    3    3    0  502  0.18191532841E+03  0.14014599717E+03 -0.62867724244E+03  0.66930498459E+03  0.00000000000E+00 0.  1.
         11    1    5    5    0    0 -0.67417750269E+02  0.24634656918E+03  0.36038446276E+03  0.44171115698E+03  0.00000000000E+00 0. -1.
        -11    1    5    5    0    0 -0.87814230606E+02  0.84495909313E+02  0.18633733595E+03  0.22264882788E+03  0.00000000000E+00 0.  1.
          1    1    6    6  503    0 -0.55686867712E+02 -0.43490331308E+03  0.20806455904E+03  0.48531719492E+03  0.00000000000E+00 0. -1.
         -1    1    6    6    0  503  0.39337856596E+01 -0.78086484906E+02  0.15095396687E+00  0.78185654578E+02  0.00000000000E+00 0.  1.
<mgrwt>
<rscale>  0 0.21555217E+04</rscale>
<asrwt>0</asrwt>
<pdfrwt beam="1">  1        1 0.15600215E+00 0.21555217E+04</pdfrwt>
<pdfrwt beam="2">  1       -2 0.17623311E+00 0.21555217E+04</pdfrwt>
<totfact> 0.22802288E+00</totfact>
</mgrwt>
</event>
<event>
12    4  0.4183215E-008  0.1689723E+04  0.7818608E-02  0.8767247E-01
         -2   -1    0    0    0  501 -0.00000000000E+00  0.00000000000E+00  0.44286852702E+03  0.44286852702E+03  0.00000000000E+00 0.  1.
          1   -1    0    0  501    0  0.00000000000E+00 -0.00000000000E+00 -0.16117448706E+04  0.16117448706E+04  0.00000000000E+00 0. -1.
        -24    2    1    2    0    0  0.40764008434E+03 -0.35385505540E+03 -0.10676816449E+03  0.55639138012E+03  0.82389855759E+02 0.  0.
        254    2    1    2    0    0 -0.40764008434E+03  0.35385505540E+03 -0.10621081791E+04  0.14982220175E+04  0.90841157580E+03 0.  0.
         23    2    4    4    0    0 -0.79202856164E+01  0.54109657148E+03 -0.81744173270E+03  0.98469614040E+03  0.92559559078E+02 0.  0.
         23    2    4    4    0    0 -0.39971979872E+03 -0.18724151608E+03 -0.24466644643E+03  0.51352587712E+03  0.94930783358E+02 0.  0.
          3    1    3    3  502    0  0.42650001958E+02 -0.70402356145E+02 -0.31692300800E+02  0.88203834087E+02  0.00000000000E+00 0. -1.
         -4    1    3    3    0  502  0.36499008238E+03 -0.28345269925E+03 -0.75075863686E+02  0.46818754603E+03  0.00000000000E+00 0.  1.
         11    1    5    5    0    0 -0.30242693740E+02  0.18870341213E+03 -0.35126676884E+03  0.39988991131E+03  0.00000000000E+00 0.  1.
        -11    1    5    5    0    0  0.22322408124E+02  0.35239315935E+03 -0.46617496385E+03  0.58480622909E+03  0.00000000000E+00 0. -1.
          3    1    6    6  503    0 -0.34024299217E+03 -0.19360754082E+03 -0.20687525793E+03  0.44277143757E+03  0.00000000000E+00 0. -1.
         -3    1    6    6    0  503 -0.59476806548E+02  0.63660247310E+01 -0.37791188499E+02  0.70754439552E+02  0.00000000000E+00 0.  1.
<mgrwt>
<rscale>  0 0.16897231E+04</rscale>
<asrwt>0</asrwt>
<pdfrwt beam="1">  1        1 0.24796075E+00 0.16897231E+04</pdfrwt>
<pdfrwt beam="2">  1       -2 0.68133619E-01 0.16897231E+04</pdfrwt>
<totfact> 0.90276194E+00</totfact>
</mgrwt>
</event>
<event>
12    4  0.4183215E-008  0.1410854E+04  0.7818608E-02  0.8945999E-01
          1   -1    0    0  501    0  0.00000000000E+00  0.00000000000E+00  0.60331622149E+03  0.60331622149E+03  0.00000000000E+00 0. -1.
         -2   -1    0    0    0  501 -0.00000000000E+00 -0.00000000000E+00 -0.82482016110E+03  0.82482016110E+03  0.00000000000E+00 0.  1.
        -24    2    1    2    0    0 -0.39376214964E+03 -0.50295590244E+02 -0.17684468328E+03  0.44173648848E+03  0.79238919488E+02 0.  0.
        254    2    1    2    0    0  0.39376214964E+03  0.50295590244E+02 -0.44659256328E+02  0.98639989412E+03  0.90189357746E+03 0.  0.
         23    2    4    4    0    0  0.61193504386E+03 -0.18392523426E+03 -0.85865469266E+02  0.65124267255E+03  0.91930136726E+02 0.  0.
         23    2    4    4    0    0 -0.21817289422E+03  0.23422082450E+03  0.41206212938E+02  0.33515722157E+03  0.90407990711E+02 0.  0.
          1    1    3    3  502    0  0.27775015094E+01 -0.35399164711E+01 -0.58395376186E+01  0.73719551583E+01  0.00000000000E+00 0. -1.
         -2    1    3    3    0  502 -0.39653965115E+03 -0.46755673772E+02 -0.17100514566E+03  0.43436453332E+03  0.00000000000E+00 0.  1.
         11    1    5    5    0    0  0.29071024671E+03 -0.12905625574E+03 -0.19427434100E+02  0.31866187391E+03  0.00000000000E+00 0.  1.
        -11    1    5    5    0    0  0.32122479715E+03 -0.54868978514E+02 -0.66438035167E+02  0.33258079864E+03  0.00000000000E+00 0. -1.
          2    1    6    6  503    0 -0.18003342892E+03  0.23300673340E+03  0.36477475208E+02  0.29670655459E+03  0.00000000000E+00 0.  1.
         -2    1    6    6    0  503 -0.38139465301E+02  0.12140910968E+01  0.47287377305E+01  0.38450666980E+02  0.00000000000E+00 0. -1.
<mgrwt>
<rscale>  0 0.14108542E+04</rscale>
<asrwt>0</asrwt>
<pdfrwt beam="1">  1        1 0.92817881E-01 0.14108542E+04</pdfrwt>
<pdfrwt beam="2">  1       -2 0.12689541E+00 0.14108542E+04</pdfrwt>
<totfact> 0.13367844E+01</totfact>
</mgrwt>
</event>
<event>
12    4  0.4183215E-008  0.2176669E+04  0.7818608E-02  0.8528202E-01
          1   -1    0    0  501    0  0.00000000000E+00  0.00000000000E+00  0.84429513747E+03  0.84429513747E+03  0.00000000000E+00 0. -1.
         -2   -1    0    0    0  501 -0.00000000000E+00 -0.00000000000E+00 -0.14029126894E+04  0.14029126894E+04  0.00000000000E+00 0.  1.
        -24    2    1    2    0    0  0.69433823845E+03  0.56352832657E+03 -0.33425308125E+03  0.95791568133E+03  0.78788108240E+02 0.  0.
        254    2    1    2    0    0 -0.69433823845E+03 -0.56352832657E+03 -0.22436447069E+03  0.12892921455E+04  0.90125748631E+03 0.  0.
         23    2    4    4    0    0 -0.10774750689E+03 -0.51476994466E+03 -0.40114447933E+03  0.66785059721E+03  0.92249150258E+02 0.  0.
         23    2    4    4    0    0 -0.58659073156E+03 -0.48758381905E+02  0.17678000864E+03  0.62144154833E+03  0.92045425667E+02 0.  0.
          1    1    3    3  502    0  0.30281234589E+03  0.23237552488E+03 -0.10272986269E+03  0.39528107224E+03  0.00000000000E+00 0. -1.
         -2    1    3    3    0  502  0.39152589256E+03  0.33115280169E+03 -0.23152321856E+03  0.56263460909E+03  0.00000000000E+00 0.  1.
         11    1    5    5    0    0 -0.27758763387E+02 -0.36739083394E+02 -0.57720152279E+02  0.73837153064E+02  0.00000000000E+00 0.  1.
        -11    1    5    5    0    0 -0.79988743506E+02 -0.47803086127E+03 -0.34342432705E+03  0.59401344414E+03  0.00000000000E+00 0. -1.
          2    1    6    6  503    0 -0.27650039193E+03  0.20936369550E+02  0.67915017095E+02  0.28548773678E+03  0.00000000000E+00 0. -1.
         -2    1    6    6    0  503 -0.31009033963E+03 -0.69694751455E+02  0.10886499154E+03  0.33595381155E+03  0.00000000000E+00 0.  1.
<mgrwt>
<rscale>  0 0.21766693E+04</rscale>
<asrwt>0</asrwt>
<pdfrwt beam="1">  1        1 0.12989156E+00 0.21766693E+04</pdfrwt>
<pdfrwt beam="2">  1       -2 0.21583272E+00 0.21766693E+04</pdfrwt>
<totfact> 0.17030246E+00</totfact>
</mgrwt>
</event>
<event>
12    4  0.4183215E-008  0.2538291E+04  0.7818608E-02  0.8389470E-01
         -2   -1    0    0    0  501 -0.00000000000E+00  0.00000000000E+00  0.16517427658E+04  0.16517427658E+04  0.00000000000E+00 0.  1.
          1   -1    0    0  501    0  0.00000000000E+00 -0.00000000000E+00 -0.97517011782E+03  0.97517011782E+03  0.00000000000E+00 0. -1.
        -24    2    1    2    0    0  0.18180697510E+03  0.24107178418E+03 -0.80517425673E+03  0.86355635140E+03  0.79086073588E+02 0.  0.
        254    2    1    2    0    0 -0.18180697510E+03 -0.24107178418E+03  0.14817469047E+04  0.17633565323E+04  0.90701873676E+03 0.  0.
         23    2    4    4    0    0  0.10312704931E+03 -0.49703000144E+03  0.56207164621E+03  0.76288777838E+03  0.91647238431E+02 0.  0.
         23    2    4    4    0    0 -0.28493402441E+03  0.25595821726E+03  0.91967525854E+03  0.10004687539E+04  0.91832124367E+02 0.  0.
          3    1    3    3  502    0  0.16334887698E+03  0.19049292461E+03 -0.72303818980E+03  0.76534608763E+03  0.00000000000E+00 0. -1.
         -4    1    3    3    0  502  0.18458098121E+02  0.50578859563E+02 -0.82136066924E+02  0.98210263775E+02  0.00000000000E+00 0.  1.
         11    1    5    5    0    0 -0.34048117525E+01 -0.16642361402E+03  0.21443439315E+03  0.27145998050E+03  0.00000000000E+00 0.  1.
        -11    1    5    5    0    0  0.10653186107E+03 -0.33060638742E+03  0.34763725305E+03  0.49142779788E+03  0.00000000000E+00 0. -1.
          1    1    6    6  503    0 -0.23392716788E+03  0.16555424806E+03  0.61250530014E+03  0.67623433188E+03  0.00000000000E+00 0. -1.
         -1    1    6    6    0  503 -0.51006856530E+02  0.90403969204E+02  0.30716995840E+03  0.32423442199E+03  0.00000000000E+00 0.  1.
<mgrwt>
<rscale>  0 0.25382909E+04</rscale>
<asrwt>0</asrwt>
<pdfrwt beam="1">  1        1 0.15002617E+00 0.25382909E+04</pdfrwt>
<pdfrwt beam="2">  1       -2 0.25411427E+00 0.25382909E+04</pdfrwt>
<totfact> 0.74515347E-01</totfact>
</mgrwt>
</event>
<event>
12    4  0.4183215E-008  0.2817936E+04  0.7818608E-02  0.8297722E-01
          1   -1    0    0  501    0  0.00000000000E+00  0.00000000000E+00  0.25769746233E+04  0.25769746233E+04  0.00000000000E+00 0. -1.
         -2   -1    0    0    0  501 -0.00000000000E+00 -0.00000000000E+00 -0.77035702165E+03  0.77035702165E+03  0.00000000000E+00 0.  1.
        -24    2    1    2    0    0  0.91855694961E+03 -0.82570145361E+03  0.51718922061E+03  0.13414348014E+04  0.80205214289E+02 0.  0.
        254    2    1    2    0    0 -0.91855694961E+03  0.82570145361E+03  0.12894283810E+04  0.20058968435E+04  0.91403875017E+03 0.  0.
         23    2    4    4    0    0 -0.52896171859E+03  0.24460013355E+03  0.11409248104E+04  0.12846055502E+04  0.94192735865E+02 0.  0.
         23    2    4    4    0    0 -0.38959523102E+03  0.58110132006E+03  0.14850357054E+03  0.72129129326E+03  0.93512732089E+02 0.  0.
          1    1    3    3  502    0  0.35991320850E+02 -0.53825840218E+02  0.35691530769E+02  0.73935658652E+02  0.00000000000E+00 0. -1.
         -2    1    3    3    0  502  0.88256562876E+03 -0.77187561339E+03  0.48149768984E+03  0.12674991428E+04  0.00000000000E+00 0.  1.
         11    1    5    5    0    0 -0.30214017888E+03  0.11439120850E+03  0.54053831031E+03  0.62972668769E+03  0.00000000000E+00 0.  1.
        -11    1    5    5    0    0 -0.22682153971E+03  0.13020892504E+03  0.60038650013E+03  0.65487886252E+03  0.00000000000E+00 0. -1.
          1    1    6    6  503    0 -0.31466592499E+03  0.44283094739E+03  0.15157508909E+03  0.56399370560E+03  0.00000000000E+00 0. -1.
         -1    1    6    6    0  503 -0.74929306031E+02  0.13827037266E+03 -0.30715185473E+01  0.15729758766E+03  0.00000000000E+00 0.  1.
<mgrwt>
<rscale>  0 0.28179358E+04</rscale>
<asrwt>0</asrwt>
<pdfrwt beam="1">  1        1 0.39645763E+00 0.28179358E+04</pdfrwt>
<pdfrwt beam="2">  1       -2 0.11851647E+00 0.28179358E+04</pdfrwt>
<totfact> 0.49843719E-01</totfact>
</mgrwt>
</event>
<event>
12    4  0.4183215E-008  0.1582552E+04  0.7818608E-02  0.8831339E-01
          1   -1    0    0  501    0  0.00000000000E+00  0.00000000000E+00  0.62973333788E+03  0.62973333788E+03  0.00000000000E+00 0. -1.
         -2   -1    0    0    0  501 -0.00000000000E+00 -0.00000000000E+00 -0.99425879445E+03  0.99425879445E+03  0.00000000000E+00 0.  1.
        -24    2    1    2    0    0  0.30548580094E+03  0.21696659303E+03 -0.51684793063E+03  0.64315895305E+03  0.78266074493E+02 0.  0.
        254    2    1    2    0    0 -0.30548580094E+03 -0.21696659303E+03  0.15232247406E+03  0.98083317929E+03  0.89355218785E+03 0.  0.
         23    2    4    4    0    0 -0.20851063571E+03 -0.72354298526E+02 -0.36053122008E+03  0.43169171059E+03  0.87539377534E+02 0.  0.
         23    2    4    4    0    0 -0.96975165230E+02 -0.14461229450E+03  0.51285369414E+03  0.54914146870E+03  0.90667208284E+02 0.  0.
          1    1    3    3  502    0  0.33653564182E+02  0.48253272461E+02 -0.11798480245E+03  0.13183836427E+03  0.00000000000E+00 0. -1.
         -2    1    3    3    0  502  0.27183223676E+03  0.16871332057E+03 -0.39886312819E+03  0.51132058878E+03  0.00000000000E+00 0.  1.
         11    1    5    5    0    0 -0.17845768028E+03 -0.92349327633E+02 -0.31422572855E+03  0.37297902146E+03  0.00000000000E+00 0. -1.
        -11    1    5    5    0    0 -0.30052955427E+02  0.19995029107E+02 -0.46305491530E+02  0.58712689128E+02  0.00000000000E+00 0.  1.
          2    1    6    6  503    0 -0.17509476618E+02 -0.68560179003E+02  0.31419342124E+03  0.32206301537E+03  0.00000000000E+00 0. -1.
         -2    1    6    6    0  503 -0.79465688613E+02 -0.76052115498E+02  0.19866027290E+03  0.22707845333E+03  0.00000000000E+00 0.  1.
<mgrwt>
<rscale>  0 0.15825523E+04</rscale>
<asrwt>0</asrwt>
<pdfrwt beam="1">  1        1 0.96882052E-01 0.15825523E+04</pdfrwt>
<pdfrwt beam="2">  1       -2 0.15296289E+00 0.15825523E+04</pdfrwt>
<totfact> 0.76294996E+00</totfact>
</mgrwt>
</event>
<event>
12    4  0.4183215E-008  0.1585954E+04  0.7818608E-02  0.8829224E-01
          1   -1    0    0  501    0  0.00000000000E+00  0.00000000000E+00  0.80347632999E+03  0.80347632999E+03  0.00000000000E+00 0. -1.
         -2   -1    0    0    0  501 -0.00000000000E+00 -0.00000000000E+00 -0.78261491319E+03  0.78261491319E+03  0.00000000000E+00 0.  1.
        -24    2    1    2    0    0  0.15984264512E+02  0.52696587301E+03 -0.69480845139E+02  0.53737596571E+03  0.77439089975E+02 0.  0.
        254    2    1    2    0    0 -0.15984264512E+02 -0.52696587301E+03  0.90342261932E+02  0.10487152775E+04  0.90204960001E+03 0.  0.
         23    2    4    4    0    0  0.14392244465E+03 -0.15622952735E+03 -0.36547447881E+03  0.43294792635E+03  0.93546656710E+02 0.  0.
         23    2    4    4    0    0 -0.15990670916E+03 -0.37073634566E+03  0.45581674074E+03  0.61576735112E+03  0.91569295813E+02 0.  0.
          3    1    3    3  502    0 -0.24684841453E+01 -0.17137489983E+01  0.19370871547E+01  0.35752840795E+01  0.00000000000E+00 0. -1.
         -4    1    3    3    0  502  0.18452748658E+02  0.52867962201E+03 -0.71417932294E+02  0.53380068163E+03  0.00000000000E+00 0.  1.
         11    1    5    5    0    0  0.71675881947E+02 -0.13518696410E+03 -0.27990788458E+03  0.31900058177E+03  0.00000000000E+00 0. -1.
        -11    1    5    5    0    0  0.72246562700E+02 -0.21042563243E+02 -0.85566594225E+02  0.11394734458E+03  0.00000000000E+00 0.  1.
          4    1    6    6  503    0 -0.20015558411E+02 -0.12836277539E+03  0.18720489666E+03  0.22786684274E+03  0.00000000000E+00 0. -1.
         -4    1    6    6    0  503 -0.13989115075E+03 -0.24237357027E+03  0.26861184408E+03  0.38790050838E+03  0.00000000000E+00 0.  1.
<mgrwt>
<rscale>  0 0.15859540E+04</rscale>
<asrwt>0</asrwt>
<pdfrwt beam="1">  1        1 0.12361174E+00 0.15859540E+04</pdfrwt>
<pdfrwt beam="2">  1       -2 0.12040229E+00 0.15859540E+04</pdfrwt>
<totfact> 0.97280391E+00</totfact>
</mgrwt>
</event>
<event>
12    4  0.4183215E-008  0.1416977E+04  0.7818608E-02  0.8941621E-01
          1   -1    0    0  501    0  0.00000000000E+00  0.00000000000E+00  0.27273632135E+04  0.27273632135E+04  0.00000000000E+00 0. -1.
         -2   -1    0    0    0  501 -0.00000000000E+00 -0.00000000000E+00 -0.18404429228E+03  0.18404429228E+03  0.00000000000E+00 0.  1.
        -24    2    1    2    0    0  0.13994268519E+03  0.29513849926E+03  0.12923846946E+04  0.13354463883E+04  0.80424924788E+02 0.  0.
        254    2    1    2    0    0 -0.13994268519E+03 -0.29513849926E+03  0.12509342267E+04  0.15759611174E+04  0.90118051208E+03 0.  0.
         23    2    4    4    0    0 -0.23151346325E+03 -0.57902110601E+03  0.69388894961E+03  0.93739451867E+03  0.91447713908E+02 0.  0.
         23    2    4    4    0    0  0.91570778063E+02  0.28388260676E+03  0.55704527707E+03  0.63856659877E+03  0.92159202186E+02 0.  0.
          1    1    3    3  502    0  0.13529962890E+03  0.20277693513E+03  0.95398632533E+03  0.98463921510E+03  0.00000000000E+00 0. -1.
         -2    1    3    3    0  502  0.46430562835E+01  0.92361564131E+02  0.33839836923E+03  0.35080717324E+03  0.00000000000E+00 0.  1.
         11    1    5    5    0    0 -0.90466570168E+02 -0.17708995094E+03  0.16569526880E+03  0.25884353024E+03  0.00000000000E+00 0. -1.
        -11    1    5    5    0    0 -0.14104689308E+03 -0.40193115507E+03  0.52819368081E+03  0.67855098844E+03  0.00000000000E+00 0.  1.
          1    1    6    6  503    0  0.89753384434E+02  0.19893921890E+03  0.46278487526E+03  0.51166622285E+03  0.00000000000E+00 0. -1.
         -1    1    6    6    0  503  0.18173936294E+01  0.84943387857E+02  0.94260401805E+02  0.12690037592E+03  0.00000000000E+00 0.  1.
<mgrwt>
<rscale>  0 0.14169765E+04</rscale>
<asrwt>0</asrwt>
<pdfrwt beam="1">  1        1 0.41959431E+00 0.14169765E+04</pdfrwt>
<pdfrwt beam="2">  1       -2 0.28314508E-01 0.14169765E+04</pdfrwt>
<totfact> 0.92104913E+00</totfact>
</mgrwt>
</event>
<event>
12    4  0.4183215E-008  0.1380036E+04  0.7818608E-02  0.8968398E-01
          1   -1    0    0  501    0  0.00000000000E+00  0.00000000000E+00  0.58562613838E+03  0.58562613838E+03  0.00000000000E+00 0. -1.
         -2   -1    0    0    0  501 -0.00000000000E+00 -0.00000000000E+00 -0.81301811521E+03  0.81301811521E+03  0.00000000000E+00 0.  1.
        -24    2    1    2    0    0  0.25134187331E+03  0.10569027112E+03  0.22014584805E+03  0.35977789820E+03  0.81441825413E+02 0.  0.
        254    2    1    2    0    0 -0.25134187331E+03 -0.10569027112E+03 -0.44753782489E+03  0.10388663554E+04  0.89700057357E+03 0.  0.
         23    2    4    4    0    0  0.21948222978E+03 -0.17299274214E+03 -0.46732477536E+03  0.55229037130E+03  0.92375703196E+02 0.  0.
         23    2    4    4    0    0 -0.47082410309E+03  0.67302471020E+02  0.19786950477E+02  0.48657598410E+03  0.10079536814E+03 0.  0.
          3    1    3    3  502    0  0.70731690395E+01  0.13174769701E+02 -0.41176003069E+01  0.15509961613E+02  0.00000000000E+00 0. -1.
         -4    1    3    3    0  502  0.24426870427E+03  0.92515501416E+02  0.22426344836E+03  0.34426793658E+03  0.00000000000E+00 0.  1.
         11    1    5    5    0    0  0.18134822986E+03 -0.16327068219E+03 -0.33642927809E+03  0.41560697214E+03  0.00000000000E+00 0. -1.
        -11    1    5    5    0    0  0.38133999917E+02 -0.97220599504E+01 -0.13089549727E+03  0.13668339916E+03  0.00000000000E+00 0.  1.
          1    1    6    6  503    0 -0.31838225885E+03  0.55943696298E+02 -0.32798802213E+02  0.32491956133E+03  0.00000000000E+00 0. -1.
         -1    1    6    6    0  503 -0.15244184424E+03  0.11358774722E+02  0.52585752690E+02  0.16165642277E+03  0.00000000000E+00 0.  1.
<mgrwt>
<rscale>  0 0.13800357E+04</rscale>
<asrwt>0</asrwt>
<pdfrwt beam="1">  1        1 0.90096330E-01 0.13800357E+04</pdfrwt>
<pdfrwt beam="2">  1       -2 0.12507971E+00 0.13800357E+04</pdfrwt>
<totfact> 0.14503812E+01</totfact>
</mgrwt>
</event>
<event>
12    4  0.4183215E-008  0.1626413E+04  0.7818608E-02  0.8804484E-01
          1   -1    0    0  501    0  0.00000000000E+00  0.00000000000E+00  0.12731379510E+04  0.12731379510E+04  0.00000000000E+00 0. -1.
         -2   -1    0    0    0  501 -0.00000000000E+00 -0.00000000000E+00 -0.51942904746E+03  0.51942904746E+03  0.00000000000E+00 0.  1.
        -24    2    1    2    0    0 -0.13193743874E+03 -0.26510284232E+02  0.85036683241E+03  0.86495671793E+03  0.83163040543E+02 0.  0.
        254    2    1    2    0    0  0.13193743874E+03  0.26510284232E+02 -0.96657928866E+02  0.92761028053E+03  0.91269260675E+03 0.  0.
         23    2    4    4    0    0  0.16640835150E+03 -0.67093704070E+02 -0.48015583928E+03  0.52093341508E+03  0.92890733524E+02 0.  0.
         23    2    4    4    0    0 -0.34470912764E+02  0.93603988301E+02  0.38349791041E+03  0.40667686546E+03  0.91462971487E+02 0.  0.
          3    1    3    3  502    0 -0.13874535274E+03 -0.38708940778E+02  0.78622910959E+03  0.79931524931E+03  0.00000000000E+00 0. -1.
         -4    1    3    3    0  502  0.68079139967E+01  0.12198656546E+02  0.64137722818E+02  0.65641468622E+02  0.00000000000E+00 0.  1.
         11    1    5    5    0    0  0.16568425755E+03 -0.35900034779E+02 -0.42498774178E+03  0.45755291099E+03  0.00000000000E+00 0.  1.
        -11    1    5    5    0    0  0.72409394933E+00 -0.31193669291E+02 -0.55168097501E+02  0.63380504083E+02  0.00000000000E+00 0. -1.
          1    1    6    6  503    0 -0.15149389905E+02  0.99375149766E+02  0.21925255592E+03  0.24119827463E+03  0.00000000000E+00 0. -1.
         -1    1    6    6    0  503 -0.19321522859E+02 -0.57711614648E+01  0.16424535449E+03  0.16547859083E+03  0.00000000000E+00 0.  1.
<mgrwt>
<rscale>  0 0.16264130E+04</rscale>
<asrwt>0</asrwt>
<pdfrwt beam="1">  1        1 0.19586738E+00 0.16264130E+04</pdfrwt>
<pdfrwt beam="2">  1       -2 0.79912161E-01 0.16264130E+04</pdfrwt>
<totfact> 0.11005453E+01</totfact>
</mgrwt>
</event>
<event>
12    4  0.4183215E-008  0.1070442E+04  0.7818608E-02  0.9234490E-01
          1   -1    0    0  501    0  0.00000000000E+00  0.00000000000E+00  0.22888419592E+03  0.22888419592E+03  0.00000000000E+00 0. -1.
         -2   -1    0    0    0  501 -0.00000000000E+00 -0.00000000000E+00 -0.12515564121E+04  0.12515564121E+04  0.00000000000E+00 0.  1.
        -24    2    1    2    0    0  0.13223642953E+02 -0.15425719987E+02  0.49548399798E+02  0.91481041205E+02  0.74168183254E+02 0.  0.
        254    2    1    2    0    0 -0.13223642953E+02  0.15425719987E+02 -0.10722206160E+04  0.13889595668E+04  0.88268839991E+03 0.  0.
         23    2    4    4    0    0 -0.38803433618E+03 -0.16018581615E+03 -0.35928048883E+03  0.55951802933E+03  0.88021666340E+02 0.  0.
         23    2    4    4    0    0  0.37481069323E+03  0.17561153613E+03 -0.71294012713E+03  0.82944153746E+03  0.91472246148E+02 0.  0.
          3    1    3    3  502    0  0.22382867682E+02 -0.37639724738E+02  0.51227397816E+02  0.67394272242E+02  0.00000000000E+00 0. -1.
         -4    1    3    3    0  502 -0.91592247289E+01  0.22214004751E+02 -0.16789980181E+01  0.24086768963E+02  0.00000000000E+00 0.  1.
         11    1    5    5    0    0 -0.37133384785E+03 -0.15039538389E+03 -0.36201737381E+03  0.53996682953E+03  0.00000000000E+00 0.  1.
        -11    1    5    5    0    0 -0.16700488332E+02 -0.97904322546E+01  0.27368849811E+01  0.19551199801E+02  0.00000000000E+00 0. -1.
          1    1    6    6  503    0  0.13974639960E+03  0.21227942745E+02 -0.20833539548E+03  0.25176043923E+03  0.00000000000E+00 0. -1.
         -1    1    6    6    0  503  0.23506429363E+03  0.15438359339E+03 -0.50460473165E+03  0.57768109823E+03  0.00000000000E+00 0.  1.
<mgrwt>
<rscale>  0 0.10704419E+04</rscale>
<asrwt>0</asrwt>
<pdfrwt beam="1">  1        1 0.35212953E-01 0.10704419E+04</pdfrwt>
<pdfrwt beam="2">  1       -2 0.19254714E+00 0.10704419E+04</pdfrwt>
<totfact> 0.16177482E+01</totfact>
</mgrwt>
</event>
<event>
12    4  0.4183215E-008  0.2027979E+04  0.7818608E-02  0.8593650E-01
         -2   -1    0    0    0  501 -0.00000000000E+00  0.00000000000E+00  0.10276315657E+04  0.10276315657E+04  0.00000000000E+00 0.  1.
          1   -1    0    0  501    0  0.00000000000E+00 -0.00000000000E+00 -0.10005288705E+04  0.10005288705E+04  0.00000000000E+00 0. -1.
        -24    2    1    2    0    0 -0.41294624683E+02  0.66552767117E+03 -0.43337517009E+03  0.79860801988E+03  0.72995919311E+02 0.  0.
        254    2    1    2    0    0  0.41294624683E+02 -0.66552767117E+03  0.46047786538E+03  0.12295524163E+04  0.92473074614E+03 0.  0.
         23    2    4    4    0    0  0.33975293412E+03  0.46761121907E+02  0.84389235144E+02  0.36573968025E+03  0.95001641741E+02 0.  0.
         23    2    4    4    0    0 -0.29845830944E+03 -0.71228879308E+03  0.37608863024E+03  0.86381273607E+03  0.91088407563E+02 0.  0.
          3    1    3    3  502    0 -0.18247878660E+02  0.55334750822E+02 -0.21733478335E+02  0.62187328329E+02  0.00000000000E+00 0. -1.
         -4    1    3    3    0  502 -0.23046746022E+02  0.61019292035E+03 -0.41164169176E+03  0.73642069155E+03  0.00000000000E+00 0.  1.
         11    1    5    5    0    0  0.27065925271E+03  0.19438655649E+01  0.83936597550E+02  0.28338236025E+03  0.00000000000E+00 0. -1.
        -11    1    5    5    0    0  0.69093681414E+02  0.44817256342E+02  0.45263759464E+00  0.82357320003E+02  0.00000000000E+00 0.  1.
          2    1    6    6  503    0 -0.26062161819E+03 -0.67663680224E+03  0.35891877510E+03  0.80906345680E+03  0.00000000000E+00 0. -1.
         -2    1    6    6    0  503 -0.37836691250E+02 -0.35651990839E+02  0.17169855140E+02  0.54749279274E+02  0.00000000000E+00 0.  1.
<mgrwt>
<rscale>  0 0.20279793E+04</rscale>
<asrwt>0</asrwt>
<pdfrwt beam="1">  1        1 0.15392752E+00 0.20279793E+04</pdfrwt>
<pdfrwt beam="2">  1       -2 0.15809717E+00 0.20279793E+04</pdfrwt>
<totfact> 0.31909877E+00</totfact>
</mgrwt>
</event>
<event>
12    4  0.4183215E-008  0.2671111E+04  0.7818608E-02  0.8344440E-01
          1   -1    0    0  501    0  0.00000000000E+00  0.00000000000E+00  0.15884770948E+04  0.15884770948E+04  0.00000000000E+00 0. -1.
         -2   -1    0    0    0  501 -0.00000000000E+00 -0.00000000000E+00 -0.11229046529E+04  0.11229046529E+04  0.00000000000E+00 0.  1.
        -24    2    1    2    0    0  0.30718257703E+02  0.11776092433E+04  0.10149830321E+03  0.11850260669E+04  0.79232142561E+02 0.  0.
        254    2    1    2    0    0 -0.30718257703E+02 -0.11776092433E+04  0.36407413863E+03  0.15263556809E+04  0.89972470505E+03 0.  0.
         23    2    4    4    0    0  0.11147837485E+03 -0.58698192967E+03 -0.25345425761E+03  0.65528478700E+03  0.90464786304E+02 0.  0.
         23    2    4    4    0    0 -0.14219663255E+03 -0.59062731360E+03  0.61752839624E+03  0.87107089385E+03  0.91447668527E+02 0.  0.
          1    1    3    3  502    0 -0.12413429134E+02  0.34044565256E+02  0.11194582939E+01  0.36254362954E+02  0.00000000000E+00 0. -1.
         -2    1    3    3    0  502  0.43131686837E+02  0.11435646780E+04  0.10037884492E+03  0.11487717039E+04  0.00000000000E+00 0.  1.
         11    1    5    5    0    0  0.74218139682E+02 -0.50593848445E+03 -0.18869713642E+03  0.54505842953E+03  0.00000000000E+00 0.  1.
        -11    1    5    5    0    0  0.37260235167E+02 -0.81043445217E+02 -0.64757121190E+02  0.11022635747E+03  0.00000000000E+00 0. -1.
          1    1    6    6  503    0 -0.54728384122E+02 -0.18932314423E+03  0.14307239473E+03  0.24353266537E+03  0.00000000000E+00 0. -1.
         -1    1    6    6    0  503 -0.87468248431E+02 -0.40130416937E+03  0.47445600151E+03  0.62753822848E+03  0.00000000000E+00 0.  1.
<mgrwt>
<rscale>  0 0.26711109E+04</rscale>
<asrwt>0</asrwt>
<pdfrwt beam="1">  1        1 0.24438109E+00 0.26711109E+04</pdfrwt>
<pdfrwt beam="2">  1       -2 0.17275456E+00 0.26711109E+04</pdfrwt>
<totfact> 0.89032577E-01</totfact>
</mgrwt>
</event>
<event>
12    4  0.4183215E-008  0.1431880E+04  0.7818608E-02  0.8931060E-01
         -2   -1    0    0    0  501 -0.00000000000E+00  0.00000000000E+00  0.77609327399E+03  0.77609327399E+03  0.00000000000E+00 0.  1.
          1   -1    0    0  501    0  0.00000000000E+00 -0.00000000000E+00 -0.66044877628E+03  0.66044877628E+03  0.00000000000E+00 0. -1.
        -24    2    1    2    0    0 -0.12676419387E+03 -0.28083141290E+03  0.31548802103E+03  0.44792499778E+03  0.78540874097E+02 0.  0.
        254    2    1    2    0    0  0.12676419387E+03  0.28083141290E+03 -0.19984352332E+03  0.98861705249E+03  0.91787297561E+03 0.  0.
         23    2    4    4    0    0  0.39448334125E+03  0.46767210222E+03 -0.58295141161E+02  0.62138722711E+03  0.91593999903E+02 0.  0.
         23    2    4    4    0    0 -0.26771914739E+03 -0.18684068932E+03 -0.14154838216E+03  0.36722982538E+03  0.90767918846E+02 0.  0.
          1    1    3    3  502    0 -0.83425129060E+02 -0.11750163979E+03  0.18456502785E+03  0.23415942650E+03  0.00000000000E+00 0. -1.
         -2    1    3    3    0  502 -0.43339064805E+02 -0.16332977311E+03  0.13092299318E+03  0.21376557128E+03  0.00000000000E+00 0.  1.
         11    1    5    5    0    0  0.58550344099E+00 -0.38873279709E+01 -0.19249885603E+01  0.43771810552E+01  0.00000000000E+00 0.  1.
        -11    1    5    5    0    0  0.39389783781E+03  0.47155943019E+03 -0.56370152600E+02  0.61701004606E+03  0.00000000000E+00 0. -1.
          1    1    6    6  503    0 -0.16363670720E+03 -0.91386331972E+02 -0.12443230230E+03  0.22497073470E+03  0.00000000000E+00 0. -1.
         -1    1    6    6    0  503 -0.10408244018E+03 -0.95454357352E+02 -0.17116079868E+02  0.14225909068E+03  0.00000000000E+00 0.  1.
<mgrwt>
<rscale>  0 0.14318797E+04</rscale>
<asrwt>0</asrwt>
<pdfrwt beam="1">  1        1 0.10160750E+00 0.14318797E+04</pdfrwt>
<pdfrwt beam="2">  1       -2 0.11939897E+00 0.14318797E+04</pdfrwt>
<totfact> 0.13612730E+01</totfact>
</mgrwt>
</event>
<event>
12    4  0.4183215E-008  0.1570172E+04  0.7818608E-02  0.8839085E-01
         -2   -1    0    0    0  501 -0.00000000000E+00  0.00000000000E+00  0.11704695652E+04  0.11704695652E+04  0.00000000000E+00 0.  1.
          1   -1    0    0  501    0  0.00000000000E+00 -0.00000000000E+00 -0.52659195938E+03  0.52659195938E+03  0.00000000000E+00 0. -1.
        -24    2    1    2    0    0  0.48890674151E+03  0.12322356191E+03  0.37151124167E+03  0.63242978909E+03  0.87937405812E+02 0.  0.
        254    2    1    2    0    0 -0.48890674151E+03 -0.12322356191E+03  0.27236636420E+03  0.10646317355E+04  0.89724213446E+03 0.  0.
         23    2    4    4    0    0 -0.59514454618E+03 -0.61956320861E+02  0.50362358897E+03  0.78758603179E+03  0.92840839924E+02 0.  0.
         23    2    4    4    0    0  0.10623780466E+03 -0.61267241047E+02 -0.23125722477E+03  0.27704570375E+03  0.90742889469E+02 0.  0.
          3    1    3    3  502    0  0.10089296405E+03  0.54797945945E+02  0.11363797386E+03  0.16154192700E+03  0.00000000000E+00 0. -1.
         -4    1    3    3    0  502  0.38801377746E+03  0.68425615962E+02  0.25787326781E+03  0.47088786209E+03  0.00000000000E+00 0.  1.
         11    1    5    5    0    0 -0.43618831696E+03 -0.48500197021E+02  0.31319897651E+03  0.53917169422E+03  0.00000000000E+00 0. -1.
        -11    1    5    5    0    0 -0.15895622921E+03 -0.13456123840E+02  0.19042461247E+03  0.24841433756E+03  0.00000000000E+00 0.  1.
          3    1    6    6  503    0  0.28161527622E+02 -0.55390878904E+01 -0.22846848135E+01  0.28791889785E+02  0.00000000000E+00 0. -1.
         -3    1    6    6    0  503  0.78076277043E+02 -0.55728153157E+02 -0.22897253996E+03  0.24825381396E+03  0.00000000000E+00 0.  1.
<mgrwt>
<rscale>  0 0.15701718E+04</rscale>
<asrwt>0</asrwt>
<pdfrwt beam="1">  1        1 0.81014148E-01 0.15701718E+04</pdfrwt>
<pdfrwt beam="2">  1       -2 0.18007224E+00 0.15701718E+04</pdfrwt>
<totfact> 0.62789566E+00</totfact>
</mgrwt>
</event>
<event>
12    4  0.4183215E-008  0.2372663E+04  0.7818608E-02  0.8449809E-01
         -2   -1    0    0    0  501 -0.00000000000E+00  0.00000000000E+00  0.74548763933E+03  0.74548763933E+03  0.00000000000E+00 0.  1.
          1   -1    0    0  501    0  0.00000000000E+00 -0.00000000000E+00 -0.18878688446E+04  0.18878688446E+04  0.00000000000E+00 0. -1.
        -24    2    1    2    0    0  0.47311479533E+03 -0.88957757935E+03 -0.62264150101E+03  0.11872288328E+04  0.81510634113E+02 0.  0.
        254    2    1    2    0    0 -0.47311479533E+03  0.88957757935E+03 -0.51973970427E+03  0.14461276511E+04  0.89775828811E+03 0.  0.
         23    2    4    4    0    0 -0.10502560696E+03  0.67868017014E+03 -0.69221267040E+03  0.97893710261E+03  0.86731299682E+02 0.  0.
         23    2    4    4    0    0 -0.36808918837E+03  0.21089740921E+03  0.17247296613E+03  0.46719054850E+03  0.92480899433E+02 0.  0.
          1    1    3    3  502    0  0.46843161497E+03 -0.87388621127E+03 -0.62272955481E+03  0.11708532729E+04  0.00000000000E+00 0. -1.
         -2    1    3    3    0  502  0.46831803596E+01 -0.15691368082E+02  0.88053799142E-01  0.16375559961E+02  0.00000000000E+00 0.  1.
         11    1    5    5    0    0 -0.34085701393E+02  0.25734533650E+03 -0.20396051090E+03  0.33013383235E+03  0.00000000000E+00 0. -1.
        -11    1    5    5    0    0 -0.70939905562E+02  0.42133483365E+03 -0.48825215949E+03  0.64880327025E+03  0.00000000000E+00 0.  1.
          1    1    6    6  503    0 -0.18693248194E+03  0.99677392765E+02  0.36825858995E+02  0.21502436914E+03  0.00000000000E+00 0. -1.
         -1    1    6    6    0  503 -0.18115670643E+03  0.11122001644E+03  0.13564710713E+03  0.25216617937E+03  0.00000000000E+00 0.  1.
<mgrwt>
<rscale>  0 0.23726634E+04</rscale>
<asrwt>0</asrwt>
<pdfrwt beam="1">  1        1 0.29044136E+00 0.23726634E+04</pdfrwt>
<pdfrwt beam="2">  1       -2 0.11469041E+00 0.23726634E+04</pdfrwt>
<totfact> 0.16630773E+00</totfact>
</mgrwt>
</event>
<event>
12    4  0.4183215E-008  0.1720638E+04  0.7818608E-02  0.8749681E-01
          1   -1    0    0  501    0  0.00000000000E+00  0.00000000000E+00  0.71136780995E+03  0.71136780995E+03  0.00000000000E+00 0. -1.
         -2   -1    0    0    0  501 -0.00000000000E+00 -0.00000000000E+00 -0.10404582500E+04  0.10404582500E+04  0.00000000000E+00 0.  1.
        -24    2    1    2    0    0  0.55628697298E+02  0.57637290168E+03 -0.35655287870E+03  0.68465922808E+03  0.79548912825E+02 0.  0.
        254    2    1    2    0    0 -0.55628697298E+02 -0.57637290168E+03  0.27462438700E+02  0.10671668318E+04  0.89598581888E+03 0.  0.
         23    2    4    4    0    0  0.27752976343E+03  0.36542053547E+02  0.18509565647E+03  0.34647881067E+03  0.86192069979E+02 0.  0.
         23    2    4    4    0    0 -0.33315846073E+03 -0.61291495523E+03 -0.15763321777E+03  0.72068802115E+03  0.88790146857E+02 0.  0.
          1    1    3    3  502    0  0.60440217763E+02  0.22575440378E+03 -0.14977408250E+03  0.27757944185E+03  0.00000000000E+00 0. -1.
         -2    1    3    3    0  502 -0.48115204652E+01  0.35061849790E+03 -0.20677879620E+03  0.40707978623E+03  0.00000000000E+00 0.  1.
         11    1    5    5    0    0  0.20182028294E+03 -0.16052283427E+01  0.16147476296E+03  0.25847263382E+03  0.00000000000E+00 0. -1.
        -11    1    5    5    0    0  0.75709480494E+02  0.38147281889E+02  0.23620893518E+02  0.88006176844E+02  0.00000000000E+00 0.  1.
          2    1    6    6  503    0 -0.14280157584E+03 -0.28298875349E+03 -0.27498462021E+02  0.31816833608E+03  0.00000000000E+00 0. -1.
         -2    1    6    6    0  503 -0.19035688489E+03 -0.32992620174E+03 -0.13013475575E+03  0.40251968507E+03  0.00000000000E+00 0.  1.
<mgrwt>
<rscale>  0 0.17206377E+04</rscale>
<asrwt>0</asrwt>
<pdfrwt beam="1">  1        1 0.10944120E+00 0.17206377E+04</pdfrwt>
<pdfrwt beam="2">  1       -2 0.16007050E+00 0.17206377E+04</pdfrwt>
<totfact> 0.55601295E+00</totfact>
</mgrwt>
</event>
<event>
12    4  0.4183215E-008  0.2360664E+04  0.7818608E-02  0.8454379E-01
          1   -1    0    0  501    0  0.00000000000E+00  0.00000000000E+00  0.36012353084E+04  0.36012353084E+04  0.00000000000E+00 0. -1.
         -2   -1    0    0    0  501 -0.00000000000E+00 -0.00000000000E+00 -0.38686263744E+03  0.38686263744E+03  0.00000000000E+00 0.  1.
        -24    2    1    2    0    0  0.86043022554E+03  0.31267959645E+02  0.22036173850E+04  0.23671383162E+04  0.78079255929E+02 0.  0.
        254    2    1    2    0    0 -0.86043022554E+03 -0.31267959645E+02  0.10107552860E+04  0.16209596297E+04  0.92982042060E+03 0.  0.
         23    2    4    4    0    0 -0.57364337406E+02  0.26916390739E+03  0.59929099164E+03  0.66568469011E+03  0.90810449467E+02 0.  0.
         23    2    4    4    0    0 -0.80306588813E+03 -0.30043186703E+03  0.41146429435E+03  0.95527493957E+03  0.89851083668E+02 0.  0.
          3    1    3    3  502    0  0.81776019350E+03  0.46633261404E+02  0.20954289869E+04  0.22498286677E+04  0.00000000000E+00 0. -1.
         -4    1    3    3    0  502  0.42670032032E+02 -0.15365301758E+02  0.10818839814E+03  0.11730964847E+03  0.00000000000E+00 0.  1.
         11    1    5    5    0    0 -0.38433480826E+02  0.51666487836E+02  0.20638746335E+03  0.21619977669E+03  0.00000000000E+00 0.  1.
        -11    1    5    5    0    0 -0.18930856580E+02  0.21749741955E+03  0.39290352829E+03  0.44948491341E+03  0.00000000000E+00 0. -1.
          1    1    6    6  503    0 -0.78824836667E+03 -0.30596842766E+03  0.39814944468E+03  0.93459892285E+03  0.00000000000E+00 0. -1.
         -1    1    6    6    0  503 -0.14817521459E+02  0.55365606309E+01  0.13314849666E+02  0.20676016721E+02  0.00000000000E+00 0.  1.
<mgrwt>
<rscale>  0 0.23606638E+04</rscale>
<asrwt>0</asrwt>
<pdfrwt beam="1">  1        1 0.55403618E+00 0.23606638E+04</pdfrwt>
<pdfrwt beam="2">  1       -2 0.59517331E-01 0.23606638E+04</pdfrwt>
<totfact> 0.43310376E-01</totfact>
</mgrwt>
</event>
<event>
12    4  0.4183215E-008  0.1382687E+04  0.7818608E-02  0.8966447E-01
         -2   -1    0    0    0  501 -0.00000000000E+00  0.00000000000E+00  0.22952778785E+03  0.22952778785E+03  0.00000000000E+00 0.  1.
          1   -1    0    0  501    0  0.00000000000E+00 -0.00000000000E+00 -0.20823445140E+04  0.20823445140E+04  0.00000000000E+00 0. -1.
        -24    2    1    2    0    0  0.38248296783E+03 -0.49927691389E+02 -0.45772346881E+03  0.60299828539E+03  0.72870866846E+02 0.  0.
        254    2    1    2    0    0 -0.38248296783E+03  0.49927691389E+02 -0.13950932573E+04  0.17088740164E+04  0.90839375403E+03 0.  0.
         23    2    4    4    0    0 -0.19653801283E+03  0.44762410534E+03 -0.97421872631E+03  0.10938690145E+04  0.91938915183E+02 0.  0.
         23    2    4    4    0    0 -0.18594495500E+03 -0.39769641395E+03 -0.42087453099E+03  0.61500500186E+03  0.91421099978E+02 0.  0.
          1    1    3    3  502    0  0.15650343229E+03  0.11885406153E+02 -0.20811122026E+03  0.26066236245E+03  0.00000000000E+00 0. -1.
         -2    1    3    3    0  502  0.22597953554E+03 -0.61813097542E+02 -0.24961224854E+03  0.34233592294E+03  0.00000000000E+00 0.  1.
         11    1    5    5    0    0 -0.88410296435E+02  0.11792905629E+03 -0.34852597287E+03  0.37840982624E+03  0.00000000000E+00 0. -1.
        -11    1    5    5    0    0 -0.10812771640E+03  0.32969504905E+03 -0.62569275344E+03  0.71545918831E+03  0.00000000000E+00 0.  1.
          3    1    6    6  503    0 -0.13251149228E+03 -0.34186460797E+03 -0.31163617974E+03  0.48119415447E+03  0.00000000000E+00 0. -1.
         -3    1    6    6    0  503 -0.53433462723E+02 -0.55831805981E+02 -0.10923835125E+03  0.13381084740E+03  0.00000000000E+00 0.  1.
<mgrwt>
<rscale>  0 0.13826871E+04</rscale>
<asrwt>0</asrwt>
<pdfrwt beam="1">  1        1 0.32036071E+00 0.13826871E+04</pdfrwt>
<pdfrwt beam="2">  1       -2 0.35311966E-01 0.13826871E+04</pdfrwt>
<totfact> 0.16935492E+01</totfact>
</mgrwt>
</event>
<event>
12    4  0.4183215E-008  0.1947804E+04  0.7818608E-02  0.8631420E-01
         -2   -1    0    0    0  501 -0.00000000000E+00  0.00000000000E+00  0.75901348632E+03  0.75901348632E+03  0.00000000000E+00 0.  1.
          1   -1    0    0  501    0  0.00000000000E+00 -0.00000000000E+00 -0.12496289019E+04  0.12496289019E+04  0.00000000000E+00 0. -1.
        -24    2    1    2    0    0 -0.59790736102E+03  0.20442418745E+03  0.22455066815E+03  0.67544019582E+03  0.80709322748E+02 0.  0.
        254    2    1    2    0    0  0.59790736102E+03 -0.20442418745E+03 -0.71516608372E+03  0.13332021924E+04  0.93095816111E+03 0.  0.
         23    2    4    4    0    0  0.82045220435E+03 -0.94748378893E+02 -0.66416654565E+03  0.10637013827E+04  0.90688236378E+02 0.  0.
         23    2    4    4    0    0 -0.22254484332E+03 -0.10967580856E+03 -0.50999538061E+02  0.26950080972E+03  0.92058368908E+02 0.  0.
          1    1    3    3  502    0 -0.53147106111E+02 -0.10029131359E+01  0.32839604803E+02  0.62482480475E+02  0.00000000000E+00 0. -1.
         -2    1    3    3    0  502 -0.54476025491E+03  0.20542710059E+03  0.19171106335E+03  0.61295771534E+03  0.00000000000E+00 0.  1.
         11    1    5    5    0    0  0.30489713660E+03 -0.36854580043E+02 -0.19188755340E+03  0.36213444620E+03  0.00000000000E+00 0. -1.
        -11    1    5    5    0    0  0.51555506775E+03 -0.57893798849E+02 -0.47227899226E+03  0.70156693647E+03  0.00000000000E+00 0.  1.
          3    1    6    6  503    0 -0.13765992151E+03 -0.41596499713E+02 -0.68502171016E+02  0.15928926585E+03  0.00000000000E+00 0. -1.
         -3    1    6    6    0  503 -0.84884921810E+02 -0.68079308848E+02  0.17502632954E+02  0.11021154388E+03  0.00000000000E+00 0.  1.
<mgrwt>
<rscale>  0 0.19478041E+04</rscale>
<asrwt>0</asrwt>
<pdfrwt beam="1">  1        1 0.19225060E+00 0.19478041E+04</pdfrwt>
<pdfrwt beam="2">  1       -2 0.11677131E+00 0.19478041E+04</pdfrwt>
<totfact> 0.45656547E+00</totfact>
</mgrwt>
</event>
<event>
12    4  0.4183215E-008  0.1752285E+04  0.7818608E-02  0.8732093E-01
          1   -1    0    0  501    0  0.00000000000E+00  0.00000000000E+00  0.11807909825E+04  0.11807909825E+04  0.00000000000E+00 0. -1.
         -2   -1    0    0    0  501 -0.00000000000E+00 -0.00000000000E+00 -0.65009454077E+03  0.65009454077E+03  0.00000000000E+00 0.  1.
        -24    2    1    2    0    0  0.60386222292E+03  0.10647544105E+03  0.11655566282E+03  0.62926651987E+03  0.80028286772E+02 0.  0.
        254    2    1    2    0    0 -0.60386222292E+03 -0.10647544105E+03  0.41414077894E+03  0.12016190034E+04  0.94677824269E+03 0.  0.
         23    2    4    4    0    0 -0.72331367695E+03 -0.89849919173E+01  0.59926320409E+03  0.94383538840E+03  0.91899114626E+02 0.  0.
         23    2    4    4    0    0  0.11945145404E+03 -0.97490449128E+02 -0.18512242515E+03  0.25778361504E+03  0.91700830677E+02 0.  0.
          3    1    3    3  502    0  0.32909893324E+03  0.37204768460E+02  0.27936013577E+02  0.33237136386E+03  0.00000000000E+00 0. -1.
         -4    1    3    3    0  502  0.27476328968E+03  0.69270672585E+02  0.88619649240E+02  0.29689515602E+03  0.00000000000E+00 0.  1.
         11    1    5    5    0    0 -0.54498220203E+03 -0.46422458580E+02  0.44746091082E+03  0.70666959175E+03  0.00000000000E+00 0. -1.
        -11    1    5    5    0    0 -0.17833147492E+03  0.37437466663E+02  0.15180229327E+03  0.23716579665E+03  0.00000000000E+00 0.  1.
          4    1    6    6  503    0  0.12981397363E+03 -0.10024982562E+03 -0.15445538311E+03  0.22529571824E+03  0.00000000000E+00 0. -1.
         -4    1    6    6    0  503 -0.10362519591E+02  0.27593764943E+01 -0.30667042037E+02  0.32487896796E+02  0.00000000000E+00 0.  1.
<mgrwt>
<rscale>  0 0.17522851E+04</rscale>
<asrwt>0</asrwt>
<pdfrwt beam="1">  1        1 0.18166015E+00 0.17522851E+04</pdfrwt>
<pdfrwt beam="2">  1       -2 0.10001455E+00 0.17522851E+04</pdfrwt>
<totfact> 0.75742674E+00</totfact>
</mgrwt>
</event>
<event>
12    4  0.4183215E-008  0.1989590E+04  0.7818608E-02  0.8611503E-01
          1   -1    0    0  501    0  0.00000000000E+00  0.00000000000E+00  0.31452984401E+04  0.31452984401E+04  0.00000000000E+00 0. -1.
         -2   -1    0    0    0  501 -0.00000000000E+00 -0.00000000000E+00 -0.31463381863E+03  0.31463381863E+03  0.00000000000E+00 0.  1.
        -24    2    1    2    0    0 -0.20370351452E+03 -0.65336033620E+03  0.18253615640E+04  0.19516565577E+04  0.92971119939E+02 0.  0.
        254    2    1    2    0    0  0.20370351452E+03  0.65336033620E+03  0.10053030574E+04  0.15082757010E+04  0.89212471225E+03 0.  0.
         23    2    4    4    0    0 -0.14295075080E+03 -0.15148510126E+03  0.31560499603E+03  0.38939476159E+03  0.92946833037E+02 0.  0.
         23    2    4    4    0    0  0.34665426532E+03  0.80484543747E+03  0.68969806141E+03  0.11188809394E+04  0.90916350664E+02 0.  0.
          1    1    3    3  502    0 -0.68257794882E+02 -0.35402478534E+03  0.10204843438E+04  0.10823035485E+04  0.00000000000E+00 0. -1.
         -2    1    3    3    0  502 -0.13544571964E+03 -0.29933555086E+03  0.80487722022E+03  0.86935300920E+03  0.00000000000E+00 0.  1.
         11    1    5    5    0    0 -0.15407657814E+03 -0.12507708394E+03  0.28677348627E+03  0.34874475091E+03  0.00000000000E+00 0. -1.
        -11    1    5    5    0    0  0.11125827343E+02 -0.26408017322E+02  0.28831509767E+02  0.40650010681E+02  0.00000000000E+00 0.  1.
          4    1    6    6  503    0  0.68867722257E+02  0.18706322754E+03  0.11213674504E+03  0.22871393455E+03  0.00000000000E+00 0.  1.
         -4    1    6    6    0  503  0.27778654306E+03  0.61778220992E+03  0.57756131637E+03  0.89016700488E+03  0.00000000000E+00 0. -1.
<mgrwt>
<rscale>  0 0.19895902E+04</rscale>
<asrwt>0</asrwt>
<pdfrwt beam="1">  1        1 0.48389204E+00 0.19895902E+04</pdfrwt>
<pdfrwt beam="2">  1       -2 0.48405205E-01 0.19895902E+04</pdfrwt>
<totfact> 0.15441509E+00</totfact>
</mgrwt>
</event>
<event>
12    4  0.4183215E-008  0.1591587E+04  0.7818608E-02  0.8825733E-01
         -2   -1    0    0    0  501 -0.00000000000E+00  0.00000000000E+00  0.28732872374E+03  0.28732872374E+03  0.00000000000E+00 0.  1.
          1   -1    0    0  501    0  0.00000000000E+00 -0.00000000000E+00 -0.22040526303E+04  0.22040526303E+04  0.00000000000E+00 0. -1.
        -24    2    1    2    0    0 -0.42890461476E+03  0.48990882753E+02 -0.11378384357E+04  0.12197218813E+04  0.81767272569E+02 0.  0.
        254    2    1    2    0    0  0.42890461476E+03 -0.48990882753E+02 -0.77888547089E+03  0.12716594727E+04  0.90779731366E+03 0.  0.
         23    2    4    4    0    0  0.59684797148E+03 -0.30388998955E+03 -0.61564680365E+03  0.91434273848E+03  0.91787960874E+02 0.  0.
         23    2    4    4    0    0 -0.16794335672E+03  0.25489910680E+03 -0.16323866723E+03  0.35731673425E+03  0.88599437845E+02 0.  0.
          3    1    3    3  502    0 -0.33523648208E+03  0.25586065044E+02 -0.96290693045E+03  0.10199156349E+04  0.00000000000E+00 0. -1.
         -4    1    3    3    0  502 -0.93668132683E+02  0.23404817709E+02 -0.17493150521E+03  0.19980624637E+03  0.00000000000E+00 0.  1.
         11    1    5    5    0    0  0.56321345862E+03 -0.26334658294E+03 -0.58330040767E+03  0.85252576988E+03  0.00000000000E+00 0. -1.
        -11    1    5    5    0    0  0.33634512858E+02 -0.40543406605E+02 -0.32346395988E+02  0.61816968607E+02  0.00000000000E+00 0.  1.
          1    1    6    6  503    0 -0.11102063100E+03  0.19208702871E+03 -0.73133677927E+02  0.23360552638E+03  0.00000000000E+00 0. -1.
         -1    1    6    6    0  503 -0.56922725722E+02  0.62812078085E+02 -0.90104989305E+02  0.12371120788E+03  0.00000000000E+00 0.  1.
<mgrwt>
<rscale>  0 0.15915874E+04</rscale>
<asrwt>0</asrwt>
<pdfrwt beam="1">  1        1 0.33908503E+00 0.15915874E+04</pdfrwt>
<pdfrwt beam="2">  1       -2 0.44204418E-01 0.15915874E+04</pdfrwt>
<totfact> 0.88657024E+00</totfact>
</mgrwt>
</event>
<event>
12    4  0.4183215E-008  0.1579508E+04  0.7818608E-02  0.8833237E-01
         -2   -1    0    0    0  501 -0.00000000000E+00  0.00000000000E+00  0.61386869628E+03  0.61386869628E+03  0.00000000000E+00 0.  1.
          1   -1    0    0  501    0  0.00000000000E+00 -0.00000000000E+00 -0.10160340018E+04  0.10160340018E+04  0.00000000000E+00 0. -1.
        -24    2    1    2    0    0  0.93899361558E+02  0.47369877877E+03 -0.37090087040E+03  0.61415689840E+03  0.80085061473E+02 0.  0.
        254    2    1    2    0    0 -0.93899361558E+02 -0.47369877877E+03 -0.31264435094E+02  0.10157457997E+04  0.89305903585E+03 0.  0.
         23    2    4    4    0    0 -0.37983529152E+03 -0.38148449374E+03 -0.28128289092E+03  0.61470414848E+03  0.94529666163E+02 0.  0.
         23    2    4    4    0    0  0.28593592996E+03 -0.92214285036E+02  0.25001845583E+03  0.40104165118E+03  0.89790574802E+02 0.  0.
          1    1    3    3  502    0  0.31427182930E+02  0.88067888479E+02 -0.38139756929E+02  0.10098644398E+03  0.00000000000E+00 0. -1.
         -4    1    3    3    0  502  0.62472178627E+02  0.38563089030E+03 -0.33276111347E+03  0.51317045442E+03  0.00000000000E+00 0.  1.
         11    1    5    5    0    0 -0.27300770297E+03 -0.31898983251E+03 -0.24318731591E+03  0.48520901655E+03  0.00000000000E+00 0. -1.
        -11    1    5    5    0    0 -0.10682758854E+03 -0.62494661231E+02 -0.38095575011E+02  0.12949513192E+03  0.00000000000E+00 0.  1.
          4    1    6    6  503    0  0.12762662881E+03 -0.37322809486E+00  0.76257019692E+02  0.14867356434E+03  0.00000000000E+00 0. -1.
         -4    1    6    6    0  503  0.15830930115E+03 -0.91841056941E+02  0.17376143613E+03  0.25236808685E+03  0.00000000000E+00 0.  1.
<mgrwt>
<rscale>  0 0.15795081E+04</rscale>
<asrwt>0</asrwt>
<pdfrwt beam="1">  1        1 0.15631292E+00 0.15795081E+04</pdfrwt>
<pdfrwt beam="2">  1       -2 0.94441338E-01 0.15795081E+04</pdfrwt>
<totfact> 0.11706012E+01</totfact>
</mgrwt>
</event>
<event>
12    4  0.4183215E-008  0.1807551E+04  0.7818608E-02  0.8702294E-01
         -2   -1    0    0    0  501 -0.00000000000E+00  0.00000000000E+00  0.11558109608E+04  0.11558109608E+04  0.00000000000E+00 0.  1.
          1   -1    0    0  501    0  0.00000000000E+00 -0.00000000000E+00 -0.70669842514E+03  0.70669842514E+03  0.00000000000E+00 0. -1.
        -24    2    1    2    0    0  0.50025478249E+03 -0.39384337681E+03  0.41632593253E+03  0.76515338627E+03  0.82249435017E+02 0.  0.
        254    2    1    2    0    0 -0.50025478249E+03  0.39384337681E+03  0.32786603133E+02  0.10973559997E+04  0.89316727204E+03 0.  0.
         23    2    4    4    0    0 -0.13354739572E+03 -0.27516806584E+03 -0.55510129130E+02  0.32449158340E+03  0.93064718895E+02 0.  0.
         23    2    4    4    0    0 -0.36670738677E+03  0.66901144265E+03  0.88296732262E+02  0.77286441628E+03  0.86443479305E+02 0.  0.
          3    1    3    3  502    0  0.39647147338E+03 -0.33432270251E+03  0.30455957140E+03  0.60142982230E+03  0.00000000000E+00 0. -1.
         -4    1    3    3    0  502  0.10378330911E+03 -0.59520674297E+02  0.11176636113E+03  0.16372356397E+03  0.00000000000E+00 0.  1.
         11    1    5    5    0    0 -0.70660937327E+01 -0.37872033668E+02 -0.39407287533E+02  0.55110388545E+02  0.00000000000E+00 0. -1.
        -11    1    5    5    0    0 -0.12648130199E+03 -0.23729603217E+03 -0.16102841596E+02  0.26938119486E+03  0.00000000000E+00 0.  1.
          3    1    6    6  503    0 -0.15377215736E+03  0.36136553627E+03  0.64250955400E+02  0.39794360461E+03  0.00000000000E+00 0. -1.
         -3    1    6    6    0  503 -0.21293522940E+03  0.30764590638E+03  0.24045776863E+02  0.37492081167E+03  0.00000000000E+00 0.  1.
<mgrwt>
<rscale>  0 0.18075506E+04</rscale>
<asrwt>0</asrwt>
<pdfrwt beam="1">  1        1 0.10872284E+00 0.18075506E+04</pdfrwt>
<pdfrwt beam="2">  1       -2 0.17781707E+00 0.18075506E+04</pdfrwt>
<totfact> 0.41608757E+00</totfact>
</mgrwt>
</event>
<event>
12    4  0.4183215E-008  0.2053485E+04  0.7818608E-02  0.8582015E-01
         -2   -1    0    0    0  501 -0.00000000000E+00  0.00000000000E+00  0.35725506894E+03  0.35725506894E+03  0.00000000000E+00 0.  1.
          1   -1    0    0  501    0  0.00000000000E+00 -0.00000000000E+00 -0.29508323770E+04  0.29508323770E+04  0.00000000000E+00 0. -1.
        -24    2    1    2    0    0 -0.94661203824E+02 -0.80370918889E+03 -0.77787744637E+03  0.11256916785E+04  0.84730335290E+02 0.  0.
        254    2    1    2    0    0  0.94661203824E+02  0.80370918889E+03 -0.18156998617E+04  0.21823957674E+04  0.90065314857E+03 0.  0.
         23    2    4    4    0    0  0.12670568772E+03  0.90357204900E+03 -0.10041653545E+04  0.13591742307E+04  0.80683028294E+02 0.  0.
         23    2    4    4    0    0 -0.32044483896E+02 -0.99862860108E+02 -0.81153450712E+03  0.82322153670E+03  0.90033340835E+02 0.  0.
          1    1    3    3  502    0 -0.54245258060E+02 -0.49216453872E+03 -0.53189642432E+03  0.72669270493E+03  0.00000000000E+00 0. -1.
         -2    1    3    3    0  502 -0.40415945763E+02 -0.31154465017E+03 -0.24598102205E+03  0.39899897359E+03  0.00000000000E+00 0.  1.
         11    1    5    5    0    0  0.59894450697E+02  0.67963682868E+03 -0.75108952459E+03  0.10147063802E+04  0.00000000000E+00 0.  1.
        -11    1    5    5    0    0  0.66811237022E+02  0.22393522031E+03 -0.25307582995E+03  0.34446785045E+03  0.00000000000E+00 0. -1.
          3    1    6    6  503    0  0.14885512825E+02 -0.46651664524E+02 -0.14769478612E+03  0.15560111227E+03  0.00000000000E+00 0. -1.
         -3    1    6    6    0  503 -0.46929996721E+02 -0.53211195584E+02 -0.66383972101E+03  0.66762042443E+03  0.00000000000E+00 0.  1.
<mgrwt>
<rscale>  0 0.20534847E+04</rscale>
<asrwt>0</asrwt>
<pdfrwt beam="1">  1        1 0.45397420E+00 0.20534847E+04</pdfrwt>
<pdfrwt beam="2">  1       -2 0.54962319E-01 0.20534847E+04</pdfrwt>
<totfact> 0.16419877E+00</totfact>
</mgrwt>
</event>
<event>
12    4  0.4183215E-008  0.2075199E+04  0.7818608E-02  0.8572248E-01
         -2   -1    0    0    0  501 -0.00000000000E+00  0.00000000000E+00  0.18936393777E+04  0.18936393777E+04  0.00000000000E+00 0.  1.
          1   -1    0    0  501    0  0.00000000000E+00 -0.00000000000E+00 -0.56854179419E+03  0.56854179419E+03  0.00000000000E+00 0. -1.
        -24    2    1    2    0    0  0.67430462129E+01 -0.74655149743E+03  0.10182057112E+04  0.12644885195E+04  0.69309008472E+02 0.  0.
        254    2    1    2    0    0 -0.67430462129E+01  0.74655149743E+03  0.30689187228E+03  0.11976926524E+04  0.88481662579E+03 0.  0.
         23    2    4    4    0    0 -0.31109528472E+03  0.27710088096E+02 -0.62620850398E+02  0.32922770424E+03  0.83194862665E+02 0.  0.
         23    2    4    4    0    0  0.30435223851E+03  0.71884140933E+03  0.36951272268E+03  0.86846494812E+03  0.91260380460E+02 0.  0.
          1    1    3    3  502    0 -0.24260128103E+02 -0.13024915297E+03  0.19188678592E+03  0.23318219116E+03  0.00000000000E+00 0. -1.
         -2    1    3    3    0  502  0.31003174316E+02 -0.61630234445E+03  0.82631892528E+03  0.10313063283E+04  0.00000000000E+00 0.  1.
         11    1    5    5    0    0 -0.31900835577E+02 -0.22349481783E+02 -0.14309515269E+02  0.41496082631E+02  0.00000000000E+00 0.  1.
        -11    1    5    5    0    0 -0.27919444915E+03  0.50059569879E+02 -0.48311335129E+02  0.28773162161E+03  0.00000000000E+00 0. -1.
          4    1    6    6  503    0  0.30819984218E+03  0.70600078480E+03  0.37091584055E+03  0.85498702424E+03  0.00000000000E+00 0. -1.
         -4    1    6    6    0  503 -0.38476036707E+01  0.12840624531E+02 -0.14031178653E+01  0.13477923879E+02  0.00000000000E+00 0.  1.
<mgrwt>
<rscale>  0 0.20751994E+04</rscale>
<asrwt>0</asrwt>
<pdfrwt beam="1">  1        1 0.87467969E-01 0.20751994E+04</pdfrwt>
<pdfrwt beam="2">  1       -2 0.29132913E+00 0.20751994E+04</pdfrwt>
<totfact> 0.10732529E+00</totfact>
</mgrwt>
</event>
<event>
12    4  0.4183215E-008  0.1433820E+04  0.7818608E-02  0.8929696E-01
         -2   -1    0    0    0  501 -0.00000000000E+00  0.00000000000E+00  0.69968870393E+03  0.69968870393E+03  0.00000000000E+00 0.  1.
          1   -1    0    0  501    0  0.00000000000E+00 -0.00000000000E+00 -0.73455466664E+03  0.73455466664E+03  0.00000000000E+00 0. -1.
        -24    2    1    2    0    0 -0.47623415207E+02  0.40503307369E+03 -0.50806670036E+02  0.41837390173E+03  0.78330220712E+02 0.  0.
        254    2    1    2    0    0  0.47623415207E+02 -0.40503307369E+03  0.15940707321E+02  0.10158694688E+04  0.93027785693E+03 0.  0.
         23    2    4    4    0    0 -0.29681905075E+03 -0.20342156617E+03  0.33281960731E+03  0.49846229194E+03  0.90630475006E+02 0.  0.
         23    2    4    4    0    0  0.34444246596E+03 -0.20161150752E+03 -0.31687889999E+03  0.51740717690E+03  0.89499369413E+02 0.  0.
          3    1    3    3  502    0 -0.27750940357E+01  0.97740750313E+02  0.20121878146E+02  0.99829080927E+02  0.00000000000E+00 0. -1.
         -4    1    3    3    0  502 -0.44848321172E+02  0.30729232337E+03 -0.70928548182E+02  0.31854482081E+03  0.00000000000E+00 0.  1.
         11    1    5    5    0    0 -0.28539249392E+03 -0.17117746415E+03  0.27697647114E+03  0.43297409320E+03  0.00000000000E+00 0.  1.
        -11    1    5    5    0    0 -0.11426556832E+02 -0.32244102016E+02  0.55843136174E+02  0.65488198735E+02  0.00000000000E+00 0. -1.
          4    1    6    6  503    0  0.45676378398E+01  0.77244091431E+01 -0.25379413721E+01  0.93258221329E+01  0.00000000000E+00 0. -1.
         -4    1    6    6    0  503  0.33987482812E+03 -0.20933591666E+03 -0.31434095862E+03  0.50808135476E+03  0.00000000000E+00 0.  1.
<mgrwt>
<rscale>  0 0.14338195E+04</rscale>
<asrwt>0</asrwt>
<pdfrwt beam="1">  1        1 0.11300841E+00 0.14338195E+04</pdfrwt>
<pdfrwt beam="2">  1       -2 0.10764442E+00 0.14338195E+04</pdfrwt>
<totfact> 0.14916976E+01</totfact>
</mgrwt>
</event>
<event>
12    4  0.4183215E-008  0.2333033E+04  0.7818608E-02  0.8465009E-01
         -2   -1    0    0    0  501 -0.00000000000E+00  0.00000000000E+00  0.98374750430E+03  0.98374750430E+03  0.00000000000E+00 0.  1.
          1   -1    0    0  501    0  0.00000000000E+00 -0.00000000000E+00 -0.13832422118E+04  0.13832422118E+04  0.00000000000E+00 0. -1.
        -24    2    1    2    0    0 -0.62832979224E+03  0.42333938540E+03  0.47690813308E+03  0.89884888962E+03  0.80457416735E+02 0.  0.
        254    2    1    2    0    0  0.62832979224E+03 -0.42333938540E+03 -0.87640284059E+03  0.14681408265E+04  0.90185419242E+03 0.  0.
         23    2    4    4    0    0  0.50272903038E+03  0.10729910268E+03 -0.12805558098E+03  0.53772178306E+03  0.92178678297E+02 0.  0.
         23    2    4    4    0    0  0.12560076186E+03 -0.53063848809E+03 -0.74834725961E+03  0.93041904344E+03  0.91122000628E+02 0.  0.
          1    1    3    3  502    0 -0.57805110924E+02  0.67541231453E+02  0.67650841540E+02  0.11171340634E+03  0.00000000000E+00 0. -1.
         -2    1    3    3    0  502 -0.57052468132E+03  0.35579815395E+03  0.40925729154E+03  0.78713548328E+03  0.00000000000E+00 0.  1.
         11    1    5    5    0    0 -0.12960907197E+01 -0.40746030229E+01 -0.58906255706E+01  0.72788536571E+01  0.00000000000E+00 0.  1.
        -11    1    5    5    0    0  0.50402512110E+03  0.11137370571E+03 -0.12216495541E+03  0.53044292941E+03  0.00000000000E+00 0. -1.
          4    1    6    6  503    0  0.39733046736E+02 -0.22311924832E+03 -0.38474517375E+03  0.44653080823E+03  0.00000000000E+00 0. -1.
         -4    1    6    6    0  503  0.85867715124E+02 -0.30751923977E+03 -0.36360208586E+03  0.48388823521E+03  0.00000000000E+00 0.  1.
<mgrwt>
<rscale>  0 0.23330333E+04</rscale>
<asrwt>0</asrwt>
<pdfrwt beam="1">  1        1 0.21280649E+00 0.23330333E+04</pdfrwt>
<pdfrwt beam="2">  1       -2 0.15134577E+00 0.23330333E+04</pdfrwt>
<totfact> 0.18274626E+00</totfact>
</mgrwt>
</event>
<event>
12    4  0.4183215E-008  0.2156208E+04  0.7818608E-02  0.8536880E-01
         -2   -1    0    0    0  501 -0.00000000000E+00  0.00000000000E+00  0.18844280071E+04  0.18844280071E+04  0.00000000000E+00 0.  1.
          1   -1    0    0  501    0  0.00000000000E+00 -0.00000000000E+00 -0.61679618753E+03  0.61679618753E+03  0.00000000000E+00 0. -1.
        -24    2    1    2    0    0 -0.74811335772E+03  0.39986038066E+03  0.83167992232E+03  0.11906060367E+04  0.79305242049E+02 0.  0.
        254    2    1    2    0    0  0.74811335772E+03 -0.39986038066E+03  0.43595189725E+03  0.13106181579E+04  0.89894603796E+03 0.  0.
         23    2    4    4    0    0 -0.11055164267E+03  0.31015835442E+02  0.30278235726E+03  0.33615983268E+03  0.90236519723E+02 0.  0.
         23    2    4    4    0    0  0.85866500039E+03 -0.43087621610E+03  0.13316953999E+03  0.97445832525E+03  0.94207243749E+02 0.  0.
          3    1    3    3  502    0 -0.17035877729E+03  0.11801318980E+03  0.23776996063E+03  0.31541049466E+03  0.00000000000E+00 0. -1.
         -4    1    3    3    0  502 -0.57775458043E+03  0.28184719085E+03  0.59390996169E+03  0.87519554204E+03  0.00000000000E+00 0.  1.
         11    1    5    5    0    0 -0.39108710275E+02 -0.22671497614E+02  0.46982013003E+02  0.65198140842E+02  0.00000000000E+00 0. -1.
        -11    1    5    5    0    0 -0.71442932399E+02  0.53687333055E+02  0.25580034426E+03  0.27096169184E+03  0.00000000000E+00 0.  1.
          4    1    6    6  503    0  0.14891548530E+03 -0.36912442658E+02  0.15213928711E+02  0.15417462116E+03  0.00000000000E+00 0. -1.
         -4    1    6    6    0  503  0.70974951510E+03 -0.39396377344E+03  0.11795561128E+03  0.82028370409E+03  0.00000000000E+00 0.  1.
<mgrwt>
<rscale>  0 0.21562078E+04</rscale>
<asrwt>0</asrwt>
<pdfrwt beam="1">  1        1 0.94891722E-01 0.21562078E+04</pdfrwt>
<pdfrwt beam="2">  1       -2 0.28991200E+00 0.21562078E+04</pdfrwt>
<totfact> 0.96671237E-01</totfact>
</mgrwt>
</event>
<event>
12    4  0.4183215E-008  0.1295328E+04  0.7818608E-02  0.9033279E-01
         -2   -1    0    0    0  501 -0.00000000000E+00  0.00000000000E+00  0.40066299185E+03  0.40066299185E+03  0.00000000000E+00 0.  1.
          1   -1    0    0  501    0  0.00000000000E+00 -0.00000000000E+00 -0.10469358436E+04  0.10469358436E+04  0.00000000000E+00 0. -1.
        -24    2    1    2    0    0 -0.13371064688E+03 -0.25702615465E+03 -0.32734484316E+01  0.30128001955E+03  0.82570899526E+02 0.  0.
        254    2    1    2    0    0  0.13371064688E+03  0.25702615465E+03 -0.64299940333E+03  0.11463188159E+04  0.90369110528E+03 0.  0.
         23    2    4    4    0    0  0.10013241298E+03 -0.88010052546E+02 -0.75480421080E+03  0.77181692055E+03  0.90552154748E+02 0.  0.
         23    2    4    4    0    0  0.33578233899E+02  0.34503620720E+03  0.11180480747E+03  0.37450189536E+03  0.87027998848E+02 0.  0.
          1    1    3    3  502    0 -0.11021231821E+03 -0.23840211181E+03 -0.25610548451E+02  0.26389054965E+03  0.00000000000E+00 0. -1.
         -2    1    3    3    0  502 -0.23498328668E+02 -0.18624042840E+02  0.22337100019E+02  0.37389469897E+02  0.00000000000E+00 0.  1.
         11    1    5    5    0    0  0.82213296938E+02 -0.48165778197E+02 -0.29647745768E+03  0.31141267042E+03  0.00000000000E+00 0.  1.
        -11    1    5    5    0    0  0.17919116044E+02 -0.39844274349E+02 -0.45832675312E+03  0.46040425013E+03  0.00000000000E+00 0. -1.
          3    1    6    6  503    0  0.37573330799E+02  0.54796862923E+02  0.11735434116E+02  0.67469784255E+02  0.00000000000E+00 0. -1.
         -3    1    6    6    0  503 -0.39950969000E+01  0.29023934428E+03  0.10006937336E+03  0.30703211110E+03  0.00000000000E+00 0.  1.
<mgrwt>
<rscale>  0 0.12953277E+04</rscale>
<asrwt>0</asrwt>
<pdfrwt beam="1">  1        1 0.16106705E+00 0.12953277E+04</pdfrwt>
<pdfrwt beam="2">  1       -2 0.61640460E-01 0.12953277E+04</pdfrwt>
<totfact> 0.29327913E+01</totfact>
</mgrwt>
</event>
<event>
12    4  0.4183215E-008  0.2356920E+04  0.7818608E-02  0.8455811E-01
         -2   -1    0    0    0  501 -0.00000000000E+00  0.00000000000E+00  0.53103412395E+03  0.53103412395E+03  0.00000000000E+00 0.  1.
          1   -1    0    0  501    0  0.00000000000E+00 -0.00000000000E+00 -0.26152136601E+04  0.26152136601E+04  0.00000000000E+00 0. -1.
        -24    2    1    2    0    0  0.63579489244E+03  0.54959547324E+03 -0.16923837629E+03  0.86092477043E+03  0.79117020150E+02 0.  0.
        254    2    1    2    0    0 -0.63579489244E+03 -0.54959547324E+03 -0.19149411599E+04  0.22853230136E+04  0.92163512378E+03 0.  0.
         23    2    4    4    0    0 -0.33936947213E+03  0.87465327236E+02 -0.12914984406E+04  0.13413125319E+04  0.91264802772E+02 0.  0.
         23    2    4    4    0    0 -0.29642542031E+03 -0.63706080048E+03 -0.62344271932E+03  0.94401048171E+03  0.93597393161E+02 0.  0.
          1    1    3    3  502    0  0.34386493963E+02  0.25111956612E+02  0.84231457222E+01  0.43404961880E+02  0.00000000000E+00 0. -1.
         -2    1    3    3    0  502  0.60140839848E+03  0.52448351663E+03 -0.17766152201E+03  0.81751980855E+03  0.00000000000E+00 0.  1.
         11    1    5    5    0    0 -0.19100367224E+03  0.91740401632E+02 -0.82459087958E+03  0.85138053935E+03  0.00000000000E+00 0. -1.
        -11    1    5    5    0    0 -0.14836579989E+03 -0.42750743962E+01 -0.46690756099E+03  0.48993199257E+03  0.00000000000E+00 0.  1.
          3    1    6    6  503    0 -0.28751904208E+03 -0.62193884795E+03 -0.62358092889E+03  0.92646009359E+03  0.00000000000E+00 0. -1.
         -3    1    6    6    0  503 -0.89063782293E+01 -0.15121952525E+02  0.13820956762E+00  0.17550388122E+02  0.00000000000E+00 0.  1.
<mgrwt>
<rscale>  0 0.23569198E+04</rscale>
<asrwt>0</asrwt>
<pdfrwt beam="1">  1        1 0.40234057E+00 0.23569198E+04</pdfrwt>
<pdfrwt beam="2">  1       -2 0.81697556E-01 0.23569198E+04</pdfrwt>
<totfact> 0.11734279E+00</totfact>
</mgrwt>
</event>
<event>
12    4  0.4183215E-008  0.1246234E+04  0.7818608E-02  0.9073323E-01
         -2   -1    0    0    0  501 -0.00000000000E+00  0.00000000000E+00  0.15848175637E+03  0.15848175637E+03  0.00000000000E+00 0.  1.
          1   -1    0    0  501    0  0.00000000000E+00 -0.00000000000E+00 -0.24499654833E+04  0.24499654833E+04  0.00000000000E+00 0. -1.
        -24    2    1    2    0    0  0.13243413428E+03 -0.64533169505E+02 -0.31937398648E+02  0.16968404020E+03  0.77906008615E+02 0.  0.
        254    2    1    2    0    0 -0.13243413428E+03  0.64533169505E+02 -0.22595463283E+04  0.24387631995E+04  0.90571132463E+03 0.  0.
         23    2    4    4    0    0  0.33565547437E+03 -0.16839130688E+03 -0.92474877876E+03  0.10022451308E+04  0.91185353066E+02 0.  0.
         23    2    4    4    0    0 -0.46808960865E+03  0.23292447638E+03 -0.13347975495E+04  0.14365180687E+04  0.92401136881E+02 0.  0.
          3    1    3    3  502    0 -0.10109720641E+01  0.11358849677E+02  0.38785657746E+01  0.12045281357E+02  0.00000000000E+00 0. -1.
         -4    1    3    3    0  502  0.13344510635E+03 -0.75892019183E+02 -0.35815964422E+02  0.15763875885E+03  0.00000000000E+00 0.  1.
         11    1    5    5    0    0  0.31598331567E+03 -0.17265296454E+03 -0.81992493538E+03  0.89550622645E+03  0.00000000000E+00 0. -1.
        -11    1    5    5    0    0  0.19672158703E+02  0.42616576624E+01 -0.10482384338E+03  0.10673890431E+03  0.00000000000E+00 0.  1.
          1    1    6    6  503    0 -0.32544318393E+03  0.16992506592E+03 -0.10419732528E+04  0.11047606317E+04  0.00000000000E+00 0. -1.
         -1    1    6    6    0  503 -0.14264642472E+03  0.62999410465E+02 -0.29282429674E+03  0.33175743694E+03  0.00000000000E+00 0.  1.
<mgrwt>
<rscale>  0 0.12462341E+04</rscale>
<asrwt>0</asrwt>
<pdfrwt beam="1">  1        1 0.37691776E+00 0.12462341E+04</pdfrwt>
<pdfrwt beam="2">  1       -2 0.24381809E-01 0.12462341E+04</pdfrwt>
<totfact> 0.19172550E+01</totfact>
</mgrwt>
</event>
<event>
12    4  0.4183215E-008  0.1162018E+04  0.7818608E-02  0.9146767E-01
          1   -1    0    0  501    0  0.00000000000E+00  0.00000000000E+00  0.21587745809E+04  0.21587745809E+04  0.00000000000E+00 0. -1.
         -2   -1    0    0    0  501 -0.00000000000E+00 -0.00000000000E+00 -0.15637191021E+03  0.15637191021E+03  0.00000000000E+00 0.  1.
        -24    2    1    2    0    0  0.17603293629E+03 -0.70573170735E+02  0.69554324814E+03  0.72557234377E+03  0.81894132448E+02 0.  0.
        254    2    1    2    0    0 -0.17603293629E+03  0.70573170735E+02  0.13068594226E+04  0.15895741473E+04  0.88481424745E+03 0.  0.
         23    2    4    4    0    0 -0.11895659704E+03  0.16631724158E+03 -0.48315372211E+02  0.22666067977E+03  0.85021125226E+02 0.  0.
         23    2    4    4    0    0 -0.57076339248E+02 -0.95744070846E+02  0.13551747948E+04  0.13629134676E+04  0.92788793025E+02 0.  0.
          3    1    3    3  502    0  0.10932234190E+03 -0.70909746586E+02  0.34607857287E+03  0.36979716765E+03  0.00000000000E+00 0. -1.
         -4    1    3    3    0  502  0.66710594393E+02  0.33657585109E+00  0.34946467527E+03  0.35577517613E+03  0.00000000000E+00 0.  1.
         11    1    5    5    0    0 -0.27442486875E+02 -0.72488095319E+00 -0.20302962693E+02  0.34144191781E+02  0.00000000000E+00 0.  1.
        -11    1    5    5    0    0 -0.91514110168E+02  0.16704212253E+03 -0.28012409519E+02  0.19251648799E+03  0.00000000000E+00 0. -1.
          3    1    6    6  503    0 -0.67413560957E+02 -0.10143981930E+03  0.97812923876E+03  0.98568323150E+03  0.00000000000E+00 0. -1.
         -3    1    6    6    0  503  0.10337221710E+02  0.56957484489E+01  0.37704555600E+03  0.37723023607E+03  0.00000000000E+00 0.  1.
<mgrwt>
<rscale>  0 0.11620184E+04</rscale>
<asrwt>0</asrwt>
<pdfrwt beam="1">  1        1 0.33211914E+00 0.11620184E+04</pdfrwt>
<pdfrwt beam="2">  1       -2 0.24057219E-01 0.11620184E+04</pdfrwt>
<totfact> 0.31251967E+01</totfact>
</mgrwt>
</event>
<event>
12    4  0.4183215E-008  0.1417868E+04  0.7818608E-02  0.8940986E-01
         -2   -1    0    0    0  501 -0.00000000000E+00  0.00000000000E+00  0.56517610229E+03  0.56517610229E+03  0.00000000000E+00 0.  1.
          1   -1    0    0  501    0  0.00000000000E+00 -0.00000000000E+00 -0.88925782006E+03  0.88925782006E+03  0.00000000000E+00 0. -1.
        -24    2    1    2    0    0 -0.35300075640E+03  0.28738456964E+02 -0.32001905574E+03  0.48433582890E+03  0.82058309732E+02 0.  0.
        254    2    1    2    0    0  0.35300075640E+03 -0.28738456964E+02 -0.40626620262E+01  0.97009809344E+03  0.90312699702E+03 0.  0.
         23    2    4    4    0    0  0.56451513203E+03  0.20525054479E+03 -0.12584442557E+03  0.62021622649E+03  0.89589216589E+02 0.  0.
         23    2    4    4    0    0 -0.21151437563E+03 -0.23398900176E+03  0.12178176354E+03  0.34988186695E+03  0.89985214597E+02 0.  0.
          3    1    3    3  502    0 -0.19876014735E+03  0.56778356873E+02 -0.17724366709E+03  0.27229523593E+03  0.00000000000E+00 0. -1.
         -4    1    3    3    0  502 -0.15424060905E+03 -0.28039899909E+02 -0.14277538865E+03  0.21204059298E+03  0.00000000000E+00 0.  1.
         11    1    5    5    0    0  0.16651689947E+03  0.10502444679E+03 -0.38422775225E+02  0.20058494931E+03  0.00000000000E+00 0.  1.
        -11    1    5    5    0    0  0.39799823256E+03  0.10022609800E+03 -0.87421650345E+02  0.41963127718E+03  0.00000000000E+00 0. -1.
          1    1    6    6  503    0 -0.20096456827E+03 -0.21101412029E+03  0.81948741239E+02  0.30270334133E+03  0.00000000000E+00 0. -1.
         -1    1    6    6    0  503 -0.10549807366E+02 -0.22974881462E+02  0.39833022305E+02  0.47178525619E+02  0.00000000000E+00 0.  1.
<mgrwt>
<rscale>  0 0.14178678E+04</rscale>
<asrwt>0</asrwt>
<pdfrwt beam="1">  1        1 0.13680889E+00 0.14178678E+04</pdfrwt>
<pdfrwt beam="2">  1       -2 0.86950170E-01 0.14178678E+04</pdfrwt>
<totfact> 0.18131143E+01</totfact>
</mgrwt>
</event>
<event>
12    4  0.4183215E-008  0.2541732E+04  0.7818608E-02  0.8388267E-01
         -2   -1    0    0    0  501 -0.00000000000E+00  0.00000000000E+00  0.11938075369E+04  0.11938075369E+04  0.00000000000E+00 0.  1.
          1   -1    0    0  501    0  0.00000000000E+00 -0.00000000000E+00 -0.13528981944E+04  0.13528981944E+04  0.00000000000E+00 0. -1.
        -24    2    1    2    0    0  0.63063762024E+03 -0.16058248707E+03  0.83083865209E+03  0.10583000254E+04  0.78838662398E+02 0.  0.
        254    2    1    2    0    0 -0.63063762024E+03  0.16058248707E+03 -0.98992930960E+03  0.14884057059E+04  0.90105547229E+03 0.  0.
         23    2    4    4    0    0 -0.22369429463E+03 -0.33060230415E+03 -0.62498650014E+03  0.74719931834E+03  0.91442194877E+02 0.  0.
         23    2    4    4    0    0 -0.40694332562E+03  0.49118479122E+03 -0.36494280946E+03  0.74120638757E+03  0.96634804323E+02 0.  0.
          3    1    3    3  502    0  0.17813932634E+03 -0.70508860898E+02  0.28767373050E+03  0.34563173215E+03  0.00000000000E+00 0. -1.
         -4    1    3    3    0  502  0.45249829390E+03 -0.90073626168E+02  0.54316492159E+03  0.71266829322E+03  0.00000000000E+00 0.  1.
         11    1    5    5    0    0 -0.16030802020E+02 -0.72193086515E+02 -0.15863325963E+03  0.17502382528E+03  0.00000000000E+00 0. -1.
        -11    1    5    5    0    0 -0.20766349261E+03 -0.25840921764E+03 -0.46635324051E+03  0.57217549306E+03  0.00000000000E+00 0.  1.
          4    1    6    6  503    0 -0.12978789633E+03  0.22303280669E+03 -0.17078779287E+03  0.30944628142E+03  0.00000000000E+00 0. -1.
         -4    1    6    6    0  503 -0.27715542929E+03  0.26815198453E+03 -0.19415501659E+03  0.43176010615E+03  0.00000000000E+00 0.  1.
<mgrwt>
<rscale>  0 0.25417317E+04</rscale>
<asrwt>0</asrwt>
<pdfrwt beam="1">  1        1 0.20813818E+00 0.25417317E+04</pdfrwt>
<pdfrwt beam="2">  1       -2 0.18366270E+00 0.25417317E+04</pdfrwt>
<totfact> 0.11027926E+00</totfact>
</mgrwt>
</event>
<event>
12    4  0.4183215E-008  0.2100506E+04  0.7818608E-02  0.8561021E-01
         -4   -1    0    0    0  501 -0.00000000000E+00  0.00000000000E+00  0.10249687252E+04  0.10249687252E+04  0.00000000000E+00 0.  1.
          3   -1    0    0  501    0  0.00000000000E+00 -0.00000000000E+00 -0.10761605273E+04  0.10761605273E+04  0.00000000000E+00 0. -1.
        -24    2    1    2    0    0 -0.23390008210E+03 -0.81963917560E+03 -0.77117099067E+02  0.85953672105E+03  0.79615961238E+02 0.  0.
        254    2    1    2    0    0  0.23390008210E+03  0.81963917560E+03  0.25925296899E+02  0.12415925314E+04  0.90242022720E+03 0.  0.
         23    2    4    4    0    0  0.17860397847E+03  0.47945675114E+02 -0.32602014702E+03  0.38693818839E+03  0.96092957511E+02 0.  0.
         23    2    4    4    0    0  0.55296103634E+02  0.77169350049E+03  0.35194544392E+03  0.85465434303E+03  0.89442343365E+02 0.  0.
          3    1    3    3  502    0 -0.83202485671E+02 -0.17139211162E+03 -0.14891144020E+02  0.19110116619E+03  0.00000000000E+00 0. -1.
         -4    1    3    3    0  502 -0.15069759643E+03 -0.64824706398E+03 -0.62225955047E+02  0.66843555486E+03  0.00000000000E+00 0.  1.
         11    1    5    5    0    0  0.11194680931E+03  0.28313022604E+02 -0.28188316282E+03  0.30461751894E+03  0.00000000000E+00 0. -1.
        -11    1    5    5    0    0  0.66657169154E+02  0.19632652510E+02 -0.44136984207E+02  0.82320669452E+02  0.00000000000E+00 0.  1.
          3    1    6    6  503    0  0.77029329095E+02  0.62745673320E+03  0.27068197367E+03  0.68768030396E+03  0.00000000000E+00 0. -1.
         -3    1    6    6    0  503 -0.21733225462E+02  0.14423676728E+03  0.81263470249E+02  0.16697403906E+03  0.00000000000E+00 0.  1.
<mgrwt>
<rscale>  0 0.21005055E+04</rscale>
<asrwt>0</asrwt>
<pdfrwt beam="1">  1        3 0.16556316E+00 0.21005055E+04</pdfrwt>
<pdfrwt beam="2">  1       -4 0.15768750E+00 0.21005055E+04</pdfrwt>
<totfact> 0.13681396E-01</totfact>
</mgrwt>
</event>
<event>
12    4  0.4183215E-008  0.1477168E+04  0.7818608E-02  0.8899779E-01
          1   -1    0    0  501    0  0.00000000000E+00  0.00000000000E+00  0.19086961183E+04  0.19086961183E+04  0.00000000000E+00 0. -1.
         -2   -1    0    0    0  501 -0.00000000000E+00 -0.00000000000E+00 -0.28580060858E+03  0.28580060858E+03  0.00000000000E+00 0.  1.
        -24    2    1    2    0    0  0.23287289417E+02 -0.13452486919E+02 -0.17002985622E+03  0.18992655946E+03  0.80241377918E+02 0.  0.
        254    2    1    2    0    0 -0.23287289417E+02  0.13452486919E+02  0.17929253659E+04  0.20045701674E+04  0.89610095468E+03 0.  0.
         23    2    4    4    0    0  0.30329414831E+03  0.20051257957E+03  0.36118107052E+03  0.52113237775E+03  0.94522772240E+02 0.  0.
         23    2    4    4    0    0 -0.32658143773E+03 -0.18706009265E+03  0.14317442954E+04  0.14834377896E+04  0.95126413771E+02 0.  0.
          1    1    3    3  502    0 -0.12982099752E+02 -0.36523147524E+02 -0.10545478729E+03  0.11235295894E+03  0.00000000000E+00 0. -1.
         -2    1    3    3    0  502  0.36269389169E+02  0.23070660605E+02 -0.64575068928E+02  0.77573600525E+02  0.00000000000E+00 0.  1.
         11    1    5    5    0    0  0.30919478072E+03  0.19603322979E+03  0.34373875222E+03  0.50218200823E+03  0.00000000000E+00 0. -1.
        -11    1    5    5    0    0 -0.59006324141E+01  0.44793497835E+01  0.17442318306E+02  0.18950369528E+02  0.00000000000E+00 0.  1.
          3    1    6    6  503    0 -0.28522837369E+03 -0.17760148096E+03  0.11354355939E+04  0.11841078916E+04  0.00000000000E+00 0. -1.
         -3    1    6    6    0  503 -0.41353064032E+02 -0.94586116894E+01  0.29630870151E+03  0.29932989799E+03  0.00000000000E+00 0.  1.
<mgrwt>
<rscale>  0 0.14771683E+04</rscale>
<asrwt>0</asrwt>
<pdfrwt beam="1">  1        1 0.29364555E+00 0.14771683E+04</pdfrwt>
<pdfrwt beam="2">  1       -2 0.43969326E-01 0.14771683E+04</pdfrwt>
<totfact> 0.14349448E+01</totfact>
</mgrwt>
</event>
<event>
12    4  0.4183215E-008  0.1573203E+04  0.7818608E-02  0.8837182E-01
          1   -1    0    0  501    0  0.00000000000E+00  0.00000000000E+00  0.36959102761E+03  0.36959102761E+03  0.00000000000E+00 0. -1.
         -2   -1    0    0    0  501 -0.00000000000E+00 -0.00000000000E+00 -0.16741253011E+04  0.16741253011E+04  0.00000000000E+00 0.  1.
        -24    2    1    2    0    0 -0.45511237229E+03  0.15984100477E+03 -0.71056137319E+03  0.86193028760E+03  0.73143266232E+02 0.  0.
        254    2    1    2    0    0  0.45511237229E+03 -0.15984100477E+03 -0.59397290033E+03  0.11817860411E+04  0.90063201281E+03 0.  0.
         23    2    4    4    0    0  0.41404707401E+03  0.22665381610E+03 -0.61643461732E+03  0.78175851530E+03  0.91366333900E+02 0.  0.
         23    2    4    4    0    0  0.41065298276E+02 -0.38649482087E+03  0.22461716988E+02  0.40002752584E+03  0.91939585729E+02 0.  0.
          3    1    3    3  502    0 -0.80357432816E+02  0.15246592930E+02 -0.16806720131E+03  0.18691270626E+03  0.00000000000E+00 0. -1.
         -4    1    3    3    0  502 -0.37475493947E+03  0.14459441184E+03 -0.54249417187E+03  0.67501758133E+03  0.00000000000E+00 0.  1.
         11    1    5    5    0    0  0.95208208927E+02  0.20041313942E+02 -0.16678220100E+03  0.19308692313E+03  0.00000000000E+00 0.  1.
        -11    1    5    5    0    0  0.31883886508E+03  0.20661250215E+03 -0.44965241632E+03  0.58867159217E+03  0.00000000000E+00 0. -1.
          1    1    6    6  503    0  0.48417181866E+02 -0.23902682563E+03 -0.24448449606E+02  0.24510359761E+03  0.00000000000E+00 0. -1.
         -1    1    6    6    0  503 -0.73518835897E+01 -0.14746799523E+03  0.46910166594E+02  0.15492392824E+03  0.00000000000E+00 0.  1.
<mgrwt>
<rscale>  0 0.15732027E+04</rscale>
<asrwt>0</asrwt>
<pdfrwt beam="1">  1        1 0.56860159E-01 0.15732027E+04</pdfrwt>
<pdfrwt beam="2">  1       -2 0.25755774E+00 0.15732027E+04</pdfrwt>
<totfact> 0.32369972E+00</totfact>
</mgrwt>
</event>
<event>
12    4  0.4183215E-008  0.2048104E+04  0.7818608E-02  0.8584455E-01
         -2   -1    0    0    0  501 -0.00000000000E+00  0.00000000000E+00  0.80978504921E+03  0.80978504921E+03  0.00000000000E+00 0.  1.
          1   -1    0    0  501    0  0.00000000000E+00 -0.00000000000E+00 -0.12950132563E+04  0.12950132563E+04  0.00000000000E+00 0. -1.
        -24    2    1    2    0    0  0.46339771542E+03  0.27907858503E+03  0.44251383267E+03  0.70348146784E+03  0.80283150175E+02 0.  0.
        254    2    1    2    0    0 -0.46339771542E+03 -0.27907858503E+03 -0.92774203972E+03  0.14013168376E+04  0.90020069311E+03 0.  0.
         23    2    4    4    0    0 -0.13769656489E+02 -0.43169747593E+03 -0.11831455862E+03  0.45845919305E+03  0.98153872851E+02 0.  0.
         23    2    4    4    0    0 -0.44962805893E+03  0.15261889089E+03 -0.80942748110E+03  0.94285764457E+03  0.91377095172E+02 0.  0.
          3    1    3    3  502    0  0.14307265538E+03  0.12933061903E+03  0.16926087994E+03  0.25660366173E+03  0.00000000000E+00 0. -1.
         -4    1    3    3    0  502  0.32032506004E+03  0.14974796600E+03  0.27325295273E+03  0.44687780611E+03  0.00000000000E+00 0.  1.
         11    1    5    5    0    0  0.20366103490E+02 -0.70980891606E+02  0.90501553318E+01  0.74397382051E+02  0.00000000000E+00 0. -1.
        -11    1    5    5    0    0 -0.34135759978E+02 -0.36071658432E+03 -0.12736471395E+03  0.38406181100E+03  0.00000000000E+00 0.  1.
          1    1    6    6  503    0 -0.14431685351E+02 -0.10880026116E+02 -0.39898376756E+02  0.43801015720E+02  0.00000000000E+00 0. -1.
         -1    1    6    6    0  503 -0.43519637358E+03  0.16349891701E+03 -0.76952910435E+03  0.89905662885E+03  0.00000000000E+00 0.  1.
<mgrwt>
<rscale>  0 0.20481039E+04</rscale>
<asrwt>0</asrwt>
<pdfrwt beam="1">  1        1 0.19923281E+00 0.20481039E+04</pdfrwt>
<pdfrwt beam="2">  1       -2 0.12458232E+00 0.20481039E+04</pdfrwt>
<totfact> 0.35746610E+00</totfact>
</mgrwt>
</event>
<event>
12    4  0.4183215E-008  0.1629345E+04  0.7818608E-02  0.8802720E-01
          1   -1    0    0  501    0  0.00000000000E+00  0.00000000000E+00  0.16521883361E+04  0.16521883361E+04  0.00000000000E+00 0. -1.
         -2   -1    0    0    0  501 -0.00000000000E+00 -0.00000000000E+00 -0.40170437253E+03  0.40170437253E+03  0.00000000000E+00 0.  1.
        -24    2    1    2    0    0  0.10669773342E+03  0.54923214120E+03  0.35136176692E+03  0.66543010743E+03  0.79383785328E+02 0.  0.
        254    2    1    2    0    0 -0.10669773342E+03 -0.54923214120E+03  0.89912219667E+03  0.13884626012E+04  0.89797957614E+03 0.  0.
         23    2    4    4    0    0 -0.15691528631E+03 -0.74569309301E+03  0.45642219293E+03  0.89270660463E+03  0.89012739025E+02 0.  0.
         23    2    4    4    0    0  0.50217552887E+02  0.19646095181E+03  0.44270000374E+03  0.49575599658E+03  0.93123609430E+02 0.  0.
          1    1    3    3  502    0  0.73738957378E+01  0.41670158802E+02  0.54835584658E+02  0.69265560113E+02  0.00000000000E+00 0. -1.
         -4    1    3    3    0  502  0.99323837684E+02  0.50756198240E+03  0.29652618226E+03  0.59616454732E+03  0.00000000000E+00 0.  1.
         11    1    5    5    0    0  0.15244093542E+01  0.10791508744E+01 -0.15922461640E+01  0.24543101547E+01  0.00000000000E+00 0. -1.
        -11    1    5    5    0    0 -0.15843969566E+03 -0.74677224388E+03  0.45801443909E+03  0.89025229447E+03  0.00000000000E+00 0.  1.
          1    1    6    6  503    0 -0.26824820481E+02  0.48019046250E+02  0.12957751490E+03  0.14076836351E+03  0.00000000000E+00 0. -1.
         -1    1    6    6    0  503  0.77042373368E+02  0.14844190556E+03  0.31312248883E+03  0.35498763307E+03  0.00000000000E+00 0.  1.
<mgrwt>
<rscale>  0 0.16293450E+04</rscale>
<asrwt>0</asrwt>
<pdfrwt beam="1">  1        1 0.25418282E+00 0.16293450E+04</pdfrwt>
<pdfrwt beam="2">  1       -2 0.61800673E-01 0.16293450E+04</pdfrwt>
<totfact> 0.10500467E+01</totfact>
</mgrwt>
</event>
<event>
12    4  0.4183215E-008  0.1737341E+04  0.7818608E-02  0.8740350E-01
         -2   -1    0    0    0  501 -0.00000000000E+00  0.00000000000E+00  0.19516528280E+04  0.19516528280E+04  0.00000000000E+00 0.  1.
          1   -1    0    0  501    0  0.00000000000E+00 -0.00000000000E+00 -0.38664058876E+03  0.38664058876E+03  0.00000000000E+00 0. -1.
        -24    2    1    2    0    0 -0.69440605465E+02 -0.13130561524E+03  0.14173673547E+04  0.14273450442E+04  0.79501539577E+02 0.  0.
        254    2    1    2    0    0  0.69440605465E+02  0.13130561524E+03  0.14764488449E+03  0.91094837249E+03  0.88654653750E+03 0.  0.
         23    2    4    4    0    0  0.26015587123E+03 -0.59447884211E+02  0.42723113277E+03  0.51202659741E+03  0.91813220073E+02 0.  0.
         23    2    4    4    0    0 -0.19071526576E+03  0.19075349945E+03 -0.27958624828E+03  0.39892177508E+03  0.90614029050E+02 0.  0.
          1    1    3    3  502    0 -0.30699346542E+02 -0.90504385472E+02  0.55695108042E+03  0.56509114279E+03  0.00000000000E+00 0. -1.
         -4    1    3    3    0  502 -0.38741258923E+02 -0.40801229766E+02  0.86041627428E+03  0.86225390144E+03  0.00000000000E+00 0.  1.
         11    1    5    5    0    0  0.23758344788E+03 -0.72483870936E+02  0.34057036467E+03  0.42153052030E+03  0.00000000000E+00 0. -1.
        -11    1    5    5    0    0  0.22572423348E+02  0.13035986725E+02  0.86660768093E+02  0.90496077109E+02  0.00000000000E+00 0.  1.
          1    1    6    6  503    0 -0.17191498097E+03  0.18495241003E+03 -0.21577457543E+03  0.33214578435E+03  0.00000000000E+00 0. -1.
         -1    1    6    6    0  503 -0.18800284797E+02  0.58010894171E+01 -0.63811672850E+02  0.66775990736E+02  0.00000000000E+00 0.  1.
<mgrwt>
<rscale>  0 0.17373407E+04</rscale>
<asrwt>0</asrwt>
<pdfrwt beam="1">  1        1 0.59483169E-01 0.17373407E+04</pdfrwt>
<pdfrwt beam="2">  1       -2 0.30025428E+00 0.17373407E+04</pdfrwt>
<totfact> 0.16524581E+00</totfact>
</mgrwt>
</event>
<event>
12    4  0.4183215E-008  0.2231839E+04  0.7818608E-02  0.8505292E-01
         -2   -1    0    0    0  501 -0.00000000000E+00  0.00000000000E+00  0.10774840110E+04  0.10774840110E+04  0.00000000000E+00 0.  1.
          1   -1    0    0  501    0  0.00000000000E+00 -0.00000000000E+00 -0.11557255286E+04  0.11557255286E+04  0.00000000000E+00 0. -1.
        -24    2    1    2    0    0  0.86381443993E+03 -0.12491387350E+03 -0.35827734428E+03  0.94692888812E+03  0.80825746448E+02 0.  0.
        254    2    1    2    0    0 -0.86381443993E+03  0.12491387350E+03  0.28003582669E+03  0.12862806515E+04  0.90239624764E+03 0.  0.
         23    2    4    4    0    0 -0.58953517841E+03 -0.14388967259E+03 -0.21810105116E+03  0.65110557646E+03  0.90080179374E+02 0.  0.
         23    2    4    4    0    0 -0.27427926152E+03  0.26880354609E+03  0.49813687785E+03  0.63517507504E+03  0.88445277899E+02 0.  0.
          3    1    3    3  502    0  0.68075333922E+03 -0.12862869481E+03 -0.29790330839E+03  0.75413316538E+03  0.00000000000E+00 0. -1.
         -4    1    3    3    0  502  0.18306110072E+03  0.37148213062E+01 -0.60374035889E+02  0.19279572273E+03  0.00000000000E+00 0.  1.
         11    1    5    5    0    0 -0.32471156113E+03 -0.12133298177E+03 -0.10436618862E+03  0.36201048566E+03  0.00000000000E+00 0.  1.
        -11    1    5    5    0    0 -0.26482361728E+03 -0.22556690821E+02 -0.11373486254E+03  0.28909509080E+03  0.00000000000E+00 0. -1.
          3    1    6    6  503    0 -0.18344724891E+03  0.22858962295E+03  0.34568052179E+03  0.45321201661E+03  0.00000000000E+00 0. -1.
         -3    1    6    6    0  503 -0.90832012608E+02  0.40213923137E+02  0.15245635606E+03  0.18196305843E+03  0.00000000000E+00 0.  1.
<mgrwt>
<rscale>  0 0.22318385E+04</rscale>
<asrwt>0</asrwt>
<pdfrwt beam="1">  1        1 0.17780393E+00 0.22318385E+04</pdfrwt>
<pdfrwt beam="2">  1       -2 0.16576677E+00 0.22318385E+04</pdfrwt>
<totfact> 0.20998874E+00</totfact>
</mgrwt>
</event>
<event>
12    4  0.4183215E-008  0.1287935E+04  0.7818608E-02  0.9039188E-01
          1   -1    0    0  501    0  0.00000000000E+00  0.00000000000E+00  0.32339314535E+03  0.32339314535E+03  0.00000000000E+00 0. -1.
         -2   -1    0    0    0  501 -0.00000000000E+00 -0.00000000000E+00 -0.12823211090E+04  0.12823211090E+04  0.00000000000E+00 0.  1.
        -24    2    1    2    0    0  0.21437522366E+03  0.61033987932E+02 -0.49113538182E+03  0.54515439390E+03  0.79356573206E+02 0.  0.
        254    2    1    2    0    0 -0.21437522366E+03 -0.61033987932E+02 -0.46779258183E+03  0.10605598605E+04  0.92535151904E+03 0.  0.
         23    2    4    4    0    0 -0.26668486864E+03  0.19390274635E+03 -0.64680001306E+03  0.73172974168E+03  0.91427915700E+02 0.  0.
         23    2    4    4    0    0  0.52309644980E+02 -0.25493673428E+03  0.17900743122E+03  0.32883011877E+03  0.91414162662E+02 0.  0.
          1    1    3    3  502    0  0.11380900138E+02  0.37209007717E+01 -0.10048460065E+03  0.10119547894E+03  0.00000000000E+00 0. -1.
         -2    1    3    3    0  502  0.20299432352E+03  0.57313087161E+02 -0.39065078117E+03  0.44395891496E+03  0.00000000000E+00 0.  1.
         11    1    5    5    0    0 -0.25494089752E+03  0.19002703170E+03 -0.64515134707E+03  0.71925335914E+03  0.00000000000E+00 0.  1.
        -11    1    5    5    0    0 -0.11743971128E+02  0.38757146496E+01 -0.16486659848E+01  0.12476382546E+02  0.00000000000E+00 0. -1.
          1    1    6    6  503    0  0.63600065672E+02 -0.25614087485E+03  0.16706818157E+03  0.31235379527E+03  0.00000000000E+00 0.  1.
         -1    1    6    6    0  503 -0.11290420692E+02  0.12041405763E+01  0.11939249653E+02  0.16476323503E+02  0.00000000000E+00 0. -1.
<mgrwt>
<rscale>  0 0.12879346E+04</rscale>
<asrwt>0</asrwt>
<pdfrwt beam="1">  1        1 0.49752792E-01 0.12879346E+04</pdfrwt>
<pdfrwt beam="2">  1       -2 0.19728017E+00 0.12879346E+04</pdfrwt>
<totfact> 0.94491835E+00</totfact>
</mgrwt>
</event>
<event>
12    4  0.4183215E-008  0.1842116E+04  0.7818608E-02  0.8684218E-01
         -2   -1    0    0    0  501 -0.00000000000E+00  0.00000000000E+00  0.10116500482E+04  0.10116500482E+04  0.00000000000E+00 0.  1.
          1   -1    0    0  501    0  0.00000000000E+00 -0.00000000000E+00 -0.83857791147E+03  0.83857791147E+03  0.00000000000E+00 0. -1.
        -24    2    1    2    0    0  0.43835319063E+03 -0.20554700252E+03  0.57026097129E+03  0.75229457601E+03  0.79664695748E+02 0.  0.
        254    2    1    2    0    0 -0.43835319063E+03  0.20554700252E+03 -0.39718883452E+03  0.10979333837E+04  0.90182906074E+03 0.  0.
         23    2    4    4    0    0 -0.36616460107E+03  0.24073450892E+03  0.19911873299E+03  0.48980263023E+03  0.90712335919E+02 0.  0.
         23    2    4    4    0    0 -0.72188589558E+02 -0.35187506402E+02 -0.59630756751E+03  0.60813075347E+03  0.88266330944E+02 0.  0.
          1    1    3    3  502    0  0.14903798026E+03 -0.29801520544E+02  0.16781027959E+03  0.22640834817E+03  0.00000000000E+00 0. -1.
         -2    1    3    3    0  502  0.28931521037E+03 -0.17574548197E+03  0.40245069170E+03  0.52588622784E+03  0.00000000000E+00 0.  1.
         11    1    5    5    0    0 -0.34806936631E+03  0.21078657356E+03  0.15980720600E+03  0.43717457206E+03  0.00000000000E+00 0.  1.
        -11    1    5    5    0    0 -0.18095234757E+02  0.29947935355E+02  0.39311526986E+02  0.52628058171E+02  0.00000000000E+00 0. -1.
          2    1    6    6  503    0  0.74207469317E+01  0.54681322087E+01 -0.57891192849E+01  0.10884937160E+02  0.00000000000E+00 0. -1.
         -2    1    6    6    0  503 -0.79609336489E+02 -0.40655638611E+02 -0.59051844822E+03  0.59724581631E+03  0.00000000000E+00 0.  1.
<mgrwt>
<rscale>  0 0.18421155E+04</rscale>
<asrwt>0</asrwt>
<pdfrwt beam="1">  1        1 0.12901199E+00 0.18421155E+04</pdfrwt>
<pdfrwt beam="2">  1       -2 0.15563847E+00 0.18421155E+04</pdfrwt>
<totfact> 0.45789160E+00</totfact>
</mgrwt>
</event>
<event>
12    4  0.4183215E-008  0.2484555E+04  0.7818608E-02  0.8408509E-01
          1   -1    0    0  501    0  0.00000000000E+00  0.00000000000E+00  0.25359907168E+04  0.25359907168E+04  0.00000000000E+00 0. -1.
         -2   -1    0    0    0  501 -0.00000000000E+00 -0.00000000000E+00 -0.60854063530E+03  0.60854063530E+03  0.00000000000E+00 0.  1.
        -24    2    1    2    0    0 -0.62915533586E+03  0.68687024425E+03  0.14818431656E+03  0.94443080624E+03  0.48618793003E+02 0.  0.
        254    2    1    2    0    0  0.62915533586E+03 -0.68687024425E+03  0.17792657650E+04  0.22001005459E+04  0.89834769469E+03 0.  0.
         23    2    4    4    0    0  0.48869846870E+03 -0.11777372697E+03  0.14139644078E+04  0.15034821575E+04  0.92013082293E+02 0.  0.
         23    2    4    4    0    0  0.14045686715E+03 -0.56909651727E+03  0.36530135719E+03  0.69661838841E+03  0.90736541705E+02 0.  0.
          1    1    3    3  502    0 -0.14233738078E+03  0.12712901284E+03  0.25832965727E+02  0.19258519671E+03  0.00000000000E+00 0. -1.
         -2    1    3    3    0  502 -0.48681795507E+03  0.55974123141E+03  0.12235135084E+03  0.75184560953E+03  0.00000000000E+00 0.  1.
         11    1    5    5    0    0  0.38142507550E+03 -0.63963317556E+02  0.11556897010E+04  0.12186858000E+04  0.00000000000E+00 0.  1.
        -11    1    5    5    0    0  0.10727339320E+03 -0.53810409418E+02  0.25827470679E+03  0.28479635746E+03  0.00000000000E+00 0. -1.
          1    1    6    6  503    0  0.19855119983E+02 -0.13602123249E+03  0.13004154147E+03  0.18922685852E+03  0.00000000000E+00 0. -1.
         -1    1    6    6    0  503  0.12060174717E+03 -0.43307528478E+03  0.23525981572E+03  0.50739152989E+03  0.00000000000E+00 0.  1.
<mgrwt>
<rscale>  0 0.24845550E+04</rscale>
<asrwt>0</asrwt>
<pdfrwt beam="1">  1        1 0.39015241E+00 0.24845550E+04</pdfrwt>
<pdfrwt beam="2">  1       -2 0.93621637E-01 0.24845550E+04</pdfrwt>
<totfact> 0.96433714E-01</totfact>
</mgrwt>
</event>
<event>
12    4  0.4183215E-008  0.1561436E+04  0.7818608E-02  0.8844596E-01
          1   -1    0    0  501    0  0.00000000000E+00  0.00000000000E+00  0.58351017316E+03  0.58351017316E+03  0.00000000000E+00 0. -1.
         -2   -1    0    0    0  501 -0.00000000000E+00 -0.00000000000E+00 -0.10445756290E+04  0.10445756290E+04  0.00000000000E+00 0.  1.
        -24    2    1    2    0    0 -0.28973382478E+02  0.29761596514E+03  0.27794234153E+03  0.41608086452E+03  0.80353102017E+02 0.  0.
        254    2    1    2    0    0  0.28973382478E+02 -0.29761596514E+03 -0.73900779732E+03  0.12120049376E+04  0.91291222178E+03 0.  0.
         23    2    4    4    0    0 -0.71762605918E+02  0.18268244513E+03  0.98665061026E+02  0.23740530673E+03  0.90020764448E+02 0.  0.
         23    2    4    4    0    0  0.10073598840E+03 -0.48029841027E+03 -0.83767285835E+03  0.97459963087E+03  0.85523801451E+02 0.  0.
          3    1    3    3  502    0 -0.12890826788E+02  0.24616107986E+03  0.26229869494E+03  0.35994729617E+03  0.00000000000E+00 0. -1.
         -4    1    3    3    0  502 -0.16082555690E+02  0.51454885283E+02  0.15643646591E+02  0.56133568349E+02  0.00000000000E+00 0.  1.
         11    1    5    5    0    0 -0.97198757054E+01  0.12195769512E+03  0.28101377262E+02  0.12553024650E+03  0.00000000000E+00 0.  1.
        -11    1    5    5    0    0 -0.62042730212E+02  0.60724750010E+02  0.70563683763E+02  0.11187506023E+03  0.00000000000E+00 0. -1.
          2    1    6    6  503    0  0.73682397753E+02 -0.39470838443E+03 -0.74019005125E+03  0.84208379419E+03  0.00000000000E+00 0. -1.
         -2    1    6    6    0  503  0.27053590643E+02 -0.85590025840E+02 -0.97482807098E+02  0.13251583668E+03  0.00000000000E+00 0.  1.
<mgrwt>
<rscale>  0 0.15614359E+04</rscale>
<asrwt>0</asrwt>
<pdfrwt beam="1">  1        1 0.89770796E-01 0.15614359E+04</pdfrwt>
<pdfrwt beam="2">  1       -2 0.16070394E+00 0.15614359E+04</pdfrwt>
<totfact> 0.74685438E+00</totfact>
</mgrwt>
</event>
<event>
12    4  0.4183215E-008  0.2075241E+04  0.7818608E-02  0.8572229E-01
          1   -1    0    0  501    0  0.00000000000E+00  0.00000000000E+00  0.12307681677E+04  0.12307681677E+04  0.00000000000E+00 0. -1.
         -2   -1    0    0    0  501 -0.00000000000E+00 -0.00000000000E+00 -0.87478411953E+03  0.87478411953E+03  0.00000000000E+00 0.  1.
        -24    2    1    2    0    0 -0.45932126837E+03 -0.36371833828E+03  0.76578942538E+03  0.96745704411E+03  0.79199943061E+02 0.  0.
        254    2    1    2    0    0  0.45932126837E+03  0.36371833828E+03 -0.40980537721E+03  0.11380952431E+04  0.88546783007E+03 0.  0.
         23    2    4    4    0    0  0.50830212406E+03 -0.14219349381E+03 -0.14135064029E+03  0.55587344130E+03  0.10210406570E+03 0.  0.
         23    2    4    4    0    0 -0.48980855690E+02  0.50591183209E+03 -0.26845473692E+03  0.58222180183E+03  0.92565515614E+02 0.  0.
          3    1    3    3  502    0 -0.24737072679E+03 -0.16810903037E+03  0.33564688083E+03  0.44956840545E+03  0.00000000000E+00 0. -1.
         -4    1    3    3    0  502 -0.21195054158E+03 -0.19560930791E+03  0.43014254455E+03  0.51788863866E+03  0.00000000000E+00 0.  1.
         11    1    5    5    0    0  0.40782166851E+03 -0.13366955062E+03 -0.76375534424E+02  0.43591201444E+03  0.00000000000E+00 0. -1.
        -11    1    5    5    0    0  0.10048045555E+03 -0.85239431901E+01 -0.64975105862E+02  0.11996142687E+03  0.00000000000E+00 0.  1.
          1    1    6    6  503    0 -0.45385659087E+02  0.41564578771E+03 -0.17814658900E+03  0.45448595805E+03  0.00000000000E+00 0. -1.
         -1    1    6    6    0  503 -0.35951966024E+01  0.90266044383E+02 -0.90308147915E+02  0.12773584378E+03  0.00000000000E+00 0.  1.
<mgrwt>
<rscale>  0 0.20752411E+04</rscale>
<asrwt>0</asrwt>
<pdfrwt beam="1">  1        1 0.18934895E+00 0.20752411E+04</pdfrwt>
<pdfrwt beam="2">  1       -2 0.13458217E+00 0.20752411E+04</pdfrwt>
<totfact> 0.32627243E+00</totfact>
</mgrwt>
</event>
<event>
12    4  0.4183215E-008  0.1507489E+04  0.7818608E-02  0.8879488E-01
         -2   -1    0    0    0  501 -0.00000000000E+00  0.00000000000E+00  0.72886392795E+03  0.72886392795E+03  0.00000000000E+00 0.  1.
          1   -1    0    0  501    0  0.00000000000E+00 -0.00000000000E+00 -0.77947409580E+03  0.77947409580E+03  0.00000000000E+00 0. -1.
        -24    2    1    2    0    0  0.11715655825E+03 -0.18731452314E+03 -0.43697719740E+03  0.49488542392E+03  0.71764350702E+02 0.  0.
        254    2    1    2    0    0 -0.11715655825E+03  0.18731452314E+03  0.38636702956E+03  0.10134525998E+04  0.91049124151E+03 0.  0.
         23    2    4    4    0    0  0.29476149676E+03  0.12911931426E+03 -0.11792346966E+03  0.35330728844E+03  0.85813507582E+02 0.  0.
         23    2    4    4    0    0 -0.41191805501E+03  0.58195208880E+02  0.50429049922E+03  0.66014531139E+03  0.91759240234E+02 0.  0.
          3    1    3    3  502    0  0.88885320107E+02 -0.17808699101E+03 -0.40470190609E+03  0.45099801473E+03  0.00000000000E+00 0. -1.
         -4    1    3    3    0  502  0.28271238148E+02 -0.92275321318E+01 -0.32275291313E+02  0.43887409185E+02  0.00000000000E+00 0.  1.
         11    1    5    5    0    0  0.68771305936E+02 -0.60404137579E+01 -0.33842328413E+02  0.76884863991E+02  0.00000000000E+00 0. -1.
        -11    1    5    5    0    0  0.22599019082E+03  0.13515972802E+03 -0.84081141250E+02  0.27642242445E+03  0.00000000000E+00 0.  1.
          3    1    6    6  503    0 -0.26571935059E+02  0.29324010464E+02  0.45562114256E+02  0.60347921074E+02  0.00000000000E+00 0. -1.
         -3    1    6    6    0  503 -0.38534611995E+03  0.28871198416E+02  0.45872838496E+03  0.59979739032E+03  0.00000000000E+00 0.  1.
<mgrwt>
<rscale>  0 0.15074887E+04</rscale>
<asrwt>0</asrwt>
<pdfrwt beam="1">  1        1 0.11991909E+00 0.15074887E+04</pdfrwt>
<pdfrwt beam="2">  1       -2 0.11213291E+00 0.15074887E+04</pdfrwt>
<totfact> 0.12238409E+01</totfact>
</mgrwt>
</event>
<event>
12    4  0.4183215E-008  0.1824483E+04  0.7818608E-02  0.8693387E-01
          1   -1    0    0  501    0  0.00000000000E+00  0.00000000000E+00  0.26216864695E+04  0.26216864695E+04  0.00000000000E+00 0. -1.
         -2   -1    0    0    0  501 -0.00000000000E+00 -0.00000000000E+00 -0.31742342801E+03  0.31742342801E+03  0.00000000000E+00 0.  1.
        -24    2    1    2    0    0  0.29741220528E+03  0.30937054497E+03  0.17537545109E+04  0.18072483347E+04  0.79545615048E+02 0.  0.
        254    2    1    2    0    0 -0.29741220528E+03 -0.30937054497E+03  0.55050853058E+03  0.11318615628E+04  0.89100325539E+03 0.  0.
         23    2    4    4    0    0 -0.55508725449E+03 -0.37593132869E+02  0.16667277433E+03  0.58777031827E+03  0.90327346874E+02 0.  0.
         23    2    4    4    0    0  0.25767504921E+03 -0.27177741210E+03  0.38383575625E+03  0.54409124451E+03  0.91902131985E+02 0.  0.
          1    1    3    3  502    0  0.28490430451E+03  0.31247108988E+03  0.17168754702E+04  0.17681826900E+04  0.00000000000E+00 0. -1.
         -2    1    3    3    0  502  0.12507900765E+02 -0.31005449130E+01  0.36879040659E+02  0.39065644757E+02  0.00000000000E+00 0.  1.
         11    1    5    5    0    0 -0.44444328754E+03 -0.98896236167E+01  0.10002867307E+03  0.45566805455E+03  0.00000000000E+00 0. -1.
        -11    1    5    5    0    0 -0.11064396695E+03 -0.27703509252E+02  0.66644101262E+02  0.13210226372E+03  0.00000000000E+00 0.  1.
          1    1    6    6  503    0  0.20707797879E+03 -0.17921682963E+03  0.31832354816E+03  0.41991647102E+03  0.00000000000E+00 0. -1.
         -1    1    6    6    0  503  0.50597070428E+02 -0.92560582468E+02  0.65512208089E+02  0.12417477349E+03  0.00000000000E+00 0.  1.
<mgrwt>
<rscale>  0 0.18244832E+04</rscale>
<asrwt>0</asrwt>
<pdfrwt beam="1">  1        1 0.40333637E+00 0.18244832E+04</pdfrwt>
<pdfrwt beam="2">  1       -2 0.48834375E-01 0.18244832E+04</pdfrwt>
<totfact> 0.36639684E+00</totfact>
</mgrwt>
</event>
<event>
12    4  0.4183215E-008  0.2182602E+04  0.7818608E-02  0.8525705E-01
          1   -1    0    0  501    0  0.00000000000E+00  0.00000000000E+00  0.69834205157E+03  0.69834205157E+03  0.00000000000E+00 0. -1.
         -2   -1    0    0    0  501 -0.00000000000E+00 -0.00000000000E+00 -0.17053788113E+04  0.17053788113E+04  0.00000000000E+00 0.  1.
        -24    2    1    2    0    0 -0.86060731980E+03 -0.40480025386E+02 -0.74320529606E+02  0.86836762279E+03  0.79089796003E+02 0.  0.
        254    2    1    2    0    0  0.86060731980E+03  0.40480025386E+02 -0.93271623009E+03  0.15353532401E+04  0.86317229712E+03 0.  0.
         23    2    4    4    0    0 -0.73478950913E+02 -0.15051838370E+03  0.99783822182E+01  0.19141798652E+03  0.92121318883E+02 0.  0.
         23    2    4    4    0    0  0.93408627072E+03  0.19099840909E+03 -0.94269461231E+03  0.13439352535E+04  0.92148142698E+02 0.  0.
          1    1    3    3  502    0 -0.11645623144E+03 -0.13241379211E+01  0.16676432247E+02  0.11765164926E+03  0.00000000000E+00 0. -1.
         -2    1    3    3    0  502 -0.74415108836E+03 -0.39155887465E+02 -0.90996961854E+02  0.75071597352E+03  0.00000000000E+00 0.  1.
         11    1    5    5    0    0 -0.71532177582E+02 -0.11327760674E+03  0.43924813046E+02  0.14098956635E+03  0.00000000000E+00 0.  1.
        -11    1    5    5    0    0 -0.19467733311E+01 -0.37240776964E+02 -0.33946430827E+02  0.50428420174E+02  0.00000000000E+00 0. -1.
          2    1    6    6  503    0  0.54784208398E+03  0.66402889211E+02 -0.53098576523E+03  0.76582385413E+03  0.00000000000E+00 0. -1.
         -2    1    6    6    0  503  0.38624418674E+03  0.12459551987E+03 -0.41170884708E+03  0.57811139941E+03  0.00000000000E+00 0.  1.
<mgrwt>
<rscale>  0 0.21826019E+04</rscale>
<asrwt>0</asrwt>
<pdfrwt beam="1">  1        1 0.10743724E+00 0.21826019E+04</pdfrwt>
<pdfrwt beam="2">  1       -2 0.26236597E+00 0.21826019E+04</pdfrwt>
<totfact> 0.11804435E+00</totfact>
</mgrwt>
</event>
<event>
12    4  0.4183215E-008  0.2702428E+04  0.7818608E-02  0.8334218E-01
         -2   -1    0    0    0  501 -0.00000000000E+00  0.00000000000E+00  0.18979010139E+04  0.18979010139E+04  0.00000000000E+00 0.  1.
          1   -1    0    0  501    0  0.00000000000E+00 -0.00000000000E+00 -0.96199888045E+03  0.96199888045E+03  0.00000000000E+00 0. -1.
        -24    2    1    2    0    0  0.81744432540E+03  0.14504098778E+02 -0.51323527406E+03  0.96861609708E+03  0.79881806263E+02 0.  0.
        254    2    1    2    0    0 -0.81744432540E+03 -0.14504098778E+02  0.14491374075E+04  0.18912837973E+04  0.89918273000E+03 0.  0.
         23    2    4    4    0    0 -0.84020201084E+03  0.75560121972E+02  0.15233914539E+04  0.17432236767E+04  0.80364881756E+02 0.  0.
         23    2    4    4    0    0  0.22757685439E+02 -0.90064220750E+02 -0.74254046423E+02  0.14806012051E+03  0.88196710652E+02 0.  0.
          3    1    3    3  502    0  0.56054044571E+03  0.43460531748E+02 -0.37014818837E+03  0.67313006949E+03  0.00000000000E+00 0. -1.
         -4    1    3    3    0  502  0.25690387969E+03 -0.28956432970E+02 -0.14308708570E+03  0.29548602759E+03  0.00000000000E+00 0.  1.
         11    1    5    5    0    0 -0.35902498699E+03 -0.69369799562E+01  0.66030022903E+03  0.75162720509E+03  0.00000000000E+00 0.  1.
        -11    1    5    5    0    0 -0.48117702385E+03  0.82497101928E+02  0.86309122489E+03  0.99159647165E+03  0.00000000000E+00 0. -1.
          4    1    6    6  503    0  0.41734362160E+02 -0.60339707059E+02 -0.90397182199E+01  0.73921267158E+02  0.00000000000E+00 0. -1.
         -4    1    6    6    0  503 -0.18976676721E+02 -0.29724513691E+02 -0.65214328203E+02  0.74138853353E+02  0.00000000000E+00 0.  1.
<mgrwt>
<rscale>  0 0.27024275E+04</rscale>
<asrwt>0</asrwt>
<pdfrwt beam="1">  1        1 0.14799983E+00 0.27024275E+04</pdfrwt>
<pdfrwt beam="2">  1       -2 0.29198477E+00 0.27024275E+04</pdfrwt>
<totfact> 0.44177953E-01</totfact>
</mgrwt>
</event>
<event>
12    4  0.4183215E-008  0.1386848E+04  0.7818608E-02  0.8963394E-01
         -2   -1    0    0    0  501 -0.00000000000E+00  0.00000000000E+00  0.52960879631E+03  0.52960879631E+03  0.00000000000E+00 0.  1.
          1   -1    0    0  501    0  0.00000000000E+00 -0.00000000000E+00 -0.90790975429E+03  0.90790975429E+03  0.00000000000E+00 0. -1.
        -24    2    1    2    0    0 -0.97082783998E+02  0.34122860701E+03  0.74700662072E+02  0.37149693762E+03  0.81041696407E+02 0.  0.
        254    2    1    2    0    0  0.97082783998E+02 -0.34122860701E+03 -0.45300162005E+03  0.10660216130E+04  0.89740157253E+03 0.  0.
         23    2    4    4    0    0  0.42579568356E+03  0.36856993967E+02 -0.10238501781E+03  0.44856884301E+03  0.89838259720E+02 0.  0.
         23    2    4    4    0    0 -0.32871289956E+03 -0.37808560097E+03 -0.35061660224E+03  0.61745276996E+03  0.85527944974E+02 0.  0.
          1    1    3    3  502    0 -0.12771587706E+02  0.13102651560E+03 -0.40669563543E+01  0.13171029336E+03  0.00000000000E+00 0. -1.
         -2    1    3    3    0  502 -0.84311196292E+02  0.21020209141E+03  0.78767618426E+02  0.23978664426E+03  0.00000000000E+00 0.  1.
         11    1    5    5    0    0  0.32243721717E+03  0.41599490045E+01 -0.10785713277E+03  0.34002385987E+03  0.00000000000E+00 0. -1.
        -11    1    5    5    0    0  0.10335846639E+03  0.32697044962E+02  0.54721149590E+01  0.10854498315E+03  0.00000000000E+00 0.  1.
          4    1    6    6  503    0 -0.31368853634E+03 -0.33298207627E+03 -0.29523025794E+03  0.54446162964E+03  0.00000000000E+00 0. -1.
         -4    1    6    6    0  503 -0.15024363218E+02 -0.45103524702E+02 -0.55386344301E+02  0.72991140323E+02  0.00000000000E+00 0.  1.
<mgrwt>
<rscale>  0 0.13868482E+04</rscale>
<asrwt>0</asrwt>
<pdfrwt beam="1">  1        1 0.13967842E+00 0.13868482E+04</pdfrwt>
<pdfrwt beam="2">  1       -2 0.81478277E-01 0.13868482E+04</pdfrwt>
<totfact> 0.20342519E+01</totfact>
</mgrwt>
</event>
<event>
12    4  0.4183215E-008  0.1450838E+04  0.7818608E-02  0.8917820E-01
         -2   -1    0    0    0  501 -0.00000000000E+00  0.00000000000E+00  0.25680840712E+03  0.25680840712E+03  0.00000000000E+00 0.  1.
          1   -1    0    0  501    0  0.00000000000E+00 -0.00000000000E+00 -0.20491260922E+04  0.20491260922E+04  0.00000000000E+00 0. -1.
        -24    2    1    2    0    0  0.11083461797E+03 -0.34195275076E+03 -0.96607640265E+03  0.10339301871E+04  0.80573070681E+02 0.  0.
        254    2    1    2    0    0 -0.11083461797E+03  0.34195275076E+03 -0.82624128242E+03  0.12720043122E+04  0.89783312329E+03 0.  0.
         23    2    4    4    0    0  0.35721920149E+03  0.87059940411E+02 -0.53723278387E+03  0.65913190658E+03  0.10320278621E+03 0.  0.
         23    2    4    4    0    0 -0.46805381946E+03  0.25489281034E+03 -0.28900849855E+03  0.61287240565E+03  0.89676923973E+02 0.  0.
          3    1    3    3  502    0  0.11076445652E+03 -0.34037385307E+03 -0.91050896527E+03  0.97834027849E+03  0.00000000000E+00 0. -1.
         -2    1    3    3    0  502  0.70161452117E-01 -0.15788976868E+01 -0.55567437380E+02  0.55589908595E+02  0.00000000000E+00 0.  1.
         11    1    5    5    0    0  0.73731565794E+02  0.53002327020E+02 -0.85469846170E+02  0.12470238598E+03  0.00000000000E+00 0.  1.
        -11    1    5    5    0    0  0.28348763569E+03  0.34057613391E+02 -0.45176293770E+03  0.53442952061E+03  0.00000000000E+00 0. -1.
          2    1    6    6  503    0 -0.11416405418E+03  0.10678299413E+03 -0.71863333115E+02  0.17204760314E+03  0.00000000000E+00 0. -1.
         -2    1    6    6    0  503 -0.35388976528E+03  0.14810981622E+03 -0.21714516544E+03  0.44082480250E+03  0.00000000000E+00 0.  1.
<mgrwt>
<rscale>  0 0.14508381E+04</rscale>
<asrwt>0</asrwt>
<pdfrwt beam="1">  1        1 0.31525018E+00 0.14508381E+04</pdfrwt>
<pdfrwt beam="2">  1       -2 0.39508985E-01 0.14508381E+04</pdfrwt>
<totfact> 0.14269330E+01</totfact>
</mgrwt>
</event>
<event>
12    4  0.4183215E-008  0.2062204E+04  0.7818608E-02  0.8578078E-01
         -2   -1    0    0    0  501 -0.00000000000E+00  0.00000000000E+00  0.45979899317E+03  0.45979899317E+03  0.00000000000E+00 0.  1.
          1   -1    0    0  501    0  0.00000000000E+00 -0.00000000000E+00 -0.23122520555E+04  0.23122520555E+04  0.00000000000E+00 0. -1.
        -24    2    1    2    0    0 -0.33113298454E+03  0.40228371380E+03 -0.16224685475E+04  0.17066329074E+04  0.93329808721E+02 0.  0.
        254    2    1    2    0    0  0.33113298454E+03 -0.40228371380E+03 -0.22998451476E+03  0.10654181412E+04  0.90041196055E+03 0.  0.
         23    2    4    4    0    0  0.12246111170E+02 -0.31966859462E+03 -0.52019446575E+03  0.61798817692E+03  0.94705474960E+02 0.  0.
         23    2    4    4    0    0  0.31888687337E+03 -0.82615119178E+02  0.29020995099E+03  0.44742996427E+03  0.86357752101E+02 0.  0.
          3    1    3    3  502    0 -0.18110686122E+03  0.28902282008E+03 -0.10720953187E+04  0.11250432250E+04  0.00000000000E+00 0. -1.
         -4    1    3    3    0  502 -0.15002612332E+03  0.11326089372E+03 -0.55037322880E+03  0.58158968243E+03  0.00000000000E+00 0.  1.
         11    1    5    5    0    0 -0.50504667097E+01  0.28849413447E+01 -0.18407456415E+00  0.58192769305E+01  0.00000000000E+00 0.  1.
        -11    1    5    5    0    0  0.17296577880E+02 -0.32255353597E+03 -0.52001039119E+03  0.61216889999E+03  0.00000000000E+00 0. -1.
          2    1    6    6  503    0  0.26863202607E+03 -0.34303090363E+02  0.22873252062E+03  0.35448333308E+03  0.00000000000E+00 0. -1.
         -2    1    6    6    0  503  0.50254847296E+02 -0.48312028814E+02  0.61477430370E+02  0.92946631191E+02  0.00000000000E+00 0.  1.
<mgrwt>
<rscale>  0 0.20622038E+04</rscale>
<asrwt>0</asrwt>
<pdfrwt beam="1">  1        1 0.35573109E+00 0.20622038E+04</pdfrwt>
<pdfrwt beam="2">  1       -2 0.70738305E-01 0.20622038E+04</pdfrwt>
<totfact> 0.26884578E+00</totfact>
</mgrwt>
</event>
<event>
12    4  0.4183215E-008  0.1605608E+04  0.7818608E-02  0.8817110E-01
         -2   -1    0    0    0  501 -0.00000000000E+00  0.00000000000E+00  0.90191961712E+03  0.90191961712E+03  0.00000000000E+00 0.  1.
          1   -1    0    0  501    0  0.00000000000E+00 -0.00000000000E+00 -0.71458027552E+03  0.71458027552E+03  0.00000000000E+00 0. -1.
        -24    2    1    2    0    0  0.38782857928E+03 -0.13850551930E+03 -0.29612848353E+03  0.51327693869E+03  0.78526118287E+02 0.  0.
        254    2    1    2    0    0 -0.38782857928E+03  0.13850551930E+03  0.48346782513E+03  0.11032229539E+04  0.90208922087E+03 0.  0.
         23    2    4    4    0    0 -0.57962711608E+03  0.92827334294E+02  0.61020946089E+03  0.85146097881E+03  0.89697851703E+02 0.  0.
         23    2    4    4    0    0  0.19179853680E+03  0.45678185008E+02 -0.12674163576E+03  0.25176197513E+03  0.91910144068E+02 0.  0.
          1    1    3    3  502    0  0.37051802214E+03 -0.11110756080E+03 -0.27219415966E+03  0.47298853618E+03  0.00000000000E+00 0. -1.
         -2    1    3    3    0  502  0.17310557134E+02 -0.27397958498E+02 -0.23934323866E+02  0.40288402514E+02  0.00000000000E+00 0.  1.
         11    1    5    5    0    0 -0.12238406279E+03  0.46302657539E+02  0.17488415409E+03  0.21841763269E+03  0.00000000000E+00 0.  1.
        -11    1    5    5    0    0 -0.45724305329E+03  0.46524676755E+02  0.43532530680E+03  0.63304334612E+03  0.00000000000E+00 0. -1.
          4    1    6    6  503    0  0.10232163589E+03  0.58025881479E+02 -0.34324197714E+02  0.12253518124E+03  0.00000000000E+00 0. -1.
         -4    1    6    6    0  503  0.89476900918E+02 -0.12347696472E+02 -0.92417438048E+02  0.12922679390E+03  0.00000000000E+00 0.  1.
<mgrwt>
<rscale>  0 0.16056076E+04</rscale>
<asrwt>0</asrwt>
<pdfrwt beam="1">  1        1 0.10993543E+00 0.16056076E+04</pdfrwt>
<pdfrwt beam="2">  1       -2 0.13875686E+00 0.16056076E+04</pdfrwt>
<totfact> 0.81460752E+00</totfact>
</mgrwt>
</event>
<event>
12    4  0.4183215E-008  0.2191509E+04  0.7818608E-02  0.8521970E-01
         -2   -1    0    0    0  501 -0.00000000000E+00  0.00000000000E+00  0.65480076883E+03  0.65480076883E+03  0.00000000000E+00 0.  1.
          1   -1    0    0  501    0  0.00000000000E+00 -0.00000000000E+00 -0.18336541391E+04  0.18336541391E+04  0.00000000000E+00 0. -1.
        -24    2    1    2    0    0  0.46148169872E+03  0.35204304791E+03 -0.12828339114E+04  0.14103002690E+04  0.79902056849E+02 0.  0.
        254    2    1    2    0    0 -0.46148169872E+03 -0.35204304791E+03  0.10398054113E+03  0.10781546389E+04  0.90261055092E+03 0.  0.
         23    2    4    4    0    0 -0.37209093162E+03 -0.17376256026E+03 -0.36718267751E+03  0.55842825689E+03  0.91509074367E+02 0.  0.
         23    2    4    4    0    0 -0.89390767099E+02 -0.17828048766E+03  0.47116321864E+03  0.51972638202E+03  0.91356948529E+02 0.  0.
          1    1    3    3  502    0  0.22774469395E+03  0.13102730560E+03 -0.62677798232E+03  0.67962227712E+03  0.00000000000E+00 0. -1.
         -2    1    3    3    0  502  0.23373700476E+03  0.22101574232E+03 -0.65605592906E+03  0.73067799187E+03  0.00000000000E+00 0.  1.
         11    1    5    5    0    0 -0.29597458057E+03 -0.16998381054E+03 -0.27164926662E+03  0.43622101307E+03  0.00000000000E+00 0. -1.
        -11    1    5    5    0    0 -0.76116351052E+02 -0.37787497195E+01 -0.95533410885E+02  0.12220724382E+03  0.00000000000E+00 0.  1.
          1    1    6    6  503    0 -0.19205552160E+02 -0.70376741038E+02  0.27940230619E+03  0.28876874419E+03  0.00000000000E+00 0. -1.
         -1    1    6    6    0  503 -0.70185214939E+02 -0.10790374662E+03  0.19176091245E+03  0.23095763783E+03  0.00000000000E+00 0.  1.
<mgrwt>
<rscale>  0 0.21915092E+04</rscale>
<asrwt>0</asrwt>
<pdfrwt beam="1">  1        1 0.28210063E+00 0.21915092E+04</pdfrwt>
<pdfrwt beam="2">  1       -2 0.10073858E+00 0.21915092E+04</pdfrwt>
<totfact> 0.25138272E+00</totfact>
</mgrwt>
</event>
<event>
12    4  0.4183215E-008  0.1438962E+04  0.7818608E-02  0.8926089E-01
          1   -1    0    0  501    0  0.00000000000E+00  0.00000000000E+00  0.15670721041E+04  0.15670721041E+04  0.00000000000E+00 0. -1.
         -2   -1    0    0    0  501 -0.00000000000E+00 -0.00000000000E+00 -0.33033127970E+03  0.33033127970E+03  0.00000000000E+00 0.  1.
        -24    2    1    2    0    0  0.72975957774E+02 -0.20054744454E+03  0.86732443688E+03  0.89698697913E+03  0.82396565405E+02 0.  0.
        254    2    1    2    0    0 -0.72975957774E+02  0.20054744454E+03  0.36941638750E+03  0.10004164047E+04  0.90488659368E+03 0.  0.
         23    2    4    4    0    0 -0.38091452275E+02  0.34413911244E+02  0.65106882013E+03  0.65903957184E+03  0.88358772560E+02 0.  0.
         23    2    4    4    0    0 -0.34884505499E+02  0.16613353329E+03 -0.28165243263E+03  0.34137683281E+03  0.91612060153E+02 0.  0.
          1    1    3    3  502    0  0.52036389181E+02 -0.20113199561E+03  0.79381265894E+03  0.82054884252E+03  0.00000000000E+00 0. -1.
         -2    1    3    3    0  502  0.20939568593E+02  0.58455107812E+00  0.73511777937E+02  0.76438136609E+02  0.00000000000E+00 0.  1.
         11    1    5    5    0    0 -0.61722954624E+01  0.18348489172E+02  0.57135305213E+03  0.57168092015E+03  0.00000000000E+00 0.  1.
        -11    1    5    5    0    0 -0.31919156813E+02  0.16065422071E+02  0.79715768001E+02  0.87358651695E+02  0.00000000000E+00 0. -1.
          1    1    6    6  503    0 -0.39146254111E+02  0.62176945415E+02 -0.54341351046E+02  0.91385908025E+02  0.00000000000E+00 0. -1.
         -1    1    6    6    0  503  0.42617486127E+01  0.10395658788E+03 -0.22731108158E+03  0.24999092478E+03  0.00000000000E+00 0.  1.
<mgrwt>
<rscale>  0 0.14389620E+04</rscale>
<asrwt>0</asrwt>
<pdfrwt beam="1">  1        1 0.24108801E+00 0.14389620E+04</pdfrwt>
<pdfrwt beam="2">  1       -2 0.50820198E-01 0.14389620E+04</pdfrwt>
<totfact> 0.18356848E+01</totfact>
</mgrwt>
</event>
<event>
12    4  0.4183215E-008  0.2406335E+04  0.7818608E-02  0.8437136E-01
         -2   -1    0    0    0  501 -0.00000000000E+00  0.00000000000E+00  0.10317292052E+04  0.10317292052E+04  0.00000000000E+00 0.  1.
          1   -1    0    0  501    0  0.00000000000E+00 -0.00000000000E+00 -0.14030925940E+04  0.14030925940E+04  0.00000000000E+00 0. -1.
        -24    2    1    2    0    0  0.49584377304E+02  0.10050340082E+04 -0.39981210679E+03  0.10860548257E+04  0.84340949216E+02 0.  0.
        254    2    1    2    0    0 -0.49584377304E+02 -0.10050340082E+04  0.28448718022E+02  0.13487669735E+04  0.89766978959E+03 0.  0.
         23    2    4    4    0    0  0.10736748518E+03 -0.63231206331E+03 -0.39174736481E+03  0.75777827697E+03  0.97033998866E+02 0.  0.
         23    2    4    4    0    0 -0.15695186249E+03 -0.37272194487E+03  0.42019608283E+03  0.59098869652E+03  0.95641811279E+02 0.  0.
          1    1    3    3  502    0  0.30996618222E+02  0.40905739426E+03 -0.12015824331E+03  0.42746549051E+03  0.00000000000E+00 0. -1.
         -2    1    3    3    0  502  0.18587759081E+02  0.59597661392E+03 -0.27965386348E+03  0.65858933523E+03  0.00000000000E+00 0.  1.
         11    1    5    5    0    0  0.27110177516E+02 -0.31868666927E+03 -0.24208942828E+03  0.40112771804E+03  0.00000000000E+00 0.  1.
        -11    1    5    5    0    0  0.80257307666E+02 -0.31362539404E+03 -0.14965793652E+03  0.35665055893E+03  0.00000000000E+00 0. -1.
          2    1    6    6  503    0 -0.14541516154E+03 -0.24116992279E+03  0.25902557964E+03  0.38262612531E+03  0.00000000000E+00 0. -1.
         -2    1    6    6    0  503 -0.11536700944E+02 -0.13155202208E+03  0.16117050318E+03  0.20836257120E+03  0.00000000000E+00 0.  1.
<mgrwt>
<rscale>  0 0.24063346E+04</rscale>
<asrwt>0</asrwt>
<pdfrwt beam="1">  1        1 0.21586040E+00 0.24063346E+04</pdfrwt>
<pdfrwt beam="2">  1       -2 0.15872757E+00 0.24063346E+04</pdfrwt>
<totfact> 0.15472426E+00</totfact>
</mgrwt>
</event>
<event>
12    4  0.4183215E-008  0.1602926E+04  0.7818608E-02  0.8818752E-01
         -2   -1    0    0    0  501 -0.00000000000E+00  0.00000000000E+00  0.21306692433E+03  0.21306692433E+03  0.00000000000E+00 0.  1.
          1   -1    0    0  501    0  0.00000000000E+00 -0.00000000000E+00 -0.30147476985E+04  0.30147476985E+04  0.00000000000E+00 0. -1.
        -24    2    1    2    0    0 -0.48142102562E+02  0.25742672941E+03 -0.19280573468E+04  0.19473305361E+04  0.78133866715E+02 0.  0.
        254    2    1    2    0    0  0.48142102562E+02 -0.25742672941E+03 -0.87362342739E+03  0.12804840868E+04  0.89879665138E+03 0.  0.
         23    2    4    4    0    0  0.23318477763E+03  0.65170355336E+02 -0.85802054032E+03  0.89717844252E+03  0.10053653258E+03 0.  0.
         23    2    4    4    0    0 -0.18504267506E+03 -0.32259708475E+03 -0.15602887064E+02  0.38330564424E+03  0.91488229510E+02 0.  0.
          3    1    3    3  502    0 -0.27850115191E+02  0.24971475582E+03 -0.17985842116E+04  0.18160501795E+04  0.00000000000E+00 0. -1.
         -4    1    3    3    0  502 -0.20291987371E+02  0.77119735957E+01 -0.12947313522E+03  0.13128035661E+03  0.00000000000E+00 0.  1.
         11    1    5    5    0    0  0.24083816963E+02  0.37644771602E+02 -0.24100083649E+03  0.24510928635E+03  0.00000000000E+00 0. -1.
        -11    1    5    5    0    0  0.20910096066E+03  0.27525583734E+02 -0.61701970383E+03  0.65206915617E+03  0.00000000000E+00 0.  1.
          1    1    6    6  503    0 -0.47298451710E+02 -0.17422388932E+03 -0.66294905309E+01  0.18065175695E+03  0.00000000000E+00 0. -1.
         -1    1    6    6    0  503 -0.13774422335E+03 -0.14837319543E+03 -0.89733965334E+01  0.20265388729E+03  0.00000000000E+00 0.  1.
<mgrwt>
<rscale>  0 0.16029261E+04</rscale>
<asrwt>0</asrwt>
<pdfrwt beam="1">  1        1 0.46380733E+00 0.16029261E+04</pdfrwt>
<pdfrwt beam="2">  1       -2 0.32779527E-01 0.16029261E+04</pdfrwt>
<totfact> 0.42855256E+00</totfact>
</mgrwt>
</event>
<event>
12    4  0.4183215E-008  0.2536233E+04  0.7818608E-02  0.8390190E-01
         -2   -1    0    0    0  501 -0.00000000000E+00  0.00000000000E+00  0.80553506281E+03  0.80553506281E+03  0.00000000000E+00 0.  1.
          1   -1    0    0  501    0  0.00000000000E+00 -0.00000000000E+00 -0.19963363435E+04  0.19963363435E+04  0.00000000000E+00 0. -1.
        -24    2    1    2    0    0  0.46047326314E+02 -0.71436482593E+03  0.41052567386E+03  0.82891021502E+03  0.78251868319E+02 0.  0.
        254    2    1    2    0    0 -0.46047326314E+02  0.71436482593E+03 -0.16013269546E+04  0.19729611913E+04  0.90326650897E+03 0.  0.
         23    2    4    4    0    0  0.28521711992E+03  0.42522924538E+03 -0.31047915089E+03  0.60559992959E+03  0.90472398918E+02 0.  0.
         23    2    4    4    0    0 -0.33126444623E+03  0.28913558055E+03 -0.12908478037E+04  0.13673612617E+04  0.10026589908E+03 0.  0.
          1    1    3    3  502    0  0.37541672224E+02 -0.17642494219E+03  0.12848427229E+03  0.22145732232E+03  0.00000000000E+00 0. -1.
         -2    1    3    3    0  502  0.85056540905E+01 -0.53793988373E+03  0.28204140156E+03  0.60745289271E+03  0.00000000000E+00 0.  1.
         11    1    5    5    0    0  0.88059922946E+02  0.66856167095E+02 -0.75497202312E+02  0.13388100935E+03  0.00000000000E+00 0.  1.
        -11    1    5    5    0    0  0.19715719697E+03  0.35837307829E+03 -0.23498194858E+03  0.47171892024E+03  0.00000000000E+00 0. -1.
          3    1    6    6  503    0 -0.33963706876E+02  0.58370080102E+02 -0.29849999081E+03  0.30604385985E+03  0.00000000000E+00 0. -1.
         -3    1    6    6    0  503 -0.29730073935E+03  0.23076550044E+03 -0.99234781287E+03  0.10613174019E+04  0.00000000000E+00 0.  1.
<mgrwt>
<rscale>  0 0.25362326E+04</rscale>
<asrwt>0</asrwt>
<pdfrwt beam="1">  1        1 0.30712866E+00 0.25362326E+04</pdfrwt>
<pdfrwt beam="2">  1       -2 0.12392847E+00 0.25362326E+04</pdfrwt>
<totfact> 0.11428101E+00</totfact>
</mgrwt>
</event>
<event>
12    4  0.4183215E-008  0.1776393E+04  0.7818608E-02  0.8718955E-01
         -2   -1    0    0    0  501 -0.00000000000E+00  0.00000000000E+00  0.14148556546E+04  0.14148556546E+04  0.00000000000E+00 0.  1.
          1   -1    0    0  501    0  0.00000000000E+00 -0.00000000000E+00 -0.55757841929E+03  0.55757841929E+03  0.00000000000E+00 0. -1.
        -24    2    1    2    0    0 -0.21781376852E+03  0.33521862357E+03  0.90282260579E+03  0.99044892827E+03  0.78013195268E+02 0.  0.
        254    2    1    2    0    0  0.21781376852E+03 -0.33521862357E+03 -0.45545370480E+02  0.98198514563E+03  0.89577122197E+03 0.  0.
         23    2    4    4    0    0 -0.27990305508E+02  0.14381617955E+03 -0.32403400887E+03  0.36710261596E+03  0.91102914539E+02 0.  0.
         23    2    4    4    0    0  0.24580407403E+03 -0.47903480312E+03  0.27848863839E+03  0.61488252967E+03  0.10310488915E+03 0.  0.
          1    1    3    3  502    0  0.26243904581E+01 -0.57777016741E+00  0.24320618320E+02  0.24468627242E+02  0.00000000000E+00 0. -1.
         -2    1    3    3    0  502 -0.22043815898E+03  0.33579639374E+03  0.87850198747E+03  0.96598030103E+03  0.00000000000E+00 0.  1.
         11    1    5    5    0    0 -0.52314401768E+02  0.50349707329E+02 -0.10433983745E+03  0.12711684129E+03  0.00000000000E+00 0.  1.
        -11    1    5    5    0    0  0.24324096260E+02  0.93466472226E+02 -0.21969417141E+03  0.23998577466E+03  0.00000000000E+00 0. -1.
          3    1    6    6  503    0  0.40110579408E+02 -0.17527092835E+03  0.70187567801E+02  0.19301567703E+03  0.00000000000E+00 0. -1.
         -3    1    6    6    0  503  0.20569349462E+03 -0.30376387477E+03  0.20830107058E+03  0.42186685264E+03  0.00000000000E+00 0.  1.
<mgrwt>
<rscale>  0 0.17763930E+04</rscale>
<asrwt>0</asrwt>
<pdfrwt beam="1">  1        1 0.85781296E-01 0.17763930E+04</pdfrwt>
<pdfrwt beam="2">  1       -2 0.21767010E+00 0.17763930E+04</pdfrwt>
<totfact> 0.32174164E+00</totfact>
</mgrwt>
</event>
<event>
12    4  0.4183215E-008  0.1528276E+04  0.7818608E-02  0.8865865E-01
         -2   -1    0    0    0  501 -0.00000000000E+00  0.00000000000E+00  0.34626429792E+03  0.34626429792E+03  0.00000000000E+00 0.  1.
          1   -1    0    0  501    0  0.00000000000E+00 -0.00000000000E+00 -0.16863030333E+04  0.16863030333E+04  0.00000000000E+00 0. -1.
        -24    2    1    2    0    0 -0.39531715709E+03  0.52858981535E+00 -0.81964950963E+03  0.91324417598E+03  0.76900404582E+02 0.  0.
        254    2    1    2    0    0  0.39531715709E+03 -0.52858981535E+00 -0.52038922578E+03  0.11193231553E+04  0.90873728081E+03 0.  0.
         23    2    4    4    0    0  0.80810524050E+02 -0.16890153580E+03 -0.68525112172E+03  0.71624158710E+03  0.91514161088E+02 0.  0.
         23    2    4    4    0    0  0.31450663304E+03  0.16837294598E+03  0.16486189594E+03  0.40308156817E+03  0.89618272150E+02 0.  0.
          3    1    3    3  502    0 -0.22355259102E+03  0.37439940268E+02 -0.44209217874E+03  0.49681284664E+03  0.00000000000E+00 0. -1.
         -2    1    3    3    0  502 -0.17176456607E+03 -0.36911350452E+02 -0.37755733089E+03  0.41643132934E+03  0.00000000000E+00 0.  1.
         11    1    5    5    0    0  0.20869437419E+02 -0.62809455821E+02 -0.40884248504E+03  0.41416511047E+03  0.00000000000E+00 0. -1.
        -11    1    5    5    0    0  0.59941086631E+02 -0.10609207997E+03 -0.27640863668E+03  0.30207647663E+03  0.00000000000E+00 0.  1.
          4    1    6    6  503    0  0.60753931922E+02 -0.14411385965E+01  0.13328099612E+02  0.62215394909E+02  0.00000000000E+00 0.  1.
         -4    1    6    6    0  503  0.25375270112E+03  0.16981408458E+03  0.15153379633E+03  0.34086617326E+03  0.00000000000E+00 0. -1.
<mgrwt>
<rscale>  0 0.15282755E+04</rscale>
<asrwt>0</asrwt>
<pdfrwt beam="1">  1        1 0.25943123E+00 0.15282755E+04</pdfrwt>
<pdfrwt beam="2">  1       -2 0.53271431E-01 0.15282755E+04</pdfrwt>
<totfact> 0.13704145E+01</totfact>
</mgrwt>
</event>
<event>
12    4  0.4183215E-008  0.1551428E+04  0.7818608E-02  0.8850956E-01
          1   -1    0    0  501    0  0.00000000000E+00  0.00000000000E+00  0.55585049330E+03  0.55585049330E+03  0.00000000000E+00 0. -1.
         -2   -1    0    0    0  501 -0.00000000000E+00 -0.00000000000E+00 -0.10825432704E+04  0.10825432704E+04  0.00000000000E+00 0.  1.
        -24    2    1    2    0    0 -0.14118387191E+02  0.13975045628E+03 -0.70881293199E+03  0.72710180833E+03  0.80819231834E+02 0.  0.
        254    2    1    2    0    0  0.14118387191E+02 -0.13975045628E+03  0.18212015485E+03  0.91129195541E+03  0.88179122150E+03 0.  0.
         23    2    4    4    0    0 -0.82644411431E+02  0.26819298738E+03 -0.18383743362E+03  0.34759254852E+03  0.90921947636E+02 0.  0.
         23    2    4    4    0    0  0.96762798622E+02 -0.40794344366E+03  0.36595758847E+03  0.56369940690E+03  0.89728325274E+02 0.  0.
          1    1    3    3  502    0 -0.98427190513E+01  0.77059098285E+01 -0.23165392399E+03  0.23199094953E+03  0.00000000000E+00 0. -1.
         -2    1    3    3    0  502 -0.42756681393E+01  0.13204454645E+03 -0.47715900801E+03  0.49511085881E+03  0.00000000000E+00 0.  1.
         11    1    5    5    0    0 -0.38675895466E+02  0.34556029775E+02 -0.60756616627E+02  0.79883105522E+02  0.00000000000E+00 0.  1.
        -11    1    5    5    0    0 -0.43968515965E+02  0.23363695761E+03 -0.12308081699E+03  0.26770944299E+03  0.00000000000E+00 0. -1.
          1    1    6    6  503    0 -0.81580703907E+01 -0.14584539380E+02  0.35912794420E+02  0.39610499927E+02  0.00000000000E+00 0.  1.
         -1    1    6    6    0  503  0.10492086901E+03 -0.39335890428E+03  0.33004479405E+03  0.52408890697E+03  0.00000000000E+00 0. -1.
<mgrwt>
<rscale>  0 0.15514280E+04</rscale>
<asrwt>0</asrwt>
<pdfrwt beam="1">  1        1 0.85515461E-01 0.15514280E+04</pdfrwt>
<pdfrwt beam="2">  1       -2 0.16654512E+00 0.15514280E+04</pdfrwt>
<totfact> 0.72609940E+00</totfact>
</mgrwt>
</event>
<event>
12    4  0.4183215E-008  0.1505953E+04  0.7818608E-02  0.8880504E-01
          1   -1    0    0  501    0  0.00000000000E+00  0.00000000000E+00  0.98762798309E+03  0.98762798309E+03  0.00000000000E+00 0. -1.
         -2   -1    0    0    0  501 -0.00000000000E+00 -0.00000000000E+00 -0.57407598282E+03  0.57407598282E+03  0.00000000000E+00 0.  1.
        -24    2    1    2    0    0 -0.10640897325E+03 -0.29193378313E+03  0.51465400652E+03  0.60659588103E+03  0.80880239405E+02 0.  0.
        254    2    1    2    0    0  0.10640897325E+03  0.29193378313E+03 -0.10110200625E+03  0.95510808489E+03  0.89747514441E+03 0.  0.
         23    2    4    4    0    0 -0.36439887299E+03  0.11766782193E+03 -0.19373418264E+03  0.43670300878E+03  0.80897029608E+02 0.  0.
         23    2    4    4    0    0  0.47080784624E+03  0.17426596120E+03  0.92632176394E+02  0.51840507611E+03  0.90191183134E+02 0.  0.
          3    1    3    3  502    0 -0.76025509535E+02 -0.27475421554E+03  0.47282342053E+03  0.55211569808E+03  0.00000000000E+00 0. -1.
         -4    1    3    3    0  502 -0.30383463716E+02 -0.17179567589E+02  0.41830585990E+02  0.54480182949E+02  0.00000000000E+00 0.  1.
         11    1    5    5    0    0 -0.21955130620E+03  0.10073485326E+03 -0.15045672820E+03  0.28458305251E+03  0.00000000000E+00 0. -1.
        -11    1    5    5    0    0 -0.14484756679E+03  0.16932968674E+02 -0.43277454446E+02  0.15211995627E+03  0.00000000000E+00 0.  1.
          3    1    6    6  503    0  0.45305568565E+03  0.14986917918E+03  0.73893200270E+02  0.48288759584E+03  0.00000000000E+00 0. -1.
         -3    1    6    6    0  503  0.17752160590E+02  0.24396782017E+02  0.18738976124E+02  0.35517480268E+02  0.00000000000E+00 0.  1.
<mgrwt>
<rscale>  0 0.15059529E+04</rscale>
<asrwt>0</asrwt>
<pdfrwt beam="1">  1        1 0.15194277E+00 0.15059529E+04</pdfrwt>
<pdfrwt beam="2">  1       -2 0.88319382E-01 0.15059529E+04</pdfrwt>
<totfact> 0.14476172E+01</totfact>
</mgrwt>
</event>
<event>
12    4  0.4183215E-008  0.1404953E+04  0.7818608E-02  0.8950241E-01
          1   -1    0    0  501    0  0.00000000000E+00  0.00000000000E+00  0.23759075427E+04  0.23759075427E+04  0.00000000000E+00 0. -1.
         -2   -1    0    0    0  501 -0.00000000000E+00 -0.00000000000E+00 -0.20769880944E+03  0.20769880944E+03  0.00000000000E+00 0.  1.
        -24    2    1    2    0    0  0.27122566056E+03  0.27225957808E+03  0.48513491069E+03  0.62415265295E+03  0.80758998393E+02 0.  0.
        254    2    1    2    0    0 -0.27122566056E+03 -0.27225957808E+03  0.16830738226E+04  0.19594536992E+04  0.92684015358E+03 0.  0.
         23    2    4    4    0    0 -0.11157549255E+03 -0.32531625204E+03  0.17267138989E+04  0.17629842165E+04  0.91064287124E+02 0.  0.
         23    2    4    4    0    0 -0.15965016801E+03  0.53056673965E+02 -0.43640076309E+02  0.19646948277E+03  0.91611214395E+02 0.  0.
          3    1    3    3  502    0  0.16225124544E+03  0.14167530668E+03  0.32919513487E+03  0.39340411283E+03  0.00000000000E+00 0. -1.
         -4    1    3    3    0  502  0.10897441511E+03  0.13058427140E+03  0.15593977581E+03  0.23074854012E+03  0.00000000000E+00 0.  1.
         11    1    5    5    0    0 -0.11032151482E+03 -0.26242867955E+03  0.12420531273E+04  0.12742588510E+04  0.00000000000E+00 0. -1.
        -11    1    5    5    0    0 -0.12539777260E+01 -0.62887572496E+02  0.48466077165E+03  0.48872536543E+03  0.00000000000E+00 0.  1.
          4    1    6    6  503    0 -0.65951196673E+02  0.66455650700E+02 -0.35968934927E+01  0.93695525482E+02  0.00000000000E+00 0. -1.
         -4    1    6    6    0  503 -0.93698971337E+02 -0.13398976735E+02 -0.40043182816E+02  0.10277395729E+03  0.00000000000E+00 0.  1.
<mgrwt>
<rscale>  0 0.14049529E+04</rscale>
<asrwt>0</asrwt>
<pdfrwt beam="1">  1        1 0.36552422E+00 0.14049529E+04</pdfrwt>
<pdfrwt beam="2">  1       -2 0.31953665E-01 0.14049529E+04</pdfrwt>
<totfact> 0.12901211E+01</totfact>
</mgrwt>
</event>
<event>
12    4  0.4183215E-008  0.1760204E+04  0.7818608E-02  0.8727753E-01
          1   -1    0    0  501    0  0.00000000000E+00  0.00000000000E+00  0.86247443627E+03  0.86247443627E+03  0.00000000000E+00 0. -1.
         -2   -1    0    0    0  501 -0.00000000000E+00 -0.00000000000E+00 -0.89809018012E+03  0.89809018012E+03  0.00000000000E+00 0.  1.
        -24    2    1    2    0    0 -0.62580242723E+03 -0.23469436709E+02 -0.16964106371E+03  0.65381377236E+03  0.80714720160E+02 0.  0.
        254    2    1    2    0    0  0.62580242723E+03  0.23469436709E+02  0.13402531987E+03  0.11067508440E+04  0.90263788531E+03 0.  0.
         23    2    4    4    0    0  0.14793385536E+03  0.42900967592E+03  0.12704833501E+02  0.46198844823E+03  0.85663212101E+02 0.  0.
         23    2    4    4    0    0  0.47786857187E+03 -0.40554023921E+03  0.12132048637E+03  0.64476239580E+03  0.90435772882E+02 0.  0.
          3    1    3    3  502    0 -0.30083550920E+03  0.56544871265E+01 -0.11933296377E+03  0.32368863598E+03  0.00000000000E+00 0. -1.
         -4    1    3    3    0  502 -0.32496691803E+03 -0.29123923835E+02 -0.50308099941E+02  0.33012513639E+03  0.00000000000E+00 0.  1.
         11    1    5    5    0    0  0.10592161151E+03  0.23443384071E+03 -0.28123559965E+02  0.25878475241E+03  0.00000000000E+00 0. -1.
        -11    1    5    5    0    0  0.42012243846E+02  0.19457583521E+03  0.40828393465E+02  0.20320369582E+03  0.00000000000E+00 0.  1.
          2    1    6    6  503    0  0.21185213562E+03 -0.14949211884E+03  0.11447806167E+02  0.25953857753E+03  0.00000000000E+00 0.  1.
         -2    1    6    6    0  503  0.26601643625E+03 -0.25604812038E+03  0.10987268020E+03  0.38522381827E+03  0.00000000000E+00 0. -1.
<mgrwt>
<rscale>  0 0.17602043E+04</rscale>
<asrwt>0</asrwt>
<pdfrwt beam="1">  1        1 0.13268837E+00 0.17602043E+04</pdfrwt>
<pdfrwt beam="2">  1       -2 0.13816772E+00 0.17602043E+04</pdfrwt>
<totfact> 0.60262203E+00</totfact>
</mgrwt>
</event>
<event>
12    4  0.4183215E-008  0.2207719E+04  0.7818608E-02  0.8515222E-01
          1   -1    0    0  501    0  0.00000000000E+00  0.00000000000E+00  0.18186305830E+04  0.18186305830E+04  0.00000000000E+00 0. -1.
         -2   -1    0    0    0  501 -0.00000000000E+00 -0.00000000000E+00 -0.67001288108E+03  0.67001288108E+03  0.00000000000E+00 0.  1.
        -24    2    1    2    0    0 -0.43347081970E+03 -0.79029799091E+03  0.67401860322E+03  0.11283789983E+04  0.80437679635E+02 0.  0.
        254    2    1    2    0    0  0.43347081970E+03  0.79029799091E+03  0.47459909868E+03  0.13602644658E+04  0.90144730651E+03 0.  0.
         23    2    4    4    0    0  0.12767865832E+01  0.50039114953E+03 -0.16078443150E+03  0.53393799148E+03  0.94048990503E+02 0.  0.
         23    2    4    4    0    0  0.43219403311E+03  0.28990684138E+03  0.63538353018E+03  0.82632647430E+03  0.90915085437E+02 0.  0.
          3    1    3    3  502    0 -0.48417416703E+02 -0.94213042540E+02  0.11349459642E+03  0.15524614984E+03  0.00000000000E+00 0. -1.
         -4    1    3    3    0  502 -0.38505340299E+03 -0.69608494837E+03  0.56052400680E+03  0.97313284844E+03  0.00000000000E+00 0.  1.
         11    1    5    5    0    0 -0.14421304331E+02  0.56874304015E+02  0.78237115287E+01  0.59193504187E+02  0.00000000000E+00 0. -1.
        -11    1    5    5    0    0  0.15698090915E+02  0.44351684552E+03 -0.16860814303E+03  0.47474448729E+03  0.00000000000E+00 0.  1.
          3    1    6    6  503    0  0.12256237614E+03  0.43029873948E+02  0.12440877045E+03  0.17986285960E+03  0.00000000000E+00 0. -1.
         -3    1    6    6    0  503  0.30963165697E+03  0.24687696743E+03  0.51097475973E+03  0.64646361470E+03  0.00000000000E+00 0.  1.
<mgrwt>
<rscale>  0 0.22077191E+04</rscale>
<asrwt>0</asrwt>
<pdfrwt beam="1">  1        1 0.27978932E+00 0.22077191E+04</pdfrwt>
<pdfrwt beam="2">  1       -2 0.10307891E+00 0.22077191E+04</pdfrwt>
<totfact> 0.24328735E+00</totfact>
</mgrwt>
</event>
<event>
12    4  0.4183215E-008  0.1304649E+04  0.7818608E-02  0.9025887E-01
         -2   -1    0    0    0  501 -0.00000000000E+00  0.00000000000E+00  0.34718763849E+03  0.34718763849E+03  0.00000000000E+00 0.  1.
          1   -1    0    0  501    0  0.00000000000E+00 -0.00000000000E+00 -0.12256397409E+04  0.12256397409E+04  0.00000000000E+00 0. -1.
        -24    2    1    2    0    0  0.22956662932E+03 -0.17534129296E+03 -0.45394690502E+03  0.54350094507E+03  0.76681669261E+02 0.  0.
        254    2    1    2    0    0 -0.22956662932E+03  0.17534129296E+03 -0.42450519736E+03  0.10293264343E+04  0.89211145013E+03 0.  0.
         23    2    4    4    0    0  0.30566472305E+03  0.49550756384E+02  0.10634367012E+02  0.32230814236E+03  0.88787659583E+02 0.  0.
         23    2    4    4    0    0 -0.53523135237E+03  0.12579053658E+03 -0.43513956438E+03  0.70701829194E+03  0.90733483352E+02 0.  0.
          1    1    3    3  502    0  0.18975175322E+03 -0.11352433482E+03 -0.37706822945E+03  0.43712006600E+03  0.00000000000E+00 0. -1.
         -2    1    3    3    0  502  0.39814876096E+02 -0.61816958144E+02 -0.76878675579E+02  0.10638087907E+03  0.00000000000E+00 0.  1.
         11    1    5    5    0    0  0.52387685383E+01  0.18367502233E+02  0.67047020381E+01  0.20242600216E+02  0.00000000000E+00 0.  1.
        -11    1    5    5    0    0  0.30042595451E+03  0.31183254151E+02  0.39296649738E+01  0.30206554214E+03  0.00000000000E+00 0. -1.
          4    1    6    6  503    0 -0.18051867531E+03  0.43003219169E+02 -0.94223697341E+02  0.20812105644E+03  0.00000000000E+00 0.  1.
         -4    1    6    6    0  503 -0.35471267706E+03  0.82787317408E+02 -0.34091586703E+03  0.49889723550E+03  0.00000000000E+00 0. -1.
<mgrwt>
<rscale>  0 0.13046486E+04</rscale>
<asrwt>0</asrwt>
<pdfrwt beam="1">  1        1 0.18855996E+00 0.13046486E+04</pdfrwt>
<pdfrwt beam="2">  1       -2 0.53413483E-01 0.13046486E+04</pdfrwt>
<totfact> 0.29126659E+01</totfact>
</mgrwt>
</event>
<event>
12    4  0.4183215E-008  0.1482132E+04  0.7818608E-02  0.8896422E-01
          1   -1    0    0  501    0  0.00000000000E+00  0.00000000000E+00  0.17283637306E+04  0.17283637306E+04  0.00000000000E+00 0. -1.
         -2   -1    0    0    0  501 -0.00000000000E+00 -0.00000000000E+00 -0.31774504052E+03  0.31774504052E+03  0.00000000000E+00 0.  1.
        -24    2    1    2    0    0  0.34486372264E+03 -0.68998118539E+02  0.79768892840E+03  0.87551349881E+03  0.80774578590E+02 0.  0.
        254    2    1    2    0    0 -0.34486372264E+03  0.68998118539E+02  0.61292976167E+03  0.11705952723E+04  0.93323023484E+03 0.  0.
         23    2    4    4    0    0 -0.76583252220E+02 -0.26225351275E+03 -0.12488480153E+03  0.31361370300E+03  0.90085745738E+02 0.  0.
         23    2    4    4    0    0 -0.26828047042E+03  0.33125163129E+03  0.73781456320E+03  0.85698156930E+03  0.91351116089E+02 0.  0.
          1    1    3    3  502    0  0.23560283384E+03 -0.17718371877E+02  0.58593819744E+03  0.63178018902E+03  0.00000000000E+00 0. -1.
         -2    1    3    3    0  502  0.10926088880E+03 -0.51279746661E+02  0.21175073096E+03  0.24373330979E+03  0.00000000000E+00 0.  1.
         11    1    5    5    0    0 -0.94254544657E+02 -0.17699144380E+03 -0.90408616260E+02  0.21996274289E+03  0.00000000000E+00 0. -1.
        -11    1    5    5    0    0  0.17671292437E+02 -0.85262068946E+02 -0.34476185269E+02  0.93650960103E+02  0.00000000000E+00 0.  1.
          3    1    6    6  503    0 -0.11403873296E+03  0.20209585344E+03  0.34722455849E+03  0.41762717897E+03  0.00000000000E+00 0. -1.
         -3    1    6    6    0  503 -0.15424173746E+03  0.12915577785E+03  0.39059000471E+03  0.43935439033E+03  0.00000000000E+00 0.  1.
<mgrwt>
<rscale>  0 0.14821323E+04</rscale>
<asrwt>0</asrwt>
<pdfrwt beam="1">  1        1 0.26590211E+00 0.14821323E+04</pdfrwt>
<pdfrwt beam="2">  1       -2 0.48883853E-01 0.14821323E+04</pdfrwt>
<totfact> 0.15359749E+01</totfact>
</mgrwt>
</event>
<event>
12    4  0.4183215E-008  0.1327640E+04  0.7818608E-02  0.9007929E-01
          1   -1    0    0  501    0  0.00000000000E+00  0.00000000000E+00  0.36031515797E+03  0.36031515797E+03  0.00000000000E+00 0. -1.
         -2   -1    0    0    0  501 -0.00000000000E+00 -0.00000000000E+00 -0.12229758997E+04  0.12229758997E+04  0.00000000000E+00 0.  1.
        -24    2    1    2    0    0  0.26949506856E+02  0.18183880864E+03 -0.57793336980E+03  0.61204419675E+03  0.82459023736E+02 0.  0.
        254    2    1    2    0    0 -0.26949506856E+02 -0.18183880864E+03 -0.28472737189E+03  0.97124686089E+03  0.91019731939E+03 0.  0.
         23    2    4    4    0    0 -0.39042778888E+02  0.16374851062E+03 -0.51213444795E+03  0.54748749508E+03  0.95514141279E+02 0.  0.
         23    2    4    4    0    0  0.12093272032E+02 -0.34558731926E+03  0.22740707605E+03  0.42375936581E+03  0.91000985737E+02 0.  0.
          3    1    3    3  502    0 -0.25338846102E+02  0.43639903156E+02 -0.10373210647E+03  0.11535531276E+03  0.00000000000E+00 0. -1.
         -4    1    3    3    0  502  0.52288352958E+02  0.13819890548E+03 -0.47420126334E+03  0.49668888399E+03  0.00000000000E+00 0.  1.
         11    1    5    5    0    0 -0.61283916346E+02  0.15868058429E+03 -0.43594629702E+03  0.46795771189E+03  0.00000000000E+00 0.  1.
        -11    1    5    5    0    0  0.22241137458E+02  0.50679263293E+01 -0.76188150925E+02  0.79529783189E+02  0.00000000000E+00 0. -1.
          4    1    6    6  503    0 -0.16792871552E+01 -0.74222607598E+02  0.97608452461E+02  0.12263451992E+03  0.00000000000E+00 0. -1.
         -4    1    6    6    0  503  0.13772559187E+02 -0.27136471167E+03  0.12979862359E+03  0.30112484589E+03  0.00000000000E+00 0.  1.
<mgrwt>
<rscale>  0 0.13276396E+04</rscale>
<asrwt>0</asrwt>
<pdfrwt beam="1">  1        1 0.55433101E-01 0.13276396E+04</pdfrwt>
<pdfrwt beam="2">  1       -2 0.18815014E+00 0.13276396E+04</pdfrwt>
<totfact> 0.94060011E+00</totfact>
</mgrwt>
</event>
<event>
12    4  0.4183215E-008  0.1690051E+04  0.7818608E-02  0.8767059E-01
          1   -1    0    0  501    0  0.00000000000E+00  0.00000000000E+00  0.21032589651E+04  0.21032589651E+04  0.00000000000E+00 0. -1.
         -2   -1    0    0    0  501 -0.00000000000E+00 -0.00000000000E+00 -0.33950554520E+03  0.33950554520E+03  0.00000000000E+00 0.  1.
        -24    2    1    2    0    0 -0.43027496911E+03  0.42162381591E+03  0.58818931167E+03  0.84568130487E+03  0.79416697622E+02 0.  0.
        254    2    1    2    0    0  0.43027496911E+03 -0.42162381591E+03  0.11755641082E+04  0.15970832054E+04  0.89767510898E+03 0.  0.
         23    2    4    4    0    0 -0.96797723571E+02 -0.35190444975E+03  0.93152578527E+03  0.10047809765E+04  0.92940739720E+02 0.  0.
         23    2    4    4    0    0  0.52707269268E+03 -0.69719366157E+02  0.24403832293E+03  0.59230222887E+03  0.92740573040E+02 0.  0.
          1    1    3    3  502    0 -0.42047191728E+03  0.42246863002E+03  0.56860661100E+03  0.82376565518E+03  0.00000000000E+00 0. -1.
         -2    1    3    3    0  502 -0.98030518296E+01 -0.84481411331E+00  0.19582700667E+02  0.21915649693E+02  0.00000000000E+00 0.  1.
         11    1    5    5    0    0  0.76943112333E+01  0.34142928983E+00  0.35966845941E+02  0.36782237646E+02  0.00000000000E+00 0.  1.
        -11    1    5    5    0    0 -0.10449203480E+03 -0.35224587904E+03  0.89555893933E+03  0.96799873887E+03  0.00000000000E+00 0. -1.
          3    1    6    6  503    0  0.46810194611E+03 -0.74383117507E+02  0.18521307285E+03  0.50887735504E+03  0.00000000000E+00 0. -1.
         -3    1    6    6    0  503  0.58970746574E+02  0.46637513506E+01  0.58825250071E+02  0.83424873833E+02  0.00000000000E+00 0.  1.
<mgrwt>
<rscale>  0 0.16900510E+04</rscale>
<asrwt>0</asrwt>
<pdfrwt beam="1">  1        1 0.32357830E+00 0.16900510E+04</pdfrwt>
<pdfrwt beam="2">  1       -2 0.52231623E-01 0.16900510E+04</pdfrwt>
<totfact> 0.73395242E+00</totfact>
</mgrwt>
</event>
<event>
12    4  0.4183215E-008  0.2144821E+04  0.7818608E-02  0.8541752E-01
          1   -1    0    0  501    0  0.00000000000E+00  0.00000000000E+00  0.12964691280E+04  0.12964691280E+04  0.00000000000E+00 0. -1.
         -2   -1    0    0    0  501 -0.00000000000E+00 -0.00000000000E+00 -0.88707439533E+03  0.88707439533E+03  0.00000000000E+00 0.  1.
        -24    2    1    2    0    0  0.39952113741E+03  0.69037011609E+03  0.57519860763E+03  0.98663245712E+03  0.79762966352E+02 0.  0.
        254    2    1    2    0    0 -0.39952113741E+03 -0.69037011609E+03 -0.16580387493E+03  0.11969110662E+04  0.87685639594E+03 0.  0.
         23    2    4    4    0    0 -0.46710776684E+03  0.10684049131E+02 -0.74746005870E+02  0.48158846420E+03  0.89647469043E+02 0.  0.
         23    2    4    4    0    0  0.67586629433E+02 -0.70105416522E+03 -0.91057869062E+02  0.71532260204E+03  0.85732108431E+02 0.  0.
          1    1    3    3  502    0  0.36691832282E+03  0.66508568856E+03  0.53544175541E+03  0.92933626970E+03  0.00000000000E+00 0. -1.
         -2    1    3    3    0  502  0.32602814583E+02  0.25284427534E+02  0.39756852220E+02  0.57296187420E+02  0.00000000000E+00 0.  1.
         11    1    5    5    0    0 -0.29836609413E+03  0.41844670316E+02 -0.72916336899E+02  0.30998402337E+03  0.00000000000E+00 0. -1.
        -11    1    5    5    0    0 -0.16874167271E+03 -0.31160621185E+02 -0.18296689709E+01  0.17160444082E+03  0.00000000000E+00 0.  1.
          3    1    6    6  503    0 -0.65920044728E+01 -0.27788392909E+03 -0.10145469388E+02  0.27814719686E+03  0.00000000000E+00 0. -1.
         -3    1    6    6    0  503  0.74178633905E+02 -0.42317023613E+03 -0.80912399674E+02  0.43717540518E+03  0.00000000000E+00 0.  1.
<mgrwt>
<rscale>  0 0.21448213E+04</rscale>
<asrwt>0</asrwt>
<pdfrwt beam="1">  1        1 0.19945679E+00 0.21448213E+04</pdfrwt>
<pdfrwt beam="2">  1       -2 0.13647298E+00 0.21448213E+04</pdfrwt>
<totfact> 0.28064161E+00</totfact>
</mgrwt>
</event>
<event>
12    4  0.4183215E-008  0.4577584E+04  0.7818608E-02  0.7897193E-01
          1   -1    0    0  501    0  0.00000000000E+00  0.00000000000E+00  0.22362245214E+04  0.22362245214E+04  0.00000000000E+00 0. -1.
         -4   -1    0    0    0  501 -0.00000000000E+00 -0.00000000000E+00 -0.23425952085E+04  0.23425952085E+04  0.00000000000E+00 0.  1.
        -24    2    1    2    0    0 -0.30811925997E+03 -0.91612146793E+03 -0.20277682682E+04  0.22476480114E+04  0.76559852475E+02 0.  0.
        254    2    1    2    0    0  0.30811925997E+03  0.91612146793E+03  0.19213975811E+04  0.23311717185E+04  0.89909782232E+03 0.  0.
         23    2    4    4    0    0  0.13777016628E+03 -0.42732040912E+02 -0.46258693574E+01  0.17108871935E+03  0.91887459337E+02 0.  0.
         23    2    4    4    0    0  0.17034909369E+03  0.95885350884E+03  0.19260234504E+04  0.21600829991E+04  0.89293708453E+02 0.  0.
          1    1    3    3  502    0 -0.43038619953E+02 -0.13476840221E+03 -0.23851497786E+03  0.27731613676E+03  0.00000000000E+00 0. -1.
         -2    1    3    3    0  502 -0.26508064002E+03 -0.78135306572E+03 -0.17892532904E+04  0.19703318746E+04  0.00000000000E+00 0.  1.
         11    1    5    5    0    0  0.14490007688E+03 -0.18892599406E+02 -0.31061989945E+01  0.14615953977E+03  0.00000000000E+00 0. -1.
        -11    1    5    5    0    0 -0.71299106024E+01 -0.23839441506E+02 -0.15196703630E+01  0.24929179580E+02  0.00000000000E+00 0.  1.
          4    1    6    6  503    0  0.15964208449E+03  0.82115058620E+03  0.15862743353E+04  0.17933321353E+04  0.00000000000E+00 0. -1.
         -4    1    6    6    0  503  0.10707009195E+02  0.13770292264E+03  0.33974911510E+03  0.36675086389E+03  0.00000000000E+00 0.  1.
<mgrwt>
<rscale>  0 0.45775840E+04</rscale>
<asrwt>0</asrwt>
<pdfrwt beam="1">  1        1 0.34403454E+00 0.45775840E+04</pdfrwt>
<pdfrwt beam="2">  1       -4 0.36039926E+00 0.45775840E+04</pdfrwt>
<totfact> 0.93401693E-03</totfact>
</mgrwt>
</event>
<event>
12    4  0.4183215E-008  0.2596602E+04  0.7818608E-02  0.8369356E-01
         -2   -1    0    0    0  501 -0.00000000000E+00  0.00000000000E+00  0.10291692545E+04  0.10291692545E+04  0.00000000000E+00 0.  1.
          1   -1    0    0  501    0  0.00000000000E+00 -0.00000000000E+00 -0.16378122013E+04  0.16378122013E+04  0.00000000000E+00 0. -1.
        -24    2    1    2    0    0 -0.30568784902E+03  0.92408323693E+03  0.33908091990E+03  0.10338075121E+04  0.80045061846E+02 0.  0.
        254    2    1    2    0    0  0.30568784902E+03 -0.92408323693E+03 -0.94772386671E+03  0.16331739437E+04  0.90647764065E+03 0.  0.
         23    2    4    4    0    0  0.18484923432E+03 -0.67433793548E+03 -0.10998908406E+04  0.13064802276E+04  0.90718428813E+02 0.  0.
         23    2    4    4    0    0  0.12083861470E+03 -0.24974530145E+03  0.15216697384E+03  0.32669371609E+03  0.81236136066E+02 0.  0.
          3    1    3    3  502    0 -0.22359891130E+02  0.58104338297E+02  0.43360688341E+02  0.75869810555E+02  0.00000000000E+00 0. -1.
         -4    1    3    3    0  502 -0.28332795789E+03  0.86597889863E+03  0.29572023155E+03  0.95793770150E+03  0.00000000000E+00 0.  1.
         11    1    5    5    0    0  0.40560997643E+02 -0.30236947880E+03 -0.51169359076E+03  0.59573721310E+03  0.00000000000E+00 0.  1.
        -11    1    5    5    0    0  0.14428823668E+03 -0.37196845668E+03 -0.58819724979E+03  0.71074301450E+03  0.00000000000E+00 0. -1.
          3    1    6    6  503    0 -0.43746065319E+01 -0.10953617764E+02 -0.68762265388E+01  0.13652890384E+02  0.00000000000E+00 0. -1.
         -3    1    6    6    0  503  0.12521322123E+03 -0.23879168369E+03  0.15904320038E+03  0.31304082570E+03  0.00000000000E+00 0.  1.
<mgrwt>
<rscale>  0 0.25966024E+04</rscale>
<asrwt>0</asrwt>
<pdfrwt beam="1">  1        1 0.25197111E+00 0.25966024E+04</pdfrwt>
<pdfrwt beam="2">  1       -2 0.15833373E+00 0.25966024E+04</pdfrwt>
<totfact> 0.10542675E+00</totfact>
</mgrwt>
</event>
<event>
12    4  0.4183215E-008  0.2002659E+04  0.7818608E-02  0.8605378E-01
         -2   -1    0    0    0  501 -0.00000000000E+00  0.00000000000E+00  0.66451206482E+03  0.66451206482E+03  0.00000000000E+00 0.  1.
          1   -1    0    0  501    0  0.00000000000E+00 -0.00000000000E+00 -0.15088679185E+04  0.15088679185E+04  0.00000000000E+00 0. -1.
        -24    2    1    2    0    0  0.89577742127E+02  0.78242039243E+03 -0.47957195051E+03  0.92552408537E+03  0.79998340645E+02 0.  0.
        254    2    1    2    0    0 -0.89577742127E+02 -0.78242039243E+03 -0.36478390320E+03  0.12478558980E+04  0.89658864799E+03 0.  0.
         23    2    4    4    0    0 -0.35012154440E+03 -0.27049768721E+03  0.14512107281E+03  0.47443334523E+03  0.90954816554E+02 0.  0.
         23    2    4    4    0    0  0.26054380227E+03 -0.51192270522E+03 -0.50990497602E+03  0.77342255275E+03  0.90727236853E+02 0.  0.
          3    1    3    3  502    0 -0.57545146040E+01  0.33553712277E+02 -0.65741485899E+01  0.34672546425E+02  0.00000000000E+00 0. -1.
         -4    1    3    3    0  502  0.95332256731E+02  0.74886668015E+03 -0.47299780192E+03  0.89085153894E+03  0.00000000000E+00 0.  1.
         11    1    5    5    0    0 -0.32114651180E+03 -0.25723966317E+03  0.10779307063E+03  0.42535476067E+03  0.00000000000E+00 0.  1.
        -11    1    5    5    0    0 -0.28975032602E+02 -0.13258024035E+02  0.37328002179E+02  0.49078584559E+02  0.00000000000E+00 0. -1.
          1    1    6    6  503    0  0.19212544333E+02 -0.12437585290E+02 -0.52368455561E+01  0.23478499504E+02  0.00000000000E+00 0. -1.
         -1    1    6    6    0  503  0.24133125794E+03 -0.49948511993E+03 -0.50466813046E+03  0.74994405324E+03  0.00000000000E+00 0.  1.
<mgrwt>
<rscale>  0 0.20026592E+04</rscale>
<asrwt>0</asrwt>
<pdfrwt beam="1">  1        1 0.23213352E+00 0.20026592E+04</pdfrwt>
<pdfrwt beam="2">  1       -2 0.10223263E+00 0.20026592E+04</pdfrwt>
<totfact> 0.41145594E+00</totfact>
</mgrwt>
</event>
<event>
12    4  0.4183215E-008  0.2478685E+04  0.7818608E-02  0.8410619E-01
          1   -1    0    0  501    0  0.00000000000E+00  0.00000000000E+00  0.14414178266E+04  0.14414178266E+04  0.00000000000E+00 0. -1.
         -2   -1    0    0    0  501 -0.00000000000E+00 -0.00000000000E+00 -0.10655967957E+04  0.10655967957E+04  0.00000000000E+00 0.  1.
        -24    2    1    2    0    0  0.15071095908E+03  0.84668160549E+03 -0.48782073261E+03  0.99251760695E+03  0.86825103964E+02 0.  0.
        254    2    1    2    0    0 -0.15071095908E+03 -0.84668160549E+03  0.86364176346E+03  0.15144970154E+04  0.89902201289E+03 0.  0.
         23    2    4    4    0    0  0.30138144526E+03 -0.56485627754E+03  0.69428158512E+03  0.94859603963E+03  0.88961436200E+02 0.  0.
         23    2    4    4    0    0 -0.45209240434E+03 -0.28182532795E+03  0.16936017834E+03  0.56590097573E+03  0.88022649276E+02 0.  0.
          3    1    3    3  502    0  0.34449971612E+02  0.23670611035E+03 -0.18057833519E+03  0.29970838887E+03  0.00000000000E+00 0. -1.
         -4    1    3    3    0  502  0.11626098747E+03  0.60997549514E+03 -0.30724239742E+03  0.69280921808E+03  0.00000000000E+00 0.  1.
         11    1    5    5    0    0  0.28654214792E+03 -0.56081959904E+03  0.68553347141E+03  0.93090341369E+03  0.00000000000E+00 0.  1.
        -11    1    5    5    0    0  0.14839297342E+02 -0.40366785028E+01  0.87481137100E+01  0.17692625934E+02  0.00000000000E+00 0. -1.
          4    1    6    6  503    0 -0.41472585707E+02 -0.42371059106E+02  0.45369311659E+02  0.74656925033E+02  0.00000000000E+00 0. -1.
         -4    1    6    6    0  503 -0.41061981864E+03 -0.23945426884E+03  0.12399086668E+03  0.49124405070E+03  0.00000000000E+00 0.  1.
<mgrwt>
<rscale>  0 0.24786853E+04</rscale>
<asrwt>0</asrwt>
<pdfrwt beam="1">  1        1 0.22175659E+00 0.24786853E+04</pdfrwt>
<pdfrwt beam="2">  1       -2 0.16393797E+00 0.24786853E+04</pdfrwt>
<totfact> 0.13233945E+00</totfact>
</mgrwt>
</event>
<event>
12    4  0.4183215E-008  0.1756297E+04  0.7818608E-02  0.8729892E-01
          1   -1    0    0  501    0  0.00000000000E+00  0.00000000000E+00  0.20503042176E+04  0.20503042176E+04  0.00000000000E+00 0. -1.
         -2   -1    0    0    0  501 -0.00000000000E+00 -0.00000000000E+00 -0.37611227849E+03  0.37611227849E+03  0.00000000000E+00 0.  1.
        -24    2    1    2    0    0  0.61646250500E+03 -0.18044018458E+03  0.68280525128E+03  0.94172174967E+03  0.89622331784E+02 0.  0.
        254    2    1    2    0    0 -0.61646250500E+03  0.18044018458E+03  0.99138668784E+03  0.14846947464E+04  0.89938103434E+03 0.  0.
         23    2    4    4    0    0 -0.84518076093E+02  0.36166843747E+03  0.51578402349E+02  0.38588200227E+03  0.91089100533E+02 0.  0.
         23    2    4    4    0    0 -0.53194442891E+03 -0.18122825289E+03  0.93980828549E+03  0.10988127442E+04  0.91330598084E+02 0.  0.
          1    1    3    3  502    0  0.69543475361E+02  0.44818385923E+01  0.54708569159E+02  0.88596892620E+02  0.00000000000E+00 0. -1.
         -2    1    3    3    0  502  0.54691902964E+03 -0.18492202317E+03  0.62809668212E+03  0.85312485706E+03  0.00000000000E+00 0.  1.
         11    1    5    5    0    0 -0.45362385500E+02  0.30803695714E+03  0.65157357471E+02  0.31810374756E+03  0.00000000000E+00 0. -1.
        -11    1    5    5    0    0 -0.39155690593E+02  0.53631480331E+02 -0.13578955122E+02  0.67778254703E+02  0.00000000000E+00 0.  1.
          3    1    6    6  503    0 -0.52408408734E+03 -0.17185294783E+03  0.88610514513E+03  0.10437336320E+04  0.00000000000E+00 0. -1.
         -3    1    6    6    0  503 -0.78603415737E+01 -0.93753050636E+01  0.53703140359E+02  0.55079112185E+02  0.00000000000E+00 0.  1.
<mgrwt>
<rscale>  0 0.17562968E+04</rscale>
<asrwt>0</asrwt>
<pdfrwt beam="1">  1        1 0.31543141E+00 0.17562968E+04</pdfrwt>
<pdfrwt beam="2">  1       -2 0.57863429E-01 0.17562968E+04</pdfrwt>
<totfact> 0.64061621E+00</totfact>
</mgrwt>
</event>
<event>
12    4  0.4183215E-008  0.1659672E+04  0.7818608E-02  0.8784705E-01
         -2   -1    0    0    0  501 -0.00000000000E+00  0.00000000000E+00  0.38394117168E+03  0.38394117168E+03  0.00000000000E+00 0.  1.
          1   -1    0    0  501    0  0.00000000000E+00 -0.00000000000E+00 -0.17935762210E+04  0.17935762210E+04  0.00000000000E+00 0. -1.
        -24    2    1    2    0    0  0.42244735828E+03  0.40405616215E+03 -0.48913446845E+03  0.76643783351E+03  0.80319809009E+02 0.  0.
        254    2    1    2    0    0 -0.42244735828E+03 -0.40405616215E+03 -0.92050058087E+03  0.14110795592E+04  0.89560094365E+03 0.  0.
         23    2    4    4    0    0  0.16530904353E+03 -0.43493295665E+03 -0.42587864380E+03  0.63709742205E+03  0.89592127326E+02 0.  0.
         23    2    4    4    0    0 -0.58775640181E+03  0.30876794503E+02 -0.49462193707E+03  0.77398213713E+03  0.89367352283E+02 0.  0.
          1    1    3    3  502    0  0.27469026004E+03  0.29219603225E+03 -0.29353825555E+03  0.49698890098E+03  0.00000000000E+00 0. -1.
         -2    1    3    3    0  502  0.14775709824E+03  0.11186012990E+03 -0.19559621290E+03  0.26944893253E+03  0.00000000000E+00 0.  1.
         11    1    5    5    0    0  0.87954778499E+02 -0.16937662697E+03 -0.22620772535E+03  0.29596354477E+03  0.00000000000E+00 0. -1.
        -11    1    5    5    0    0  0.77354265034E+02 -0.26555632968E+03 -0.19967091846E+03  0.34113387728E+03  0.00000000000E+00 0.  1.
          2    1    6    6  503    0 -0.30187463664E+02 -0.10685075862E+02 -0.51140866920E+02  0.60339390766E+02  0.00000000000E+00 0. -1.
         -2    1    6    6    0  503 -0.55756893815E+03  0.41561870365E+02 -0.44348107015E+03  0.71364274636E+03  0.00000000000E+00 0.  1.
<mgrwt>
<rscale>  0 0.16596720E+04</rscale>
<asrwt>0</asrwt>
<pdfrwt beam="1">  1        1 0.27593480E+00 0.16596720E+04</pdfrwt>
<pdfrwt beam="2">  1       -2 0.59067872E-01 0.16596720E+04</pdfrwt>
<totfact> 0.92345386E+00</totfact>
</mgrwt>
</event>
<event>
12    4  0.4183215E-008  0.2619688E+04  0.7818608E-02  0.8361544E-01
         -2   -1    0    0    0  501 -0.00000000000E+00  0.00000000000E+00  0.59885023041E+03  0.59885023041E+03  0.00000000000E+00 0.  1.
          1   -1    0    0  501    0  0.00000000000E+00 -0.00000000000E+00 -0.28649762409E+04  0.28649762409E+04  0.00000000000E+00 0. -1.
        -24    2    1    2    0    0 -0.37612636778E+03 -0.10478202876E+04 -0.60957336850E+03  0.12718029191E+04  0.80650938046E+02 0.  0.
        254    2    1    2    0    0  0.37612636778E+03  0.10478202876E+04 -0.16565526419E+04  0.21920235522E+04  0.90631241743E+03 0.  0.
         23    2    4    4    0    0  0.64423468288E+03  0.75201676447E+03 -0.94917027509E+03  0.13746606567E+04  0.90554786349E+02 0.  0.
         23    2    4    4    0    0 -0.26810831510E+03  0.29580352314E+03 -0.70738236685E+03  0.81736289544E+03  0.91161927251E+02 0.  0.
          3    1    3    3  502    0 -0.47342097177E+02 -0.21179861380E+03 -0.13825594939E+03  0.25732204436E+03  0.00000000000E+00 0. -1.
         -4    1    3    3    0  502 -0.32878427060E+03 -0.83602167381E+03 -0.47131741912E+03  0.10144808748E+04  0.00000000000E+00 0.  1.
         11    1    5    5    0    0  0.56275091056E+02  0.10171107744E+03 -0.13592077806E+03  0.17884766439E+03  0.00000000000E+00 0.  1.
        -11    1    5    5    0    0  0.58795959182E+03  0.65030568703E+03 -0.81324949703E+03  0.11958129923E+04  0.00000000000E+00 0. -1.
          2    1    6    6  503    0 -0.20021490283E+03  0.16780665325E+03 -0.50356731247E+03  0.56729632325E+03  0.00000000000E+00 0. -1.
         -2    1    6    6    0  503 -0.67893412269E+02  0.12799686989E+03 -0.20381505438E+03  0.25006657219E+03  0.00000000000E+00 0.  1.
<mgrwt>
<rscale>  0 0.26196883E+04</rscale>
<asrwt>0</asrwt>
<pdfrwt beam="1">  1        1 0.44076558E+00 0.26196883E+04</pdfrwt>
<pdfrwt beam="2">  1       -2 0.92130804E-01 0.26196883E+04</pdfrwt>
<totfact> 0.57939317E-01</totfact>
</mgrwt>
</event>
<event>
12    4  0.4183215E-008  0.1389670E+04  0.7818608E-02  0.8961330E-01
          1   -1    0    0  501    0  0.00000000000E+00  0.00000000000E+00  0.97550131549E+03  0.97550131549E+03  0.00000000000E+00 0. -1.
         -2   -1    0    0    0  501 -0.00000000000E+00 -0.00000000000E+00 -0.49492037889E+03  0.49492037889E+03  0.00000000000E+00 0.  1.
        -24    2    1    2    0    0 -0.31699486383E+03  0.13595608605E+03 -0.70554761391E+02  0.36118905099E+03  0.80683053795E+02 0.  0.
        254    2    1    2    0    0  0.31699486383E+03 -0.13595608605E+03  0.55113569800E+03  0.11092326434E+04  0.89870835009E+03 0.  0.
         23    2    4    4    0    0 -0.30741643854E+03 -0.36041796010E+02  0.16044662701E+03  0.36025181675E+03  0.90743449409E+02 0.  0.
         23    2    4    4    0    0  0.62441130236E+03 -0.99914290042E+02  0.39068907098E+03  0.74898082664E+03  0.91989067897E+02 0.  0.
          3    1    3    3  502    0 -0.23560199595E+03  0.13365298040E+03 -0.38117433795E+02  0.27354041461E+03  0.00000000000E+00 0. -1.
         -4    1    3    3    0  502 -0.81392867880E+02  0.23031056500E+01 -0.32437327597E+02  0.87648636378E+02  0.00000000000E+00 0.  1.
         11    1    5    5    0    0 -0.12094149096E+03  0.23469938336E+02  0.88570868801E+02  0.15173160857E+03  0.00000000000E+00 0. -1.
        -11    1    5    5    0    0 -0.18647494758E+03 -0.59511734345E+02  0.71875758211E+02  0.20852020818E+03  0.00000000000E+00 0.  1.
          4    1    6    6  503    0 -0.63271391622E+00 -0.70537549201E+01  0.50247524770E+01  0.86835432185E+01  0.00000000000E+00 0. -1.
         -4    1    6    6    0  503  0.62504401628E+03 -0.92860535122E+02  0.38566431851E+03  0.74029728342E+03  0.00000000000E+00 0.  1.
<mgrwt>
<rscale>  0 0.13896697E+04</rscale>
<asrwt>0</asrwt>
<pdfrwt beam="1">  1        1 0.15007712E+00 0.13896697E+04</pdfrwt>
<pdfrwt beam="2">  1       -2 0.76141597E-01 0.13896697E+04</pdfrwt>
<totfact> 0.20894726E+01</totfact>
</mgrwt>
</event>
<event>
12    4  0.4183215E-008  0.1229737E+04  0.7818608E-02  0.9087219E-01
          1   -1    0    0  501    0  0.00000000000E+00  0.00000000000E+00  0.10332255314E+04  0.10332255314E+04  0.00000000000E+00 0. -1.
         -2   -1    0    0    0  501 -0.00000000000E+00 -0.00000000000E+00 -0.36590589251E+03  0.36590589251E+03  0.00000000000E+00 0.  1.
        -24    2    1    2    0    0 -0.23523481328E+03  0.14473287960E+03  0.19483046819E+03  0.34751129480E+03  0.80759921119E+02 0.  0.
        254    2    1    2    0    0  0.23523481328E+03 -0.14473287960E+03  0.47248917069E+03  0.10516201291E+04  0.89798432932E+03 0.  0.
         23    2    4    4    0    0  0.29223983484E+03 -0.55633256039E+02 -0.19689467320E+03  0.36802778643E+03  0.90430962658E+02 0.  0.
         23    2    4    4    0    0 -0.57005021554E+02 -0.89099623562E+02  0.66938384390E+03  0.68359234268E+03  0.89640644205E+02 0.  0.
          3    1    3    3  502    0 -0.13999904145E+03  0.99168087325E+02  0.16445416555E+03  0.23765355819E+03  0.00000000000E+00 0. -1.
         -4    1    3    3    0  502 -0.95235771831E+02  0.45564792276E+02  0.30376302638E+02  0.10985773661E+03  0.00000000000E+00 0.  1.
         11    1    5    5    0    0 -0.35769571749E+01  0.65057149164E+01 -0.26643601569E+00  0.74289930243E+01  0.00000000000E+00 0. -1.
        -11    1    5    5    0    0  0.29581679201E+03 -0.62138970956E+02 -0.19662823719E+03  0.36059879341E+03  0.00000000000E+00 0.  1.
          2    1    6    6  503    0 -0.62321348346E+02 -0.14918360799E+02  0.29176149695E+03  0.29871605088E+03  0.00000000000E+00 0. -1.
         -2    1    6    6    0  503  0.53163267924E+01 -0.74181262763E+02  0.37762234695E+03  0.38487629180E+03  0.00000000000E+00 0.  1.
<mgrwt>
<rscale>  0 0.12297371E+04</rscale>
<asrwt>0</asrwt>
<pdfrwt beam="1">  1        1 0.15895777E+00 0.12297371E+04</pdfrwt>
<pdfrwt beam="2">  1       -2 0.56293215E-01 0.12297371E+04</pdfrwt>
<totfact> 0.36563104E+01</totfact>
</mgrwt>
</event>
<event>
12    4  0.4183215E-008  0.1665747E+04  0.7818608E-02  0.8781145E-01
          1   -1    0    0  501    0  0.00000000000E+00  0.00000000000E+00  0.32266555473E+04  0.32266555473E+04  0.00000000000E+00 0. -1.
         -2   -1    0    0    0  501 -0.00000000000E+00 -0.00000000000E+00 -0.21498363563E+03  0.21498363563E+03  0.00000000000E+00 0.  1.
        -24    2    1    2    0    0  0.24464557284E+03  0.48453056979E+03  0.60735215036E+03  0.81836171276E+03  0.78853845824E+02 0.  0.
        254    2    1    2    0    0 -0.24464557284E+03 -0.48453056979E+03  0.24043197613E+04  0.26232774701E+04  0.89789188740E+03 0.  0.
         23    2    4    4    0    0  0.25001728071E+03 -0.34105701644E+03  0.56910109166E+03  0.71491490636E+03  0.91644648973E+02 0.  0.
         23    2    4    4    0    0 -0.49466285354E+03 -0.14347355334E+03  0.18352186696E+04  0.19083625638E+04  0.92434356843E+02 0.  0.
          1    1    3    3  502    0  0.18135736011E+03  0.37137137425E+03  0.50879859291E+03  0.65550224853E+03  0.00000000000E+00 0. -1.
         -2    1    3    3    0  502  0.63288212726E+02  0.11315919553E+03  0.98553557452E+02  0.16285946423E+03  0.00000000000E+00 0.  1.
         11    1    5    5    0    0  0.10615034314E+03 -0.17379367023E+03  0.34375378433E+03  0.39954824415E+03  0.00000000000E+00 0. -1.
        -11    1    5    5    0    0  0.14386693757E+03 -0.16726334622E+03  0.22534730733E+03  0.31536666221E+03  0.00000000000E+00 0.  1.
          1    1    6    6  503    0 -0.89529455903E+02 -0.43509695090E+02  0.24860590939E+03  0.26779379236E+03  0.00000000000E+00 0. -1.
         -1    1    6    6    0  503 -0.40513339764E+03 -0.99963858252E+02  0.15866127602E+04  0.16405687714E+04  0.00000000000E+00 0.  1.
<mgrwt>
<rscale>  0 0.16657468E+04</rscale>
<asrwt>0</asrwt>
<pdfrwt beam="1">  1        1 0.49640851E+00 0.16657468E+04</pdfrwt>
<pdfrwt beam="2">  1       -2 0.33074408E-01 0.16657468E+04</pdfrwt>
<totfact> 0.29207928E+00</totfact>
</mgrwt>
</event>
<event>
12    4  0.4183215E-008  0.2649827E+04  0.7818608E-02  0.8351470E-01
          1   -1    0    0  501    0  0.00000000000E+00  0.00000000000E+00  0.17667501516E+04  0.17667501516E+04  0.00000000000E+00 0. -1.
         -2   -1    0    0    0  501 -0.00000000000E+00 -0.00000000000E+00 -0.99357364003E+03  0.99357364003E+03  0.00000000000E+00 0.  1.
        -24    2    1    2    0    0  0.42121750012E+03  0.36004654073E+01  0.14750751502E+04  0.15362481996E+04  0.82308481075E+02 0.  0.
        254    2    1    2    0    0 -0.42121750012E+03 -0.36004654073E+01 -0.70189863868E+03  0.12240755921E+04  0.91008912220E+03 0.  0.
         23    2    4    4    0    0 -0.33682485417E+03  0.22452823229E+03 -0.83517981263E+03  0.93200686726E+03  0.85132671310E+02 0.  0.
         23    2    4    4    0    0 -0.84392645952E+02 -0.22812869770E+03  0.13328117395E+03  0.29206872480E+03  0.91517469768E+02 0.  0.
          1    1    3    3  502    0  0.34880317610E+03  0.24217604642E+02  0.11212398373E+04  0.11744909198E+04  0.00000000000E+00 0. -1.
         -2    1    3    3    0  502  0.72414324023E+02 -0.20617139234E+02  0.35383531296E+03  0.36175727975E+03  0.00000000000E+00 0.  1.
         11    1    5    5    0    0 -0.37615653057E+02  0.96573657866E+01 -0.40556057004E+02  0.56151543420E+02  0.00000000000E+00 0. -1.
        -11    1    5    5    0    0 -0.29920920111E+03  0.21487086650E+03 -0.79462375563E+03  0.87585532384E+03  0.00000000000E+00 0.  1.
          3    1    6    6  503    0  0.11028601367E+02 -0.55514802306E+02  0.50694283359E+01  0.56826247693E+02  0.00000000000E+00 0. -1.
         -3    1    6    6    0  503 -0.95421247319E+02 -0.17261389539E+03  0.12821174561E+03  0.23524247710E+03  0.00000000000E+00 0.  1.
<mgrwt>
<rscale>  0 0.26498275E+04</rscale>
<asrwt>0</asrwt>
<pdfrwt beam="1">  1        1 0.27180772E+00 0.26498275E+04</pdfrwt>
<pdfrwt beam="2">  1       -2 0.15285748E+00 0.26498275E+04</pdfrwt>
<totfact> 0.94228940E-01</totfact>
</mgrwt>
</event>
<event>
12    4  0.4183215E-008  0.1170347E+04  0.7818608E-02  0.9139215E-01
         -2   -1    0    0    0  501 -0.00000000000E+00  0.00000000000E+00  0.10731331694E+03  0.10731331694E+03  0.00000000000E+00 0.  1.
          1   -1    0    0  501    0  0.00000000000E+00 -0.00000000000E+00 -0.31909186393E+04  0.31909186393E+04  0.00000000000E+00 0. -1.
        -24    2    1    2    0    0 -0.17748724701E+03 -0.12572459341E+03 -0.83336649693E+03  0.86530638765E+03  0.83348845593E+02 0.  0.
        254    2    1    2    0    0  0.17748724701E+03  0.12572459341E+03 -0.22502388254E+04  0.24329255686E+04  0.89902372306E+03 0.  0.
         23    2    4    4    0    0 -0.14908734165E+03 -0.17027724618E+03 -0.15283100641E+03  0.28780667982E+03  0.90851485520E+02 0.  0.
         23    2    4    4    0    0  0.32657458866E+03  0.29600183959E+03 -0.20974078190E+04  0.21451188888E+04  0.90263152628E+02 0.  0.
          3    1    3    3  502    0 -0.54317943540E+02 -0.10063589033E+02 -0.11850194497E+03  0.13074565299E+03  0.00000000000E+00 0. -1.
         -4    1    3    3    0  502 -0.12316930347E+03 -0.11566100437E+03 -0.71486455196E+03  0.73456073465E+03  0.00000000000E+00 0.  1.
         11    1    5    5    0    0 -0.98417626884E+02 -0.13743343784E+03 -0.15213686917E+03  0.22741944965E+03  0.00000000000E+00 0.  1.
        -11    1    5    5    0    0 -0.50669714765E+02 -0.32843808342E+02 -0.69413723533E+00  0.60387230168E+02  0.00000000000E+00 0. -1.
          3    1    6    6  503    0  0.97587758354E+02  0.49580213036E+02 -0.64857642298E+03  0.65774839001E+03  0.00000000000E+00 0. -1.
         -3    1    6    6    0  503  0.22898683030E+03  0.24642162655E+03 -0.14488313960E+04  0.14873704987E+04  0.00000000000E+00 0.  1.
<mgrwt>
<rscale>  0 0.11703471E+04</rscale>
<asrwt>0</asrwt>
<pdfrwt beam="1">  1        1 0.49091055E+00 0.11703471E+04</pdfrwt>
<pdfrwt beam="2">  1       -2 0.16509741E-01 0.11703471E+04</pdfrwt>
<totfact> 0.11412573E+01</totfact>
</mgrwt>
</event>
<event>
12    4  0.4183215E-008  0.2169241E+04  0.7818608E-02  0.8531341E-01
         -2   -1    0    0    0  501 -0.00000000000E+00  0.00000000000E+00  0.85286150978E+03  0.85286150978E+03  0.00000000000E+00 0.  1.
          1   -1    0    0  501    0  0.00000000000E+00 -0.00000000000E+00 -0.13793583274E+04  0.13793583274E+04  0.00000000000E+00 0. -1.
        -24    2    1    2    0    0  0.95791148937E+02 -0.83706012381E+03 -0.54690418429E+03  0.10075694166E+04  0.79033837128E+02 0.  0.
        254    2    1    2    0    0 -0.95791148937E+02  0.83706012381E+03  0.20407366690E+02  0.12246504206E+04  0.88854183743E+03 0.  0.
         23    2    4    4    0    0 -0.10560001981E+03  0.34047330277E+03  0.43623200669E+03  0.57075583797E+03  0.91599284006E+02 0.  0.
         23    2    4    4    0    0  0.98088708730E+01  0.49658682103E+03 -0.41582464000E+03  0.65389458259E+03  0.89293387947E+02 0.  0.
          1    1    3    3  502    0  0.70153973693E+02 -0.75416656578E+03 -0.51092896249E+03  0.91363953158E+03  0.00000000000E+00 0. -1.
         -2    1    3    3    0  502  0.25637175244E+02 -0.82893558034E+02 -0.35975221796E+02  0.93929885027E+02  0.00000000000E+00 0.  1.
         11    1    5    5    0    0  0.16434716620E+02  0.59349402524E+02  0.72211339852E+02  0.94904842308E+02  0.00000000000E+00 0.  1.
        -11    1    5    5    0    0 -0.12203473643E+03  0.28112390025E+03  0.36402066684E+03  0.47585099566E+03  0.00000000000E+00 0. -1.
          4    1    6    6  503    0 -0.10233896984E+02  0.40005282286E+03 -0.37058727865E+03  0.54541903599E+03  0.00000000000E+00 0. -1.
         -4    1    6    6    0  503  0.20042767857E+02  0.96533998172E+02 -0.45237361350E+02  0.10847554659E+03  0.00000000000E+00 0.  1.
<mgrwt>
<rscale>  0 0.21692410E+04</rscale>
<asrwt>0</asrwt>
<pdfrwt beam="1">  1        1 0.21220897E+00 0.21692410E+04</pdfrwt>
<pdfrwt beam="2">  1       -2 0.13120946E+00 0.21692410E+04</pdfrwt>
<totfact> 0.27040458E+00</totfact>
</mgrwt>
</event>
<event>
12    4  0.4183215E-008  0.1228637E+04  0.7818608E-02  0.9088153E-01
          1   -1    0    0  501    0  0.00000000000E+00  0.00000000000E+00  0.49077120254E+03  0.49077120254E+03  0.00000000000E+00 0. -1.
         -2   -1    0    0    0  501 -0.00000000000E+00 -0.00000000000E+00 -0.76896779630E+03  0.76896779630E+03  0.00000000000E+00 0.  1.
        -24    2    1    2    0    0  0.19753099338E+03 -0.15823901366E+03 -0.17721000646E+03  0.31930082166E+03  0.80570152893E+02 0.  0.
        254    2    1    2    0    0 -0.19753099338E+03  0.15823901366E+03 -0.10098658729E+03  0.94043817717E+03  0.90009310379E+03 0.  0.
         23    2    4    4    0    0 -0.29234683096E+03  0.23918391526E+03  0.31299047191E+03  0.49877419104E+03  0.90205561059E+02 0.  0.
         23    2    4    4    0    0  0.94815837585E+02 -0.80944901607E+02 -0.41397705921E+03  0.44166398613E+03  0.90266001047E+02 0.  0.
          3    1    3    3  502    0  0.34217350076E+02 -0.97819988901E+00 -0.46034916338E+02  0.57367215755E+02  0.00000000000E+00 0. -1.
         -4    1    3    3    0  502  0.16331364330E+03 -0.15726081377E+03 -0.13117509013E+03  0.26193360591E+03  0.00000000000E+00 0.  1.
         11    1    5    5    0    0 -0.62697713606E+02  0.59388092492E+02  0.27469682850E+02  0.90623022997E+02  0.00000000000E+00 0.  1.
        -11    1    5    5    0    0 -0.22964911735E+03  0.17979582277E+03  0.28552078906E+03  0.40815116804E+03  0.00000000000E+00 0. -1.
          1    1    6    6  503    0 -0.46290659195E+01 -0.25448807542E+02 -0.17543874067E+03  0.17733533710E+03  0.00000000000E+00 0. -1.
         -1    1    6    6    0  503  0.99444903505E+02 -0.55496094065E+02 -0.23853831853E+03  0.26432864903E+03  0.00000000000E+00 0.  1.
<mgrwt>
<rscale>  0 0.12286370E+04</rscale>
<asrwt>0</asrwt>
<pdfrwt beam="1">  1        1 0.75503261E-01 0.12286370E+04</pdfrwt>
<pdfrwt beam="2">  1       -2 0.11830274E+00 0.12286370E+04</pdfrwt>
<totfact> 0.21600289E+01</totfact>
</mgrwt>
</event>
<event>
12    4  0.4183215E-008  0.1167307E+04  0.7818608E-02  0.9141964E-01
          3   -1    0    0  501    0  0.00000000000E+00  0.00000000000E+00  0.33512893519E+03  0.33512893519E+03  0.00000000000E+00 0. -1.
         -4   -1    0    0    0  501 -0.00000000000E+00 -0.00000000000E+00 -0.10164783230E+04  0.10164783230E+04  0.00000000000E+00 0.  1.
        -24    2    1    2    0    0  0.79461565224E+01  0.11013512439E+03  0.32103116982E+02  0.14095043484E+03  0.81507839701E+02 0.  0.
        254    2    1    2    0    0 -0.79461565224E+01 -0.11013512439E+03 -0.71345250481E+03  0.12106568234E+04  0.97184493636E+03 0.  0.
         23    2    4    4    0    0 -0.31576159780E+03 -0.38787693964E+03 -0.20120434719E+03  0.54545303955E+03  0.82957350970E+02 0.  0.
         23    2    4    4    0    0  0.30781544127E+03  0.27774181525E+03 -0.51224815762E+03  0.66520378382E+03  0.90592699518E+02 0.  0.
          1    1    3    3  502    0 -0.21930157085E+02  0.98945445185E+02  0.93747808636E+01  0.10177926817E+03  0.00000000000E+00 0. -1.
         -2    1    3    3    0  502  0.29876313607E+02  0.11189679206E+02  0.22728336119E+02  0.39171166669E+02  0.00000000000E+00 0.  1.
         11    1    5    5    0    0 -0.37673156954E+02 -0.48171874340E+02  0.30926869175E+01  0.61232025483E+02  0.00000000000E+00 0.  1.
        -11    1    5    5    0    0 -0.27808844084E+03 -0.33970506530E+03 -0.20429703411E+03  0.48422101407E+03  0.00000000000E+00 0. -1.
          3    1    6    6  503    0  0.27382501313E+03  0.27812803779E+03 -0.46750255256E+03  0.60901065661E+03  0.00000000000E+00 0. -1.
         -3    1    6    6    0  503  0.33990428145E+02 -0.38622254514E+00 -0.44745605062E+02  0.56193127210E+02  0.00000000000E+00 0.  1.
<mgrwt>
<rscale>  0 0.11673068E+04</rscale>
<asrwt>0</asrwt>
<pdfrwt beam="1">  1        3 0.51558299E-01 0.11673068E+04</pdfrwt>
<pdfrwt beam="2">  1       -4 0.15638128E+00 0.11673068E+04</pdfrwt>
<totfact> 0.22416105E+00</totfact>
</mgrwt>
</event>
<event>
12    4  0.4183215E-008  0.1439581E+04  0.7818608E-02  0.8925656E-01
          1   -1    0    0  501    0  0.00000000000E+00  0.00000000000E+00  0.24786553880E+04  0.24786553880E+04  0.00000000000E+00 0. -1.
         -2   -1    0    0    0  501 -0.00000000000E+00 -0.00000000000E+00 -0.20902382176E+03  0.20902382176E+03  0.00000000000E+00 0.  1.
        -24    2    1    2    0    0 -0.16859558553E+03 -0.25456281490E+03  0.12102147112E+03  0.33811078955E+03  0.80287055926E+02 0.  0.
        254    2    1    2    0    0  0.16859558553E+03  0.25456281490E+03  0.21486100951E+04  0.23495684202E+04  0.90039975685E+03 0.  0.
         23    2    4    4    0    0  0.50100347043E+03  0.29145996926E+02  0.89916302174E+03  0.10340107661E+04  0.93968921243E+02 0.  0.
         23    2    4    4    0    0 -0.33240788490E+03  0.22541681798E+03  0.12494470734E+04  0.13155576541E+04  0.90918691116E+02 0.  0.
          3    1    3    3  502    0 -0.65106290329E+02 -0.13772543813E+03  0.95929345086E+02  0.18002656636E+03  0.00000000000E+00 0. -1.
         -4    1    3    3    0  502 -0.10348929520E+03 -0.11683737678E+03  0.25092126030E+02  0.15808422319E+03  0.00000000000E+00 0.  1.
         11    1    5    5    0    0  0.38381987965E+03 -0.17084275599E+02  0.65914809838E+03  0.76294546862E+03  0.00000000000E+00 0. -1.
        -11    1    5    5    0    0  0.11718359078E+03  0.46230272525E+02  0.24001492336E+03  0.27106529745E+03  0.00000000000E+00 0.  1.
          2    1    6    6  503    0 -0.51025394304E+02 -0.34656786173E+00  0.15795563790E+03  0.16599305563E+03  0.00000000000E+00 0.  1.
         -2    1    6    6    0  503 -0.28138249059E+03  0.22576338584E+03  0.10914914355E+04  0.11495645985E+04  0.00000000000E+00 0. -1.
<mgrwt>
<rscale>  0 0.14395805E+04</rscale>
<asrwt>0</asrwt>
<pdfrwt beam="1">  1        1 0.38133158E+00 0.14395805E+04</pdfrwt>
<pdfrwt beam="2">  1       -2 0.32157513E-01 0.14395805E+04</pdfrwt>
<totfact> 0.10800000E+01</totfact>
</mgrwt>
</event>
<event>
12    4  0.4183215E-008  0.1369087E+04  0.7818608E-02  0.8976504E-01
         -2   -1    0    0    0  501 -0.00000000000E+00  0.00000000000E+00  0.44816868726E+03  0.44816868726E+03  0.00000000000E+00 0.  1.
          1   -1    0    0  501    0  0.00000000000E+00 -0.00000000000E+00 -0.10455877837E+04  0.10455877837E+04  0.00000000000E+00 0. -1.
        -24    2    1    2    0    0 -0.19038954295E+03 -0.49496911792E+02  0.18367450522E+03  0.28049380275E+03  0.79008399390E+02 0.  0.
        254    2    1    2    0    0  0.19038954295E+03  0.49496911792E+02 -0.78109360171E+03  0.12132626683E+04  0.90730422969E+03 0.  0.
         23    2    4    4    0    0  0.30416451881E+03 -0.36331652568E+03 -0.32477335684E+03  0.58158020043E+03  0.90790108977E+02 0.  0.
         23    2    4    4    0    0 -0.11377497586E+03  0.41281343747E+03 -0.45632024487E+03  0.63168246782E+03  0.86225837100E+02 0.  0.
          1    1    3    3  502    0 -0.88147847940E+02 -0.36268783787E+02  0.39328559979E+02  0.10311257636E+03  0.00000000000E+00 0. -1.
         -2    1    3    3    0  502 -0.10224169501E+03 -0.13228128005E+02  0.14434594524E+03  0.17738122639E+03  0.00000000000E+00 0.  1.
         11    1    5    5    0    0  0.23591769520E+03 -0.22682204015E+03 -0.24883069019E+03  0.41112298548E+03  0.00000000000E+00 0. -1.
        -11    1    5    5    0    0  0.68246823613E+02 -0.13649448553E+03 -0.75942666642E+02  0.17045721495E+03  0.00000000000E+00 0.  1.
          1    1    6    6  503    0 -0.79106727542E+02  0.37402116516E+03 -0.42168512046E+03  0.56918191042E+03  0.00000000000E+00 0. -1.
         -1    1    6    6    0  503 -0.34668248321E+02  0.38792272308E+02 -0.34635124414E+02  0.62500557403E+02  0.00000000000E+00 0.  1.
<mgrwt>
<rscale>  0 0.13690869E+04</rscale>
<asrwt>0</asrwt>
<pdfrwt beam="1">  1        1 0.16085966E+00 0.13690869E+04</pdfrwt>
<pdfrwt beam="2">  1       -2 0.68949028E-01 0.13690869E+04</pdfrwt>
<totfact> 0.22965890E+01</totfact>
</mgrwt>
</event>
<event>
12    4  0.4183215E-008  0.2087902E+04  0.7818608E-02  0.8566592E-01
          1   -1    0    0  501    0  0.00000000000E+00  0.00000000000E+00  0.19515417113E+04  0.19515417113E+04  0.00000000000E+00 0. -1.
         -2   -1    0    0    0  501 -0.00000000000E+00 -0.00000000000E+00 -0.55844742423E+03  0.55844742423E+03  0.00000000000E+00 0.  1.
        -24    2    1    2    0    0 -0.60486414283E+03 -0.56128601837E+03  0.80136572689E+03  0.11528777136E+04  0.77700505365E+02 0.  0.
        254    2    1    2    0    0  0.60486414283E+03  0.56128601837E+03  0.59172856016E+03  0.13571114219E+04  0.90039219060E+03 0.  0.
         23    2    4    4    0    0  0.73852853104E+03  0.40409714131E+03  0.15032707467E+03  0.86097755634E+03  0.99826010480E+02 0.  0.
         23    2    4    4    0    0 -0.13366438821E+03  0.15718887706E+03  0.44140148549E+03  0.49613386558E+03  0.93482776134E+02 0.  0.
          3    1    3    3  502    0 -0.57514880223E+03 -0.51576228794E+03  0.72748370236E+03  0.10611500457E+04  0.00000000000E+00 0. -1.
         -4    1    3    3    0  502 -0.29715340599E+02 -0.45523730436E+02  0.73882024522E+02  0.91727667839E+02  0.00000000000E+00 0.  1.
         11    1    5    5    0    0  0.21193810752E+03  0.14009812348E+03  0.43337175143E+01  0.25409452322E+03  0.00000000000E+00 0.  1.
        -11    1    5    5    0    0  0.52659042353E+03  0.26399901783E+03  0.14599335715E+03  0.60688303313E+03  0.00000000000E+00 0. -1.
          1    1    6    6  503    0 -0.13460218156E+03  0.16787220768E+03  0.42729263890E+03  0.47841177311E+03  0.00000000000E+00 0. -1.
         -1    1    6    6    0  503  0.93779335344E+00 -0.10683330614E+02  0.14108846591E+02  0.17722092470E+02  0.00000000000E+00 0.  1.
<mgrwt>
<rscale>  0 0.20879018E+04</rscale>
<asrwt>0</asrwt>
<pdfrwt beam="1">  1        1 0.30023718E+00 0.20879018E+04</pdfrwt>
<pdfrwt beam="2">  1       -2 0.85914989E-01 0.20879018E+04</pdfrwt>
<totfact> 0.30559819E+00</totfact>
</mgrwt>
</event>
<event>
12    4  0.4183215E-008  0.1693536E+04  0.7818608E-02  0.8765060E-01
          1   -1    0    0  501    0  0.00000000000E+00  0.00000000000E+00  0.46314801054E+03  0.46314801054E+03  0.00000000000E+00 0. -1.
         -2   -1    0    0    0  501 -0.00000000000E+00 -0.00000000000E+00 -0.15481354013E+04  0.15481354013E+04  0.00000000000E+00 0.  1.
        -24    2    1    2    0    0 -0.45349165420E+03 -0.23735188034E+03 -0.15529444824E+02  0.51826370778E+03  0.79784156366E+02 0.  0.
        254    2    1    2    0    0  0.45349165420E+03  0.23735188034E+03 -0.10694579459E+04  0.14930197040E+04  0.90740120289E+03 0.  0.
         23    2    4    4    0    0  0.32559646018E+03  0.39673300072E+03 -0.14437698985E+03  0.54125503426E+03  0.93285412401E+02 0.  0.
         23    2    4    4    0    0  0.12789519402E+03 -0.15938112038E+03 -0.92508095604E+03  0.95176466975E+03  0.91223292998E+02 0.  0.
          1    1    3    3  502    0 -0.33268477559E+03 -0.16627015260E+03 -0.46202478245E+02  0.37477939184E+03  0.00000000000E+00 0. -1.
         -2    1    3    3    0  502 -0.12080687861E+03 -0.71081727745E+02  0.30673033421E+02  0.14348431593E+03  0.00000000000E+00 0.  1.
         11    1    5    5    0    0  0.22873334068E+03  0.25776063529E+03 -0.13952135370E+03  0.37178716274E+03  0.00000000000E+00 0.  1.
        -11    1    5    5    0    0  0.96863119509E+02  0.13897236543E+03 -0.48556361557E+01  0.16946787152E+03  0.00000000000E+00 0. -1.
          1    1    6    6  503    0 -0.27092676859E+01  0.29706033085E+01 -0.56580476137E+00  0.40601416771E+01  0.00000000000E+00 0. -1.
         -1    1    6    6    0  503  0.13060446171E+03 -0.16235172369E+03 -0.92451515127E+03  0.94770452808E+03  0.00000000000E+00 0.  1.
<mgrwt>
<rscale>  0 0.16935357E+04</rscale>
<asrwt>0</asrwt>
<pdfrwt beam="1">  1        1 0.71253541E-01 0.16935357E+04</pdfrwt>
<pdfrwt beam="2">  1       -2 0.23817467E+00 0.16935357E+04</pdfrwt>
<totfact> 0.31169724E+00</totfact>
</mgrwt>
</event>
<event>
12    4  0.4183215E-008  0.2086837E+04  0.7818608E-02  0.8567064E-01
          1   -1    0    0  501    0  0.00000000000E+00  0.00000000000E+00  0.17227806923E+04  0.17227806923E+04  0.00000000000E+00 0. -1.
         -2   -1    0    0    0  501 -0.00000000000E+00 -0.00000000000E+00 -0.63195628528E+03  0.63195628528E+03  0.00000000000E+00 0.  1.
        -24    2    1    2    0    0 -0.19132004080E+03  0.43153154327E+02 -0.49153529100E+03  0.53506892148E+03  0.78906626420E+02 0.  0.
        254    2    1    2    0    0  0.19132004080E+03 -0.43153154327E+02  0.15823596981E+04  0.18196680561E+04  0.87684894237E+03 0.  0.
         23    2    4    4    0    0  0.31623214631E+03  0.29328648724E+03  0.45875697672E+03  0.63662586205E+03  0.93887116198E+02 0.  0.
         23    2    4    4    0    0 -0.12491210551E+03 -0.33643964157E+03  0.11236027213E+04  0.11830421941E+04  0.91165185593E+02 0.  0.
          3    1    3    3  502    0 -0.64290628614E+02  0.53702571990E+02 -0.18455468240E+03  0.20267629847E+03  0.00000000000E+00 0. -1.
         -4    1    3    3    0  502 -0.12702941219E+03 -0.10549417663E+02 -0.30698060860E+03  0.33239262300E+03  0.00000000000E+00 0.  1.
         11    1    5    5    0    0  0.31627182501E+03  0.28282358414E+03  0.42202618401E+03  0.59843391201E+03  0.00000000000E+00 0. -1.
        -11    1    5    5    0    0 -0.39678702187E-01  0.10462903094E+02  0.36730792706E+02  0.38191950047E+02  0.00000000000E+00 0.  1.
          1    1    6    6  503    0 -0.12451498703E+03 -0.33556748419E+03  0.11254320462E+04  0.11809770570E+04  0.00000000000E+00 0. -1.
         -1    1    6    6    0  503 -0.39711847447E+00 -0.87215737093E+00 -0.18293249065E+01  0.20651370841E+01  0.00000000000E+00 0.  1.
<mgrwt>
<rscale>  0 0.20868369E+04</rscale>
<asrwt>0</asrwt>
<pdfrwt beam="1">  1        1 0.26504318E+00 0.20868369E+04</pdfrwt>
<pdfrwt beam="2">  1       -2 0.97224044E-01 0.20868369E+04</pdfrwt>
<totfact> 0.32817266E+00</totfact>
</mgrwt>
</event>
<event>
12    4  0.4183215E-008  0.1491514E+04  0.7818608E-02  0.8890116E-01
         -2   -1    0    0    0  501 -0.00000000000E+00  0.00000000000E+00  0.78892206053E+03  0.78892206053E+03  0.00000000000E+00 0.  1.
          1   -1    0    0  501    0  0.00000000000E+00 -0.00000000000E+00 -0.70495372600E+03  0.70495372600E+03  0.00000000000E+00 0. -1.
        -24    2    1    2    0    0  0.23653918796E+02  0.10971245798E+03  0.47226729354E+03  0.49208878983E+03  0.80738152132E+02 0.  0.
        254    2    1    2    0    0 -0.23653918796E+02 -0.10971245798E+03 -0.38829895901E+03  0.10017869967E+04  0.91662684550E+03 0.  0.
         23    2    4    4    0    0 -0.21066566058E+03 -0.45916911850E+03 -0.16810918502E+03  0.54003590061E+03  0.90342547697E+02 0.  0.
         23    2    4    4    0    0  0.18701174178E+03  0.34945666052E+03 -0.22018977399E+03  0.46175109610E+03  0.87391012284E+02 0.  0.
          1    1    3    3  502    0 -0.30103674698E+01 -0.12643643783E+02  0.47590079573E+02  0.49332947552E+02  0.00000000000E+00 0. -1.
         -2    1    3    3    0  502  0.26664286266E+02  0.12235610176E+03  0.42467721397E+03  0.44275584227E+03  0.00000000000E+00 0.  1.
         11    1    5    5    0    0 -0.13766570064E+03 -0.19845118175E+03 -0.95525367299E+02  0.25973026868E+03  0.00000000000E+00 0.  1.
        -11    1    5    5    0    0 -0.72999959936E+02 -0.26071793676E+03 -0.72583817723E+02  0.28030563193E+03  0.00000000000E+00 0. -1.
          3    1    6    6  503    0  0.11809645760E+03  0.13072543489E+03 -0.85929000544E+02  0.19600945324E+03  0.00000000000E+00 0. -1.
         -3    1    6    6    0  503  0.68915284178E+02  0.21873122564E+03 -0.13426077345E+03  0.26574164286E+03  0.00000000000E+00 0.  1.
<mgrwt>
<rscale>  0 0.14915141E+04</rscale>
<asrwt>0</asrwt>
<pdfrwt beam="1">  1        1 0.10845442E+00 0.14915141E+04</pdfrwt>
<pdfrwt beam="2">  1       -2 0.12137263E+00 0.14915141E+04</pdfrwt>
<totfact> 0.11789368E+01</totfact>
</mgrwt>
</event>
<event>
12    4  0.4183215E-008  0.1900462E+04  0.7818608E-02  0.8654626E-01
          1   -1    0    0  501    0  0.00000000000E+00  0.00000000000E+00  0.74970472110E+03  0.74970472110E+03  0.00000000000E+00 0. -1.
         -2   -1    0    0    0  501 -0.00000000000E+00 -0.00000000000E+00 -0.12043926993E+04  0.12043926993E+04  0.00000000000E+00 0.  1.
        -24    2    1    2    0    0 -0.44688018118E+03  0.40573544170E+03 -0.60596092107E+03  0.85917459258E+03  0.81665155894E+02 0.  0.
        254    2    1    2    0    0  0.44688018118E+03 -0.40573544170E+03  0.15127294283E+03  0.10949228279E+04  0.90091583999E+03 0.  0.
         23    2    4    4    0    0  0.17754350057E+03  0.26707354396E+03  0.14799748837E+03  0.36461552949E+03  0.90505554002E+02 0.  0.
         23    2    4    4    0    0  0.26933668061E+03 -0.67280898566E+03  0.32754544599E+01  0.73030729837E+03  0.90132362309E+02 0.  0.
          1    1    3    3  502    0 -0.35554487589E+03  0.30463237234E+03 -0.42247269139E+03  0.63063160087E+03  0.00000000000E+00 0. -1.
         -2    1    3    3    0  502 -0.91335305285E+02  0.10110306936E+03 -0.18348822969E+03  0.22854299171E+03  0.00000000000E+00 0.  1.
         11    1    5    5    0    0  0.14788856237E+03  0.21116785320E+03  0.76030042822E+02  0.26878142889E+03  0.00000000000E+00 0.  1.
        -11    1    5    5    0    0  0.29654938195E+02  0.55905690757E+02  0.71967445550E+02  0.95834100597E+02  0.00000000000E+00 0. -1.
          3    1    6    6  503    0  0.89964647189E+02 -0.24042833775E+03 -0.41573224986E+02  0.26005337216E+03  0.00000000000E+00 0. -1.
         -3    1    6    6    0  503  0.17937203342E+03 -0.43238064791E+03  0.44848679446E+02  0.47025392620E+03  0.00000000000E+00 0.  1.
<mgrwt>
<rscale>  0 0.19004619E+04</rscale>
<asrwt>0</asrwt>
<pdfrwt beam="1">  1        1 0.11533919E+00 0.19004619E+04</pdfrwt>
<pdfrwt beam="2">  1       -2 0.18529118E+00 0.19004619E+04</pdfrwt>
<totfact> 0.33480072E+00</totfact>
</mgrwt>
</event>
<event>
12    4  0.4183215E-008  0.1047335E+04  0.7818608E-02  0.9258100E-01
         -2   -1    0    0    0  501 -0.00000000000E+00  0.00000000000E+00  0.38102830386E+03  0.38102830386E+03  0.00000000000E+00 0.  1.
          1   -1    0    0  501    0  0.00000000000E+00 -0.00000000000E+00 -0.71970425615E+03  0.71970425615E+03  0.00000000000E+00 0. -1.
        -24    2    1    2    0    0 -0.16091624568E+03 -0.36445697869E+02 -0.54566603483E+02  0.19253807454E+03  0.82891911049E+02 0.  0.
        254    2    1    2    0    0  0.16091624568E+03  0.36445697869E+02 -0.28410934880E+03  0.90819448547E+03  0.84668575891E+03 0.  0.
         23    2    4    4    0    0  0.39214824795E+03  0.28743173482E+03 -0.87605413997E+02  0.50466464947E+03  0.10302644957E+03 0.  0.
         23    2    4    4    0    0 -0.23123200228E+03 -0.25098603695E+03 -0.19650393480E+03  0.40352983600E+03  0.88092579298E+02 0.  0.
          1    1    3    3  502    0 -0.60934306396E+02 -0.31241928822E+01 -0.61873167644E+02  0.86896715424E+02  0.00000000000E+00 0. -1.
         -2    1    3    3    0  502 -0.99981939280E+02 -0.33321504986E+02  0.73065641604E+01  0.10564135912E+03  0.00000000000E+00 0.  1.
         11    1    5    5    0    0  0.13083513400E+03  0.71767428995E+02  0.16700127032E+02  0.15015755191E+03  0.00000000000E+00 0.  1.
        -11    1    5    5    0    0  0.26131311395E+03  0.21566430582E+03 -0.10430554103E+03  0.35450709756E+03  0.00000000000E+00 0. -1.
          4    1    6    6  503    0 -0.21694768619E+03 -0.25656485342E+03 -0.19403681270E+03  0.38799756087E+03  0.00000000000E+00 0. -1.
         -4    1    6    6    0  503 -0.14284316086E+02  0.55788164748E+01 -0.24671221048E+01  0.15532275132E+02  0.00000000000E+00 0.  1.
<mgrwt>
<rscale>  0 0.10473351E+04</rscale>
<asrwt>0</asrwt>
<pdfrwt beam="1">  1        1 0.11072373E+00 0.10473351E+04</pdfrwt>
<pdfrwt beam="2">  1       -2 0.58619740E-01 0.10473351E+04</pdfrwt>
<totfact> 0.62220639E+01</totfact>
</mgrwt>
</event>
<event>
12    4  0.4183215E-008  0.1766628E+04  0.7818608E-02  0.8724250E-01
          1   -1    0    0  501    0  0.00000000000E+00  0.00000000000E+00  0.99274738275E+03  0.99274738275E+03  0.00000000000E+00 0. -1.
         -2   -1    0    0    0  501 -0.00000000000E+00 -0.00000000000E+00 -0.78594390199E+03  0.78594390199E+03  0.00000000000E+00 0.  1.
        -24    2    1    2    0    0  0.31060997469E+02  0.65032752924E+02  0.72819100342E+03  0.73552086103E+03  0.74395934245E+02 0.  0.
        254    2    1    2    0    0 -0.31060997469E+02 -0.65032752924E+02 -0.52138752267E+03  0.10431704237E+04  0.90064728923E+03 0.  0.
         23    2    4    4    0    0 -0.37467762589E+03 -0.11934404377E+03  0.72826068634E+01  0.40361773985E+03  0.90707879643E+02 0.  0.
         23    2    4    4    0    0  0.34361662842E+03  0.54311290841E+02 -0.52867012953E+03  0.63955268387E+03  0.92268228231E+02 0.  0.
          1    1    3    3  502    0 -0.12155934564E+02  0.56637628943E+02  0.47655005223E+03  0.48005785072E+03  0.00000000000E+00 0. -1.
         -2    1    3    3    0  502  0.43216932033E+02  0.83951239817E+01  0.25164095119E+03  0.25546301031E+03  0.00000000000E+00 0.  1.
         11    1    5    5    0    0  0.76406123933E+00  0.72583805689E+01  0.89720279524E+00  0.73534244346E+01  0.00000000000E+00 0.  1.
        -11    1    5    5    0    0 -0.37544168713E+03 -0.12660242433E+03  0.63854040682E+01  0.39626431541E+03  0.00000000000E+00 0. -1.
          3    1    6    6  503    0  0.16114552748E+03  0.28664178249E+02 -0.16806325432E+03  0.23459491383E+03  0.00000000000E+00 0. -1.
         -3    1    6    6    0  503  0.18247110094E+03  0.25647112593E+02 -0.36060687521E+03  0.40495777004E+03  0.00000000000E+00 0.  1.
<mgrwt>
<rscale>  0 0.17666281E+04</rscale>
<asrwt>0</asrwt>
<pdfrwt beam="1">  1        1 0.15273037E+00 0.17666281E+04</pdfrwt>
<pdfrwt beam="2">  1       -2 0.12091445E+00 0.17666281E+04</pdfrwt>
<totfact> 0.66260091E+00</totfact>
</mgrwt>
</event>
<event>
12    4  0.4183215E-008  0.1291886E+04  0.7818608E-02  0.9036025E-01
          1   -1    0    0  501    0  0.00000000000E+00  0.00000000000E+00  0.14288410915E+04  0.14288410915E+04  0.00000000000E+00 0. -1.
         -2   -1    0    0    0  501 -0.00000000000E+00 -0.00000000000E+00 -0.29201439094E+03  0.29201439094E+03  0.00000000000E+00 0.  1.
        -24    2    1    2    0    0  0.27628233390E+03 -0.10247379039E+03  0.48077048924E+03  0.56954807342E+03  0.80074583201E+02 0.  0.
        254    2    1    2    0    0 -0.27628233390E+03  0.10247379039E+03  0.65605621135E+03  0.11513074091E+04  0.89903625730E+03 0.  0.
         23    2    4    4    0    0 -0.53117345163E+03  0.12304642821E+03  0.14150446792E+03  0.56983416106E+03  0.86033699554E+02 0.  0.
         23    2    4    4    0    0  0.25489111772E+03 -0.20572637815E+02  0.51455174344E+03  0.58147324799E+03  0.89190392649E+02 0.  0.
          1    1    3    3  502    0  0.27396638707E+03 -0.83989609901E+02  0.44648881434E+03  0.53053190021E+03  0.00000000000E+00 0. -1.
         -2    1    3    3    0  502  0.23159468372E+01 -0.18484180492E+02  0.34281674900E+02  0.39016173213E+02  0.00000000000E+00 0.  1.
         11    1    5    5    0    0 -0.48525229164E+03  0.12087495369E+03  0.15201607034E+03  0.52267525923E+03  0.00000000000E+00 0. -1.
        -11    1    5    5    0    0 -0.45921159987E+02  0.21714745165E+01 -0.10511602417E+02  0.47158901827E+02  0.00000000000E+00 0.  1.
          2    1    6    6  503    0  0.14681189748E+03 -0.54628614774E+02  0.27540258193E+03  0.31683528990E+03  0.00000000000E+00 0. -1.
         -2    1    6    6    0  503  0.10807922025E+03  0.34055976959E+02  0.23914916150E+03  0.26463795809E+03  0.00000000000E+00 0.  1.
<mgrwt>
<rscale>  0 0.12918857E+04</rscale>
<asrwt>0</asrwt>
<pdfrwt beam="1">  1        1 0.21982170E+00 0.12918857E+04</pdfrwt>
<pdfrwt beam="2">  1       -2 0.44925292E-01 0.12918857E+04</pdfrwt>
<totfact> 0.29717390E+01</totfact>
</mgrwt>
</event>
<event>
12    4  0.4183215E-008  0.2348272E+04  0.7818608E-02  0.8459128E-01
          1   -1    0    0  501    0  0.00000000000E+00  0.00000000000E+00  0.13183416529E+04  0.13183416529E+04  0.00000000000E+00 0. -1.
         -2   -1    0    0    0  501 -0.00000000000E+00 -0.00000000000E+00 -0.10457044676E+04  0.10457044676E+04  0.00000000000E+00 0.  1.
        -24    2    1    2    0    0 -0.92580243579E+03  0.39159314884E+03  0.14542875040E+03  0.10190263067E+04  0.82521196721E+02 0.  0.
        254    2    1    2    0    0  0.92580243579E+03 -0.39159314884E+03  0.12720843484E+03  0.13450198139E+04  0.88455693397E+03 0.  0.
         23    2    4    4    0    0  0.67066490997E+03  0.18384445890E+03  0.35014928473E+02  0.70256436155E+03  0.93703950694E+02 0.  0.
         23    2    4    4    0    0  0.25513752582E+03 -0.57543760774E+03  0.92193506365E+02  0.64245545230E+03  0.89586651316E+02 0.  0.
          1    1    3    3  502    0 -0.31412359682E+03  0.12695445256E+03  0.88209274538E+02  0.35010276095E+03  0.00000000000E+00 0. -1.
         -2    1    3    3    0  502 -0.61167883897E+03  0.26463869627E+03  0.57219475865E+02  0.66892354573E+03  0.00000000000E+00 0.  1.
         11    1    5    5    0    0  0.57661622906E+03  0.19080571676E+03  0.28516592299E+02  0.60803477960E+03  0.00000000000E+00 0. -1.
        -11    1    5    5    0    0  0.94048680911E+02 -0.69612578575E+01  0.64983361745E+01  0.94529581958E+02  0.00000000000E+00 0.  1.
          4    1    6    6  503    0  0.13493748464E+03 -0.20234036036E+03  0.49078894452E+02  0.24810982260E+03  0.00000000000E+00 0. -1.
         -4    1    6    6    0  503  0.12020004118E+03 -0.37309724738E+03  0.43114611913E+02  0.39434562970E+03  0.00000000000E+00 0.  1.
<mgrwt>
<rscale>  0 0.23482723E+04</rscale>
<asrwt>0</asrwt>
<pdfrwt beam="1">  1        1 0.20282179E+00 0.23482723E+04</pdfrwt>
<pdfrwt beam="2">  1       -2 0.16087761E+00 0.23482723E+04</pdfrwt>
<totfact> 0.17206572E+00</totfact>
</mgrwt>
</event>
<event>
12    4  0.4183215E-008  0.2302350E+04  0.7818608E-02  0.8476995E-01
         -2   -1    0    0    0  501 -0.00000000000E+00  0.00000000000E+00  0.51420365138E+03  0.51420365138E+03  0.00000000000E+00 0.  1.
          1   -1    0    0  501    0  0.00000000000E+00 -0.00000000000E+00 -0.25771961389E+04  0.25771961389E+04  0.00000000000E+00 0. -1.
        -24    2    1    2    0    0 -0.60977780943E+03  0.23069116082E+03  0.99155957133E+02  0.66352166258E+03  0.73360100322E+02 0.  0.
        254    2    1    2    0    0  0.60977780943E+03 -0.23069116082E+03 -0.21621484447E+04  0.24278781277E+04  0.89143643502E+03 0.  0.
         23    2    4    4    0    0  0.76543137118E+03 -0.37447827199E+03 -0.15099653192E+04  0.17361282431E+04  0.89592695594E+02 0.  0.
         23    2    4    4    0    0 -0.15565356175E+03  0.14378711116E+03 -0.65218312550E+03  0.69174988464E+03  0.90952235268E+02 0.  0.
          3    1    3    3  502    0 -0.53655921279E+02  0.40759228137E+02 -0.98753526916E+00  0.67388780910E+02  0.00000000000E+00 0. -1.
         -4    1    3    3    0  502 -0.55612188815E+03  0.18993193269E+03  0.10014349240E+03  0.59613288167E+03  0.00000000000E+00 0.  1.
         11    1    5    5    0    0  0.16079290484E+03 -0.43934992497E+02 -0.32920173757E+03  0.36899651195E+03  0.00000000000E+00 0.  1.
        -11    1    5    5    0    0  0.60463846634E+03 -0.33054327949E+03 -0.11807635816E+04  0.13671317311E+04  0.00000000000E+00 0. -1.
          4    1    6    6  503    0 -0.74718737314E+02  0.12657169640E+03 -0.38773691087E+03  0.41466033821E+03  0.00000000000E+00 0. -1.
         -4    1    6    6    0  503 -0.80934824432E+02  0.17215414766E+02 -0.26444621462E+03  0.27708954643E+03  0.00000000000E+00 0.  1.
<mgrwt>
<rscale>  0 0.23023498E+04</rscale>
<asrwt>0</asrwt>
<pdfrwt beam="1">  1        1 0.39649171E+00 0.23023498E+04</pdfrwt>
<pdfrwt beam="2">  1       -2 0.79108255E-01 0.23023498E+04</pdfrwt>
<totfact> 0.13477156E+00</totfact>
</mgrwt>
</event>
<event>
12    4  0.4183215E-008  0.2031095E+04  0.7818608E-02  0.8592219E-01
          1   -1    0    0  501    0  0.00000000000E+00  0.00000000000E+00  0.95169195375E+03  0.95169195375E+03  0.00000000000E+00 0. -1.
         -2   -1    0    0    0  501 -0.00000000000E+00 -0.00000000000E+00 -0.10836872389E+04  0.10836872389E+04  0.00000000000E+00 0.  1.
        -24    2    1    2    0    0 -0.51495101561E+03 -0.39851819612E+03 -0.51964757229E+03  0.83678680184E+03  0.78659082259E+02 0.  0.
        254    2    1    2    0    0  0.51495101561E+03  0.39851819612E+03  0.38765228713E+03  0.11985923908E+04  0.92863239365E+03 0.  0.
         23    2    4    4    0    0 -0.25293699200E+03  0.20417499667E+03  0.11877322559E+03  0.35724418489E+03  0.88610255242E+02 0.  0.
         23    2    4    4    0    0  0.76788800761E+03  0.19434319945E+03  0.26887906154E+03  0.84134820594E+03  0.90275038137E+02 0.  0.
          3    1    3    3  502    0 -0.12120726409E+03 -0.73985410658E+02 -0.78396630914E+02  0.16220688517E+03  0.00000000000E+00 0. -1.
         -4    1    3    3    0  502 -0.39374375152E+03 -0.32453278546E+03 -0.44125094138E+03  0.67457991667E+03  0.00000000000E+00 0.  1.
         11    1    5    5    0    0 -0.24474202371E+03  0.17301232826E+03  0.87236504919E+02  0.31215722271E+03  0.00000000000E+00 0.  1.
        -11    1    5    5    0    0 -0.81949682877E+01  0.31162668415E+02  0.31536720675E+02  0.45086962183E+02  0.00000000000E+00 0. -1.
          1    1    6    6  503    0  0.34768059412E+03  0.92691076452E+02  0.75096671424E+02  0.36757712285E+03  0.00000000000E+00 0. -1.
         -1    1    6    6    0  503  0.42020741349E+03  0.10165212299E+03  0.19378239011E+03  0.47377108309E+03  0.00000000000E+00 0.  1.
<mgrwt>
<rscale>  0 0.20310947E+04</rscale>
<asrwt>0</asrwt>
<pdfrwt beam="1">  1        1 0.14641415E+00 0.20310947E+04</pdfrwt>
<pdfrwt beam="2">  1       -2 0.16672112E+00 0.20310947E+04</pdfrwt>
<totfact> 0.30140350E+00</totfact>
</mgrwt>
</event>
<event>
12    4  0.4183215E-008  0.2281563E+04  0.7818608E-02  0.8485226E-01
          1   -1    0    0  501    0  0.00000000000E+00  0.00000000000E+00  0.16554779213E+04  0.16554779213E+04  0.00000000000E+00 0. -1.
         -2   -1    0    0    0  501 -0.00000000000E+00 -0.00000000000E+00 -0.78610657745E+03  0.78610657745E+03  0.00000000000E+00 0.  1.
        -24    2    1    2    0    0  0.16013235187E+03  0.71805790035E+03  0.10302822216E+04  0.12684978494E+04  0.79723392259E+02 0.  0.
        254    2    1    2    0    0 -0.16013235187E+03 -0.71805790035E+03 -0.16091087776E+03  0.11730866494E+04  0.89943896850E+03 0.  0.
         23    2    4    4    0    0 -0.34354886414E+03  0.54462870495E+02 -0.84217303301E+02  0.37003787213E+03  0.94039599745E+02 0.  0.
         23    2    4    4    0    0  0.18341651227E+03 -0.77252077085E+03 -0.76693574456E+02  0.80304877727E+03  0.92603865758E+02 0.  0.
          1    1    3    3  502    0  0.13582058936E+03  0.66320627009E+03  0.97455765738E+03  0.11866138448E+04  0.00000000000E+00 0. -1.
         -2    1    3    3    0  502  0.24311762519E+02  0.54851630263E+02  0.55724564264E+02  0.81884004553E+02  0.00000000000E+00 0.  1.
         11    1    5    5    0    0 -0.52835920161E+02 -0.24837692336E+02 -0.21708405719E+02  0.62288042984E+02  0.00000000000E+00 0.  1.
        -11    1    5    5    0    0 -0.29071294398E+03  0.79300562832E+02 -0.62508897583E+02  0.30774982915E+03  0.00000000000E+00 0. -1.
          4    1    6    6  503    0  0.15083548967E+03 -0.73027226219E+03 -0.77389868781E+02  0.74969201254E+03  0.00000000000E+00 0. -1.
         -4    1    6    6    0  503  0.32581022602E+02 -0.42248508653E+02  0.69629432465E+00  0.53356764734E+02  0.00000000000E+00 0.  1.
<mgrwt>
<rscale>  0 0.22815627E+04</rscale>
<asrwt>0</asrwt>
<pdfrwt beam="1">  1        1 0.25468891E+00 0.22815627E+04</pdfrwt>
<pdfrwt beam="2">  1       -2 0.12093947E+00 0.22815627E+04</pdfrwt>
<totfact> 0.21166281E+00</totfact>
</mgrwt>
</event>
<event>
12    4  0.4183215E-008  0.1754355E+04  0.7818608E-02  0.8730957E-01
          1   -1    0    0  501    0  0.00000000000E+00  0.00000000000E+00  0.31243423579E+04  0.31243423579E+04  0.00000000000E+00 0. -1.
         -2   -1    0    0    0  501 -0.00000000000E+00 -0.00000000000E+00 -0.24627276733E+03  0.24627276733E+03  0.00000000000E+00 0.  1.
        -24    2    1    2    0    0 -0.14840770956E+02  0.62141672174E+03  0.73380475812E+03  0.96452863586E+03  0.73939676749E+02 0.  0.
        254    2    1    2    0    0  0.14840770956E+02 -0.62141672174E+03  0.21442648325E+04  0.24060864894E+04  0.89721877605E+03 0.  0.
         23    2    4    4    0    0  0.28760799332E+03  0.20642249938E+02  0.27475381907E+03  0.40858327284E+03  0.91138188740E+02 0.  0.
         23    2    4    4    0    0 -0.27276722236E+03 -0.64205897168E+03  0.18695110134E+04  0.19975032166E+04  0.91137205358E+02 0.  0.
          1    1    3    3  502    0  0.40048645800E+01  0.31023879683E+03  0.42022154496E+03  0.52235074122E+03  0.00000000000E+00 0. -1.
         -2    1    3    3    0  502 -0.18845635536E+02  0.31117792491E+03  0.31358321316E+03  0.44217789464E+03  0.00000000000E+00 0.  1.
         11    1    5    5    0    0  0.12582705391E+03  0.41195168451E+02  0.80504735114E+02  0.15495322447E+03  0.00000000000E+00 0. -1.
        -11    1    5    5    0    0  0.16178093941E+03 -0.20552918514E+02  0.19424908396E+03  0.25363004836E+03  0.00000000000E+00 0.  1.
          1    1    6    6  503    0 -0.27787044962E+03 -0.60702506175E+03  0.17909681286E+04  0.19113498502E+04  0.00000000000E+00 0. -1.
         -1    1    6    6    0  503  0.51032272608E+01 -0.35033909933E+02  0.78542884808E+02  0.86153366316E+02  0.00000000000E+00 0.  1.
<mgrwt>
<rscale>  0 0.17543551E+04</rscale>
<asrwt>0</asrwt>
<pdfrwt beam="1">  1        1 0.48066803E+00 0.17543551E+04</pdfrwt>
<pdfrwt beam="2">  1       -2 0.37888120E-01 0.17543551E+04</pdfrwt>
<totfact> 0.26595933E+00</totfact>
</mgrwt>
</event>
<event>
12    4  0.4183215E-008  0.2134150E+04  0.7818608E-02  0.8546348E-01
         -2   -1    0    0    0  501 -0.00000000000E+00  0.00000000000E+00  0.12090141113E+04  0.12090141113E+04  0.00000000000E+00 0.  1.
          1   -1    0    0  501    0  0.00000000000E+00 -0.00000000000E+00 -0.94179947067E+03  0.94179947067E+03  0.00000000000E+00 0. -1.
        -24    2    1    2    0    0  0.37030570348E+03 -0.76863984327E+03  0.30221344418E+03  0.90850970071E+03  0.78252078284E+02 0.  0.
        254    2    1    2    0    0 -0.37030570348E+03  0.76863984327E+03 -0.34998803553E+02  0.12423038812E+04  0.90230842533E+03 0.  0.
         23    2    4    4    0    0 -0.53060337693E+03  0.22107468226E+03 -0.23997239518E+03  0.62925848876E+03  0.89249854282E+02 0.  0.
         23    2    4    4    0    0  0.16029767345E+03  0.54756516101E+03  0.20497359163E+03  0.61304539248E+03  0.91035873778E+02 0.  0.
          1    1    3    3  502    0  0.24822789945E+03 -0.49381566322E+03  0.15696601191E+03  0.57455141476E+03  0.00000000000E+00 0. -1.
         -2    1    3    3    0  502  0.12207780403E+03 -0.27482418005E+03  0.14524743227E+03  0.33395828595E+03  0.00000000000E+00 0.  1.
         11    1    5    5    0    0 -0.41189194571E+03  0.13825241704E+03 -0.20466315959E+03  0.48026629557E+03  0.00000000000E+00 0. -1.
        -11    1    5    5    0    0 -0.11871143121E+03  0.82822265215E+02 -0.35309235593E+02  0.14899219320E+03  0.00000000000E+00 0.  1.
          1    1    6    6  503    0  0.70411911526E+02  0.33261808554E+03  0.82604120983E+02  0.34988007791E+03  0.00000000000E+00 0. -1.
         -1    1    6    6    0  503  0.89885761924E+02  0.21494707547E+03  0.12236947065E+03  0.26316531458E+03  0.00000000000E+00 0.  1.
<mgrwt>
<rscale>  0 0.21341498E+04</rscale>
<asrwt>0</asrwt>
<pdfrwt beam="1">  1        1 0.14489223E+00 0.21341498E+04</pdfrwt>
<pdfrwt beam="2">  1       -2 0.18600217E+00 0.21341498E+04</pdfrwt>
<totfact> 0.22305712E+00</totfact>
</mgrwt>
</event>
<event>
12    4  0.4183215E-008  0.2944238E+04  0.7818608E-02  0.8259836E-01
          1   -1    0    0  501    0  0.00000000000E+00  0.00000000000E+00  0.26862124485E+04  0.26862124485E+04  0.00000000000E+00 0. -1.
         -2   -1    0    0    0  501 -0.00000000000E+00 -0.00000000000E+00 -0.80676185785E+03  0.80676185785E+03  0.00000000000E+00 0.  1.
        -24    2    1    2    0    0 -0.63896220270E+03  0.10692010298E+04  0.29018447231E+03  0.12812239813E+04  0.76578871973E+02 0.  0.
        254    2    1    2    0    0  0.63896220270E+03 -0.10692010298E+04  0.15892661183E+04  0.22117503251E+04  0.90255701595E+03 0.  0.
         23    2    4    4    0    0  0.32760184801E+02 -0.86602016713E+03  0.73105099726E+03  0.11375041570E+04  0.91738689105E+02 0.  0.
         23    2    4    4    0    0  0.60620201790E+03 -0.20318086265E+03  0.85821512108E+03  0.10742461681E+04  0.93318198027E+02 0.  0.
          1    1    3    3  502    0 -0.16053781728E+03  0.22497023011E+03  0.87668990107E+02  0.28994800748E+03  0.00000000000E+00 0. -1.
         -2    1    3    3    0  502 -0.47842438541E+03  0.84423079967E+03  0.20251548220E+03  0.99127597379E+03  0.00000000000E+00 0.  1.
         11    1    5    5    0    0  0.34633445675E+02 -0.82652671547E+03  0.66892512440E+03  0.10638640463E+04  0.00000000000E+00 0.  1.
        -11    1    5    5    0    0 -0.18732608739E+01 -0.39493451662E+02  0.62125872862E+02  0.73640110737E+02  0.00000000000E+00 0. -1.
          4    1    6    6  503    0  0.32656945866E+02 -0.35001556831E+02  0.75967199521E+02  0.89791984592E+02  0.00000000000E+00 0. -1.
         -4    1    6    6    0  503  0.57354507203E+03 -0.16817930582E+03  0.78224792156E+03  0.98445418347E+03  0.00000000000E+00 0.  1.
<mgrwt>
<rscale>  0 0.29442376E+04</rscale>
<asrwt>0</asrwt>
<pdfrwt beam="1">  1        1 0.41326345E+00 0.29442376E+04</pdfrwt>
<pdfrwt beam="2">  1       -2 0.12411721E+00 0.29442376E+04</pdfrwt>
<totfact> 0.36838189E-01</totfact>
</mgrwt>
</event>
<event>
12    4  0.4183215E-008  0.2447588E+04  0.7818608E-02  0.8421899E-01
         -2   -1    0    0    0  501 -0.00000000000E+00  0.00000000000E+00  0.14519585590E+04  0.14519585590E+04  0.00000000000E+00 0.  1.
          1   -1    0    0  501    0  0.00000000000E+00 -0.00000000000E+00 -0.10314841575E+04  0.10314841575E+04  0.00000000000E+00 0. -1.
        -24    2    1    2    0    0  0.53984766334E+02 -0.59193158613E+03 -0.70740596904E+03  0.92741946475E+03  0.79914334833E+02 0.  0.
        254    2    1    2    0    0 -0.53984766334E+02  0.59193158613E+03  0.11278803706E+04  0.15560232518E+04  0.89207447682E+03 0.  0.
         23    2    4    4    0    0 -0.16214828618E+03  0.68278622225E+03  0.40799539683E+03  0.81693455008E+03  0.91829860466E+02 0.  0.
         23    2    4    4    0    0  0.10816351985E+03 -0.90854636115E+02  0.71988497375E+03  0.73908870173E+03  0.89798784372E+02 0.  0.
          1    1    3    3  502    0 -0.14657493377E+02 -0.20248235483E+03 -0.26903755977E+03  0.33703880295E+03  0.00000000000E+00 0. -1.
         -2    1    3    3    0  502  0.68642259711E+02 -0.38944923130E+03 -0.43836840927E+03  0.59038066179E+03  0.00000000000E+00 0.  1.
         11    1    5    5    0    0 -0.10238100576E+03  0.23956050547E+03  0.14987688595E+03  0.30055646236E+03  0.00000000000E+00 0. -1.
        -11    1    5    5    0    0 -0.59767280425E+02  0.44322571678E+03  0.25811851087E+03  0.51637808772E+03  0.00000000000E+00 0.  1.
          1    1    6    6  503    0  0.58999643604E+02  0.44527420039E+01  0.21898429827E+03  0.22683674250E+03  0.00000000000E+00 0. -1.
         -1    1    6    6    0  503  0.49163876242E+02 -0.95307378119E+02  0.50090067548E+03  0.51225195924E+03  0.00000000000E+00 0.  1.
<mgrwt>
<rscale>  0 0.24475884E+04</rscale>
<asrwt>0</asrwt>
<pdfrwt beam="1">  1        1 0.15868987E+00 0.24475884E+04</pdfrwt>
<pdfrwt beam="2">  1       -2 0.22337824E+00 0.24475884E+04</pdfrwt>
<totfact> 0.10531546E+00</totfact>
</mgrwt>
</event>
<event>
12    4  0.4183215E-008  0.1226908E+04  0.7818608E-02  0.9089625E-01
          1   -1    0    0  501    0  0.00000000000E+00  0.00000000000E+00  0.31654292126E+03  0.31654292126E+03  0.00000000000E+00 0. -1.
         -2   -1    0    0    0  501 -0.00000000000E+00 -0.00000000000E+00 -0.11888615400E+04  0.11888615400E+04  0.00000000000E+00 0.  1.
        -24    2    1    2    0    0 -0.22479430641E+03 -0.72091814810E+02 -0.37289824061E+03  0.44856728726E+03  0.80186054869E+02 0.  0.
        254    2    1    2    0    0  0.22479430641E+03  0.72091814810E+02 -0.49942037812E+03  0.10568371740E+04  0.90097413298E+03 0.  0.
         23    2    4    4    0    0 -0.30366929685E+03  0.20351395508E+03 -0.17761662912E+03  0.41668054353E+03  0.91880556446E+02 0.  0.
         23    2    4    4    0    0  0.52846360326E+03 -0.13142214027E+03 -0.32180374900E+03  0.64015663046E+03  0.98474868523E+02 0.  0.
          1    1    3    3  502    0 -0.10994915805E+03 -0.51193695370E+02 -0.25645609127E+03  0.28368880583E+03  0.00000000000E+00 0. -1.
         -2    1    3    3    0  502 -0.11484514836E+03 -0.20898119439E+02 -0.11644214934E+03  0.16487848144E+03  0.00000000000E+00 0.  1.
         11    1    5    5    0    0 -0.20257733572E+03  0.13226499155E+03 -0.67720798326E+02  0.25123238538E+03  0.00000000000E+00 0. -1.
        -11    1    5    5    0    0 -0.10109196113E+03  0.71248963529E+02 -0.10989583079E+03  0.16544815815E+03  0.00000000000E+00 0.  1.
          4    1    6    6  503    0  0.75032589514E+02 -0.38971632409E+02 -0.17596033196E+02  0.86361438189E+02  0.00000000000E+00 0. -1.
         -4    1    6    6    0  503  0.45343101375E+03 -0.92450507860E+02 -0.30420771580E+03  0.55379519227E+03  0.00000000000E+00 0.  1.
<mgrwt>
<rscale>  0 0.12269078E+04</rscale>
<asrwt>0</asrwt>
<pdfrwt beam="1">  1        1 0.48698911E-01 0.12269078E+04</pdfrwt>
<pdfrwt beam="2">  1       -2 0.18290178E+00 0.12269078E+04</pdfrwt>
<totfact> 0.12191561E+01</totfact>
</mgrwt>
</event>
<event>
12    4  0.4183215E-008  0.1954228E+04  0.7818608E-02  0.8628325E-01
         -2   -1    0    0    0  501 -0.00000000000E+00  0.00000000000E+00  0.66661241709E+03  0.66661241709E+03  0.00000000000E+00 0.  1.
          1   -1    0    0  501    0  0.00000000000E+00 -0.00000000000E+00 -0.14322435531E+04  0.14322435531E+04  0.00000000000E+00 0. -1.
        -24    2    1    2    0    0  0.43881058450E+03 -0.55078782633E+02 -0.97014153845E+03  0.10690862119E+04  0.78627745725E+02 0.  0.
        254    2    1    2    0    0 -0.43881058450E+03  0.55078782633E+02  0.20451040248E+03  0.10297697583E+04  0.90720055611E+03 0.  0.
         23    2    4    4    0    0 -0.15161296723E+02 -0.12641333896E+03 -0.30080496369E+03  0.33946795833E+03  0.92437391639E+02 0.  0.
         23    2    4    4    0    0 -0.42364928778E+03  0.18149212159E+03  0.50531536617E+03  0.69030179996E+03  0.93567336795E+02 0.  0.
          3    1    3    3  502    0  0.39409750907E+03 -0.24726627474E+02 -0.86507828723E+03  0.95093884966E+03  0.00000000000E+00 0. -1.
         -4    1    3    3    0  502  0.44713075429E+02 -0.30352155160E+02 -0.10506325122E+03  0.11814736220E+03  0.00000000000E+00 0.  1.
         11    1    5    5    0    0 -0.11828789508E+02 -0.92135081241E+02 -0.28818937108E+03  0.30279020304E+03  0.00000000000E+00 0.  1.
        -11    1    5    5    0    0 -0.33325072143E+01 -0.34278257716E+02 -0.12615592609E+02  0.36677755292E+02  0.00000000000E+00 0. -1.
          3    1    6    6  503    0 -0.25960819706E+03  0.15653695275E+03  0.30250901803E+03  0.42826620173E+03  0.00000000000E+00 0. -1.
         -3    1    6    6    0  503 -0.16404109072E+03  0.24955168840E+02  0.20280634814E+03  0.26203559823E+03  0.00000000000E+00 0.  1.
<mgrwt>
<rscale>  0 0.19542276E+04</rscale>
<asrwt>0</asrwt>
<pdfrwt beam="1">  1        1 0.22034516E+00 0.19542276E+04</pdfrwt>
<pdfrwt beam="2">  1       -2 0.10255576E+00 0.19542276E+04</pdfrwt>
<totfact> 0.46360679E+00</totfact>
</mgrwt>
</event>
<event>
12    4  0.4183215E-008  0.1639098E+04  0.7818608E-02  0.8796882E-01
         -2   -1    0    0    0  501 -0.00000000000E+00  0.00000000000E+00  0.54758092976E+03  0.54758092976E+03  0.00000000000E+00 0.  1.
          1   -1    0    0  501    0  0.00000000000E+00 -0.00000000000E+00 -0.12265958808E+04  0.12265958808E+04  0.00000000000E+00 0. -1.
        -24    2    1    2    0    0 -0.44519397153E+03 -0.32489201009E+03 -0.40106294433E+03  0.68659061950E+03  0.82478500021E+02 0.  0.
        254    2    1    2    0    0  0.44519397153E+03  0.32489201009E+03 -0.27795200672E+03  0.10875861911E+04  0.89545179350E+03 0.  0.
         23    2    4    4    0    0  0.65893388346E+03  0.37140341137E+03 -0.35179305086E+03  0.83996971008E+03  0.98267016199E+02 0.  0.
         23    2    4    4    0    0 -0.21373991193E+03 -0.46511401280E+02  0.73841044138E+02  0.24761648100E+03  0.89517380790E+02 0.  0.
          1    1    3    3  502    0 -0.18855214960E+03 -0.14361429928E+03 -0.22301807874E+03  0.32544437853E+03  0.00000000000E+00 0. -1.
         -2    1    3    3    0  502 -0.25664182193E+03 -0.18127771081E+03 -0.17804486560E+03  0.36114624097E+03  0.00000000000E+00 0.  1.
         11    1    5    5    0    0  0.57831434265E+03  0.32297319071E+03 -0.34184464982E+03  0.74539715953E+03  0.00000000000E+00 0.  1.
        -11    1    5    5    0    0  0.80619540810E+02  0.48430220662E+02 -0.99484010385E+01  0.94572550547E+02  0.00000000000E+00 0. -1.
          2    1    6    6  503    0 -0.62608390354E+02 -0.11341185062E+02 -0.19484410372E+02  0.66543784600E+02  0.00000000000E+00 0. -1.
         -2    1    6    6    0  503 -0.15113152157E+03 -0.35170216218E+02  0.93325454510E+02  0.18107269640E+03  0.00000000000E+00 0.  1.
<mgrwt>
<rscale>  0 0.16390979E+04</rscale>
<asrwt>0</asrwt>
<pdfrwt beam="1">  1        1 0.18870706E+00 0.16390979E+04</pdfrwt>
<pdfrwt beam="2">  1       -2 0.84243221E-01 0.16390979E+04</pdfrwt>
<totfact> 0.10541888E+01</totfact>
</mgrwt>
</event>
<event>
12    4  0.4183215E-008  0.1866159E+04  0.7818608E-02  0.8671887E-01
         -4   -1    0    0    0  501 -0.00000000000E+00  0.00000000000E+00  0.21279961752E+04  0.21279961752E+04  0.00000000000E+00 0.  1.
          1   -1    0    0  501    0  0.00000000000E+00 -0.00000000000E+00 -0.40913476840E+03  0.40913476840E+03  0.00000000000E+00 0. -1.
        -24    2    1    2    0    0  0.30080523007E+03  0.13445334842E+03  0.15362363409E+04  0.15732348932E+04  0.80526048804E+02 0.  0.
        254    2    1    2    0    0 -0.30080523007E+03 -0.13445334842E+03  0.18262506584E+03  0.96389605040E+03  0.88723288485E+03 0.  0.
         23    2    4    4    0    0 -0.50428940238E+03  0.32775058499E+02 -0.14533182814E+03  0.53332228927E+03  0.89046718918E+02 0.  0.
         23    2    4    4    0    0  0.20348417231E+03 -0.16722840691E+03  0.32795689398E+03  0.43057376113E+03  0.92015710670E+02 0.  0.
          3    1    3    3  502    0  0.71236365652E+02  0.47273486798E+02  0.26342831593E+03  0.27695465329E+03  0.00000000000E+00 0. -1.
         -4    1    3    3    0  502  0.22956886442E+03  0.87179861617E+02  0.12728080250E+04  0.12962802399E+04  0.00000000000E+00 0.  1.
         11    1    5    5    0    0 -0.39316019572E+03  0.23212679190E+02 -0.73474281181E+02  0.40063978581E+03  0.00000000000E+00 0. -1.
        -11    1    5    5    0    0 -0.11112920665E+03  0.95623793083E+01 -0.71857546960E+02  0.13268250346E+03  0.00000000000E+00 0.  1.
          1    1    6    6  503    0  0.12271621957E+03 -0.99737475651E+02  0.12361645840E+03  0.20071836832E+03  0.00000000000E+00 0. -1.
         -1    1    6    6    0  503  0.80767952738E+02 -0.67490931263E+02  0.20434043558E+03  0.22985539281E+03  0.00000000000E+00 0.  1.
<mgrwt>
<rscale>  0 0.18661589E+04</rscale>
<asrwt>0</asrwt>
<pdfrwt beam="1">  1        1 0.62943812E-01 0.18661589E+04</pdfrwt>
<pdfrwt beam="2">  1       -4 0.32738402E+00 0.18661589E+04</pdfrwt>
<totfact> 0.53991947E-01</totfact>
</mgrwt>
</event>
<event>
12    4  0.4183215E-008  0.1854604E+04  0.7818608E-02  0.8677789E-01
         -2   -1    0    0    0  501 -0.00000000000E+00  0.00000000000E+00  0.17361135072E+04  0.17361135072E+04  0.00000000000E+00 0.  1.
          1   -1    0    0  501    0  0.00000000000E+00 -0.00000000000E+00 -0.49529541123E+03  0.49529541123E+03  0.00000000000E+00 0. -1.
        -24    2    1    2    0    0 -0.21298622284E+03 -0.58526182372E+03  0.88066898122E+02  0.63438765328E+03  0.82446241079E+02 0.  0.
        254    2    1    2    0    0  0.21298622284E+03  0.58526182372E+03  0.11527511979E+04  0.15970212652E+04  0.91309751056E+03 0.  0.
         23    2    4    4    0    0  0.29962493843E+03  0.79781602500E+03  0.86359747649E+03  0.12168357790E+04  0.92753427334E+02 0.  0.
         23    2    4    4    0    0 -0.86638715586E+02 -0.21255420128E+03  0.28915372140E+03  0.38018548614E+03  0.90805141658E+02 0.  0.
          3    1    3    3  502    0 -0.57687359446E+02 -0.21142568043E+03 -0.42042881068E+01  0.21919472125E+03  0.00000000000E+00 0. -1.
         -4    1    3    3    0  502 -0.15529886340E+03 -0.37383614329E+03  0.92271186229E+02  0.41519293203E+03  0.00000000000E+00 0.  1.
         11    1    5    5    0    0  0.59847825442E+02  0.26454229452E+03  0.30566896308E+03  0.40865376884E+03  0.00000000000E+00 0. -1.
        -11    1    5    5    0    0  0.23977711299E+03  0.53327373048E+03  0.55792851341E+03  0.80818201020E+03  0.00000000000E+00 0.  1.
          2    1    6    6  503    0  0.10055417306E+01 -0.57765907921E+02  0.27986647968E+02  0.64196290365E+02  0.00000000000E+00 0. -1.
         -2    1    6    6    0  503 -0.87644257316E+02 -0.15478829336E+03  0.26116707343E+03  0.31598919578E+03  0.00000000000E+00 0.  1.
<mgrwt>
<rscale>  0 0.18546041E+04</rscale>
<asrwt>0</asrwt>
<pdfrwt beam="1">  1        1 0.76199295E-01 0.18546041E+04</pdfrwt>
<pdfrwt beam="2">  1       -2 0.26709438E+00 0.18546041E+04</pdfrwt>
<totfact> 0.18642083E+00</totfact>
</mgrwt>
</event>
<event>
12    4  0.4183215E-008  0.1561000E+04  0.7818608E-02  0.8844872E-01
         -2   -1    0    0    0  501 -0.00000000000E+00  0.00000000000E+00  0.12251080890E+04  0.12251080890E+04  0.00000000000E+00 0.  1.
          1   -1    0    0  501    0  0.00000000000E+00 -0.00000000000E+00 -0.49724606634E+03  0.49724606634E+03  0.00000000000E+00 0. -1.
        -24    2    1    2    0    0  0.22095463768E+03 -0.46222715398E+03  0.22688238915E+03  0.56654457130E+03  0.83798800535E+02 0.  0.
        254    2    1    2    0    0 -0.22095463768E+03  0.46222715398E+03  0.50097963353E+03  0.11558095841E+04  0.90688494728E+03 0.  0.
         23    2    4    4    0    0 -0.29335866630E+03 -0.54124828941E+02 -0.12547146519E+03  0.33609980821E+03  0.90725896500E+02 0.  0.
         23    2    4    4    0    0  0.72404028624E+02  0.51635198292E+03  0.62645109873E+03  0.81970977585E+03  0.87300766920E+02 0.  0.
          3    1    3    3  502    0  0.22157288385E+03 -0.46354194176E+03  0.23014922920E+03  0.56296921970E+03  0.00000000000E+00 0. -1.
         -4    1    3    3    0  502 -0.61824616835E+00  0.13147877752E+01 -0.32668400443E+01  0.35753516042E+01  0.00000000000E+00 0.  1.
         11    1    5    5    0    0 -0.12261518624E+03  0.22439857493E+02 -0.52264820322E+02  0.13516524163E+03  0.00000000000E+00 0. -1.
        -11    1    5    5    0    0 -0.17074348006E+03 -0.76564686435E+02 -0.73206644873E+02  0.20093456658E+03  0.00000000000E+00 0.  1.
          2    1    6    6  503    0  0.35129000747E+02  0.19222745720E+03  0.30108453376E+03  0.35893918491E+03  0.00000000000E+00 0. -1.
         -2    1    6    6    0  503  0.37275027877E+02  0.32412452573E+03  0.32536656496E+03  0.46077059094E+03  0.00000000000E+00 0.  1.
<mgrwt>
<rscale>  0 0.15609999E+04</rscale>
<asrwt>0</asrwt>
<pdfrwt beam="1">  1        1 0.76499395E-01 0.15609999E+04</pdfrwt>
<pdfrwt beam="2">  1       -2 0.18847817E+00 0.15609999E+04</pdfrwt>
<totfact> 0.59616620E+00</totfact>
</mgrwt>
</event>
<event>
12    4  0.4183215E-008  0.1583309E+04  0.7818608E-02  0.8830868E-01
          1   -1    0    0  501    0  0.00000000000E+00  0.00000000000E+00  0.10336063452E+04  0.10336063452E+04  0.00000000000E+00 0. -1.
         -2   -1    0    0    0  501 -0.00000000000E+00 -0.00000000000E+00 -0.60634021220E+03  0.60634021220E+03  0.00000000000E+00 0.  1.
        -24    2    1    2    0    0 -0.36228067329E+03  0.32508864137E+02  0.49006976455E+03  0.61556534958E+03  0.80300765841E+02 0.  0.
        254    2    1    2    0    0  0.36228067329E+03 -0.32508864137E+02 -0.62803631508E+02  0.10243812079E+04  0.95556708315E+03 0.  0.
         23    2    4    4    0    0 -0.28055082445E+03 -0.19058434989E+03  0.18913648529E+02  0.35129543302E+03  0.89552195060E+02 0.  0.
         23    2    4    4    0    0  0.64283149774E+03  0.15807548575E+03 -0.81717280037E+02  0.67308577483E+03  0.90258255829E+02 0.  0.
          3    1    3    3  502    0 -0.23354476684E+03  0.56700480827E+02  0.29336887167E+03  0.37924055362E+03  0.00000000000E+00 0. -1.
         -2    1    3    3    0  502 -0.12873590644E+03 -0.24191616690E+02  0.19670089288E+03  0.23632479596E+03  0.00000000000E+00 0.  1.
         11    1    5    5    0    0 -0.10091358791E+03 -0.88272417823E+02  0.48257374841E+02  0.14249331984E+03  0.00000000000E+00 0.  1.
        -11    1    5    5    0    0 -0.17963723654E+03 -0.10231193207E+03 -0.29343726313E+02  0.20880211318E+03  0.00000000000E+00 0. -1.
          1    1    6    6  503    0  0.94428003210E+02 -0.75940387444E+01 -0.26119477894E+01  0.94768874035E+02  0.00000000000E+00 0. -1.
         -1    1    6    6    0  503  0.54840349453E+03  0.16566952450E+03 -0.79105332248E+02  0.57831690080E+03  0.00000000000E+00 0.  1.
<mgrwt>
<rscale>  0 0.15833093E+04</rscale>
<asrwt>0</asrwt>
<pdfrwt beam="1">  1        1 0.15901636E+00 0.15833093E+04</pdfrwt>
<pdfrwt beam="2">  1       -2 0.93283110E-01 0.15833093E+04</pdfrwt>
<totfact> 0.11672799E+01</totfact>
</mgrwt>
</event>
<event>
12    4  0.4183215E-008  0.1150330E+04  0.7818608E-02  0.9157479E-01
         -2   -1    0    0    0  501 -0.00000000000E+00  0.00000000000E+00  0.29547474178E+03  0.29547474178E+03  0.00000000000E+00 0.  1.
          1   -1    0    0  501    0  0.00000000000E+00 -0.00000000000E+00 -0.11196051381E+04  0.11196051381E+04  0.00000000000E+00 0. -1.
        -24    2    1    2    0    0 -0.19881001399E+03 -0.73411489270E+02 -0.17459282132E+03  0.28494644466E+03  0.76139048112E+02 0.  0.
        254    2    1    2    0    0  0.19881001399E+03  0.73411489270E+02 -0.64953757499E+03  0.11301334352E+04  0.90021544736E+03 0.  0.
         23    2    4    4    0    0  0.22310768579E+03  0.15559709987E+03  0.14753876121E+03  0.32317070629E+03  0.93188638790E+02 0.  0.
         23    2    4    4    0    0 -0.24297671800E+02 -0.82185610604E+02 -0.79707633620E+03  0.80696272893E+03  0.92267592922E+02 0.  0.
          1    1    3    3  502    0 -0.19089557721E+03 -0.52139861666E+02 -0.17183739602E+03  0.26208353104E+03  0.00000000000E+00 0. -1.
         -2    1    3    3    0  502 -0.79144367734E+01 -0.21271627604E+02 -0.27554253066E+01  0.22862913615E+02  0.00000000000E+00 0.  1.
         11    1    5    5    0    0  0.11391716918E+03  0.12968287648E+03  0.11068377605E+03  0.20505040397E+03  0.00000000000E+00 0.  1.
        -11    1    5    5    0    0  0.10919051660E+03  0.25914223398E+02  0.36854985160E+02  0.11812030233E+03  0.00000000000E+00 0. -1.
          2    1    6    6  503    0  0.26048284519E+01  0.14115184631E+02 -0.28506931035E+02  0.31916589503E+02  0.00000000000E+00 0. -1.
         -2    1    6    6    0  503 -0.26902500252E+02 -0.96300795235E+02 -0.76856940517E+03  0.77504613943E+03  0.00000000000E+00 0.  1.
<mgrwt>
<rscale>  0 0.11503305E+04</rscale>
<asrwt>0</asrwt>
<pdfrwt beam="1">  1        1 0.17224694E+00 0.11503305E+04</pdfrwt>
<pdfrwt beam="2">  1       -2 0.45457653E-01 0.11503305E+04</pdfrwt>
<totfact> 0.48969839E+01</totfact>
</mgrwt>
</event>
<event>
12    4  0.4183215E-008  0.1673480E+04  0.7818608E-02  0.8776636E-01
         -2   -1    0    0    0  501 -0.00000000000E+00  0.00000000000E+00  0.18758256134E+04  0.18758256134E+04  0.00000000000E+00 0.  1.
          1   -1    0    0  501    0  0.00000000000E+00 -0.00000000000E+00 -0.37324041876E+03  0.37324041876E+03  0.00000000000E+00 0. -1.
        -24    2    1    2    0    0  0.27572571360E+03  0.29395611970E+03  0.11091741087E+04  0.11828006028E+04  0.79468190710E+02 0.  0.
        254    2    1    2    0    0 -0.27572571360E+03 -0.29395611970E+03  0.39341108597E+03  0.10662654293E+04  0.90538103234E+03 0.  0.
         23    2    4    4    0    0  0.76154460414E+02 -0.21130668278E+03 -0.23375982160E+03  0.33662784579E+03  0.90689780780E+02 0.  0.
         23    2    4    4    0    0 -0.35188017401E+03 -0.82649436919E+02  0.62717090757E+03  0.72963758352E+03  0.91526333315E+02 0.  0.
          1    1    3    3  502    0  0.24250056517E+03  0.21477212761E+03  0.84184836644E+03  0.90202120983E+03  0.00000000000E+00 0. -1.
         -2    1    3    3    0  502  0.33225148424E+02  0.79183992086E+02  0.26732574222E+03  0.28077939302E+03  0.00000000000E+00 0.  1.
         11    1    5    5    0    0 -0.43383802698E+01 -0.18896362042E+02 -0.66523875535E+02  0.69291558346E+02  0.00000000000E+00 0. -1.
        -11    1    5    5    0    0  0.80492840683E+02 -0.19241032074E+03 -0.16723594606E+03  0.26733628744E+03  0.00000000000E+00 0.  1.
          2    1    6    6  503    0 -0.15830211709E+03 -0.76000755965E+02  0.34882663268E+03  0.39053257847E+03  0.00000000000E+00 0. -1.
         -2    1    6    6    0  503 -0.19357805692E+03 -0.66486809539E+01  0.27834427489E+03  0.33910500504E+03  0.00000000000E+00 0.  1.
<mgrwt>
<rscale>  0 0.16734801E+04</rscale>
<asrwt>0</asrwt>
<pdfrwt beam="1">  1        1 0.57421604E-01 0.16734801E+04</pdfrwt>
<pdfrwt beam="2">  1       -2 0.28858855E+00 0.16734801E+04</pdfrwt>
<totfact> 0.20508246E+00</totfact>
</mgrwt>
</event>
<event>
12    4  0.4183215E-008  0.1629204E+04  0.7818608E-02  0.8802805E-01
          1   -1    0    0  501    0  0.00000000000E+00  0.00000000000E+00  0.86900974418E+03  0.86900974418E+03  0.00000000000E+00 0. -1.
         -2   -1    0    0    0  501 -0.00000000000E+00 -0.00000000000E+00 -0.76360043964E+03  0.76360043964E+03  0.00000000000E+00 0.  1.
        -24    2    1    2    0    0  0.31402992001E+03 -0.21466241274E+02  0.50649755186E+03  0.60113572396E+03  0.75820830996E+02 0.  0.
        254    2    1    2    0    0 -0.31402992001E+03  0.21466241274E+02 -0.40108824731E+03  0.10314744599E+04  0.89665611526E+03 0.  0.
         23    2    4    4    0    0 -0.48868912622E+02  0.38485459485E+03  0.32171658373E+02  0.40026395807E+03  0.93139630278E+02 0.  0.
         23    2    4    4    0    0 -0.26516100738E+03 -0.36338835358E+03 -0.43325990569E+03  0.63121050179E+03  0.91384333157E+02 0.  0.
          3    1    3    3  502    0  0.26735666563E+03 -0.25120280017E+02  0.47178251272E+03  0.54285297681E+03  0.00000000000E+00 0. -1.
         -4    1    3    3    0  502  0.46673254379E+02  0.36540387431E+01  0.34715039142E+02  0.58282747156E+02  0.00000000000E+00 0.  1.
         11    1    5    5    0    0  0.48888690005E+01  0.25634559036E+03 -0.37021249374E+01  0.25641893157E+03  0.00000000000E+00 0. -1.
        -11    1    5    5    0    0 -0.53757781623E+02  0.12850900449E+03  0.35873783311E+02  0.14384502650E+03  0.00000000000E+00 0.  1.
          1    1    6    6  503    0 -0.15533148140E+03 -0.18785546822E+03 -0.17438281477E+03  0.29971138141E+03  0.00000000000E+00 0. -1.
         -1    1    6    6    0  503 -0.10982952598E+03 -0.17553288536E+03 -0.25887709091E+03  0.33149912039E+03  0.00000000000E+00 0.  1.
<mgrwt>
<rscale>  0 0.16292038E+04</rscale>
<asrwt>0</asrwt>
<pdfrwt beam="1">  1        1 0.13369381E+00 0.16292038E+04</pdfrwt>
<pdfrwt beam="2">  1       -2 0.11747699E+00 0.16292038E+04</pdfrwt>
<totfact> 0.90611692E+00</totfact>
</mgrwt>
</event>
<event>
12    4  0.4183215E-008  0.1874765E+04  0.7818608E-02  0.8667520E-01
          1   -1    0    0  501    0  0.00000000000E+00  0.00000000000E+00  0.51096260035E+03  0.51096260035E+03  0.00000000000E+00 0. -1.
         -2   -1    0    0    0  501 -0.00000000000E+00 -0.00000000000E+00 -0.17196677709E+04  0.17196677709E+04  0.00000000000E+00 0.  1.
        -24    2    1    2    0    0  0.59661866338E+03 -0.20466127666E+03 -0.61800353078E+02  0.63875535085E+03  0.79680907044E+02 0.  0.
        254    2    1    2    0    0 -0.59661866338E+03  0.20466127666E+03 -0.11469048174E+04  0.15918750204E+04  0.90599964269E+03 0.  0.
         23    2    4    4    0    0 -0.53675202081E+03  0.40123939541E+03 -0.34491730574E+03  0.75914217164E+03  0.90736457367E+02 0.  0.
         23    2    4    4    0    0 -0.59866642571E+02 -0.19657811875E+03 -0.80198751170E+03  0.83273284873E+03  0.89627321566E+02 0.  0.
          3    1    3    3  502    0  0.59497215384E+03 -0.20903188680E+03 -0.63437258857E+02  0.63380634215E+03  0.00000000000E+00 0. -1.
         -4    1    3    3    0  502  0.16465095378E+01  0.43706101323E+01  0.16369057794E+01  0.49490087004E+01  0.00000000000E+00 0.  1.
         11    1    5    5    0    0 -0.34576455809E+03  0.20765139425E+03 -0.18575099563E+03  0.44404466391E+03  0.00000000000E+00 0. -1.
        -11    1    5    5    0    0 -0.19098746272E+03  0.19358800116E+03 -0.15916631011E+03  0.31509750773E+03  0.00000000000E+00 0.  1.
          1    1    6    6  503    0 -0.50515731320E+01  0.38117274228E+00 -0.13547326294E+03  0.13556794848E+03  0.00000000000E+00 0. -1.
         -1    1    6    6    0  503 -0.54815069439E+02 -0.19695929149E+03 -0.66651424876E+03  0.69716490025E+03  0.00000000000E+00 0.  1.
<mgrwt>
<rscale>  0 0.18747650E+04</rscale>
<asrwt>0</asrwt>
<pdfrwt beam="1">  1        1 0.78609633E-01 0.18747650E+04</pdfrwt>
<pdfrwt beam="2">  1       -2 0.26456426E+00 0.18747650E+04</pdfrwt>
<totfact> 0.18470554E+00</totfact>
</mgrwt>
</event>
<event>
12    4  0.4183215E-008  0.2173715E+04  0.7818608E-02  0.8529449E-01
          1   -1    0    0  501    0  0.00000000000E+00  0.00000000000E+00  0.21775753592E+04  0.21775753592E+04  0.00000000000E+00 0. -1.
         -2   -1    0    0    0  501 -0.00000000000E+00 -0.00000000000E+00 -0.54246548137E+03  0.54246548137E+03  0.00000000000E+00 0.  1.
        -24    2    1    2    0    0 -0.44071926948E+03 -0.82118383525E+02 -0.29476043159E+03  0.54436310763E+03  0.92035740423E+02 0.  0.
        254    2    1    2    0    0  0.44071926948E+03  0.82118383525E+02  0.19298703094E+04  0.21756777329E+04  0.89899793269E+03 0.  0.
         23    2    4    4    0    0 -0.19259969024E+02 -0.89704619224E+02  0.15312375393E+04  0.15367470460E+04  0.92115235477E+02 0.  0.
         23    2    4    4    0    0  0.45997923851E+03  0.17182300275E+03  0.39863277008E+03  0.63893068686E+03  0.90665832064E+02 0.  0.
          1    1    3    3  502    0 -0.12304729907E+03  0.16793784253E+02 -0.66458316165E+02  0.14085232261E+03  0.00000000000E+00 0. -1.
         -2    1    3    3    0  502 -0.31767197041E+03 -0.98912167778E+02 -0.22830211542E+03  0.40351078502E+03  0.00000000000E+00 0.  1.
         11    1    5    5    0    0 -0.44438136467E+02 -0.85287976638E+02  0.92839333582E+03  0.93336111603E+03  0.00000000000E+00 0.  1.
        -11    1    5    5    0    0  0.25178167443E+02 -0.44166425859E+01  0.60284420348E+03  0.60338593000E+03  0.00000000000E+00 0. -1.
          3    1    6    6  503    0  0.13271818726E+03  0.53116297898E+02  0.66057025656E+02  0.15747694743E+03  0.00000000000E+00 0. -1.
         -3    1    6    6    0  503  0.32726105124E+03  0.11870670485E+03  0.33257574442E+03  0.48145373943E+03  0.00000000000E+00 0.  1.
<mgrwt>
<rscale>  0 0.21737152E+04</rscale>
<asrwt>0</asrwt>
<pdfrwt beam="1">  1        1 0.33501159E+00 0.21737152E+04</pdfrwt>
<pdfrwt beam="2">  1       -2 0.83456229E-01 0.21737152E+04</pdfrwt>
<totfact> 0.22756744E+00</totfact>
</mgrwt>
</event>
<event>
12    4  0.4183215E-008  0.1552835E+04  0.7818608E-02  0.8850059E-01
          1   -1    0    0  501    0  0.00000000000E+00  0.00000000000E+00  0.94286085262E+03  0.94286085262E+03  0.00000000000E+00 0. -1.
         -2   -1    0    0    0  501 -0.00000000000E+00 -0.00000000000E+00 -0.63935664454E+03  0.63935664454E+03  0.00000000000E+00 0.  1.
        -24    2    1    2    0    0  0.23115642070E+03 -0.10090407554E+03 -0.35039771882E+03  0.44181681974E+03  0.93854235706E+02 0.  0.
        254    2    1    2    0    0 -0.23115642070E+03  0.10090407554E+03  0.65390192689E+03  0.11404006774E+04  0.89961716956E+03 0.  0.
         23    2    4    4    0    0 -0.50816762565E+02 -0.36585491263E+03  0.11182444825E+03  0.39707854217E+03  0.93458552174E+02 0.  0.
         23    2    4    4    0    0 -0.18033965813E+03  0.46675898817E+03  0.54207747865E+03  0.74332213525E+03  0.91068427934E+02 0.  0.
          3    1    3    3  502    0  0.92673155254E+02 -0.75727435003E+01 -0.18351979179E+03  0.20573082931E+03  0.00000000000E+00 0. -1.
         -4    1    3    3    0  502  0.13848326544E+03 -0.93331332043E+02 -0.16687792703E+03  0.23608599043E+03  0.00000000000E+00 0.  1.
         11    1    5    5    0    0  0.17571221119E+02 -0.12658323846E+03  0.66739913480E+02  0.14417447805E+03  0.00000000000E+00 0.  1.
        -11    1    5    5    0    0 -0.68387983684E+02 -0.23927167417E+03  0.45084534769E+02  0.25290406412E+03  0.00000000000E+00 0. -1.
          2    1    6    6  503    0 -0.88677978882E+01  0.13221811450E+03  0.13305918259E+03  0.18778981259E+03  0.00000000000E+00 0. -1.
         -2    1    6    6    0  503 -0.17147186024E+03  0.33454087367E+03  0.40901829606E+03  0.55553232266E+03  0.00000000000E+00 0.  1.
<mgrwt>
<rscale>  0 0.15528353E+04</rscale>
<asrwt>0</asrwt>
<pdfrwt beam="1">  1        1 0.14505552E+00 0.15528353E+04</pdfrwt>
<pdfrwt beam="2">  1       -2 0.98362561E-01 0.15528353E+04</pdfrwt>
<totfact> 0.12178645E+01</totfact>
</mgrwt>
</event>
<event>
12    4  0.4183215E-008  0.1670035E+04  0.7818608E-02  0.8778642E-01
          1   -1    0    0  501    0  0.00000000000E+00  0.00000000000E+00  0.13165946563E+04  0.13165946563E+04  0.00000000000E+00 0. -1.
         -2   -1    0    0    0  501 -0.00000000000E+00 -0.00000000000E+00 -0.52958892833E+03  0.52958892833E+03  0.00000000000E+00 0.  1.
        -24    2    1    2    0    0 -0.50893673261E+03 -0.12251004264E+03 -0.26010741779E+02  0.53011930763E+03  0.79527437367E+02 0.  0.
        254    2    1    2    0    0  0.50893673261E+03  0.12251004264E+03  0.81301646979E+03  0.13160642770E+04  0.89275085707E+03 0.  0.
         23    2    4    4    0    0  0.53239155699E+03  0.37620968252E+03  0.81325828017E+03  0.10463749437E+04  0.92395872969E+02 0.  0.
         23    2    4    4    0    0 -0.23454824380E+02 -0.25369963988E+03 -0.24181037797E+00  0.26968933335E+03  0.88423085164E+02 0.  0.
          1    1    3    3  502    0 -0.26445566754E+03 -0.41670368525E+02  0.20305264966E+02  0.26848747362E+03  0.00000000000E+00 0. -1.
         -2    1    3    3    0  502 -0.24448106507E+03 -0.80839674116E+02 -0.46316006745E+02  0.26163183401E+03  0.00000000000E+00 0.  1.
         11    1    5    5    0    0  0.47735266756E+03  0.34649105410E+03  0.68704428825E+03  0.90551171931E+03  0.00000000000E+00 0. -1.
        -11    1    5    5    0    0  0.55038889426E+02  0.29718628416E+02  0.12621399192E+03  0.14086322438E+03  0.00000000000E+00 0.  1.
          3    1    6    6  503    0  0.84299247996E+01 -0.18544515865E+03  0.30865007359E+02  0.18818506629E+03  0.00000000000E+00 0. -1.
         -3    1    6    6    0  503 -0.31884749180E+02 -0.68254481234E+02 -0.31106817737E+02  0.81504267056E+02  0.00000000000E+00 0.  1.
<mgrwt>
<rscale>  0 0.16700347E+04</rscale>
<asrwt>0</asrwt>
<pdfrwt beam="1">  1        1 0.20255302E+00 0.16700347E+04</pdfrwt>
<pdfrwt beam="2">  1       -2 0.81475220E-01 0.16700347E+04</pdfrwt>
<totfact> 0.97716013E+00</totfact>
</mgrwt>
</event>
<event>
12    4  0.4183215E-008  0.2882491E+04  0.7818608E-02  0.8278106E-01
         -2   -1    0    0    0  501 -0.00000000000E+00  0.00000000000E+00  0.86202038543E+03  0.86202038543E+03  0.00000000000E+00 0.  1.
          1   -1    0    0  501    0  0.00000000000E+00 -0.00000000000E+00 -0.24096737433E+04  0.24096737433E+04  0.00000000000E+00 0. -1.
        -24    2    1    2    0    0 -0.59248620443E+03 -0.57130987966E+03 -0.18452967409E+04  0.20221588164E+04  0.81063776660E+02 0.  0.
        254    2    1    2    0    0  0.59248620443E+03  0.57130987966E+03  0.29764338301E+03  0.12495353123E+04  0.89180268682E+03 0.  0.
         23    2    4    4    0    0  0.44113424264E+03  0.71400002504E+03 -0.37490639016E+02  0.84456514881E+03  0.86540665479E+02 0.  0.
         23    2    4    4    0    0  0.15135196178E+03 -0.14269014538E+03  0.33513402203E+03  0.40497016350E+03  0.91750349735E+02 0.  0.
          1    1    3    3  502    0 -0.58016548617E+03 -0.54325315075E+03 -0.17975264945E+04  0.19654051683E+04  0.00000000000E+00 0. -1.
         -2    1    3    3    0  502 -0.12320718253E+02 -0.28056728909E+02 -0.47770246334E+02  0.56753648078E+02  0.00000000000E+00 0.  1.
         11    1    5    5    0    0  0.59575410149E+02  0.13624295864E+03 -0.32294662963E+02  0.15216543145E+03  0.00000000000E+00 0.  1.
        -11    1    5    5    0    0  0.38155883249E+03  0.57775706640E+03 -0.51959760531E+01  0.69239971736E+03  0.00000000000E+00 0. -1.
          4    1    6    6  503    0 -0.11551405691E+02 -0.91302244856E+01  0.37880362856E+02  0.40641331951E+02  0.00000000000E+00 0. -1.
         -4    1    6    6    0  503  0.16290336747E+03 -0.13355992089E+03  0.29725365917E+03  0.36432883154E+03  0.00000000000E+00 0.  1.
<mgrwt>
<rscale>  0 0.28824905E+04</rscale>
<asrwt>0</asrwt>
<pdfrwt beam="1">  1        1 0.37071903E+00 0.28824905E+04</pdfrwt>
<pdfrwt beam="2">  1       -2 0.13261852E+00 0.28824905E+04</pdfrwt>
<totfact> 0.48822894E-01</totfact>
</mgrwt>
</event>
<event>
12    4  0.4183215E-008  0.1771789E+04  0.7818608E-02  0.8721447E-01
         -2   -1    0    0    0  501 -0.00000000000E+00  0.00000000000E+00  0.31260747062E+04  0.31260747062E+04  0.00000000000E+00 0.  1.
          1   -1    0    0  501    0  0.00000000000E+00 -0.00000000000E+00 -0.25105259606E+03  0.25105259606E+03  0.00000000000E+00 0. -1.
        -24    2    1    2    0    0  0.63222383533E+03 -0.91195031559E+02  0.79734978873E+03  0.10246937093E+04  0.78784519188E+02 0.  0.
        254    2    1    2    0    0 -0.63222383533E+03  0.91195031559E+02  0.20776723214E+04  0.23524335930E+04  0.89955434664E+03 0.  0.
         23    2    4    4    0    0 -0.70983952185E+03 -0.22202286554E+03  0.16201728062E+04  0.17850131319E+04  0.90253306943E+02 0.  0.
         23    2    4    4    0    0  0.77615686523E+02  0.31321789709E+03  0.45749951519E+03  0.56742046110E+03  0.92360854396E+02 0.  0.
          3    1    3    3  502    0  0.55154608596E+03 -0.90410096068E+02  0.73131451805E+03  0.92043359061E+03  0.00000000000E+00 0. -1.
         -4    1    3    3    0  502  0.80677749371E+02 -0.78493549098E+00  0.66035270684E+02  0.10426011865E+03  0.00000000000E+00 0.  1.
         11    1    5    5    0    0 -0.69529260607E+03 -0.21568982257E+03  0.16076783626E+04  0.17648182980E+04  0.00000000000E+00 0. -1.
        -11    1    5    5    0    0 -0.14546915780E+02 -0.63330429644E+01  0.12494443618E+02  0.20194833825E+02  0.00000000000E+00 0.  1.
          3    1    6    6  503    0  0.19002957450E+02  0.22029982115E+03  0.25901836360E+03  0.34056370369E+03  0.00000000000E+00 0. -1.
         -3    1    6    6    0  503  0.58612729073E+02  0.92918075943E+02  0.19848115158E+03  0.22685675740E+03  0.00000000000E+00 0.  1.
<mgrwt>
<rscale>  0 0.17717891E+04</rscale>
<asrwt>0</asrwt>
<pdfrwt beam="1">  1        1 0.38623478E-01 0.17717891E+04</pdfrwt>
<pdfrwt beam="2">  1       -2 0.48093454E+00 0.17717891E+04</pdfrwt>
<totfact> 0.19924775E-01</totfact>
</mgrwt>
</event>
<event>
12    4  0.4183215E-008  0.2069979E+04  0.7818608E-02  0.8574584E-01
         -2   -1    0    0    0  501 -0.00000000000E+00  0.00000000000E+00  0.43969787853E+03  0.43969787853E+03  0.00000000000E+00 0.  1.
          1   -1    0    0  501    0  0.00000000000E+00 -0.00000000000E+00 -0.24362267256E+04  0.24362267256E+04  0.00000000000E+00 0. -1.
        -24    2    1    2    0    0  0.72064178334E+02 -0.26216895277E+03 -0.19176189637E+04  0.19383761465E+04  0.78190726842E+02 0.  0.
        254    2    1    2    0    0 -0.72064178334E+02  0.26216895277E+03 -0.78909883333E+02  0.93754845759E+03  0.89378103305E+03 0.  0.
         23    2    4    4    0    0  0.22078415397E+03  0.24528364162E+03 -0.37735834470E+03  0.50992284448E+03  0.93339592448E+02 0.  0.
         23    2    4    4    0    0 -0.29284833231E+03  0.16885311153E+02  0.29844846137E+03  0.42762561311E+03  0.88016597450E+02 0.  0.
          3    1    3    3  502    0  0.66627360668E+02 -0.11644578004E+03 -0.78071643532E+03  0.79215969176E+03  0.00000000000E+00 0. -1.
         -4    1    3    3    0  502  0.54368176660E+01 -0.14572317273E+03 -0.11369025284E+04  0.11462164548E+04  0.00000000000E+00 0.  1.
         11    1    5    5    0    0  0.53480073154E+02  0.72183654662E+02 -0.47682020118E+02  0.10170630889E+03  0.00000000000E+00 0. -1.
        -11    1    5    5    0    0  0.16730408082E+03  0.17309998696E+03 -0.32967632458E+03  0.40821653559E+03  0.00000000000E+00 0.  1.
          1    1    6    6  503    0 -0.68268338704E+02 -0.32760472581E+02  0.63306895400E+02  0.98699430790E+02  0.00000000000E+00 0. -1.
         -1    1    6    6    0  503 -0.22457999360E+03  0.49645783734E+02  0.23514156597E+03  0.32892618232E+03  0.00000000000E+00 0.  1.
<mgrwt>
<rscale>  0 0.20699794E+04</rscale>
<asrwt>0</asrwt>
<pdfrwt beam="1">  1        1 0.37480412E+00 0.20699794E+04</pdfrwt>
<pdfrwt beam="2">  1       -2 0.67645827E-01 0.20699794E+04</pdfrwt>
<totfact> 0.24338218E+00</totfact>
</mgrwt>
</event>
<event>
12    4  0.4183215E-008  0.1316494E+04  0.7818608E-02  0.9016587E-01
         -2   -1    0    0    0  501 -0.00000000000E+00  0.00000000000E+00  0.55408736972E+03  0.55408736972E+03  0.00000000000E+00 0.  1.
          1   -1    0    0  501    0  0.00000000000E+00 -0.00000000000E+00 -0.78198655578E+03  0.78198655578E+03  0.00000000000E+00 0. -1.
        -24    2    1    2    0    0 -0.16513214912E+03 -0.35266102177E+03 -0.78949553853E+02  0.40548158411E+03  0.80894128623E+02 0.  0.
        254    2    1    2    0    0  0.16513214912E+03  0.35266102177E+03 -0.14894963221E+03  0.93059234139E+03  0.83197216899E+03 0.  0.
         23    2    4    4    0    0  0.64658044242E+02 -0.16512541412E+03  0.20720830266E+03  0.28787391930E+03  0.92136027964E+02 0.  0.
         23    2    4    4    0    0  0.10047410488E+03  0.51778643589E+03 -0.35615793487E+03  0.64271842209E+03  0.89669708290E+02 0.  0.
          3    1    3    3  502    0 -0.40982182546E+02 -0.37815995903E+02  0.72637093627E+01  0.56234778439E+02  0.00000000000E+00 0. -1.
         -4    1    3    3    0  502 -0.12414996658E+03 -0.31484502587E+03 -0.86213263216E+02  0.34924680567E+03  0.00000000000E+00 0.  1.
         11    1    5    5    0    0 -0.16662360478E+02 -0.10127891227E+02  0.44216760815E+01  0.19993990516E+02  0.00000000000E+00 0. -1.
        -11    1    5    5    0    0  0.81320404720E+02 -0.15499752289E+03  0.20278662657E+03  0.26787992878E+03  0.00000000000E+00 0.  1.
          1    1    6    6  503    0 -0.92087014495E+01  0.13681287283E+03 -0.11261827148E+03  0.17744136335E+03  0.00000000000E+00 0. -1.
         -1    1    6    6    0  503  0.10968280633E+03  0.38097356306E+03 -0.24353966339E+03  0.46527705875E+03  0.00000000000E+00 0.  1.
<mgrwt>
<rscale>  0 0.13164936E+04</rscale>
<asrwt>0</asrwt>
<pdfrwt beam="1">  1        1 0.12030562E+00 0.13164936E+04</pdfrwt>
<pdfrwt beam="2">  1       -2 0.85244211E-01 0.13164936E+04</pdfrwt>
<totfact> 0.23600270E+01</totfact>
</mgrwt>
</event>
<event>
12    4  0.4183215E-008  0.2588943E+04  0.7818608E-02  0.8371967E-01
          1   -1    0    0  501    0  0.00000000000E+00  0.00000000000E+00  0.33157537415E+04  0.33157537415E+04  0.00000000000E+00 0. -1.
         -2   -1    0    0    0  501 -0.00000000000E+00 -0.00000000000E+00 -0.50536224069E+03  0.50536224069E+03  0.00000000000E+00 0.  1.
        -24    2    1    2    0    0 -0.22332372955E+03  0.12249268878E+03  0.28664793971E+04  0.28787656232E+04  0.75560786100E+02 0.  0.
        254    2    1    2    0    0  0.22332372955E+03 -0.12249268878E+03 -0.56087896260E+02  0.94235035901E+03  0.90553873470E+03 0.  0.
         23    2    4    4    0    0  0.41965796323E+03 -0.29707863072E+03 -0.27315931236E+03  0.58927963717E+03  0.90917335685E+02 0.  0.
         23    2    4    4    0    0 -0.19633423368E+03  0.17458594194E+03  0.21707141610E+03  0.35307072184E+03  0.92258075520E+02 0.  0.
          3    1    3    3  502    0 -0.12285528944E+03  0.54720057329E+02  0.18930272540E+04  0.18977986961E+04  0.00000000000E+00 0. -1.
         -4    1    3    3    0  502 -0.10046844011E+03  0.67772631450E+02  0.97345214312E+03  0.98096692705E+03  0.00000000000E+00 0.  1.
         11    1    5    5    0    0  0.14013622483E+02  0.57199162292E+01 -0.27472150921E+01  0.15383310681E+02  0.00000000000E+00 0. -1.
        -11    1    5    5    0    0  0.40564434074E+03 -0.30279854695E+03 -0.27041209726E+03  0.57389632649E+03  0.00000000000E+00 0.  1.
          3    1    6    6  503    0 -0.11447361659E+02  0.37680866294E+02  0.69102767928E+02  0.79536672729E+02  0.00000000000E+00 0. -1.
         -3    1    6    6    0  503 -0.18488687202E+03  0.13690507565E+03  0.14796864817E+03  0.27353404911E+03  0.00000000000E+00 0.  1.
<mgrwt>
<rscale>  0 0.25889432E+04</rscale>
<asrwt>0</asrwt>
<pdfrwt beam="1">  1        1 0.51011595E+00 0.25889432E+04</pdfrwt>
<pdfrwt beam="2">  1       -2 0.77748039E-01 0.25889432E+04</pdfrwt>
<totfact> 0.39699614E-01</totfact>
</mgrwt>
</event>
<event>
12    4  0.4183215E-008  0.2474232E+04  0.7818608E-02  0.8412223E-01
          3   -1    0    0  501    0  0.00000000000E+00  0.00000000000E+00  0.11037352246E+04  0.11037352246E+04  0.00000000000E+00 0. -1.
         -4   -1    0    0    0  501 -0.00000000000E+00 -0.00000000000E+00 -0.13866151903E+04  0.13866151903E+04  0.00000000000E+00 0.  1.
        -24    2    1    2    0    0  0.82620646366E+02 -0.85271737529E+03  0.52029382140E+03  0.10055061362E+04  0.79898911388E+02 0.  0.
        254    2    1    2    0    0 -0.82620646366E+02  0.85271737529E+03 -0.80317378707E+03  0.14848442787E+04  0.90869208556E+03 0.  0.
         23    2    4    4    0    0 -0.41859958609E+03  0.13416928560E+03 -0.25240620726E+03  0.51516013504E+03  0.91945965640E+02 0.  0.
         23    2    4    4    0    0  0.33597893972E+03  0.71854808970E+03 -0.55076757981E+03  0.96968414365E+03  0.88029576437E+02 0.  0.
          1    1    3    3  502    0  0.98529768088E+02 -0.70384533364E+03  0.42944343014E+03  0.83037824429E+03  0.00000000000E+00 0. -1.
         -2    1    3    3    0  502 -0.15909121722E+02 -0.14887204165E+03  0.90850391260E+02  0.17512789193E+03  0.00000000000E+00 0.  1.
         11    1    5    5    0    0 -0.40358891594E+03  0.12749549754E+03 -0.26035119615E+03  0.49691232657E+03  0.00000000000E+00 0. -1.
        -11    1    5    5    0    0 -0.15010670146E+02  0.66737880555E+01  0.79449888898E+01  0.18247808463E+02  0.00000000000E+00 0.  1.
          3    1    6    6  503    0  0.27860811575E+03  0.56046078599E+03 -0.39270623168E+03  0.73888900329E+03  0.00000000000E+00 0. -1.
         -3    1    6    6    0  503  0.57370823974E+02  0.15808730371E+03 -0.15806134813E+03  0.23079514036E+03  0.00000000000E+00 0.  1.
<mgrwt>
<rscale>  0 0.24742320E+04</rscale>
<asrwt>0</asrwt>
<pdfrwt beam="1">  1        3 0.16980542E+00 0.24742320E+04</pdfrwt>
<pdfrwt beam="2">  1       -4 0.21332541E+00 0.24742320E+04</pdfrwt>
<totfact> 0.51101981E-02</totfact>
</mgrwt>
</event>
<event>
12    4  0.4183215E-008  0.1540969E+04  0.7818608E-02  0.8857657E-01
         -2   -1    0    0    0  501 -0.00000000000E+00  0.00000000000E+00  0.67201119512E+03  0.67201119512E+03  0.00000000000E+00 0.  1.
          1   -1    0    0  501    0  0.00000000000E+00 -0.00000000000E+00 -0.88338730977E+03  0.88338730977E+03  0.00000000000E+00 0. -1.
        -24    2    1    2    0    0  0.27665924514E+03  0.25095218768E+03 -0.40150290054E+03  0.55425778566E+03  0.80497052142E+02 0.  0.
        254    2    1    2    0    0 -0.27665924514E+03 -0.25095218768E+03  0.19012678589E+03  0.10011407192E+04  0.90918491330E+03 0.  0.
         23    2    4    4    0    0  0.14378506627E+03  0.25955178566E+03  0.11428773775E+03  0.32917421738E+03  0.85162806825E+02 0.  0.
         23    2    4    4    0    0 -0.42044431141E+03 -0.51050397334E+03  0.75839048143E+02  0.67196650185E+03  0.91649836854E+02 0.  0.
          1    1    3    3  502    0  0.16909140046E+03  0.20314563419E+03 -0.28273867403E+03  0.38704161042E+03  0.00000000000E+00 0. -1.
         -2    1    3    3    0  502  0.10756784469E+03  0.47806553486E+02 -0.11876422651E+03  0.16721617525E+03  0.00000000000E+00 0.  1.
         11    1    5    5    0    0  0.11665797969E+03  0.12525628139E+03  0.53946811430E+02  0.17946720791E+03  0.00000000000E+00 0. -1.
        -11    1    5    5    0    0  0.27127086574E+02  0.13429550427E+03  0.60340926318E+02  0.14970700946E+03  0.00000000000E+00 0.  1.
          2    1    6    6  503    0 -0.27847278906E+03 -0.37740988527E+03  0.87075633926E+02  0.47704033558E+03  0.00000000000E+00 0. -1.
         -2    1    6    6    0  503 -0.14197152235E+03 -0.13309408807E+03 -0.11236585783E+02  0.19492616627E+03  0.00000000000E+00 0.  1.
<mgrwt>
<rscale>  0 0.15409687E+04</rscale>
<asrwt>0</asrwt>
<pdfrwt beam="1">  1        1 0.13590574E+00 0.15409687E+04</pdfrwt>
<pdfrwt beam="2">  1       -2 0.10338634E+00 0.15409687E+04</pdfrwt>
<totfact> 0.12105311E+01</totfact>
</mgrwt>
</event>
<event>
12    4  0.4183215E-008  0.1201305E+04  0.7818608E-02  0.9111715E-01
         -2   -1    0    0    0  501 -0.00000000000E+00  0.00000000000E+00  0.41905056527E+03  0.41905056527E+03  0.00000000000E+00 0.  1.
          1   -1    0    0  501    0  0.00000000000E+00 -0.00000000000E+00 -0.86095420724E+03  0.86095420724E+03  0.00000000000E+00 0. -1.
        -24    2    1    2    0    0  0.36229184712E+02  0.11272899320E+03  0.14309064422E+03  0.20172919910E+03  0.78735999230E+02 0.  0.
        254    2    1    2    0    0 -0.36229184712E+02 -0.11272899320E+03 -0.58499428618E+03  0.10782755734E+04  0.89801977574E+03 0.  0.
         23    2    4    4    0    0 -0.27050639983E+03 -0.41761201268E+03 -0.27114152030E+03  0.57384818462E+03  0.90611861743E+02 0.  0.
         23    2    4    4    0    0  0.23427721511E+03  0.30488301948E+03 -0.31385276589E+03  0.50442738879E+03  0.90022012925E+02 0.  0.
          3    1    3    3  502    0  0.22216694029E+02 -0.18908854826E+01  0.44984984116E+02  0.50207626288E+02  0.00000000000E+00 0. -1.
         -4    1    3    3    0  502  0.14012490682E+02  0.11461987868E+03  0.98105660100E+02  0.15152157281E+03  0.00000000000E+00 0.  1.
         11    1    5    5    0    0 -0.55470894530E+02 -0.15208066527E+03 -0.62669838379E+02  0.17358875980E+03  0.00000000000E+00 0.  1.
        -11    1    5    5    0    0 -0.21503550530E+03 -0.26553134741E+03 -0.20847168192E+03  0.40025942482E+03  0.00000000000E+00 0. -1.
          4    1    6    6  503    0  0.93020776599E+02  0.56208893842E+02 -0.79001907466E+02  0.13436370793E+03  0.00000000000E+00 0. -1.
         -4    1    6    6    0  503  0.14125643851E+03  0.24867412564E+03 -0.23485085842E+03  0.37006368085E+03  0.00000000000E+00 0.  1.
<mgrwt>
<rscale>  0 0.12013049E+04</rscale>
<asrwt>0</asrwt>
<pdfrwt beam="1">  1        1 0.13245449E+00 0.12013049E+04</pdfrwt>
<pdfrwt beam="2">  1       -2 0.64469318E-01 0.12013049E+04</pdfrwt>
<totfact> 0.37788089E+01</totfact>
</mgrwt>
</event>
<event>
12    4  0.4183215E-008  0.1653238E+04  0.7818608E-02  0.8788493E-01
         -2   -1    0    0    0  501 -0.00000000000E+00  0.00000000000E+00  0.61939549452E+03  0.61939549452E+03  0.00000000000E+00 0.  1.
          1   -1    0    0  501    0  0.00000000000E+00 -0.00000000000E+00 -0.11031705930E+04  0.11031705930E+04  0.00000000000E+00 0. -1.
        -24    2    1    2    0    0 -0.27433709938E+03 -0.45885507748E+03  0.64088080529E+02  0.54426367747E+03  0.79415630174E+02 0.  0.
        254    2    1    2    0    0  0.27433709938E+03  0.45885507748E+03 -0.54786317898E+03  0.11783024100E+04  0.89578662657E+03 0.  0.
         23    2    4    4    0    0 -0.12153622815E+03 -0.15796171900E+03  0.56913354298E+02  0.22386066625E+03  0.84566592545E+02 0.  0.
         23    2    4    4    0    0  0.39587332753E+03  0.61681679648E+03 -0.60477653328E+03  0.95444174377E+03  0.89586467571E+02 0.  0.
          1    1    3    3  502    0 -0.13227665147E+03 -0.18182150744E+03  0.60760556660E+02  0.23291203992E+03  0.00000000000E+00 0. -1.
         -2    1    3    3    0  502 -0.14206044791E+03 -0.27703357004E+03  0.33275238693E+01  0.31135163755E+03  0.00000000000E+00 0.  1.
         11    1    5    5    0    0 -0.87997193553E+02 -0.48531156715E+02  0.40008899211E+02  0.10816418659E+03  0.00000000000E+00 0. -1.
        -11    1    5    5    0    0 -0.33539034597E+02 -0.10943056228E+03  0.16904455087E+02  0.11569647965E+03  0.00000000000E+00 0.  1.
          1    1    6    6  503    0  0.71069665980E+02  0.80697434495E+02 -0.12619996306E+03  0.16579928840E+03  0.00000000000E+00 0. -1.
         -1    1    6    6    0  503  0.32480366155E+03  0.53611936198E+03 -0.47857657022E+03  0.78864245537E+03  0.00000000000E+00 0.  1.
<mgrwt>
<rscale>  0 0.16532379E+04</rscale>
<asrwt>0</asrwt>
<pdfrwt beam="1">  1        1 0.16971855E+00 0.16532379E+04</pdfrwt>
<pdfrwt beam="2">  1       -2 0.95291615E-01 0.16532379E+04</pdfrwt>
<totfact> 0.97746424E+00</totfact>
</mgrwt>
</event>
<event>
12    4  0.4183215E-008  0.1442023E+04  0.7818608E-02  0.8923950E-01
         -2   -1    0    0    0  501 -0.00000000000E+00  0.00000000000E+00  0.47588070852E+03  0.47588070852E+03  0.00000000000E+00 0.  1.
          1   -1    0    0  501    0  0.00000000000E+00 -0.00000000000E+00 -0.10924110542E+04  0.10924110542E+04  0.00000000000E+00 0. -1.
        -24    2    1    2    0    0 -0.79110006506E+01  0.63315224037E+01  0.28557120949E+03  0.29622157076E+03  0.78061713958E+02 0.  0.
        254    2    1    2    0    0  0.79110006506E+01 -0.63315224037E+01 -0.90210155522E+03  0.12720701920E+04  0.89681251404E+03 0.  0.
         23    2    4    4    0    0 -0.22186067927E+03 -0.62655861709E+02  0.77063957549E+02  0.26043948679E+03  0.93498420912E+02 0.  0.
         23    2    4    4    0    0  0.22977167992E+03  0.56324339305E+02 -0.97916551277E+03  0.10116307052E+04  0.93081288281E+02 0.  0.
          3    1    3    3  502    0  0.16486412369E+02  0.62798441285E+01  0.11483502572E+02  0.21050155971E+02  0.00000000000E+00 0. -1.
         -4    1    3    3    0  502 -0.24397413020E+02  0.51678275209E-01  0.27408770692E+03  0.27517141479E+03  0.00000000000E+00 0.  1.
         11    1    5    5    0    0 -0.77290178878E+02 -0.68761134398E+02  0.41274875092E+02  0.11137989347E+03  0.00000000000E+00 0. -1.
        -11    1    5    5    0    0 -0.14457050040E+03  0.61052726888E+01  0.35789082457E+02  0.14905959333E+03  0.00000000000E+00 0.  1.
          4    1    6    6  503    0  0.16367489782E+03  0.76999925158E+02 -0.78228049392E+03  0.80292043928E+03  0.00000000000E+00 0. -1.
         -4    1    6    6    0  503  0.66096782106E+02 -0.20675585852E+02 -0.19688501885E+03  0.20871026593E+03  0.00000000000E+00 0.  1.
<mgrwt>
<rscale>  0 0.14420227E+04</rscale>
<asrwt>0</asrwt>
<pdfrwt beam="1">  1        1 0.16806324E+00 0.14420227E+04</pdfrwt>
<pdfrwt beam="2">  1       -2 0.73212417E-01 0.14420227E+04</pdfrwt>
<totfact> 0.18441465E+01</totfact>
</mgrwt>
</event>
<event>
12    4  0.4183215E-008  0.3037816E+04  0.7818608E-02  0.8233014E-01
          1   -1    0    0  501    0  0.00000000000E+00  0.00000000000E+00  0.98300269589E+03  0.98300269589E+03  0.00000000000E+00 0. -1.
         -2   -1    0    0    0  501 -0.00000000000E+00 -0.00000000000E+00 -0.23469738665E+04  0.23469738665E+04  0.00000000000E+00 0.  1.
        -24    2    1    2    0    0 -0.35842275546E+03 -0.44467087740E+03 -0.20029823808E+04  0.20843190250E+04  0.79046311386E+02 0.  0.
        254    2    1    2    0    0  0.35842275546E+03  0.44467087740E+03  0.63901121019E+03  0.12456575374E+04  0.90395149920E+03 0.  0.
         23    2    4    4    0    0  0.44253303615E+02 -0.19321131974E+03 -0.77780904696E+02  0.23184414141E+03  0.91721686714E+02 0.  0.
         23    2    4    4    0    0  0.31416945184E+03  0.63788219714E+03  0.71679211488E+03  0.10138133960E+04  0.91817885072E+02 0.  0.
          1    1    3    3  502    0 -0.12581537481E+03 -0.11481037614E+03 -0.50718174439E+03  0.53501799302E+03  0.00000000000E+00 0. -1.
         -2    1    3    3    0  502 -0.23260738065E+03 -0.32986050126E+03 -0.14958006364E+04  0.15493010320E+04  0.00000000000E+00 0.  1.
         11    1    5    5    0    0  0.48130868270E+02 -0.11062449896E+03 -0.34895878048E+01  0.12069191138E+03  0.00000000000E+00 0.  1.
        -11    1    5    5    0    0 -0.38775646550E+01 -0.82586820789E+02 -0.74291316891E+02  0.11115223003E+03  0.00000000000E+00 0. -1.
          2    1    6    6  503    0  0.23424503167E+03  0.37992115450E+03  0.46598310490E+03  0.64525271991E+03  0.00000000000E+00 0. -1.
         -2    1    6    6    0  503  0.79924420176E+02  0.25796104264E+03  0.25080900998E+03  0.36856067607E+03  0.00000000000E+00 0.  1.
<mgrwt>
<rscale>  0 0.30378161E+04</rscale>
<asrwt>0</asrwt>
<pdfrwt beam="1">  1        1 0.15123118E+00 0.30378161E+04</pdfrwt>
<pdfrwt beam="2">  1       -2 0.36107290E+00 0.30378161E+04</pdfrwt>
<totfact> 0.15369681E-01</totfact>
</mgrwt>
</event>
<event>
12    4  0.4183215E-008  0.1235619E+04  0.7818608E-02  0.9082238E-01
         -2   -1    0    0    0  501 -0.00000000000E+00  0.00000000000E+00  0.97169908311E+03  0.97169908311E+03  0.00000000000E+00 0.  1.
          1   -1    0    0  501    0  0.00000000000E+00 -0.00000000000E+00 -0.39280507682E+03  0.39280507682E+03  0.00000000000E+00 0. -1.
        -24    2    1    2    0    0  0.11105262178E+03 -0.22735305069E+03  0.29612267631E+03  0.39781018169E+03  0.80883909213E+02 0.  0.
        254    2    1    2    0    0 -0.11105262178E+03  0.22735305069E+03  0.28277132998E+03  0.96669397824E+03  0.88910940162E+03 0.  0.
         23    2    4    4    0    0  0.21598164200E+02 -0.65347412837E+02  0.53584257256E+03  0.54755718974E+03  0.89189956861E+02 0.  0.
         23    2    4    4    0    0 -0.13265078598E+03  0.29270046353E+03 -0.25307124259E+03  0.41913678850E+03  0.91437417287E+02 0.  0.
          3    1    3    3  502    0  0.22774719088E+02 -0.33412347790E+02  0.11085715841E+02  0.41928104060E+02  0.00000000000E+00 0. -1.
         -4    1    3    3    0  502  0.88277902693E+02 -0.19394070290E+03  0.28503696047E+03  0.35588207763E+03  0.00000000000E+00 0.  1.
         11    1    5    5    0    0  0.33850147519E+02 -0.73418232570E+02  0.51883476384E+03  0.52509578320E+03  0.00000000000E+00 0.  1.
        -11    1    5    5    0    0 -0.12251983319E+02  0.80708197328E+01  0.17007808720E+02  0.22461406543E+02  0.00000000000E+00 0. -1.
          3    1    6    6  503    0 -0.24993346655E+02  0.14700661921E+03 -0.14608309809E+03  0.20874837728E+03  0.00000000000E+00 0. -1.
         -3    1    6    6    0  503 -0.10765743933E+03  0.14569384431E+03 -0.10698814450E+03  0.21038841122E+03  0.00000000000E+00 0.  1.
<mgrwt>
<rscale>  0 0.12356186E+04</rscale>
<asrwt>0</asrwt>
<pdfrwt beam="1">  1        1 0.60431551E-01 0.12356186E+04</pdfrwt>
<pdfrwt beam="2">  1       -2 0.14949217E+00 0.12356186E+04</pdfrwt>
<totfact> 0.16010948E+01</totfact>
</mgrwt>
</event>
<event>
12    4  0.4183215E-008  0.1653742E+04  0.7818608E-02  0.8788196E-01
          1   -1    0    0  501    0  0.00000000000E+00  0.00000000000E+00  0.32812390819E+03  0.32812390819E+03  0.00000000000E+00 0. -1.
         -2   -1    0    0    0  501 -0.00000000000E+00 -0.00000000000E+00 -0.20837114610E+04  0.20837114610E+04  0.00000000000E+00 0.  1.
        -24    2    1    2    0    0  0.56598882669E+03 -0.11020464286E+03 -0.68113139978E+03  0.89590904997E+03  0.78896304183E+02 0.  0.
        254    2    1    2    0    0 -0.56598882669E+03  0.11020464286E+03 -0.10744561531E+04  0.15159263193E+04  0.90060433339E+03 0.  0.
         23    2    4    4    0    0 -0.36587494095E+03 -0.21844784034E+03 -0.76364636833E+02  0.44240539525E+03  0.91142990000E+02 0.  0.
         23    2    4    4    0    0 -0.20011388573E+03  0.32865248319E+03 -0.99809151624E+03  0.10735209240E+04  0.90567530201E+02 0.  0.
          1    1    3    3  502    0  0.14613444692E+03 -0.52648315106E+01 -0.21323024314E+03  0.25855392400E+03  0.00000000000E+00 0. -1.
         -2    1    3    3    0  502  0.41985437977E+03 -0.10493981135E+03 -0.46790115664E+03  0.63735512597E+03  0.00000000000E+00 0.  1.
         11    1    5    5    0    0 -0.22184044057E+03 -0.18106177688E+03 -0.39142664818E+02  0.28901331514E+03  0.00000000000E+00 0.  1.
        -11    1    5    5    0    0 -0.14403450038E+03 -0.37386063460E+02 -0.37221972015E+02  0.15339208012E+03  0.00000000000E+00 0. -1.
          2    1    6    6  503    0 -0.12984978476E+03  0.18771962368E+03 -0.70171491687E+03  0.73790476911E+03  0.00000000000E+00 0. -1.
         -2    1    6    6    0  503 -0.70264100975E+02  0.14093285952E+03 -0.29637659937E+03  0.33561615490E+03  0.00000000000E+00 0.  1.
<mgrwt>
<rscale>  0 0.16537419E+04</rscale>
<asrwt>0</asrwt>
<pdfrwt beam="1">  1        1 0.50480602E-01 0.16537419E+04</pdfrwt>
<pdfrwt beam="2">  1       -2 0.32057099E+00 0.16537419E+04</pdfrwt>
<totfact> 0.15514209E+00</totfact>
</mgrwt>
</event>
<event>
12    4  0.4183215E-008  0.2243922E+04  0.7818608E-02  0.8500366E-01
          1   -1    0    0  501    0  0.00000000000E+00  0.00000000000E+00  0.68779462311E+03  0.68779462311E+03  0.00000000000E+00 0. -1.
         -2   -1    0    0    0  501 -0.00000000000E+00 -0.00000000000E+00 -0.18301923720E+04  0.18301923720E+04  0.00000000000E+00 0.  1.
        -24    2    1    2    0    0 -0.31756954133E+03  0.82785214011E+03 -0.81500575084E+03  0.12070899803E+04  0.81500105832E+02 0.  0.
        254    2    1    2    0    0  0.31756954133E+03 -0.82785214011E+03 -0.32739199806E+03  0.13108970148E+04  0.90833687777E+03 0.  0.
         23    2    4    4    0    0 -0.26517396461E+03 -0.16989546280E+03 -0.26875672965E+03  0.42507662034E+03  0.96323692003E+02 0.  0.
         23    2    4    4    0    0  0.58274350594E+03 -0.65795667731E+03 -0.58635268410E+02  0.88582039445E+03  0.93502372020E+02 0.  0.
          3    1    3    3  502    0 -0.14081445175E+03  0.34895566041E+03 -0.29244794673E+03  0.47657587465E+03  0.00000000000E+00 0. -1.
         -4    1    3    3    0  502 -0.17675508958E+03  0.47889647970E+03 -0.52255780411E+03  0.73051410568E+03  0.00000000000E+00 0.  1.
         11    1    5    5    0    0 -0.17912409968E+03 -0.64281309677E+02 -0.12901315977E+03  0.22991721392E+03  0.00000000000E+00 0.  1.
        -11    1    5    5    0    0 -0.86049864929E+02 -0.10561415312E+03 -0.13974356987E+03  0.19515940642E+03  0.00000000000E+00 0. -1.
          2    1    6    6  503    0  0.37001018314E+03 -0.40911363997E+03 -0.81668935620E+02  0.55763009342E+03  0.00000000000E+00 0.  1.
         -2    1    6    6    0  503  0.21273332280E+03 -0.24884303734E+03  0.23033667209E+02  0.32819030103E+03  0.00000000000E+00 0. -1.
<mgrwt>
<rscale>  0 0.22439220E+04</rscale>
<asrwt>0</asrwt>
<pdfrwt beam="1">  1        1 0.10581456E+00 0.22439220E+04</pdfrwt>
<pdfrwt beam="2">  1       -2 0.28156805E+00 0.22439220E+04</pdfrwt>
<totfact> 0.91757553E-01</totfact>
</mgrwt>
</event>
<event>
12    4  0.4576291E-008  0.2163815E+04  0.7818608E-02  0.8533642E-01
         -2   -1    0    0    0  501 -0.00000000000E+00  0.00000000000E+00  0.47784571466E+03  0.47784571466E+03  0.00000000000E+00 0.  1.
          1   -1    0    0  501    0  0.00000000000E+00 -0.00000000000E+00 -0.24495851670E+04  0.24495851670E+04  0.00000000000E+00 0. -1.
        -24    2    1    2    0    0  0.50522417336E+03 -0.71145696578E+03 -0.56852275496E+03  0.10442360651E+04  0.76081254296E+02 0.  0.
        254    2    1    2    0    0 -0.50522417336E+03  0.71145696578E+03 -0.14032166974E+04  0.18831948166E+04  0.90331784983E+03 0.  0.
         23    2    4    4    0    0  0.44894832993E+02 -0.14264166963E+03 -0.39188273715E+02  0.17997913604E+03  0.92166027730E+02 0.  0.
         23    2    4    4    0    0 -0.55011900636E+03  0.85409863541E+03 -0.13640284237E+04  0.17032156805E+04  0.90855454742E+02 0.  0.
          3    1    3    3  502    0  0.11632432874E+02 -0.20346479197E+02 -0.23794095175E+01  0.23557468029E+02  0.00000000000E+00 0. -1.
         -4    1    3    3    0  502  0.49359174049E+03 -0.69111048658E+03 -0.56614334545E+03  0.10206785971E+04  0.00000000000E+00 0.  1.
         11    1    5    5    0    0  0.19585954653E+02  0.65388366806E+01  0.69535405354E+01  0.21788018055E+02  0.00000000000E+00 0. -1.
        -11    1    5    5    0    0  0.25308878340E+02 -0.14918050631E+03 -0.46141814250E+02  0.15819111798E+03  0.00000000000E+00 0.  1.
          2    1    6    6  503    0 -0.96886635349E+02  0.10191363035E+03 -0.16105231143E+03  0.21380190639E+03  0.00000000000E+00 0. -1.
         -2    1    6    6    0  503 -0.45323237101E+03  0.75218500506E+03 -0.12029761122E+04  0.14894137741E+04  0.00000000000E+00 0.  1.
<mgrwt>
<rscale>  0 0.21638149E+04</rscale>
<asrwt>0</asrwt>
<pdfrwt beam="1">  1        1 0.37685926E+00 0.21638149E+04</pdfrwt>
<pdfrwt beam="2">  1       -2 0.73514725E-01 0.21638149E+04</pdfrwt>
<totfact> 0.19695866E+00</totfact>
</mgrwt>
</event>
<event>
12    4  0.4183215E-008  0.1165113E+04  0.7818608E-02  0.9143953E-01
          1   -1    0    0  501    0  0.00000000000E+00  0.00000000000E+00  0.42685770245E+03  0.42685770245E+03  0.00000000000E+00 0. -1.
         -2   -1    0    0    0  501 -0.00000000000E+00 -0.00000000000E+00 -0.79504735525E+03  0.79504735525E+03  0.00000000000E+00 0.  1.
        -24    2    1    2    0    0 -0.10240726416E+03 -0.25715684265E+02  0.12977289570E+03  0.18542843616E+03  0.79963468602E+02 0.  0.
        254    2    1    2    0    0  0.10240726416E+03  0.25715684265E+02 -0.49796254850E+03  0.10364766215E+04  0.90286684684E+03 0.  0.
         23    2    4    4    0    0  0.35262501172E+03  0.33635526753E+03 -0.23102570435E+03  0.54693789853E+03  0.91043527475E+02 0.  0.
         23    2    4    4    0    0 -0.25021774756E+03 -0.31063958326E+03 -0.26693684414E+03  0.48953872301E+03  0.96369137606E+02 0.  0.
          1    1    3    3  502    0 -0.51110050388E+02 -0.24846842570E+02  0.13604503820E+02  0.58435309193E+02  0.00000000000E+00 0. -1.
         -2    1    3    3    0  502 -0.51297213772E+02 -0.86884169536E+00  0.11616839188E+03  0.12699312697E+03  0.00000000000E+00 0.  1.
         11    1    5    5    0    0  0.56932847727E+02  0.15174647915E+02 -0.21800079669E+02  0.62824060385E+02  0.00000000000E+00 0. -1.
        -11    1    5    5    0    0  0.29569216399E+03  0.32118061961E+03 -0.20922562468E+03  0.48411383815E+03  0.00000000000E+00 0.  1.
          1    1    6    6  503    0 -0.91557684844E+02 -0.80978463478E+02 -0.13063450957E+03  0.17890135911E+03  0.00000000000E+00 0. -1.
         -1    1    6    6    0  503 -0.15866006272E+03 -0.22966111978E+03 -0.13630233458E+03  0.31063736390E+03  0.00000000000E+00 0.  1.
<mgrwt>
<rscale>  0 0.11651130E+04</rscale>
<asrwt>0</asrwt>
<pdfrwt beam="1">  1        1 0.65670417E-01 0.11651130E+04</pdfrwt>
<pdfrwt beam="2">  1       -2 0.12231498E+00 0.11651130E+04</pdfrwt>
<totfact> 0.24129029E+01</totfact>
</mgrwt>
</event>
<event>
12    4  0.4183215E-008  0.1224380E+04  0.7818608E-02  0.9091781E-01
          1   -1    0    0  501    0  0.00000000000E+00  0.00000000000E+00  0.22034893772E+04  0.22034893772E+04  0.00000000000E+00 0. -1.
         -2   -1    0    0    0  501 -0.00000000000E+00 -0.00000000000E+00 -0.17008311665E+03  0.17008311665E+03  0.00000000000E+00 0.  1.
        -24    2    1    2    0    0 -0.14846666421E+03  0.23510792120E+03  0.34608778465E+03  0.45064981223E+03  0.77397762169E+02 0.  0.
        254    2    1    2    0    0  0.14846666421E+03 -0.23510792120E+03  0.16873184759E+04  0.19229226816E+04  0.87935767206E+03 0.  0.
         23    2    4    4    0    0 -0.30569881279E+03 -0.15646222908E+03  0.32294961579E+03  0.47998359549E+03  0.90308384609E+02 0.  0.
         23    2    4    4    0    0  0.45416547700E+03 -0.78645692120E+02  0.13643688601E+04  0.14429390861E+04  0.90107682655E+02 0.  0.
          3    1    3    3  502    0 -0.84827591641E+02  0.68948021795E+02  0.15354456502E+03  0.18848205076E+03  0.00000000000E+00 0. -1.
         -4    1    3    3    0  502 -0.63639072564E+02  0.16615989941E+03  0.19254321963E+03  0.26216776147E+03  0.00000000000E+00 0.  1.
         11    1    5    5    0    0 -0.26993906817E+03 -0.16488974246E+03  0.30369370105E+03  0.43850381042E+03  0.00000000000E+00 0.  1.
        -11    1    5    5    0    0 -0.35759744620E+02  0.84275133821E+01  0.19255914737E+02  0.41479785070E+02  0.00000000000E+00 0. -1.
          1    1    6    6  503    0  0.24035481383E+03 -0.25796228908E+02  0.84260181124E+03  0.87659209115E+03  0.00000000000E+00 0. -1.
         -1    1    6    6    0  503  0.21381066316E+03 -0.52849463212E+02  0.52176704887E+03  0.56634699499E+03  0.00000000000E+00 0.  1.
<mgrwt>
<rscale>  0 0.12243796E+04</rscale>
<asrwt>0</asrwt>
<pdfrwt beam="1">  1        1 0.33899835E+00 0.12243796E+04</pdfrwt>
<pdfrwt beam="2">  1       -2 0.26166635E-01 0.12243796E+04</pdfrwt>
<totfact> 0.24888440E+01</totfact>
</mgrwt>
</event>
<event>
12    4  0.4183215E-008  0.1711549E+04  0.7818608E-02  0.8754805E-01
          1   -1    0    0  501    0  0.00000000000E+00  0.00000000000E+00  0.35984259204E+04  0.35984259204E+04  0.00000000000E+00 0. -1.
         -2   -1    0    0    0  501 -0.00000000000E+00 -0.00000000000E+00 -0.20351963409E+03  0.20351963409E+03  0.00000000000E+00 0.  1.
        -24    2    1    2    0    0 -0.49444556292E+02  0.13771957652E+03  0.27880564857E+04  0.27930057906E+04  0.78809469720E+02 0.  0.
        254    2    1    2    0    0  0.49444556292E+02 -0.13771957652E+03  0.60684980053E+03  0.10089397639E+04  0.79264198783E+03 0.  0.
         23    2    4    4    0    0  0.31044199315E+03 -0.25970142619E+03  0.56931587842E+03  0.70436542106E+03  0.90504226969E+02 0.  0.
         23    2    4    4    0    0 -0.26099743686E+03  0.12198184967E+03  0.37533922110E+02  0.30457434283E+03  0.91419370528E+02 0.  0.
          3    1    3    3  502    0 -0.89072743470E+01  0.12171034182E+03  0.21525187643E+04  0.21559753657E+04  0.00000000000E+00 0. -1.
         -4    1    3    3    0  502 -0.40537281945E+02  0.16009234698E+02  0.63553772149E+03  0.63703042491E+03  0.00000000000E+00 0.  1.
         11    1    5    5    0    0  0.26209511171E+03 -0.22713551529E+03  0.42389527555E+03  0.54769662636E+03  0.00000000000E+00 0. -1.
        -11    1    5    5    0    0  0.48346881442E+02 -0.32565910897E+02  0.14542060286E+03  0.15666879471E+03  0.00000000000E+00 0.  1.
          3    1    6    6  503    0 -0.21230654377E+03  0.13507804013E+03  0.27155639992E+02  0.25309597831E+03  0.00000000000E+00 0. -1.
         -3    1    6    6    0  503 -0.48690893087E+02 -0.13096190461E+02  0.10378282118E+02  0.51478364523E+02  0.00000000000E+00 0.  1.
<mgrwt>
<rscale>  0 0.17115494E+04</rscale>
<asrwt>0</asrwt>
<pdfrwt beam="1">  1        1 0.55360394E+00 0.17115494E+04</pdfrwt>
<pdfrwt beam="2">  1       -2 0.31310716E-01 0.17115494E+04</pdfrwt>
<totfact> 0.16633887E+00</totfact>
</mgrwt>
</event>
<event>
12    4  0.4183215E-008  0.2515723E+04  0.7818608E-02  0.8397405E-01
         -2   -1    0    0    0  501 -0.00000000000E+00  0.00000000000E+00  0.14716717001E+04  0.14716717001E+04  0.00000000000E+00 0.  1.
          1   -1    0    0  501    0  0.00000000000E+00 -0.00000000000E+00 -0.10751144228E+04  0.10751144228E+04  0.00000000000E+00 0. -1.
        -24    2    1    2    0    0  0.17776726144E+03  0.10328105155E+04  0.49404862609E+03  0.11613766034E+04  0.80080021750E+02 0.  0.
        254    2    1    2    0    0 -0.17776726144E+03 -0.10328105155E+04 -0.97491348753E+02  0.13854095195E+04  0.90086414819E+03 0.  0.
         23    2    4    4    0    0 -0.45245811541E+03 -0.79200284930E+03 -0.29227190594E+03  0.96187899502E+03  0.88325956375E+02 0.  0.
         23    2    4    4    0    0  0.27469085396E+03 -0.24080766622E+03  0.19478055719E+03  0.42353052449E+03  0.89416119123E+02 0.  0.
          3    1    3    3  502    0  0.85453342738E+02  0.47094463596E+03  0.18193664816E+03  0.51204693912E+03  0.00000000000E+00 0. -1.
         -4    1    3    3    0  502  0.92313918705E+02  0.56186587956E+03  0.31211197793E+03  0.64932966432E+03  0.00000000000E+00 0.  1.
         11    1    5    5    0    0 -0.31478362947E+02 -0.59210027496E+02  0.17600982849E+01  0.67080642781E+02  0.00000000000E+00 0. -1.
        -11    1    5    5    0    0 -0.42097975246E+03 -0.73279282180E+03 -0.29403200423E+03  0.89479835224E+03  0.00000000000E+00 0.  1.
          1    1    6    6  503    0  0.49757088726E+02 -0.96117453994E+02  0.65034834573E+02  0.12626900866E+03  0.00000000000E+00 0. -1.
         -1    1    6    6    0  503  0.22493376524E+03 -0.14469021222E+03  0.12974572262E+03  0.29726151583E+03  0.00000000000E+00 0.  1.
<mgrwt>
<rscale>  0 0.25157229E+04</rscale>
<asrwt>0</asrwt>
<pdfrwt beam="1">  1        1 0.16540222E+00 0.25157229E+04</pdfrwt>
<pdfrwt beam="2">  1       -2 0.22641103E+00 0.25157229E+04</pdfrwt>
<totfact> 0.92784597E-01</totfact>
</mgrwt>
</event>
<event>
12    4  0.4183215E-008  0.1927571E+04  0.7818608E-02  0.8641253E-01
          1   -1    0    0  501    0  0.00000000000E+00  0.00000000000E+00  0.10228051064E+04  0.10228051064E+04  0.00000000000E+00 0. -1.
         -2   -1    0    0    0  501 -0.00000000000E+00 -0.00000000000E+00 -0.90817112587E+03  0.90817112587E+03  0.00000000000E+00 0.  1.
        -24    2    1    2    0    0 -0.43832492032E+03 -0.51697804496E+03  0.37254372769E+03  0.77709312607E+03  0.75431179183E+02 0.  0.
        254    2    1    2    0    0  0.43832492032E+03  0.51697804496E+03 -0.25790974720E+03  0.11538831062E+04  0.89751532033E+03 0.  0.
         23    2    4    4    0    0  0.60745793268E+03  0.29252842281E+03 -0.43607169303E+03  0.80898935264E+03  0.98626736249E+02 0.  0.
         23    2    4    4    0    0 -0.16913301236E+03  0.22444962216E+03  0.17816194583E+03  0.34489375351E+03  0.90699578351E+02 0.  0.
          3    1    3    3  502    0 -0.36813834125E+03 -0.46725464026E+03  0.33972562938E+03  0.68503010182E+03  0.00000000000E+00 0. -1.
         -4    1    3    3    0  502 -0.70186579075E+02 -0.49723404704E+02  0.32818098317E+02  0.92063024254E+02  0.00000000000E+00 0.  1.
         11    1    5    5    0    0  0.30507007621E+03  0.20030034476E+03 -0.24582138393E+03  0.44001833178E+03  0.00000000000E+00 0. -1.
        -11    1    5    5    0    0  0.30238785647E+03  0.92228078048E+02 -0.19025030910E+03  0.36897102086E+03  0.00000000000E+00 0.  1.
          1    1    6    6  503    0 -0.15633598593E+03  0.14054210923E+03  0.13281065829E+03  0.24865979956E+03  0.00000000000E+00 0. -1.
         -1    1    6    6    0  503 -0.12797026428E+02  0.83907512925E+02  0.45351287544E+02  0.96233953948E+02  0.00000000000E+00 0.  1.
<mgrwt>
<rscale>  0 0.19275706E+04</rscale>
<asrwt>0</asrwt>
<pdfrwt beam="1">  1        1 0.15735463E+00 0.19275706E+04</pdfrwt>
<pdfrwt beam="2">  1       -2 0.13971863E+00 0.19275706E+04</pdfrwt>
<totfact> 0.42910165E+00</totfact>
</mgrwt>
</event>
<event>
12    4  0.4183215E-008  0.1711906E+04  0.7818608E-02  0.8754603E-01
         -4   -1    0    0    0  501 -0.00000000000E+00  0.00000000000E+00  0.66752146165E+03  0.66752146165E+03  0.00000000000E+00 0.  1.
          3   -1    0    0  501    0  0.00000000000E+00 -0.00000000000E+00 -0.10975762711E+04  0.10975762711E+04  0.00000000000E+00 0. -1.
        -24    2    1    2    0    0  0.11383088431E+03  0.57626281133E+03  0.36970352045E+02  0.59378488331E+03  0.78596327993E+02 0.  0.
        254    2    1    2    0    0 -0.11383088431E+03 -0.57626281133E+03 -0.46702516148E+03  0.11713128494E+04  0.89934698076E+03 0.  0.
         23    2    4    4    0    0 -0.12876386372E+03  0.12952042299E+03 -0.40873232340E+03  0.45702188022E+03  0.91930485870E+02 0.  0.
         23    2    4    4    0    0  0.14932979409E+02 -0.70578323433E+03 -0.58292838072E+02  0.71429096920E+03  0.91981334926E+02 0.  0.
          1    1    3    3  502    0  0.26225738548E+01  0.13727818575E+03 -0.14272515068E+02  0.13804304713E+03  0.00000000000E+00 0. -1.
         -2    1    3    3    0  502  0.11120831045E+03  0.43898462559E+03  0.51242867114E+02  0.45574183618E+03  0.00000000000E+00 0.  1.
         11    1    5    5    0    0 -0.12654043278E+03  0.10144472004E+03 -0.39208928195E+03  0.42430828105E+03  0.00000000000E+00 0.  1.
        -11    1    5    5    0    0 -0.22234309418E+01  0.28075702955E+02 -0.16643041455E+02  0.32713599167E+02  0.00000000000E+00 0. -1.
          2    1    6    6  503    0 -0.23697649381E+02 -0.55784024127E+03 -0.33076854127E+02  0.55932226099E+03  0.00000000000E+00 0. -1.
         -2    1    6    6    0  503  0.38630628789E+02 -0.14794299306E+03 -0.25215983945E+02  0.15496870820E+03  0.00000000000E+00 0.  1.
<mgrwt>
<rscale>  0 0.17119062E+04</rscale>
<asrwt>0</asrwt>
<pdfrwt beam="1">  1        3 0.16885789E+00 0.17119062E+04</pdfrwt>
<pdfrwt beam="2">  1       -4 0.10269561E+00 0.17119062E+04</pdfrwt>
<totfact> 0.39897666E-01</totfact>
</mgrwt>
</event>
<event>
12    4  0.4183215E-008  0.1437181E+04  0.7818608E-02  0.8927336E-01
          1   -1    0    0  501    0  0.00000000000E+00  0.00000000000E+00  0.11330815874E+04  0.11330815874E+04  0.00000000000E+00 0. -1.
         -2   -1    0    0    0  501 -0.00000000000E+00 -0.00000000000E+00 -0.45572393166E+03  0.45572393166E+03  0.00000000000E+00 0.  1.
        -24    2    1    2    0    0  0.21180554452E+03  0.17567337250E+02  0.60787161197E+03  0.64897575498E+03  0.80569435248E+02 0.  0.
        254    2    1    2    0    0 -0.21180554452E+03 -0.17567337250E+02  0.69486043728E+02  0.93982976403E+03  0.91284252478E+03 0.  0.
         23    2    4    4    0    0 -0.48139775820E+03  0.16274804567E+03 -0.15170933350E+03  0.53812008059E+03  0.91251144075E+02 0.  0.
         23    2    4    4    0    0  0.26959221368E+03 -0.18031538292E+03  0.22119537723E+03  0.40170968344E+03  0.85145028417E+02 0.  0.
          1    1    3    3  502    0  0.10195624839E+03 -0.31653988944E+02  0.29797626119E+03  0.31652314897E+03  0.00000000000E+00 0. -1.
         -2    1    3    3    0  502  0.10984929613E+03  0.49221326194E+02  0.30989535077E+03  0.33245260601E+03  0.00000000000E+00 0.  1.
         11    1    5    5    0    0 -0.75600565226E+02 -0.75895642425E+01 -0.27864851248E+02  0.80928961954E+02  0.00000000000E+00 0. -1.
        -11    1    5    5    0    0 -0.40579719297E+03  0.17033760991E+03 -0.12384448225E+03  0.45719111864E+03  0.00000000000E+00 0.  1.
          3    1    6    6  503    0  0.54517712664E+01 -0.16155699503E+02  0.35782143254E+02  0.39636980362E+02  0.00000000000E+00 0. -1.
         -3    1    6    6    0  503  0.26414044242E+03 -0.16415968342E+03  0.18541323398E+03  0.36207270308E+03  0.00000000000E+00 0.  1.
<mgrwt>
<rscale>  0 0.14371811E+04</rscale>
<asrwt>0</asrwt>
<pdfrwt beam="1">  1        1 0.17432024E+00 0.14371811E+04</pdfrwt>
<pdfrwt beam="2">  1       -2 0.70111374E-01 0.14371811E+04</pdfrwt>
<totfact> 0.18912711E+01</totfact>
</mgrwt>
</event>
<event>
12    4  0.4183215E-008  0.1689342E+04  0.7818608E-02  0.8767466E-01
         -2   -1    0    0    0  501 -0.00000000000E+00  0.00000000000E+00  0.33073162005E+03  0.33073162005E+03  0.00000000000E+00 0.  1.
          1   -1    0    0  501    0  0.00000000000E+00 -0.00000000000E+00 -0.21572457524E+04  0.21572457524E+04  0.00000000000E+00 0. -1.
        -24    2    1    2    0    0 -0.40217734510E+03  0.33276212448E+03 -0.10695808868E+04  0.11928702907E+04  0.80367957903E+02 0.  0.
        254    2    1    2    0    0  0.40217734510E+03 -0.33276212448E+03 -0.75693324563E+03  0.12951070818E+04  0.91207300509E+03 0.  0.
         23    2    4    4    0    0 -0.28246498015E+03 -0.68780499623E+02 -0.28271605959E+03  0.41630910540E+03  0.94168353220E+02 0.  0.
         23    2    4    4    0    0  0.68464232525E+03 -0.26398162486E+03 -0.47421718604E+03  0.87879797641E+03  0.94776220787E+02 0.  0.
          3    1    3    3  502    0 -0.37233594725E+03  0.32211160663E+03 -0.10339930628E+04  0.11452212007E+04  0.00000000000E+00 0. -1.
         -4    1    3    3    0  502 -0.29841397853E+02  0.10650517849E+02 -0.35587823961E+02  0.47649089924E+02  0.00000000000E+00 0.  1.
         11    1    5    5    0    0 -0.19721601723E+02 -0.35585356627E+02 -0.34615379304E+02  0.53418008809E+02  0.00000000000E+00 0. -1.
        -11    1    5    5    0    0 -0.26274337842E+03 -0.33195142997E+02 -0.24810068029E+03  0.36289109659E+03  0.00000000000E+00 0.  1.
          4    1    6    6  503    0  0.23942055120E+03 -0.98182088531E+02 -0.11491372409E+03  0.28313792899E+03  0.00000000000E+00 0. -1.
         -4    1    6    6    0  503  0.44522177405E+03 -0.16579953633E+03 -0.35930346195E+03  0.59566004743E+03  0.00000000000E+00 0.  1.
<mgrwt>
<rscale>  0 0.16893423E+04</rscale>
<asrwt>0</asrwt>
<pdfrwt beam="1">  1        1 0.33188396E+00 0.16893423E+04</pdfrwt>
<pdfrwt beam="2">  1       -2 0.50881788E-01 0.16893423E+04</pdfrwt>
<totfact> 0.71183514E+00</totfact>
</mgrwt>
</event>
<event>
12    4  0.5743425E-008  0.2079464E+04  0.7818608E-02  0.8570344E-01
          1   -1    0    0  501    0  0.00000000000E+00  0.00000000000E+00  0.14687198405E+04  0.14687198405E+04  0.00000000000E+00 0. -1.
         -2   -1    0    0    0  501 -0.00000000000E+00 -0.00000000000E+00 -0.73604390393E+03  0.73604390393E+03  0.00000000000E+00 0.  1.
        -24    2    1    2    0    0 -0.28199956682E+03 -0.68545034161E+03 -0.12797430071E+03  0.75638838897E+03  0.79875195369E+02 0.  0.
        254    2    1    2    0    0  0.28199956682E+03  0.68545034161E+03  0.86065023727E+03  0.14483753554E+04  0.89872488161E+03 0.  0.
         23    2    4    4    0    0  0.60149859686E+02 -0.37836584870E+01 -0.16177422648E+03  0.19214630805E+03  0.84362205123E+02 0.  0.
         23    2    4    4    0    0  0.22184970713E+03  0.68923400010E+03  0.10224244637E+04  0.12562290474E+04  0.92189131649E+02 0.  0.
          1    1    3    3  502    0 -0.32944651835E+01  0.17129044556E+01  0.68991713188E+00  0.37767086422E+01  0.00000000000E+00 0. -1.
         -2    1    3    3    0  502 -0.27870510163E+03 -0.68716324606E+03 -0.12866421785E+03  0.75261168033E+03  0.00000000000E+00 0.  1.
         11    1    5    5    0    0  0.56345764881E+02  0.32302223733E+02 -0.82789546226E+02  0.10522541443E+03  0.00000000000E+00 0. -1.
        -11    1    5    5    0    0  0.38040948047E+01 -0.36085882220E+02 -0.78984680250E+02  0.86920893617E+02  0.00000000000E+00 0.  1.
          2    1    6    6  503    0  0.90134546408E+02  0.20975596118E+03  0.26023939058E+03  0.34618830153E+03  0.00000000000E+00 0. -1.
         -2    1    6    6    0  503  0.13171516072E+03  0.47947803892E+03  0.76218507317E+03  0.91004074586E+03  0.00000000000E+00 0.  1.
<mgrwt>
<rscale>  0 0.20794637E+04</rscale>
<asrwt>0</asrwt>
<pdfrwt beam="1">  1        1 0.22595690E+00 0.20794637E+04</pdfrwt>
<pdfrwt beam="2">  1       -2 0.11323752E+00 0.20794637E+04</pdfrwt>
<totfact> 0.34055115E+00</totfact>
</mgrwt>
</event>
<event>
12    4  0.4183215E-008  0.1056485E+04  0.7818608E-02  0.9248674E-01
          1   -1    0    0  501    0  0.00000000000E+00  0.00000000000E+00  0.84569263407E+03  0.84569263407E+03  0.00000000000E+00 0. -1.
         -2   -1    0    0    0  501 -0.00000000000E+00 -0.00000000000E+00 -0.32995477192E+03  0.32995477192E+03  0.00000000000E+00 0.  1.
        -24    2    1    2    0    0 -0.17236698489E+02  0.74752241820E+02 -0.36854515584E+02  0.11636324388E+03  0.79354569974E+02 0.  0.
        254    2    1    2    0    0  0.17236698489E+02 -0.74752241820E+02  0.55259237774E+03  0.10592841621E+04  0.90046632293E+03 0.  0.
         23    2    4    4    0    0 -0.28658743591E+03 -0.29094008866E+03  0.52821263510E+03  0.67372685693E+03  0.90115460745E+02 0.  0.
         23    2    4    4    0    0  0.30382413439E+03  0.21618784684E+03  0.24379742644E+02  0.38555730518E+03  0.94940897196E+02 0.  0.
          3    1    3    3  502    0  0.29497033594E+02  0.20467071904E+02 -0.20833066688E+00  0.35902916662E+02  0.00000000000E+00 0. -1.
         -4    1    3    3    0  502 -0.46733732084E+02  0.54285169916E+02 -0.36646184918E+02  0.80460327220E+02  0.00000000000E+00 0.  1.
         11    1    5    5    0    0 -0.14754195972E+02 -0.47705673832E+02  0.95600355587E+02  0.10785613382E+03  0.00000000000E+00 0. -1.
        -11    1    5    5    0    0 -0.27183323993E+03 -0.24323441483E+03  0.43261227951E+03  0.56587072311E+03  0.00000000000E+00 0.  1.
          3    1    6    6  503    0  0.45692561082E+02  0.79519189776E+02  0.17683641664E+02  0.93401407181E+02  0.00000000000E+00 0. -1.
         -3    1    6    6    0  503  0.25813157331E+03  0.13666865707E+03  0.66961009798E+01  0.29215589800E+03  0.00000000000E+00 0.  1.
<mgrwt>
<rscale>  0 0.10564853E+04</rscale>
<asrwt>0</asrwt>
<pdfrwt beam="1">  1        1 0.13010656E+00 0.10564853E+04</pdfrwt>
<pdfrwt beam="2">  1       -2 0.50762273E-01 0.10564853E+04</pdfrwt>
<totfact> 0.64883330E+01</totfact>
</mgrwt>
</event>
<event>
12    4  0.4684009E-008  0.1905408E+04  0.7818608E-02  0.8652169E-01
         -4   -1    0    0    0  501 -0.00000000000E+00  0.00000000000E+00  0.58359098240E+03  0.58359098240E+03  0.00000000000E+00 0.  1.
          3   -1    0    0  501    0  0.00000000000E+00 -0.00000000000E+00 -0.15552765233E+04  0.15552765233E+04  0.00000000000E+00 0. -1.
        -24    2    1    2    0    0 -0.96118587778E+02 -0.18004847566E+01 -0.11941992869E+04  0.12007714966E+04  0.80611572498E+02 0.  0.
        254    2    1    2    0    0  0.96118587778E+02  0.18004847566E+01  0.22251374599E+03  0.93809600907E+03  0.90623933396E+03 0.  0.
         23    2    4    4    0    0  0.91494466696E+02 -0.40463755148E+03  0.29192387117E+03  0.51576061865E+03  0.93202380230E+02 0.  0.
         23    2    4    4    0    0  0.46241210816E+01  0.40643803624E+03 -0.69410125178E+02  0.42233539043E+03  0.91302555993E+02 0.  0.
          3    1    3    3  502    0 -0.79705964262E+02 -0.16379344168E+02 -0.11299345241E+04  0.11328606941E+04  0.00000000000E+00 0. -1.
         -4    1    3    3    0  502 -0.16412623516E+02  0.14578859412E+02 -0.64264762852E+02  0.67910802505E+02  0.00000000000E+00 0.  1.
         11    1    5    5    0    0 -0.86465198055E+01 -0.12375812556E+03  0.58994120115E+02  0.13737227579E+03  0.00000000000E+00 0.  1.
        -11    1    5    5    0    0  0.10014098650E+03 -0.28087942592E+03  0.23292975106E+03  0.37838834286E+03  0.00000000000E+00 0. -1.
          1    1    6    6  503    0  0.12452386612E+02  0.33535373033E+03 -0.21533987829E+02  0.33627503477E+03  0.00000000000E+00 0. -1.
         -1    1    6    6    0  503 -0.78282655308E+01  0.71084305907E+02 -0.47876137349E+02  0.86060355652E+02  0.00000000000E+00 0.  1.
<mgrwt>
<rscale>  0 0.19054085E+04</rscale>
<asrwt>0</asrwt>
<pdfrwt beam="1">  1        3 0.23927331E+00 0.19054085E+04</pdfrwt>
<pdfrwt beam="2">  1       -4 0.89783228E-01 0.19054085E+04</pdfrwt>
<totfact> 0.19468664E-01</totfact>
</mgrwt>
</event>
<event>
12    4  0.4183215E-008  0.1618281E+04  0.7818608E-02  0.8809395E-01
         -2   -1    0    0    0  501 -0.00000000000E+00  0.00000000000E+00  0.59629743352E+03  0.59629743352E+03  0.00000000000E+00 0.  1.
          1   -1    0    0  501    0  0.00000000000E+00 -0.00000000000E+00 -0.10979563339E+04  0.10979563339E+04  0.00000000000E+00 0. -1.
        -24    2    1    2    0    0  0.38784392560E+03 -0.14150534564E+03  0.21778115357E+03  0.47325224733E+03  0.78053733303E+02 0.  0.
        254    2    1    2    0    0 -0.38784392560E+03  0.14150534564E+03 -0.71944005399E+03  0.12210015201E+04  0.89599333001E+03 0.  0.
         23    2    4    4    0    0  0.12350840863E+03  0.30289390807E+03 -0.27387871813E+02  0.34078534818E+03  0.91572438331E+02 0.  0.
         23    2    4    4    0    0 -0.51135233423E+03 -0.16138856243E+03 -0.69205218218E+03  0.88021617196E+03  0.91196538963E+02 0.  0.
          3    1    3    3  502    0  0.60291757061E+02 -0.38403882199E+02  0.10782903771E+02  0.72292635525E+02  0.00000000000E+00 0. -1.
         -4    1    3    3    0  502  0.32755216854E+03 -0.10310146344E+03  0.20699824980E+03  0.40095961180E+03  0.00000000000E+00 0.  1.
         11    1    5    5    0    0 -0.59261812650E+01  0.35599262299E+02 -0.24801379429E+02  0.43789673694E+02  0.00000000000E+00 0.  1.
        -11    1    5    5    0    0  0.12943458990E+03  0.26729464577E+03 -0.25864923837E+01  0.29699567449E+03  0.00000000000E+00 0. -1.
          1    1    6    6  503    0 -0.38938218900E+03 -0.81668258954E+02 -0.49236229580E+03  0.63301565854E+03  0.00000000000E+00 0. -1.
         -1    1    6    6    0  503 -0.12197014523E+03 -0.79720303477E+02 -0.19968988638E+03  0.24720051342E+03  0.00000000000E+00 0.  1.
<mgrwt>
<rscale>  0 0.16182812E+04</rscale>
<asrwt>0</asrwt>
<pdfrwt beam="1">  1        1 0.16891636E+00 0.16182812E+04</pdfrwt>
<pdfrwt beam="2">  1       -2 0.91738067E-01 0.16182812E+04</pdfrwt>
<totfact> 0.10807970E+01</totfact>
</mgrwt>
</event>
<event>
12    4  0.4183215E-008  0.1412766E+04  0.7818608E-02  0.8944629E-01
         -2   -1    0    0    0  501 -0.00000000000E+00  0.00000000000E+00  0.27959993282E+03  0.27959993282E+03  0.00000000000E+00 0.  1.
          1   -1    0    0  501    0  0.00000000000E+00 -0.00000000000E+00 -0.17846109729E+04  0.17846109729E+04  0.00000000000E+00 0. -1.
        -24    2    1    2    0    0 -0.30235909804E+03 -0.12556523291E+03 -0.78781372869E+03  0.85760658258E+03  0.87469580423E+02 0.  0.
        254    2    1    2    0    0  0.30235909804E+03  0.12556523291E+03 -0.71719731139E+03  0.12066043231E+04  0.91341904799E+03 0.  0.
         23    2    4    4    0    0  0.59554816833E+03  0.22895706282E+03 -0.51403680615E+03  0.82453028244E+03  0.92289713227E+02 0.  0.
         23    2    4    4    0    0 -0.29318907029E+03 -0.10339182990E+03 -0.20316050524E+03  0.38207404069E+03  0.89759012106E+02 0.  0.
          3    1    3    3  502    0 -0.25489464634E+03 -0.12430177622E+03 -0.72768239821E+03  0.78098904280E+03  0.00000000000E+00 0. -1.
         -4    1    3    3    0  502 -0.47464451702E+02 -0.12634566937E+01 -0.60131330478E+02  0.76617539788E+02  0.00000000000E+00 0.  1.
         11    1    5    5    0    0  0.54491792168E+03  0.21854584074E+03 -0.43757516786E+03  0.73223620056E+03  0.00000000000E+00 0.  1.
        -11    1    5    5    0    0  0.50630246646E+02  0.10411222071E+02 -0.76461638288E+02  0.92294081880E+02  0.00000000000E+00 0. -1.
          1    1    6    6  503    0 -0.12787003010E+03 -0.49955631603E+02 -0.38204379610E+02  0.14249871700E+03  0.00000000000E+00 0. -1.
         -1    1    6    6    0  503 -0.16531904019E+03 -0.53436198300E+02 -0.16495612563E+03  0.23957532369E+03  0.00000000000E+00 0.  1.
<mgrwt>
<rscale>  0 0.14127662E+04</rscale>
<asrwt>0</asrwt>
<pdfrwt beam="1">  1        1 0.27455553E+00 0.14127662E+04</pdfrwt>
<pdfrwt beam="2">  1       -2 0.43015375E-01 0.14127662E+04</pdfrwt>
<totfact> 0.18289316E+01</totfact>
</mgrwt>
</event>
<event>
12    4  0.4183215E-008  0.1317553E+04  0.7818608E-02  0.9015760E-01
         -2   -1    0    0    0  501 -0.00000000000E+00  0.00000000000E+00  0.32082781089E+03  0.32082781089E+03  0.00000000000E+00 0.  1.
          1   -1    0    0  501    0  0.00000000000E+00 -0.00000000000E+00 -0.13527093592E+04  0.13527093592E+04  0.00000000000E+00 0. -1.
        -24    2    1    2    0    0 -0.56583155631E+02  0.24652870069E+03  0.23295286335E+02  0.26594610501E+03  0.78782019784E+02 0.  0.
        254    2    1    2    0    0  0.56583155631E+02 -0.24652870069E+03 -0.10551768347E+04  0.14075910651E+04  0.89662500543E+03 0.  0.
         23    2    4    4    0    0  0.98362719167E+02 -0.38695873788E+03 -0.79534603891E+02  0.41647446446E+03  0.87823328274E+02 0.  0.
         23    2    4    4    0    0 -0.41779563537E+02  0.14043003719E+03 -0.97564223077E+03  0.99111660063E+03  0.94700719697E+02 0.  0.
          1    1    3    3  502    0 -0.47588562082E+02  0.60352965967E+02 -0.67230750332E+01  0.77151483977E+02  0.00000000000E+00 0. -1.
         -2    1    3    3    0  502 -0.89945935492E+01  0.18617573472E+03  0.30018361368E+02  0.18879462104E+03  0.00000000000E+00 0.  1.
         11    1    5    5    0    0  0.25882755029E+02 -0.99112226991E+02  0.18049028971E+02  0.10401402787E+03  0.00000000000E+00 0. -1.
        -11    1    5    5    0    0  0.72479964138E+02 -0.28784651089E+03 -0.97583632862E+02  0.31246043659E+03  0.00000000000E+00 0.  1.
          1    1    6    6  503    0 -0.55853667646E+02  0.14812570891E+03 -0.87531902882E+03  0.88951911730E+03  0.00000000000E+00 0. -1.
         -1    1    6    6    0  503  0.14074104109E+02 -0.76956717180E+01 -0.10032320195E+03  0.10159748333E+03  0.00000000000E+00 0.  1.
<mgrwt>
<rscale>  0 0.13175535E+04</rscale>
<asrwt>0</asrwt>
<pdfrwt beam="1">  1        1 0.20810913E+00 0.13175535E+04</pdfrwt>
<pdfrwt beam="2">  1       -2 0.49358125E-01 0.13175535E+04</pdfrwt>
<totfact> 0.27745820E+01</totfact>
</mgrwt>
</event>
<event>
12    4  0.4183215E-008  0.1997527E+04  0.7818608E-02  0.8607778E-01
          1   -1    0    0  501    0  0.00000000000E+00  0.00000000000E+00  0.22577601662E+04  0.22577601662E+04  0.00000000000E+00 0. -1.
         -2   -1    0    0    0  501 -0.00000000000E+00 -0.00000000000E+00 -0.44182213257E+03  0.44182213257E+03  0.00000000000E+00 0.  1.
        -24    2    1    2    0    0  0.56082523477E+03 -0.55403848915E+03  0.60709321902E+03  0.99817603298E+03  0.79433146832E+02 0.  0.
        254    2    1    2    0    0 -0.56082523477E+03  0.55403848915E+03  0.12088448146E+04  0.17014062658E+04  0.90110704362E+03 0.  0.
         23    2    4    4    0    0 -0.75057573032E+03  0.43461856462E+03  0.63527752669E+03  0.10788183556E+04  0.89522537887E+02 0.  0.
         23    2    4    4    0    0  0.18975049555E+03  0.11941992453E+03  0.57356728794E+03  0.62258791022E+03  0.91487175129E+02 0.  0.
          1    1    3    3  502    0  0.25325306248E+03 -0.30408317447E+03  0.29026151544E+03  0.49077024970E+03  0.00000000000E+00 0. -1.
         -2    1    3    3    0  502  0.30757217229E+03 -0.24995531469E+03  0.31683170358E+03  0.50740578327E+03  0.00000000000E+00 0.  1.
         11    1    5    5    0    0 -0.70459716993E+01 -0.33485985676E+00  0.17258932443E+02  0.18644800814E+02  0.00000000000E+00 0. -1.
        -11    1    5    5    0    0 -0.74352975862E+03  0.43495342447E+03  0.61801859424E+03  0.10601735548E+04  0.00000000000E+00 0.  1.
          2    1    6    6  503    0  0.16034446607E+03  0.13044408685E+03  0.53000291260E+03  0.56888407867E+03  0.00000000000E+00 0.  1.
         -2    1    6    6    0  503  0.29406029478E+02 -0.11024162314E+02  0.43564375342E+02  0.53703831551E+02  0.00000000000E+00 0. -1.
<mgrwt>
<rscale>  0 0.19975269E+04</rscale>
<asrwt>0</asrwt>
<pdfrwt beam="1">  1        1 0.34734771E+00 0.19975269E+04</pdfrwt>
<pdfrwt beam="2">  1       -2 0.67972637E-01 0.19975269E+04</pdfrwt>
<totfact> 0.32137551E+00</totfact>
</mgrwt>
</event>
<event>
12    4  0.4183215E-008  0.1314370E+04  0.7818608E-02  0.9018246E-01
         -2   -1    0    0    0  501 -0.00000000000E+00  0.00000000000E+00  0.37681490764E+03  0.37681490764E+03  0.00000000000E+00 0.  1.
          1   -1    0    0  501    0  0.00000000000E+00 -0.00000000000E+00 -0.11461658579E+04  0.11461658579E+04  0.00000000000E+00 0. -1.
        -24    2    1    2    0    0  0.29176026576E+03 -0.13188901373E+03 -0.34885323672E+03  0.47974084348E+03  0.77032016159E+02 0.  0.
        254    2    1    2    0    0 -0.29176026576E+03  0.13188901373E+03 -0.42049771357E+03  0.10432399221E+04  0.89945119007E+03 0.  0.
         23    2    4    4    0    0 -0.55505451294E+03  0.28475226880E+03 -0.33585702006E+03  0.71410013772E+03  0.89273186656E+02 0.  0.
         23    2    4    4    0    0  0.26329424717E+03 -0.15286325507E+03 -0.84640693514E+02  0.32913978438E+03  0.92075595661E+02 0.  0.
          1    1    3    3  502    0  0.27186590300E+03 -0.11866847122E+03 -0.28416531973E+03  0.41078364648E+03  0.00000000000E+00 0. -1.
         -2    1    3    3    0  502  0.19894362760E+02 -0.13220542507E+02 -0.64687916990E+02  0.68957197002E+02  0.00000000000E+00 0.  1.
         11    1    5    5    0    0 -0.24552535429E+02  0.26315471207E+02 -0.40589735785E+02  0.54248112150E+02  0.00000000000E+00 0.  1.
        -11    1    5    5    0    0 -0.53050197751E+03  0.25843679759E+03 -0.29526728427E+03  0.65985202557E+03  0.00000000000E+00 0. -1.
          1    1    6    6  503    0  0.12264237592E+03 -0.92199934400E+02 -0.86131326432E+02  0.17595620383E+03  0.00000000000E+00 0. -1.
         -1    1    6    6    0  503  0.14065187125E+03 -0.60663320670E+02  0.14906329176E+01  0.15318358054E+03  0.00000000000E+00 0.  1.
<mgrwt>
<rscale>  0 0.13143704E+04</rscale>
<asrwt>0</asrwt>
<pdfrwt beam="1">  1        1 0.17633321E+00 0.13143704E+04</pdfrwt>
<pdfrwt beam="2">  1       -2 0.57971525E-01 0.13143704E+04</pdfrwt>
<totfact> 0.28064872E+01</totfact>
</mgrwt>
</event>
<event>
12    4  0.4183215E-008  0.2525316E+04  0.7818608E-02  0.8394022E-01
          1   -1    0    0  501    0  0.00000000000E+00  0.00000000000E+00  0.25554441462E+04  0.25554441462E+04  0.00000000000E+00 0. -1.
         -2   -1    0    0    0  501 -0.00000000000E+00 -0.00000000000E+00 -0.62388588199E+03  0.62388588199E+03  0.00000000000E+00 0.  1.
        -24    2    1    2    0    0 -0.93628563482E+03 -0.36182210926E+03  0.27260820624E+03  0.10431619811E+04  0.79533993114E+02 0.  0.
        254    2    1    2    0    0  0.93628563482E+03  0.36182210926E+03  0.16589500580E+04  0.21361680470E+04  0.89641095580E+03 0.  0.
         23    2    4    4    0    0  0.73993543690E+03 -0.23309654755E+02  0.14808771185E+04  0.16581450712E+04  0.91652858107E+02 0.  0.
         23    2    4    4    0    0  0.19635019792E+03  0.38513176401E+03  0.17807293948E+03  0.47802297582E+03  0.99579705565E+02 0.  0.
          3    1    3    3  502    0 -0.34855925039E+02  0.36008325041E+00  0.30618236862E+01  0.34991998151E+02  0.00000000000E+00 0. -1.
         -4    1    3    3    0  502 -0.90142970978E+03 -0.36218219251E+03  0.26954638255E+03  0.10081699830E+04  0.00000000000E+00 0.  1.
         11    1    5    5    0    0  0.35649735107E+03 -0.53133512127E+02  0.75769606659E+03  0.83905712603E+03  0.00000000000E+00 0.  1.
        -11    1    5    5    0    0  0.38343808583E+03  0.29823857372E+02  0.72318105190E+03  0.81908794519E+03  0.00000000000E+00 0. -1.
          1    1    6    6  503    0  0.62563874899E+02  0.72377540033E+02  0.36398676052E+01  0.95739205031E+02  0.00000000000E+00 0. -1.
         -1    1    6    6    0  503  0.13378632303E+03  0.31275422398E+03  0.17443307187E+03  0.38228377079E+03  0.00000000000E+00 0.  1.
<mgrwt>
<rscale>  0 0.25253162E+04</rscale>
<asrwt>0</asrwt>
<pdfrwt beam="1">  1        1 0.39314525E+00 0.25253162E+04</pdfrwt>
<pdfrwt beam="2">  1       -2 0.95982444E-01 0.25253162E+04</pdfrwt>
<totfact> 0.87876893E-01</totfact>
</mgrwt>
</event>
<event>
12    4  0.4183215E-008  0.3221294E+04  0.7818608E-02  0.8183216E-01
         -2   -1    0    0    0  501 -0.00000000000E+00  0.00000000000E+00  0.17733730882E+04  0.17733730882E+04  0.00000000000E+00 0.  1.
          1   -1    0    0  501    0  0.00000000000E+00 -0.00000000000E+00 -0.14628530290E+04  0.14628530290E+04  0.00000000000E+00 0. -1.
        -24    2    1    2    0    0 -0.73759571245E+03 -0.65739954288E+03 -0.92912847216E+03  0.13592251918E+04  0.89396924873E+02 0.  0.
        254    2    1    2    0    0  0.73759571245E+03  0.65739954288E+03  0.12396485314E+04  0.18770009254E+04  0.10050783047E+04 0.  0.
         23    2    4    4    0    0  0.51076659421E+03  0.88528447166E+03  0.11291193021E+04  0.15257669544E+04  0.91887384441E+02 0.  0.
         23    2    4    4    0    0  0.22682911824E+03 -0.22788492878E+03  0.11052922931E+03  0.35123397096E+03  0.88122654190E+02 0.  0.
          1    1    3    3  502    0 -0.59930639503E+03 -0.56479934592E+03 -0.80500016551E+03  0.11516039783E+04  0.00000000000E+00 0. -1.
         -2    1    3    3    0  502 -0.13828931742E+03 -0.92600196960E+02 -0.12412830665E+03  0.20762121352E+03  0.00000000000E+00 0.  1.
         11    1    5    5    0    0  0.21850176854E+03  0.46062906822E+03  0.59244926180E+03  0.78161262090E+03  0.00000000000E+00 0. -1.
        -11    1    5    5    0    0  0.29226482568E+03  0.42465540344E+03  0.53667004026E+03  0.74415433353E+03  0.00000000000E+00 0.  1.
          3    1    6    6  503    0  0.23123546848E+03 -0.21573216806E+03  0.11646697986E+03  0.33700855719E+03  0.00000000000E+00 0. -1.
         -3    1    6    6    0  503 -0.44063502420E+01 -0.12152760715E+02 -0.59377505503E+01  0.14225413774E+02  0.00000000000E+00 0.  1.
<mgrwt>
<rscale>  0 0.32212943E+04</rscale>
<asrwt>0</asrwt>
<pdfrwt beam="1">  1        1 0.22505431E+00 0.32212943E+04</pdfrwt>
<pdfrwt beam="2">  1       -2 0.27282663E+00 0.32212943E+04</pdfrwt>
<totfact> 0.23717824E-01</totfact>
</mgrwt>
</event>
<event>
12    4  0.4183215E-008  0.1917377E+04  0.7818608E-02  0.8646255E-01
          1   -1    0    0  501    0  0.00000000000E+00  0.00000000000E+00  0.13753028738E+04  0.13753028738E+04  0.00000000000E+00 0. -1.
         -2   -1    0    0    0  501 -0.00000000000E+00 -0.00000000000E+00 -0.66827742812E+03  0.66827742812E+03  0.00000000000E+00 0.  1.
        -24    2    1    2    0    0 -0.73399957640E+02  0.45324904577E+03 -0.35105970420E+03  0.58376339375E+03  0.81942252238E+02 0.  0.
        254    2    1    2    0    0  0.73399957640E+02 -0.45324904577E+03  0.10580851499E+04  0.14598169082E+04  0.89481784163E+03 0.  0.
         23    2    4    4    0    0  0.28781028220E+03 -0.12600385619E+03  0.10013753326E+04  0.10535944124E+04  0.92719462030E+02 0.  0.
         23    2    4    4    0    0 -0.21441032456E+03 -0.32724518958E+03  0.56709817226E+02  0.40622249579E+03  0.93485353585E+02 0.  0.
          3    1    3    3  502    0  0.15207745257E+02  0.13919348045E+03 -0.10077861413E+03  0.17251791090E+03  0.00000000000E+00 0. -1.
         -4    1    3    3    0  502 -0.88607702897E+02  0.31405556532E+03 -0.25028109007E+03  0.41124548285E+03  0.00000000000E+00 0.  1.
         11    1    5    5    0    0  0.15083684200E+03 -0.10857092414E+03  0.65050945153E+03  0.67653672850E+03  0.00000000000E+00 0.  1.
        -11    1    5    5    0    0  0.13697344020E+03 -0.17432932048E+02  0.35086588110E+03  0.37705768386E+03  0.00000000000E+00 0. -1.
          4    1    6    6  503    0 -0.13475121627E+02 -0.50058131831E+02  0.36247309808E+02  0.63255536782E+02  0.00000000000E+00 0. -1.
         -4    1    6    6    0  503 -0.20093520293E+03 -0.27718705775E+03  0.20462507417E+02  0.34296695901E+03  0.00000000000E+00 0.  1.
<mgrwt>
<rscale>  0 0.19173772E+04</rscale>
<asrwt>0</asrwt>
<pdfrwt beam="1">  1        1 0.21158506E+00 0.19173772E+04</pdfrwt>
<pdfrwt beam="2">  1       -2 0.10281191E+00 0.19173772E+04</pdfrwt>
<totfact> 0.50686735E+00</totfact>
</mgrwt>
</event>
<event>
12    4  0.4183215E-008  0.1759716E+04  0.7818608E-02  0.8728020E-01
          1   -1    0    0  501    0  0.00000000000E+00  0.00000000000E+00  0.12418008112E+04  0.12418008112E+04  0.00000000000E+00 0. -1.
         -2   -1    0    0    0  501 -0.00000000000E+00 -0.00000000000E+00 -0.62340935239E+03  0.62340935239E+03  0.00000000000E+00 0.  1.
        -24    2    1    2    0    0 -0.87821956576E+02  0.18221317747E+03  0.88248976295E+03  0.90897093876E+03  0.80781481104E+02 0.  0.
        254    2    1    2    0    0  0.87821956576E+02 -0.18221317747E+03 -0.26409830412E+03  0.95623922485E+03  0.89651057038E+03 0.  0.
         23    2    4    4    0    0  0.42071922210E+03 -0.28591059181E+03 -0.14068486398E+02  0.51692862698E+03  0.90927183684E+02 0.  0.
         23    2    4    4    0    0 -0.33289726552E+03  0.10369741435E+03 -0.25002981773E+03  0.43931059787E+03  0.94367094432E+02 0.  0.
          1    1    3    3  502    0 -0.91411835696E+02  0.10396774162E+03  0.51979701450E+03  0.53791667689E+03  0.00000000000E+00 0. -1.
         -2    1    3    3    0  502  0.35898791195E+01  0.78245435848E+02  0.36269274846E+03  0.37105426186E+03  0.00000000000E+00 0.  1.
         11    1    5    5    0    0  0.85099662680E+02 -0.77074378919E+02  0.31407004168E+02  0.11903282062E+03  0.00000000000E+00 0.  1.
        -11    1    5    5    0    0  0.33561955942E+03 -0.20883621289E+03 -0.45475490566E+02  0.39789580636E+03  0.00000000000E+00 0. -1.
          1    1    6    6  503    0 -0.25394366988E+03  0.35527707796E+02 -0.18796817505E+03  0.31793338976E+03  0.00000000000E+00 0. -1.
         -1    1    6    6    0  503 -0.78953595644E+02  0.68169706550E+02 -0.62061642678E+02  0.12137720811E+03  0.00000000000E+00 0.  1.
<mgrwt>
<rscale>  0 0.17597162E+04</rscale>
<asrwt>0</asrwt>
<pdfrwt beam="1">  1        1 0.19104628E+00 0.17597162E+04</pdfrwt>
<pdfrwt beam="2">  1       -2 0.95909131E-01 0.17597162E+04</pdfrwt>
<totfact> 0.75416137E+00</totfact>
</mgrwt>
</event>
<event>
12    4  0.4183215E-008  0.1695175E+04  0.7818608E-02  0.8764121E-01
         -2   -1    0    0    0  501 -0.00000000000E+00  0.00000000000E+00  0.46610171774E+03  0.46610171774E+03  0.00000000000E+00 0.  1.
          1   -1    0    0  501    0  0.00000000000E+00 -0.00000000000E+00 -0.15413040157E+04  0.15413040157E+04  0.00000000000E+00 0. -1.
        -24    2    1    2    0    0  0.32846435270E+03  0.28663864629E+03  0.11307572128E+03  0.45731126119E+03  0.79353174625E+02 0.  0.
        254    2    1    2    0    0 -0.32846435270E+03 -0.28663864629E+03 -0.11882780193E+04  0.15500944723E+04  0.89483947019E+03 0.  0.
         23    2    4    4    0    0 -0.14730616127E+03 -0.73019028878E+02  0.11186169752E+03  0.21697543539E+03  0.86801016485E+02 0.  0.
         23    2    4    4    0    0 -0.18115819143E+03 -0.21361961741E+03 -0.13001397168E+04  0.13331190369E+04  0.91604869405E+02 0.  0.
          1    1    3    3  502    0  0.46508060415E+02  0.83456140213E+02  0.22084845210E+02  0.98059509538E+02  0.00000000000E+00 0. -1.
         -2    1    3    3    0  502  0.28195629228E+03  0.20318250608E+03  0.90990876068E+02  0.35925175165E+03  0.00000000000E+00 0.  1.
         11    1    5    5    0    0 -0.47984519968E+02 -0.27802315107E+02  0.89943707347E+02  0.10566623573E+03  0.00000000000E+00 0. -1.
        -11    1    5    5    0    0 -0.99321641304E+02 -0.45216713771E+02  0.21917990175E+02  0.11130919966E+03  0.00000000000E+00 0.  1.
          2    1    6    6  503    0 -0.72051597650E+02 -0.11193129011E+03 -0.42495026702E+03  0.44531199834E+03  0.00000000000E+00 0. -1.
         -2    1    6    6    0  503 -0.10910659378E+03 -0.10168832731E+03 -0.87518944978E+03  0.88780703856E+03  0.00000000000E+00 0.  1.
<mgrwt>
<rscale>  0 0.16951749E+04</rscale>
<asrwt>0</asrwt>
<pdfrwt beam="1">  1        1 0.23712369E+00 0.16951749E+04</pdfrwt>
<pdfrwt beam="2">  1       -2 0.71707958E-01 0.16951749E+04</pdfrwt>
<totfact> 0.90221177E+00</totfact>
</mgrwt>
</event>
<event>
12    4  0.4183215E-008  0.1918841E+04  0.7818608E-02  0.8645534E-01
          1   -1    0    0  501    0  0.00000000000E+00  0.00000000000E+00  0.36236936763E+03  0.36236936763E+03  0.00000000000E+00 0. -1.
         -2   -1    0    0    0  501 -0.00000000000E+00 -0.00000000000E+00 -0.25401916546E+04  0.25401916546E+04  0.00000000000E+00 0.  1.
        -24    2    1    2    0    0 -0.73691119490E+03  0.90977498506E+02 -0.91975453663E+03  0.11853102427E+04  0.87732259182E+02 0.  0.
        254    2    1    2    0    0  0.73691119490E+03 -0.90977498506E+02 -0.12580677503E+04  0.17172507795E+04  0.90271853921E+03 0.  0.
         23    2    4    4    0    0 -0.18563939109E+03 -0.12021459600E+03 -0.26965982843E+03  0.36181645429E+03  0.96338937669E+02 0.  0.
         23    2    4    4    0    0  0.92255058599E+03  0.29237097493E+02 -0.98840792190E+03  0.13554343253E+04  0.91091154545E+02 0.  0.
          1    1    3    3  502    0 -0.31904741438E+01  0.76670219030E+01 -0.49800730040E+01  0.96831543026E+01  0.00000000000E+00 0. -1.
         -2    1    3    3    0  502 -0.73372072076E+03  0.83310476604E+02 -0.91477446362E+03  0.11756270884E+04  0.00000000000E+00 0.  1.
         11    1    5    5    0    0 -0.11120081780E+01 -0.40020232787E+02 -0.44807709417E+02  0.60088155386E+02  0.00000000000E+00 0.  1.
        -11    1    5    5    0    0 -0.18452738291E+03 -0.80194363213E+02 -0.22485211901E+03  0.30172829890E+03  0.00000000000E+00 0. -1.
          1    1    6    6  503    0  0.85724197659E+03  0.47261624260E+02 -0.89698425540E+03  0.12416433554E+04  0.00000000000E+00 0. -1.
         -1    1    6    6    0  503  0.65308609402E+02 -0.18024526766E+02 -0.91423666500E+02  0.11379096987E+03  0.00000000000E+00 0.  1.
<mgrwt>
<rscale>  0 0.19188409E+04</rscale>
<asrwt>0</asrwt>
<pdfrwt beam="1">  1        1 0.55749132E-01 0.19188409E+04</pdfrwt>
<pdfrwt beam="2">  1       -2 0.39079873E+00 0.19188409E+04</pdfrwt>
<totfact> 0.47802104E-01</totfact>
</mgrwt>
</event>
<event>
12    4  0.4183215E-008  0.1618465E+04  0.7818608E-02  0.8809284E-01
          1   -1    0    0  501    0  0.00000000000E+00  0.00000000000E+00  0.12849686474E+04  0.12849686474E+04  0.00000000000E+00 0. -1.
         -2   -1    0    0    0  501 -0.00000000000E+00 -0.00000000000E+00 -0.50962900661E+03  0.50962900661E+03  0.00000000000E+00 0.  1.
        -24    2    1    2    0    0 -0.38265494960E+03 -0.16069552655E+03 -0.13838736210E+03  0.44499216149E+03  0.81357845954E+02 0.  0.
        254    2    1    2    0    0  0.38265494960E+03  0.16069552655E+03  0.91372700286E+03  0.13496054925E+04  0.90238023409E+03 0.  0.
         23    2    4    4    0    0 -0.25621546262E+03  0.19320822883E+03  0.21270996685E+03  0.39626755539E+03  0.93843819641E+02 0.  0.
         23    2    4    4    0    0  0.63887041222E+03 -0.32512702280E+02  0.70101703602E+03  0.95333793709E+03  0.90641370796E+02 0.  0.
          1    1    3    3  502    0 -0.16297605199E+03 -0.30837218576E+02 -0.34222890839E+02  0.16936154767E+03  0.00000000000E+00 0. -1.
         -2    1    3    3    0  502 -0.21967889760E+03 -0.12985830798E+03 -0.10416447126E+03  0.27563061382E+03  0.00000000000E+00 0.  1.
         11    1    5    5    0    0 -0.16608681000E+03  0.12653889317E+03  0.82654915718E+02  0.22456347663E+03  0.00000000000E+00 0. -1.
        -11    1    5    5    0    0 -0.90128652616E+02  0.66669335660E+02  0.13005505113E+03  0.17170407876E+03  0.00000000000E+00 0.  1.
          1    1    6    6  503    0  0.58763775433E+03 -0.62295073434E+01  0.65156592258E+03  0.87743665785E+03  0.00000000000E+00 0. -1.
         -1    1    6    6    0  503  0.51232657886E+02 -0.26283194937E+02  0.49451113436E+02  0.75901279240E+02  0.00000000000E+00 0.  1.
<mgrwt>
<rscale>  0 0.16184651E+04</rscale>
<asrwt>0</asrwt>
<pdfrwt beam="1">  1        1 0.19768748E+00 0.16184651E+04</pdfrwt>
<pdfrwt beam="2">  1       -2 0.78404463E-01 0.16184651E+04</pdfrwt>
<totfact> 0.11271269E+01</totfact>
</mgrwt>
</event>
<event>
12    4  0.4183215E-008  0.1631073E+04  0.7818608E-02  0.8801683E-01
          1   -1    0    0  501    0  0.00000000000E+00  0.00000000000E+00  0.10287652798E+04  0.10287652798E+04  0.00000000000E+00 0. -1.
         -2   -1    0    0    0  501 -0.00000000000E+00 -0.00000000000E+00 -0.64650301018E+03  0.64650301018E+03  0.00000000000E+00 0.  1.
        -24    2    1    2    0    0  0.47508810107E+02  0.46012260045E+03 -0.18982457557E+03  0.50625336273E+03  0.79304497334E+02 0.  0.
        254    2    1    2    0    0 -0.47508810107E+02 -0.46012260045E+03  0.57208684520E+03  0.11690149273E+04  0.90848370774E+03 0.  0.
         23    2    4    4    0    0 -0.70547255552E+02 -0.89027803394E+02  0.73761837777E+03  0.75185603388E+03  0.91124965963E+02 0.  0.
         23    2    4    4    0    0  0.23038445445E+02 -0.37109479706E+03 -0.16553153256E+03  0.41715889338E+03  0.91535434034E+02 0.  0.
          1    1    3    3  502    0 -0.25090972943E+01  0.25425996682E+02 -0.32331867924E+02  0.41208331196E+02  0.00000000000E+00 0. -1.
         -2    1    3    3    0  502  0.50017907401E+02  0.43469660377E+03 -0.15749270765E+03  0.46504503153E+03  0.00000000000E+00 0.  1.
         11    1    5    5    0    0 -0.80546324737E+02 -0.10116171513E+03  0.67648200733E+03  0.68873021517E+03  0.00000000000E+00 0.  1.
        -11    1    5    5    0    0  0.99990691847E+01  0.12133911740E+02  0.61136370432E+02  0.63125818714E+02  0.00000000000E+00 0. -1.
          2    1    6    6  503    0 -0.27465127184E+02 -0.55504401909E+02 -0.40342983528E+02  0.73909594522E+02  0.00000000000E+00 0. -1.
         -2    1    6    6    0  503  0.50503572629E+02 -0.31559039515E+03 -0.12518854903E+03  0.34324929886E+03  0.00000000000E+00 0.  1.
<mgrwt>
<rscale>  0 0.16310731E+04</rscale>
<asrwt>0</asrwt>
<pdfrwt beam="1">  1        1 0.15827158E+00 0.16310731E+04</pdfrwt>
<pdfrwt beam="2">  1       -2 0.99462002E-01 0.16310731E+04</pdfrwt>
<totfact> 0.10088566E+01</totfact>
</mgrwt>
</event>
<event>
12    4  0.4183215E-008  0.1819918E+04  0.7818608E-02  0.8695778E-01
          1   -1    0    0  501    0  0.00000000000E+00  0.00000000000E+00  0.76713758271E+03  0.76713758271E+03  0.00000000000E+00 0. -1.
         -2   -1    0    0    0  501 -0.00000000000E+00 -0.00000000000E+00 -0.10793705932E+04  0.10793705932E+04  0.00000000000E+00 0.  1.
        -24    2    1    2    0    0  0.49188353451E+03  0.37724229038E+03  0.17004126627E+03  0.64812041480E+03  0.82975193149E+02 0.  0.
        254    2    1    2    0    0 -0.49188353451E+03 -0.37724229038E+03 -0.48227427673E+03  0.11983877611E+04  0.90514285654E+03 0.  0.
         23    2    4    4    0    0  0.86821053805E+02  0.38494448964E+01 -0.48386959545E+03  0.49950665180E+03  0.88455617035E+02 0.  0.
         23    2    4    4    0    0 -0.57870458831E+03 -0.38109173528E+03  0.15953187156E+01  0.69888110928E+03  0.91117224695E+02 0.  0.
          3    1    3    3  502    0  0.28454313056E+03  0.19707807127E+03  0.13367270561E+03  0.37104305889E+03  0.00000000000E+00 0. -1.
         -4    1    3    3    0  502  0.20734040395E+03  0.18016421911E+03  0.36368560668E+02  0.27707735592E+03  0.00000000000E+00 0.  1.
         11    1    5    5    0    0 -0.67624198546E+01  0.16005125191E+02 -0.19144630699E+03  0.19223314702E+03  0.00000000000E+00 0. -1.
        -11    1    5    5    0    0  0.93583473659E+02 -0.12155680295E+02 -0.29242328846E+03  0.30727350478E+03  0.00000000000E+00 0.  1.
          4    1    6    6  503    0 -0.35642599961E+02 -0.30933873138E+01 -0.98870402423E+01  0.37117617674E+02  0.00000000000E+00 0. -1.
         -4    1    6    6    0  503 -0.54306198835E+03 -0.37799834796E+03  0.11482358958E+02  0.66176349161E+03  0.00000000000E+00 0.  1.
<mgrwt>
<rscale>  0 0.18199184E+04</rscale>
<asrwt>0</asrwt>
<pdfrwt beam="1">  1        1 0.11802117E+00 0.18199184E+04</pdfrwt>
<pdfrwt beam="2">  1       -2 0.16605701E+00 0.18199184E+04</pdfrwt>
<totfact> 0.44347186E+00</totfact>
</mgrwt>
</event>
<event>
12    4  0.4183215E-008  0.1636389E+04  0.7818608E-02  0.8798499E-01
         -2   -1    0    0    0  501 -0.00000000000E+00  0.00000000000E+00  0.14291714017E+04  0.14291714017E+04  0.00000000000E+00 0.  1.
          1   -1    0    0  501    0  0.00000000000E+00 -0.00000000000E+00 -0.46841294041E+03  0.46841294041E+03  0.00000000000E+00 0. -1.
        -24    2    1    2    0    0 -0.19904121744E+02  0.29994380709E+03 -0.21635683639E+03  0.37888210100E+03  0.79868043236E+02 0.  0.
        254    2    1    2    0    0  0.19904121744E+02 -0.29994380709E+03  0.11771152976E+04  0.15187022411E+04  0.91131422222E+03 0.  0.
         23    2    4    4    0    0 -0.59533530540E+02  0.10347825857E+03 -0.95154807658E+02  0.17849664417E+03  0.92491206638E+02 0.  0.
         23    2    4    4    0    0  0.79437652284E+02 -0.40342206566E+03  0.12722701053E+04  0.13402055969E+04  0.91761197996E+02 0.  0.
          3    1    3    3  502    0 -0.27084399203E+02  0.29890129057E+03 -0.21858940023E+03  0.37129081874E+03  0.00000000000E+00 0. -1.
         -4    1    3    3    0  502  0.71802774588E+01  0.10425165132E+01  0.22325638360E+01  0.75912822598E+01  0.00000000000E+00 0.  1.
         11    1    5    5    0    0 -0.72452007885E+02  0.42452507979E+02 -0.32380379263E+02  0.89999988008E+02  0.00000000000E+00 0.  1.
        -11    1    5    5    0    0  0.12918477345E+02  0.61025750591E+02 -0.62774428395E+02  0.88496656165E+02  0.00000000000E+00 0. -1.
          2    1    6    6  503    0  0.29731144122E+01 -0.23641244938E+03  0.66603995785E+03  0.70675944358E+03  0.00000000000E+00 0. -1.
         -2    1    6    6    0  503  0.76464537872E+02 -0.16700961627E+03  0.60623014745E+03  0.63344615332E+03  0.00000000000E+00 0.  1.
<mgrwt>
<rscale>  0 0.16363892E+04</rscale>
<asrwt>0</asrwt>
<pdfrwt beam="1">  1        1 0.72063530E-01 0.16363892E+04</pdfrwt>
<pdfrwt beam="2">  1       -2 0.21987252E+00 0.16363892E+04</pdfrwt>
<totfact> 0.40143388E+00</totfact>
</mgrwt>
</event>
<event>
12    4  0.4183215E-008  0.2842653E+04  0.7818608E-02  0.8290147E-01
          1   -1    0    0  501    0  0.00000000000E+00  0.00000000000E+00  0.10365400142E+04  0.10365400142E+04  0.00000000000E+00 0. -1.
         -2   -1    0    0    0  501 -0.00000000000E+00 -0.00000000000E+00 -0.19489545347E+04  0.19489545347E+04  0.00000000000E+00 0.  1.
        -24    2    1    2    0    0  0.39691848888E+03  0.78146451113E+03  0.56770898653E+03  0.10474660009E+04  0.81611645130E+02 0.  0.
        254    2    1    2    0    0 -0.39691848888E+03 -0.78146451113E+03 -0.14801235071E+04  0.19380285481E+04  0.89272503494E+03 0.  0.
         23    2    4    4    0    0  0.20990330824E+02  0.14502246344E+03 -0.47811295257E+03  0.50794237710E+03  0.89114275817E+02 0.  0.
         23    2    4    4    0    0 -0.41790881971E+03 -0.92648697457E+03 -0.10020105545E+04  0.14300861710E+04  0.89974493292E+02 0.  0.
          1    1    3    3  502    0  0.24981104854E+03  0.52949022592E+03  0.41925498291E+03  0.72009735454E+03  0.00000000000E+00 0. -1.
         -2    1    3    3    0  502  0.14710744034E+03  0.25197428521E+03  0.14845400362E+03  0.32736864633E+03  0.00000000000E+00 0.  1.
         11    1    5    5    0    0  0.11311666338E+02 -0.64176684447E+01 -0.11805223247E+02  0.17564269399E+02  0.00000000000E+00 0.  1.
        -11    1    5    5    0    0  0.96786644858E+01  0.15144013188E+03 -0.46630772932E+03  0.49037810770E+03  0.00000000000E+00 0. -1.
          2    1    6    6  503    0 -0.38466700472E+03 -0.89552363818E+03 -0.95020495792E+03  0.13611835854E+04  0.00000000000E+00 0. -1.
         -2    1    6    6    0  503 -0.33241814986E+02 -0.30963336383E+02 -0.51805596563E+02  0.68902585574E+02  0.00000000000E+00 0.  1.
<mgrwt>
<rscale>  0 0.28426532E+04</rscale>
<asrwt>0</asrwt>
<pdfrwt beam="1">  1        1 0.15946770E+00 0.28426532E+04</pdfrwt>
<pdfrwt beam="2">  1       -2 0.29983916E+00 0.28426532E+04</pdfrwt>
<totfact> 0.34170443E-01</totfact>
</mgrwt>
</event>
<event>
12    4  0.4183215E-008  0.1066830E+04  0.7818608E-02  0.9238139E-01
          1   -1    0    0  501    0  0.00000000000E+00  0.00000000000E+00  0.25145909234E+04  0.25145909234E+04  0.00000000000E+00 0. -1.
         -2   -1    0    0    0  501 -0.00000000000E+00 -0.00000000000E+00 -0.11315220257E+03  0.11315220257E+03  0.00000000000E+00 0.  1.
        -24    2    1    2    0    0  0.95144530336E+02  0.16428394505E+02  0.54199561144E+03  0.55600029734E+03  0.77812042963E+02 0.  0.
        254    2    1    2    0    0 -0.95144530336E+02 -0.16428394505E+02  0.18594431094E+04  0.20717428287E+04  0.90844223651E+03 0.  0.
         23    2    4    4    0    0 -0.10180310849E+03  0.12338228536E+03 -0.20381891793E+02  0.18458539958E+03  0.89829210094E+02 0.  0.
         23    2    4    4    0    0  0.66585781522E+01 -0.13981067987E+03  0.18798250012E+04  0.18871574291E+04  0.89608950528E+02 0.  0.
          1    1    3    3  502    0  0.44713161726E+02  0.12642020621E+02  0.43695905693E+03  0.43942269508E+03  0.00000000000E+00 0. -1.
         -2    1    3    3    0  502  0.50431368610E+02  0.37863738844E+01  0.10503655450E+03  0.11657760226E+03  0.00000000000E+00 0.  1.
         11    1    5    5    0    0 -0.10881014993E+03  0.12573235361E+03 -0.36766867711E+01  0.16631834384E+03  0.00000000000E+00 0. -1.
        -11    1    5    5    0    0  0.70070414411E+01 -0.23500682508E+01 -0.16705205022E+02  0.18267055738E+02  0.00000000000E+00 0.  1.
          1    1    6    6  503    0  0.40954253859E+02 -0.11909577542E+03  0.13864845110E+04  0.13921926426E+04  0.00000000000E+00 0. -1.
         -1    1    6    6    0  503 -0.34295675707E+02 -0.20714904450E+02  0.49334049019E+03  0.49496478652E+03  0.00000000000E+00 0.  1.
<mgrwt>
<rscale>  0 0.10668299E+04</rscale>
<asrwt>0</asrwt>
<pdfrwt beam="1">  1        1 0.38686010E+00 0.10668299E+04</pdfrwt>
<pdfrwt beam="2">  1       -2 0.17408033E-01 0.10668299E+04</pdfrwt>
<totfact> 0.31908074E+01</totfact>
</mgrwt>
</event>
<event>
12    4  0.4183215E-008  0.1934970E+04  0.7818608E-02  0.8637643E-01
         -2   -1    0    0    0  501 -0.00000000000E+00  0.00000000000E+00  0.93201490303E+03  0.93201490303E+03  0.00000000000E+00 0.  1.
          1   -1    0    0  501    0  0.00000000000E+00 -0.00000000000E+00 -0.10043047305E+04  0.10043047305E+04  0.00000000000E+00 0. -1.
        -24    2    1    2    0    0  0.53743893211E+03 -0.46443799639E+03  0.21813658677E+03  0.74745225718E+03  0.80981775966E+02 0.  0.
        254    2    1    2    0    0 -0.53743893211E+03  0.46443799639E+03 -0.29042641422E+03  0.11888673763E+04  0.90802801619E+03 0.  0.
         23    2    4    4    0    0 -0.56407975540E+03 -0.96552983345E+02 -0.91490284161E+02  0.58602807842E+03  0.86890664405E+02 0.  0.
         23    2    4    4    0    0  0.26640823289E+02  0.56099097974E+03 -0.19893613006E+03  0.60283929790E+03  0.91755231162E+02 0.  0.
          3    1    3    3  502    0  0.29924012590E+02 -0.50999093370E+01  0.76501536790E+01  0.31304639529E+02  0.00000000000E+00 0. -1.
         -4    1    3    3    0  502  0.50751491952E+03 -0.45933808705E+03  0.21048643310E+03  0.71614761765E+03  0.00000000000E+00 0.  1.
         11    1    5    5    0    0 -0.55627030216E+03 -0.97622683107E+02 -0.10094157651E+03  0.57372122080E+03  0.00000000000E+00 0. -1.
        -11    1    5    5    0    0 -0.78094532364E+01  0.10696997620E+01  0.94512923541E+01  0.12306857625E+02  0.00000000000E+00 0.  1.
          1    1    6    6  503    0  0.60641617511E+02  0.38025391764E+03 -0.12926575864E+03  0.40617740460E+03  0.00000000000E+00 0. -1.
         -1    1    6    6    0  503 -0.34000794222E+02  0.18073706210E+03 -0.69670371421E+02  0.19666189330E+03  0.00000000000E+00 0.  1.
<mgrwt>
<rscale>  0 0.19349697E+04</rscale>
<asrwt>0</asrwt>
<pdfrwt beam="1">  1        1 0.15450842E+00 0.19349697E+04</pdfrwt>
<pdfrwt beam="2">  1       -2 0.14338691E+00 0.19349697E+04</pdfrwt>
<totfact> 0.41427394E+00</totfact>
</mgrwt>
</event>
<event>
12    4  0.4183215E-008  0.1959167E+04  0.7818608E-02  0.8625953E-01
          1   -1    0    0  501    0  0.00000000000E+00  0.00000000000E+00  0.16251714706E+04  0.16251714706E+04  0.00000000000E+00 0. -1.
         -2   -1    0    0    0  501 -0.00000000000E+00 -0.00000000000E+00 -0.59045071690E+03  0.59045071690E+03  0.00000000000E+00 0.  1.
        -24    2    1    2    0    0 -0.72135821754E+03 -0.21316393419E+03  0.18184019729E+03  0.77796683139E+03  0.79812233025E+02 0.  0.
        254    2    1    2    0    0  0.72135821754E+03  0.21316393419E+03  0.85288055643E+03  0.14376553561E+04  0.87957440765E+03 0.  0.
         23    2    4    4    0    0  0.12254911214E+03  0.42604802486E+03  0.58719233830E+03  0.74165175262E+03  0.93366351789E+02 0.  0.
         23    2    4    4    0    0  0.59880910540E+03 -0.21288409067E+03  0.26568821813E+03  0.69600360350E+03  0.99693560739E+02 0.  0.
          3    1    3    3  502    0 -0.23840775049E+03 -0.64551289252E+02  0.98175209233E+02  0.26578844246E+03  0.00000000000E+00 0. -1.
         -4    1    3    3    0  502 -0.48295046706E+03 -0.14861264494E+03  0.83664988058E+02  0.51217838893E+03  0.00000000000E+00 0.  1.
         11    1    5    5    0    0  0.30602122296E+02  0.24660864969E+03  0.28195000265E+03  0.37582990831E+03  0.00000000000E+00 0. -1.
        -11    1    5    5    0    0  0.91946989843E+02  0.17943937516E+03  0.30524233565E+03  0.36582184431E+03  0.00000000000E+00 0.  1.
          3    1    6    6  503    0  0.34126066988E+03 -0.80148032090E+02  0.17881306272E+03  0.39351831375E+03  0.00000000000E+00 0. -1.
         -3    1    6    6    0  503  0.25754843552E+03 -0.13273605858E+03  0.86875155411E+02  0.30248528975E+03  0.00000000000E+00 0.  1.
<mgrwt>
<rscale>  0 0.19591668E+04</rscale>
<asrwt>0</asrwt>
<pdfrwt beam="1">  1        1 0.25002638E+00 0.19591668E+04</pdfrwt>
<pdfrwt beam="2">  1       -2 0.90838572E-01 0.19591668E+04</pdfrwt>
<totfact> 0.45327169E+00</totfact>
</mgrwt>
</event>
<event>
12    4  0.4183215E-008  0.2159253E+04  0.7818608E-02  0.8535582E-01
          1   -1    0    0  501    0  0.00000000000E+00  0.00000000000E+00  0.11951274001E+04  0.11951274001E+04  0.00000000000E+00 0. -1.
         -2   -1    0    0    0  501 -0.00000000000E+00 -0.00000000000E+00 -0.97528821933E+03  0.97528821933E+03  0.00000000000E+00 0.  1.
        -24    2    1    2    0    0  0.14086302948E+03 -0.73911854182E+03  0.56910311220E+03  0.94670687360E+03  0.78974301451E+02 0.  0.
        254    2    1    2    0    0 -0.14086302948E+03  0.73911854182E+03 -0.34926393146E+03  0.12237087458E+04  0.89963280775E+03 0.  0.
         23    2    4    4    0    0 -0.14177007282E+03 -0.18124324123E+03 -0.66527330903E+02  0.25643918063E+03  0.91582212060E+02 0.  0.
         23    2    4    4    0    0  0.90704334757E+00  0.92036178305E+03 -0.28273660056E+03  0.96726956516E+03  0.92756627590E+02 0.  0.
          3    1    3    3  502    0  0.54502374450E+02 -0.36101111144E+03  0.32219417825E+03  0.48693800417E+03  0.00000000000E+00 0. -1.
         -4    1    3    3    0  502  0.86360655026E+02 -0.37810743037E+03  0.24690893395E+03  0.45976886943E+03  0.00000000000E+00 0.  1.
         11    1    5    5    0    0 -0.34523470173E+02 -0.11754718460E+03 -0.40353418079E+02  0.12898685573E+03  0.00000000000E+00 0.  1.
        -11    1    5    5    0    0 -0.10724660265E+03 -0.63696056630E+02 -0.26173912824E+02  0.12745232490E+03  0.00000000000E+00 0. -1.
          3    1    6    6  503    0  0.11680368269E+02  0.12374842486E+03 -0.80506348085E+01  0.12455888720E+03  0.00000000000E+00 0. -1.
         -3    1    6    6    0  503 -0.10773324921E+02  0.79661335819E+03 -0.27468596575E+03  0.84271067796E+03  0.00000000000E+00 0.  1.
<mgrwt>
<rscale>  0 0.21592533E+04</rscale>
<asrwt>0</asrwt>
<pdfrwt beam="1">  1        1 0.18386575E+00 0.21592533E+04</pdfrwt>
<pdfrwt beam="2">  1       -2 0.15004434E+00 0.21592533E+04</pdfrwt>
<totfact> 0.25889653E+00</totfact>
</mgrwt>
</event>
<event>
12    4  0.4183215E-008  0.1746748E+04  0.7818608E-02  0.8735142E-01
          1   -1    0    0  501    0  0.00000000000E+00  0.00000000000E+00  0.69007184512E+03  0.69007184512E+03  0.00000000000E+00 0. -1.
         -2   -1    0    0    0  501 -0.00000000000E+00 -0.00000000000E+00 -0.11053664772E+04  0.11053664772E+04  0.00000000000E+00 0.  1.
        -24    2    1    2    0    0  0.58266147568E+03 -0.11059377106E+03  0.91644390532E+02  0.60543683533E+03  0.80185346668E+02 0.  0.
        254    2    1    2    0    0 -0.58266147568E+03  0.11059377106E+03 -0.50693902257E+03  0.11900014869E+04  0.89854938033E+03 0.  0.
         23    2    4    4    0    0 -0.52871662815E+01  0.26296061628E+03 -0.51584968482E+03  0.58613119286E+03  0.90954043765E+02 0.  0.
         23    2    4    4    0    0 -0.57737430940E+03 -0.15236684522E+03  0.89106622552E+01  0.60387029408E+03  0.89460513583E+02 0.  0.
          1    1    3    3  502    0  0.48691211104E+03 -0.10026795960E+03  0.47178617296E+02  0.49936248311E+03  0.00000000000E+00 0. -1.
         -2    1    3    3    0  502  0.95749364641E+02 -0.10325811460E+02  0.44465773236E+02  0.10607435223E+03  0.00000000000E+00 0.  1.
         11    1    5    5    0    0  0.29557506062E+02  0.63791839799E+02 -0.19063066156E+03  0.20318241586E+03  0.00000000000E+00 0. -1.
        -11    1    5    5    0    0 -0.34844672343E+02  0.19916877648E+03 -0.32521902326E+03  0.38294877700E+03  0.00000000000E+00 0.  1.
          2    1    6    6  503    0 -0.39339815625E+03 -0.62100524829E+02 -0.69491701516E+01  0.39833010869E+03  0.00000000000E+00 0.  1.
         -2    1    6    6    0  503 -0.18397615316E+03 -0.90266320389E+02  0.15859832407E+02  0.20554018539E+03  0.00000000000E+00 0. -1.
<mgrwt>
<rscale>  0 0.17467482E+04</rscale>
<asrwt>0</asrwt>
<pdfrwt beam="1">  1        1 0.10616490E+00 0.17467482E+04</pdfrwt>
<pdfrwt beam="2">  1       -2 0.17005638E+00 0.17467482E+04</pdfrwt>
<totfact> 0.49174687E+00</totfact>
</mgrwt>
</event>
<event>
12    4  0.4183215E-008  0.1215899E+04  0.7818608E-02  0.9099053E-01
          1   -1    0    0  501    0  0.00000000000E+00  0.00000000000E+00  0.47068250985E+03  0.47068250985E+03  0.00000000000E+00 0. -1.
         -2   -1    0    0    0  501 -0.00000000000E+00 -0.00000000000E+00 -0.78524827671E+03  0.78524827671E+03  0.00000000000E+00 0.  1.
        -24    2    1    2    0    0 -0.47505047739E+02 -0.25185797774E+03 -0.91757047830E+02  0.28375216571E+03  0.80042271403E+02 0.  0.
        254    2    1    2    0    0  0.47505047739E+02  0.25185797774E+03 -0.22280871902E+03  0.97217862085E+03  0.91093269512E+03 0.  0.
         23    2    4    4    0    0 -0.18711311619E+03 -0.18074115202E+03 -0.35852652097E+03  0.45388305360E+03  0.98943811441E+02 0.  0.
         23    2    4    4    0    0  0.23461816392E+03  0.43259912975E+03  0.13571780195E+03  0.51829556725E+03  0.89572782452E+02 0.  0.
          1    1    3    3  502    0  0.71690149069E+01 -0.67961252129E+02 -0.56537696369E+02  0.88694067876E+02  0.00000000000E+00 0. -1.
         -2    1    3    3    0  502 -0.54674062646E+02 -0.18389672561E+03 -0.35219351461E+02  0.19505809784E+03  0.00000000000E+00 0.  1.
         11    1    5    5    0    0 -0.64893359405E+02 -0.29856364788E+02 -0.42941259565E+02  0.83345680070E+02  0.00000000000E+00 0. -1.
        -11    1    5    5    0    0 -0.12221975678E+03 -0.15088478723E+03 -0.31558526140E+03  0.37053737353E+03  0.00000000000E+00 0.  1.
          3    1    6    6  503    0  0.15605381713E+03  0.19574920913E+03  0.58555598355E+02  0.25709785066E+03  0.00000000000E+00 0. -1.
         -3    1    6    6    0  503  0.78564346794E+02  0.23684992062E+03  0.77162203592E+02  0.26119771659E+03  0.00000000000E+00 0.  1.
<mgrwt>
<rscale>  0 0.12158991E+04</rscale>
<asrwt>0</asrwt>
<pdfrwt beam="1">  1        1 0.72412694E-01 0.12158991E+04</pdfrwt>
<pdfrwt beam="2">  1       -2 0.12080743E+00 0.12158991E+04</pdfrwt>
<totfact> 0.21730149E+01</totfact>
</mgrwt>
</event>
<event>
12    4  0.4183215E-008  0.1194664E+04  0.7818608E-02  0.9117540E-01
          1   -1    0    0  501    0  0.00000000000E+00  0.00000000000E+00  0.26887254522E+04  0.26887254522E+04  0.00000000000E+00 0. -1.
         -2   -1    0    0    0  501 -0.00000000000E+00 -0.00000000000E+00 -0.13270434012E+03  0.13270434012E+03  0.00000000000E+00 0.  1.
        -24    2    1    2    0    0  0.24715581168E+03 -0.15462445533E+02  0.42479621704E+03  0.49744961452E+03  0.75360536800E+02 0.  0.
        254    2    1    2    0    0 -0.24715581168E+03  0.15462445533E+02  0.21312248950E+04  0.23239801778E+04  0.89299453028E+03 0.  0.
         23    2    4    4    0    0  0.60223068438E+02  0.37818345440E+03  0.59578762154E+03  0.71406542195E+03  0.90977984667E+02 0.  0.
         23    2    4    4    0    0 -0.30737888012E+03 -0.36272100886E+03  0.15354372734E+04  0.16099147558E+04  0.90606810158E+02 0.  0.
          3    1    3    3  502    0  0.21285368854E+03 -0.27147688704E+02  0.39876076915E+03  0.45282871015E+03  0.00000000000E+00 0. -1.
         -4    1    3    3    0  502  0.34302123138E+02  0.11685243171E+02  0.26035447896E+02  0.44620904370E+02  0.00000000000E+00 0.  1.
         11    1    5    5    0    0  0.67469893673E+02  0.31845405433E+03  0.54730578791E+03  0.63679572607E+03  0.00000000000E+00 0. -1.
        -11    1    5    5    0    0 -0.72468252351E+01  0.59729400067E+02  0.48481833634E+02  0.77269695877E+02  0.00000000000E+00 0.  1.
          2    1    6    6  503    0 -0.21699669957E+03 -0.26939413866E+03  0.97281688542E+03  0.10324889647E+04  0.00000000000E+00 0. -1.
         -2    1    6    6    0  503 -0.90382180547E+02 -0.93326870200E+02  0.56262038802E+03  0.57742579114E+03  0.00000000000E+00 0.  1.
<mgrwt>
<rscale>  0 0.11946640E+04</rscale>
<asrwt>0</asrwt>
<pdfrwt beam="1">  1        1 0.41365003E+00 0.11946640E+04</pdfrwt>
<pdfrwt beam="2">  1       -2 0.20416054E-01 0.11946640E+04</pdfrwt>
<totfact> 0.18068530E+01</totfact>
</mgrwt>
</event>
<event>
12    4  0.4183215E-008  0.1818188E+04  0.7818608E-02  0.8696687E-01
         -2   -1    0    0    0  501 -0.00000000000E+00  0.00000000000E+00  0.53931297336E+03  0.53931297336E+03  0.00000000000E+00 0.  1.
          1   -1    0    0  501    0  0.00000000000E+00 -0.00000000000E+00 -0.15324157214E+04  0.15324157214E+04  0.00000000000E+00 0. -1.
        -24    2    1    2    0    0 -0.16523441003E+03  0.30762079489E+03  0.28145295950E+03  0.45561536113E+03  0.80228580789E+02 0.  0.
        254    2    1    2    0    0  0.16523441003E+03 -0.30762079489E+03 -0.12745557076E+04  0.16161133337E+04  0.93026721527E+03 0.  0.
         23    2    4    4    0    0  0.48201901893E+03 -0.24334755410E+03 -0.39616132783E+03  0.67559967175E+03  0.89054770181E+02 0.  0.
         23    2    4    4    0    0 -0.31678460890E+03 -0.64273240790E+02 -0.87839437974E+03  0.94051366191E+03  0.92226481935E+02 0.  0.
          3    1    3    3  502    0 -0.86747690190E+02  0.16017662276E+03  0.95557068144E+02  0.20570091274E+03  0.00000000000E+00 0. -1.
         -4    1    3    3    0  502 -0.78486719844E+02  0.14744417214E+03  0.18589589136E+03  0.24991444839E+03  0.00000000000E+00 0.  1.
         11    1    5    5    0    0  0.46158137102E+03 -0.24430064104E+03 -0.36083826174E+03  0.63477902961E+03  0.00000000000E+00 0.  1.
        -11    1    5    5    0    0  0.20437647912E+02  0.95308694018E+00 -0.35323066089E+02  0.40820642141E+02  0.00000000000E+00 0. -1.
          2    1    6    6  503    0 -0.11361184748E+03 -0.38307332549E+02 -0.21441999999E+03  0.24566448667E+03  0.00000000000E+00 0. -1.
         -2    1    6    6    0  503 -0.20317276142E+03 -0.25965908241E+02 -0.66397437974E+03  0.69484917524E+03  0.00000000000E+00 0.  1.
<mgrwt>
<rscale>  0 0.18181878E+04</rscale>
<asrwt>0</asrwt>
<pdfrwt beam="1">  1        1 0.23575626E+00 0.18181878E+04</pdfrwt>
<pdfrwt beam="2">  1       -2 0.82971228E-01 0.18181878E+04</pdfrwt>
<totfact> 0.65382668E+00</totfact>
</mgrwt>
</event>
<event>
12    4  0.4183215E-008  0.2269583E+04  0.7818608E-02  0.8490012E-01
          1   -1    0    0  501    0  0.00000000000E+00  0.00000000000E+00  0.95695797556E+03  0.95695797556E+03  0.00000000000E+00 0. -1.
         -2   -1    0    0    0  501 -0.00000000000E+00 -0.00000000000E+00 -0.13456723378E+04  0.13456723378E+04  0.00000000000E+00 0.  1.
        -24    2    1    2    0    0  0.64750355948E+03  0.61477036521E+03  0.18607561178E+03  0.91561383400E+03  0.80753317120E+02 0.  0.
        254    2    1    2    0    0 -0.64750355948E+03 -0.61477036521E+03 -0.57478997403E+03  0.13870164794E+04  0.89231594086E+03 0.  0.
         23    2    4    4    0    0 -0.43359530604E+03 -0.15647772625E+03 -0.71368625259E+03  0.85437426686E+03  0.90095241223E+02 0.  0.
         23    2    4    4    0    0 -0.21390825344E+03 -0.45829263895E+03  0.13889627856E+03  0.53264221251E+03  0.92879850032E+02 0.  0.
          1    1    3    3  502    0  0.61192031056E+03  0.59339510115E+03  0.16205685192E+03  0.86765582796E+03  0.00000000000E+00 0. -1.
         -2    1    3    3    0  502  0.35583248922E+02  0.21375264062E+02  0.24018759864E+02  0.47958006036E+02  0.00000000000E+00 0.  1.
         11    1    5    5    0    0 -0.69745519365E+02 -0.63022318596E+02 -0.13920044499E+03  0.16796730038E+03  0.00000000000E+00 0.  1.
        -11    1    5    5    0    0 -0.36384978668E+03 -0.93455407659E+02 -0.57448580760E+03  0.68640696647E+03  0.00000000000E+00 0. -1.
          4    1    6    6  503    0 -0.53175623359E+02 -0.57471010708E+02  0.46351254355E+02  0.90989025556E+02  0.00000000000E+00 0.  1.
         -4    1    6    6    0  503 -0.16073263008E+03 -0.40082162825E+03  0.92545024206E+02  0.44165318696E+03  0.00000000000E+00 0. -1.
<mgrwt>
<rscale>  0 0.22695831E+04</rscale>
<asrwt>0</asrwt>
<pdfrwt beam="1">  1        1 0.14722430E+00 0.22695831E+04</pdfrwt>
<pdfrwt beam="2">  1       -2 0.20702651E+00 0.22695831E+04</pdfrwt>
<totfact> 0.15558358E+00</totfact>
</mgrwt>
</event>
<event>
12    4  0.4183215E-008  0.1322389E+04  0.7818608E-02  0.9011997E-01
         -2   -1    0    0    0  501 -0.00000000000E+00  0.00000000000E+00  0.28517693526E+03  0.28517693526E+03  0.00000000000E+00 0.  1.
          1   -1    0    0  501    0  0.00000000000E+00 -0.00000000000E+00 -0.15330062797E+04  0.15330062797E+04  0.00000000000E+00 0. -1.
        -24    2    1    2    0    0  0.24069754510E+03 -0.23409968887E+03 -0.20378741325E+03  0.40152989666E+03  0.83420474510E+02 0.  0.
        254    2    1    2    0    0 -0.24069754510E+03  0.23409968887E+03 -0.10440419312E+04  0.14166533183E+04  0.89674137723E+03 0.  0.
         23    2    4    4    0    0 -0.30766136860E+03 -0.19026442531E+03 -0.86584721574E+03  0.94283281636E+03  0.91576467161E+02 0.  0.
         23    2    4    4    0    0  0.66963823497E+02  0.42436411418E+03 -0.17819471548E+03  0.47382050197E+03  0.90462458501E+02 0.  0.
          3    1    3    3  502    0  0.13317851131E+03 -0.94970494421E+02 -0.59444689699E+02  0.17403902384E+03  0.00000000000E+00 0. -1.
         -4    1    3    3    0  502  0.10751903379E+03 -0.13912919445E+03 -0.14434272355E+03  0.22749087282E+03  0.00000000000E+00 0.  1.
         11    1    5    5    0    0 -0.14995071368E+03 -0.14489353137E+03 -0.50925704609E+03  0.55029273206E+03  0.00000000000E+00 0.  1.
        -11    1    5    5    0    0 -0.15771065492E+03 -0.45370893938E+02 -0.35659016965E+03  0.39254008430E+03  0.00000000000E+00 0. -1.
          1    1    6    6  503    0  0.72475364129E+02  0.33521002311E+03 -0.10598251509E+03  0.35895784085E+03  0.00000000000E+00 0. -1.
         -1    1    6    6    0  503 -0.55115406316E+01  0.89154091069E+02 -0.72212200394E+02  0.11486266112E+03  0.00000000000E+00 0.  1.
<mgrwt>
<rscale>  0 0.13223888E+04</rscale>
<asrwt>0</asrwt>
<pdfrwt beam="1">  1        1 0.23584712E+00 0.13223888E+04</pdfrwt>
<pdfrwt beam="2">  1       -2 0.43873375E-01 0.13223888E+04</pdfrwt>
<totfact> 0.26315817E+01</totfact>
</mgrwt>
</event>
<event>
12    4  0.4183215E-008  0.1257686E+04  0.7818608E-02  0.9063810E-01
         -2   -1    0    0    0  501 -0.00000000000E+00  0.00000000000E+00  0.50189849524E+03  0.50189849524E+03  0.00000000000E+00 0.  1.
          1   -1    0    0  501    0  0.00000000000E+00 -0.00000000000E+00 -0.78789539588E+03  0.78789539588E+03  0.00000000000E+00 0. -1.
        -24    2    1    2    0    0 -0.73432347012E+02 -0.13001170220E+03  0.20214904558E+03  0.26386653687E+03  0.80411195479E+02 0.  0.
        254    2    1    2    0    0  0.73432347012E+02  0.13001170220E+03 -0.48814594622E+03  0.10259273542E+04  0.88991298400E+03 0.  0.
         23    2    4    4    0    0 -0.10869544732E+03  0.47091866645E+03 -0.18225438924E+03  0.52421990128E+03  0.89502803427E+02 0.  0.
         23    2    4    4    0    0  0.18212779434E+03 -0.34090696425E+03 -0.30589155698E+03  0.50170745297E+03  0.93555502159E+02 0.  0.
          1    1    3    3  502    0 -0.18415364938E+02  0.87004013318E+01  0.24227280891E+02  0.31650968208E+02  0.00000000000E+00 0. -1.
         -2    1    3    3    0  502 -0.55016982074E+02 -0.13871210353E+03  0.17792176468E+03  0.23221556866E+03  0.00000000000E+00 0.  1.
         11    1    5    5    0    0 -0.10459777833E+03  0.36818805755E+03 -0.17581686889E+03  0.42120625867E+03  0.00000000000E+00 0.  1.
        -11    1    5    5    0    0 -0.40976689979E+01  0.10273060890E+03 -0.64375203461E+01  0.10301364261E+03  0.00000000000E+00 0. -1.
          3    1    6    6  503    0  0.15855207967E+02 -0.11952390653E+03 -0.10067846398E+03  0.15707802189E+03  0.00000000000E+00 0. -1.
         -3    1    6    6    0  503  0.16627258637E+03 -0.22138305772E+03 -0.20521309301E+03  0.34462943108E+03  0.00000000000E+00 0.  1.
<mgrwt>
<rscale>  0 0.12576860E+04</rscale>
<asrwt>0</asrwt>
<pdfrwt beam="1">  1        1 0.12121468E+00 0.12576860E+04</pdfrwt>
<pdfrwt beam="2">  1       -2 0.77215153E-01 0.12576860E+04</pdfrwt>
<totfact> 0.29284146E+01</totfact>
</mgrwt>
</event>
<event>
12    4  0.4183215E-008  0.1979010E+04  0.7818608E-02  0.8616498E-01
          1   -1    0    0  501    0  0.00000000000E+00  0.00000000000E+00  0.12040101247E+04  0.12040101247E+04  0.00000000000E+00 0. -1.
         -2   -1    0    0    0  501 -0.00000000000E+00 -0.00000000000E+00 -0.81321570005E+03  0.81321570005E+03  0.00000000000E+00 0.  1.
        -24    2    1    2    0    0  0.53640900367E+03 -0.55080090801E+03  0.29182413902E+03  0.82631365534E+03  0.80725890556E+02 0.  0.
        254    2    1    2    0    0 -0.53640900367E+03  0.55080090801E+03  0.98970285601E+02  0.11909121694E+04  0.90407987382E+03 0.  0.
         23    2    4    4    0    0  0.72699242593E+02  0.49668648975E+03  0.22740501229E+03  0.55929074515E+03  0.95448672173E+02 0.  0.
         23    2    4    4    0    0 -0.60910824626E+03  0.54114418252E+02 -0.12843472668E+03  0.63162142422E+03  0.92243799753E+02 0.  0.
          3    1    3    3  502    0  0.43317150415E+03 -0.40707652625E+03  0.24742292877E+03  0.64386874121E+03  0.00000000000E+00 0. -1.
         -4    1    3    3    0  502  0.10323749952E+03 -0.14372438176E+03  0.44401210251E+02  0.18244491413E+03  0.00000000000E+00 0.  1.
         11    1    5    5    0    0  0.87199656579E+02  0.27776440504E+03  0.11815393521E+03  0.31419292993E+03  0.00000000000E+00 0.  1.
        -11    1    5    5    0    0 -0.14500413986E+02  0.21892208471E+03  0.10925107708E+03  0.24509781522E+03  0.00000000000E+00 0. -1.
          3    1    6    6  503    0 -0.12462603554E+02  0.14644194463E+02  0.28209705813E+01  0.19435194721E+02  0.00000000000E+00 0. -1.
         -3    1    6    6    0  503 -0.59664564271E+03  0.39470223789E+02 -0.13125569726E+03  0.61218622950E+03  0.00000000000E+00 0.  1.
<mgrwt>
<rscale>  0 0.19790098E+04</rscale>
<asrwt>0</asrwt>
<pdfrwt beam="1">  1        1 0.18523233E+00 0.19790098E+04</pdfrwt>
<pdfrwt beam="2">  1       -2 0.12511011E+00 0.19790098E+04</pdfrwt>
<totfact> 0.41394782E+00</totfact>
</mgrwt>
</event>
<event>
12    4  0.4183215E-008  0.1300999E+04  0.7818608E-02  0.9028774E-01
          1   -1    0    0  501    0  0.00000000000E+00  0.00000000000E+00  0.87737340931E+03  0.87737340931E+03  0.00000000000E+00 0. -1.
         -2   -1    0    0    0  501 -0.00000000000E+00 -0.00000000000E+00 -0.48229099154E+03  0.48229099154E+03  0.00000000000E+00 0.  1.
        -24    2    1    2    0    0  0.17811165880E+03 -0.26446949478E+03 -0.85529652419E+01  0.32959464889E+03  0.83015677411E+02 0.  0.
        254    2    1    2    0    0 -0.17811165880E+03  0.26446949478E+03  0.40363538301E+03  0.10300697520E+04  0.89244288042E+03 0.  0.
         23    2    4    4    0    0  0.14418306259E+03 -0.26287294728E+03  0.75494619282E+02  0.32449626619E+03  0.98526378612E+02 0.  0.
         23    2    4    4    0    0 -0.32229472139E+03  0.52734244206E+03  0.32814076373E+03  0.70557348577E+03  0.90518751467E+02 0.  0.
          1    1    3    3  502    0  0.10610440540E+02 -0.23758582198E+02 -0.24725344939E+02  0.35894210659E+02  0.00000000000E+00 0. -1.
         -2    1    3    3    0  502  0.16750121826E+03 -0.24071091258E+03  0.16172379697E+02  0.29370043823E+03  0.00000000000E+00 0.  1.
         11    1    5    5    0    0  0.14616595318E+03 -0.26028066074E+03  0.88285619112E+02  0.31129545253E+03  0.00000000000E+00 0.  1.
        -11    1    5    5    0    0 -0.19828905924E+01 -0.25922865367E+01 -0.12790999829E+02  0.13200813658E+02  0.00000000000E+00 0. -1.
          3    1    6    6  503    0 -0.36756335124E+01  0.27915446423E+02  0.34054266851E+02  0.44186825202E+02  0.00000000000E+00 0. -1.
         -3    1    6    6    0  503 -0.31861908787E+03  0.49942699564E+03  0.29408649688E+03  0.66138666057E+03  0.00000000000E+00 0.  1.
<mgrwt>
<rscale>  0 0.13009985E+04</rscale>
<asrwt>0</asrwt>
<pdfrwt beam="1">  1        1 0.13498052E+00 0.13009985E+04</pdfrwt>
<pdfrwt beam="2">  1       -2 0.74198614E-01 0.13009985E+04</pdfrwt>
<totfact> 0.26751087E+01</totfact>
</mgrwt>
</event>
<event>
12    4  0.4183215E-008  0.2239795E+04  0.7818608E-02  0.8502045E-01
          1   -1    0    0  501    0  0.00000000000E+00  0.00000000000E+00  0.90365254483E+03  0.90365254483E+03  0.00000000000E+00 0. -1.
         -2   -1    0    0    0  501 -0.00000000000E+00 -0.00000000000E+00 -0.13878895429E+04  0.13878895429E+04  0.00000000000E+00 0.  1.
        -24    2    1    2    0    0  0.11706178248E+03 -0.82812452341E+03  0.22983953980E+03  0.87112671158E+03  0.80881681389E+02 0.  0.
        254    2    1    2    0    0 -0.11706178248E+03  0.82812452341E+03 -0.71407653783E+03  0.14204153761E+04  0.89898879392E+03 0.  0.
         23    2    4    4    0    0  0.84889845945E+02 -0.13686572678E+02  0.14888024496E+03  0.19472289708E+03  0.91422486804E+02 0.  0.
         23    2    4    4    0    0 -0.20195162842E+03  0.84181109609E+03 -0.86295678279E+03  0.12256924790E+04  0.90538734426E+02 0.  0.
          3    1    3    3  502    0  0.70898061825E+02 -0.68374786178E+03  0.16966871070E+03  0.70804318021E+03  0.00000000000E+00 0. -1.
         -4    1    3    3    0  502  0.46163720655E+02 -0.14437666163E+03  0.60170829099E+02  0.16308353137E+03  0.00000000000E+00 0.  1.
         11    1    5    5    0    0  0.10240989257E+03 -0.34794998284E+01  0.13746439645E+03  0.17145364770E+03  0.00000000000E+00 0.  1.
        -11    1    5    5    0    0 -0.17520046628E+02 -0.10207072850E+02  0.11415848506E+02  0.23269249389E+02  0.00000000000E+00 0. -1.
          4    1    6    6  503    0 -0.16561555657E+03  0.51852182999E+03 -0.51508668846E+03  0.74940489549E+03  0.00000000000E+00 0.  1.
         -4    1    6    6    0  503 -0.36336071851E+02  0.32328926610E+03 -0.34787009432E+03  0.47628758352E+03  0.00000000000E+00 0. -1.
<mgrwt>
<rscale>  0 0.22397946E+04</rscale>
<asrwt>0</asrwt>
<pdfrwt beam="1">  1        1 0.13902347E+00 0.22397946E+04</pdfrwt>
<pdfrwt beam="2">  1       -2 0.21352147E+00 0.22397946E+04</pdfrwt>
<totfact> 0.15641352E+00</totfact>
</mgrwt>
</event>
<event>
12    4  0.4183215E-008  0.1325117E+04  0.7818608E-02  0.9009881E-01
         -2   -1    0    0    0  501 -0.00000000000E+00  0.00000000000E+00  0.98842890718E+03  0.98842890718E+03  0.00000000000E+00 0.  1.
          3   -1    0    0  501    0  0.00000000000E+00 -0.00000000000E+00 -0.44412247862E+03  0.44412247862E+03  0.00000000000E+00 0. -1.
        -24    2    1    2    0    0  0.99751646399E+02 -0.15556267980E+03  0.47163021051E+03  0.51281518726E+03  0.79963882565E+02 0.  0.
        254    2    1    2    0    0 -0.99751646399E+02  0.15556267980E+03  0.72676218045E+02  0.91973619853E+03  0.89804382071E+03 0.  0.
         23    2    4    4    0    0  0.19952242597E+03  0.28141772378E+03  0.33800650113E+03  0.49134474413E+03  0.90366636839E+02 0.  0.
         23    2    4    4    0    0 -0.29927407237E+03 -0.12585504398E+03 -0.26533028308E+03  0.42839145440E+03  0.87832890166E+02 0.  0.
          3    1    3    3  502    0  0.36965557044E+02 -0.14272090446E+02  0.50437691054E+02  0.64141294438E+02  0.00000000000E+00 0. -1.
         -4    1    3    3    0  502  0.62786089355E+02 -0.14129058935E+03  0.42119251946E+03  0.44867389283E+03  0.00000000000E+00 0.  1.
         11    1    5    5    0    0  0.18294062029E+03  0.28461035031E+03  0.31136647643E+03  0.45980365886E+03  0.00000000000E+00 0. -1.
        -11    1    5    5    0    0  0.16581805686E+02 -0.31926265341E+01  0.26640024694E+02  0.31541085266E+02  0.00000000000E+00 0.  1.
          2    1    6    6  503    0 -0.21179640449E+03 -0.12628607066E+03 -0.21686495148E+03  0.32838437200E+03  0.00000000000E+00 0. -1.
         -2    1    6    6    0  503 -0.87477667881E+02  0.43102668167E+00 -0.48465331608E+02  0.10000708240E+03  0.00000000000E+00 0.  1.
<mgrwt>
<rscale>  0 0.13251166E+04</rscale>
<asrwt>0</asrwt>
<pdfrwt beam="1">  1        3 0.68326536E-01 0.13251166E+04</pdfrwt>
<pdfrwt beam="2">  1       -2 0.15206598E+00 0.13251166E+04</pdfrwt>
<totfact> 0.24293757E+00</totfact>
</mgrwt>
</event>
<event>
12    4  0.4183215E-008  0.2318474E+04  0.7818608E-02  0.8470672E-01
          1   -1    0    0  501    0  0.00000000000E+00  0.00000000000E+00  0.25185898664E+04  0.25185898664E+04  0.00000000000E+00 0. -1.
         -2   -1    0    0    0  501 -0.00000000000E+00 -0.00000000000E+00 -0.53356470067E+03  0.53356470067E+03  0.00000000000E+00 0.  1.
        -24    2    1    2    0    0 -0.13526256916E+03 -0.98867364565E+01  0.21364689756E+04  0.21422606808E+04  0.79921402265E+02 0.  0.
        254    2    1    2    0    0  0.13526256916E+03  0.98867364565E+01 -0.15144380995E+03  0.90989388620E+03  0.88689229696E+03 0.  0.
         23    2    4    4    0    0  0.12095807354E+02  0.42598295012E+03 -0.16157310011E+03  0.46589089306E+03  0.96647168644E+02 0.  0.
         23    2    4    4    0    0  0.12316676181E+03 -0.41609621367E+03  0.10129290157E+02  0.44400299314E+03  0.93434175548E+02 0.  0.
          1    1    3    3  502    0 -0.10616698239E+03 -0.39782256395E+02  0.17107142398E+04  0.17144670503E+04  0.00000000000E+00 0. -1.
         -2    1    3    3    0  502 -0.29095586772E+02  0.29895519938E+02  0.42575473582E+03  0.42779363057E+03  0.00000000000E+00 0.  1.
         11    1    5    5    0    0  0.34336881632E+02  0.74845568814E+02 -0.10595719022E+02  0.83024995470E+02  0.00000000000E+00 0. -1.
        -11    1    5    5    0    0 -0.22241074277E+02  0.35113738131E+03 -0.15097738109E+03  0.38286589759E+03  0.00000000000E+00 0.  1.
          2    1    6    6  503    0  0.47592126793E+01 -0.15821186963E+02 -0.19468309247E+02  0.25533803617E+02  0.00000000000E+00 0. -1.
         -2    1    6    6    0  503  0.11840754913E+03 -0.40027502670E+03  0.29597599403E+02  0.41846918953E+03  0.00000000000E+00 0.  1.
<mgrwt>
<rscale>  0 0.23184742E+04</rscale>
<asrwt>0</asrwt>
<pdfrwt beam="1">  1        1 0.38747536E+00 0.23184742E+04</pdfrwt>
<pdfrwt beam="2">  1       -2 0.82086879E-01 0.23184742E+04</pdfrwt>
<totfact> 0.13602654E+00</totfact>
</mgrwt>
</event>
<event>
12    4  0.4183215E-008  0.1919948E+04  0.7818608E-02  0.8644990E-01
         -2   -1    0    0    0  501 -0.00000000000E+00  0.00000000000E+00  0.28677971505E+03  0.28677971505E+03  0.00000000000E+00 0.  1.
          1   -1    0    0  501    0  0.00000000000E+00 -0.00000000000E+00 -0.32134422117E+04  0.32134422117E+04  0.00000000000E+00 0. -1.
        -24    2    1    2    0    0  0.18602126265E+03 -0.67711523685E+02 -0.24291411444E+04  0.24385945479E+04  0.82631160435E+02 0.  0.
        254    2    1    2    0    0 -0.18602126265E+03  0.67711523685E+02 -0.49752135222E+03  0.10616273789E+04  0.91669866101E+03 0.  0.
         23    2    4    4    0    0 -0.33983901141E+03 -0.12042309731E+03 -0.65882906157E+03  0.75612903184E+03  0.87653319266E+02 0.  0.
         23    2    4    4    0    0  0.15381774877E+03  0.18813462100E+03  0.16130770935E+03  0.30549834705E+03  0.90854430260E+02 0.  0.
          1    1    3    3  502    0  0.15236099595E+03 -0.43031416084E+02 -0.14608146212E+04  0.14693688894E+04  0.00000000000E+00 0. -1.
         -2    1    3    3    0  502  0.33660266695E+02 -0.24680107602E+02 -0.96832652329E+03  0.96922565844E+03  0.00000000000E+00 0.  1.
         11    1    5    5    0    0 -0.31222586613E+03 -0.98446896591E+02 -0.53361305735E+03  0.62603488554E+03  0.00000000000E+00 0. -1.
        -11    1    5    5    0    0 -0.27613145278E+02 -0.21976200723E+02 -0.12521600422E+03  0.13009414631E+03  0.00000000000E+00 0.  1.
          4    1    6    6  503    0  0.71822177462E+02  0.14402787462E+03  0.13120606464E+03  0.20764750237E+03  0.00000000000E+00 0. -1.
         -4    1    6    6    0  503  0.81995571303E+02  0.44106746384E+02  0.30101644713E+02  0.97850844678E+02  0.00000000000E+00 0.  1.
<mgrwt>
<rscale>  0 0.19199480E+04</rscale>
<asrwt>0</asrwt>
<pdfrwt beam="1">  1        1 0.49437575E+00 0.19199480E+04</pdfrwt>
<pdfrwt beam="2">  1       -2 0.44119954E-01 0.19199480E+04</pdfrwt>
<totfact> 0.16658339E+00</totfact>
</mgrwt>
</event>
<event>
12    4  0.4183215E-008  0.1946025E+04  0.7818608E-02  0.8632280E-01
          1   -1    0    0  501    0  0.00000000000E+00  0.00000000000E+00  0.10905485137E+04  0.10905485137E+04  0.00000000000E+00 0. -1.
         -2   -1    0    0    0  501 -0.00000000000E+00 -0.00000000000E+00 -0.86814449155E+03  0.86814449155E+03  0.00000000000E+00 0.  1.
        -24    2    1    2    0    0 -0.31983642055E+03  0.42100170566E+02 -0.61229175890E+03  0.69721392687E+03  0.84488469779E+02 0.  0.
        254    2    1    2    0    0  0.31983642055E+03 -0.42100170566E+02  0.83469578108E+03  0.12614790784E+04  0.88912578301E+03 0.  0.
         23    2    4    4    0    0 -0.19215206269E+03  0.24467928085E+03  0.15836912427E+03  0.36132937629E+03  0.93208223762E+02 0.  0.
         23    2    4    4    0    0  0.51198848324E+03 -0.28677945141E+03  0.67632665681E+03  0.90014970211E+03  0.92071052862E+02 0.  0.
          1    1    3    3  502    0 -0.90331585163E+02  0.14382342174E+02 -0.10202960517E+03  0.13702805325E+03  0.00000000000E+00 0. -1.
         -4    1    3    3    0  502 -0.22950483539E+03  0.27717828392E+02 -0.51026215373E+03  0.56018587362E+03  0.00000000000E+00 0.  1.
         11    1    5    5    0    0 -0.16781997177E+03  0.21499006980E+03  0.98034898260E+02  0.28981910620E+03  0.00000000000E+00 0.  1.
        -11    1    5    5    0    0 -0.24332090915E+02  0.29689211043E+02  0.60334226006E+02  0.71510270091E+02  0.00000000000E+00 0. -1.
          3    1    6    6  503    0  0.50208421823E+02  0.26502882350E+00  0.53126318801E+02  0.73098301017E+02  0.00000000000E+00 0. -1.
         -3    1    6    6    0  503  0.46178006142E+03 -0.28704448024E+03  0.62320033801E+03  0.82705140110E+03  0.00000000000E+00 0.  1.
<mgrwt>
<rscale>  0 0.19460254E+04</rscale>
<asrwt>0</asrwt>
<pdfrwt beam="1">  1        1 0.16777669E+00 0.19460254E+04</pdfrwt>
<pdfrwt beam="2">  1       -2 0.13356069E+00 0.19460254E+04</pdfrwt>
<totfact> 0.42707230E+00</totfact>
</mgrwt>
</event>
<event>
12    4  0.4183215E-008  0.1622449E+04  0.7818608E-02  0.8806874E-01
          1   -1    0    0  501    0  0.00000000000E+00  0.00000000000E+00  0.68433007894E+03  0.68433007894E+03  0.00000000000E+00 0. -1.
         -2   -1    0    0    0  501 -0.00000000000E+00 -0.00000000000E+00 -0.96164837100E+03  0.96164837100E+03  0.00000000000E+00 0.  1.
        -24    2    1    2    0    0  0.27051139540E+03 -0.16899644252E+03 -0.55976025738E+03  0.64813637647E+03  0.70802571553E+02 0.  0.
        254    2    1    2    0    0 -0.27051139540E+03  0.16899644252E+03  0.28244196533E+03  0.99784207347E+03  0.90231875032E+03 0.  0.
         23    2    4    4    0    0  0.23391452763E+02 -0.24045229518E+03  0.39629260015E+03  0.47300116118E+03  0.91202013296E+02 0.  0.
         23    2    4    4    0    0 -0.29390284816E+03  0.40944873770E+03 -0.11385063482E+03  0.52484091228E+03  0.92026426612E+02 0.  0.
          1    1    3    3  502    0  0.18242743658E+01 -0.12880059737E+02 -0.45087850163E+02  0.46926944799E+02  0.00000000000E+00 0. -1.
         -2    1    3    3    0  502  0.26868712103E+03 -0.15611638278E+03 -0.51467240722E+03  0.60120943168E+03  0.00000000000E+00 0.  1.
         11    1    5    5    0    0  0.29398514285E+02 -0.18439282883E+03  0.22345088538E+03  0.29119630174E+03  0.00000000000E+00 0. -1.
        -11    1    5    5    0    0 -0.60070615218E+01 -0.56059466349E+02  0.17284171477E+03  0.18180485945E+03  0.00000000000E+00 0.  1.
          1    1    6    6  503    0 -0.21225893454E+03  0.33191577547E+03 -0.12065430336E+03  0.41204295676E+03  0.00000000000E+00 0. -1.
         -1    1    6    6    0  503 -0.81643913622E+02  0.77532962231E+02  0.68036685449E+01  0.11279795552E+03  0.00000000000E+00 0.  1.
<mgrwt>
<rscale>  0 0.16224487E+04</rscale>
<asrwt>0</asrwt>
<pdfrwt beam="1">  1        1 0.10528155E+00 0.16224487E+04</pdfrwt>
<pdfrwt beam="2">  1       -2 0.14794590E+00 0.16224487E+04</pdfrwt>
<totfact> 0.73437993E+00</totfact>
</mgrwt>
</event>
<event>
12    4  0.4183215E-008  0.1939490E+04  0.7818608E-02  0.8635446E-01
          1   -1    0    0  501    0  0.00000000000E+00  0.00000000000E+00  0.24841697503E+04  0.24841697503E+04  0.00000000000E+00 0. -1.
         -2   -1    0    0    0  501 -0.00000000000E+00 -0.00000000000E+00 -0.37855909603E+03  0.37855909603E+03  0.00000000000E+00 0.  1.
        -24    2    1    2    0    0 -0.71465584347E+03 -0.16082574101E+03  0.11195996426E+04  0.13404214606E+04  0.81415225374E+02 0.  0.
        254    2    1    2    0    0  0.71465584347E+03  0.16082574101E+03  0.98601101172E+03  0.15223073857E+04  0.89922420328E+03 0.  0.
         23    2    4    4    0    0  0.75740249143E+03 -0.16516725849E+03  0.49575715168E+03  0.92414083677E+03  0.85570879639E+02 0.  0.
         23    2    4    4    0    0 -0.42746647958E+02  0.32599299950E+03  0.49025386004E+03  0.59816654894E+03  0.96724667739E+02 0.  0.
          3    1    3    3  502    0 -0.53796469070E+03 -0.86582722547E+02  0.84948110285E+03  0.10092178756E+04  0.00000000000E+00 0. -1.
         -4    1    3    3    0  502 -0.17669115277E+03 -0.74243018467E+02  0.27011853971E+03  0.33120358505E+03  0.00000000000E+00 0.  1.
         11    1    5    5    0    0  0.36593859117E+03 -0.93119068016E+02  0.28969608517E+03  0.47592650178E+03  0.00000000000E+00 0.  1.
        -11    1    5    5    0    0  0.39146390026E+03 -0.72048190471E+02  0.20606106651E+03  0.44821433498E+03  0.00000000000E+00 0. -1.
          1    1    6    6  503    0 -0.21552473872E+02  0.24997889691E+02  0.97180279340E+02  0.10263240381E+03  0.00000000000E+00 0. -1.
         -1    1    6    6    0  503 -0.21194174085E+02  0.30099510981E+03  0.39307358070E+03  0.49553414513E+03  0.00000000000E+00 0.  1.
<mgrwt>
<rscale>  0 0.19394897E+04</rscale>
<asrwt>0</asrwt>
<pdfrwt beam="1">  1        1 0.38217995E+00 0.19394897E+04</pdfrwt>
<pdfrwt beam="2">  1       -2 0.58239862E-01 0.19394897E+04</pdfrwt>
<totfact> 0.31406759E+00</totfact>
</mgrwt>
</event>
<event>
12    4  0.4183215E-008  0.1667245E+04  0.7818608E-02  0.8780270E-01
         -2   -1    0    0    0  501 -0.00000000000E+00  0.00000000000E+00  0.62854099207E+03  0.62854099207E+03  0.00000000000E+00 0.  1.
          1   -1    0    0  501    0  0.00000000000E+00 -0.00000000000E+00 -0.11056179551E+04  0.11056179551E+04  0.00000000000E+00 0. -1.
        -24    2    1    2    0    0 -0.62260468453E+02  0.57622136902E+03 -0.10692427549E+03  0.59500044634E+03  0.81763674155E+02 0.  0.
        254    2    1    2    0    0  0.62260468453E+02 -0.57622136902E+03 -0.37015268758E+03  0.11391585009E+04  0.90816388713E+03 0.  0.
         23    2    4    4    0    0  0.33166498125E+03 -0.68626312981E+03 -0.31862843677E+03  0.83018428186E+03  0.81994621773E+02 0.  0.
         23    2    4    4    0    0 -0.26940451280E+03  0.11004176079E+03 -0.51524250802E+02  0.30897421899E+03  0.90124019814E+02 0.  0.
          3    1    3    3  502    0 -0.38293850693E+02  0.52397580090E+03 -0.11239166805E+03  0.53726059410E+03  0.00000000000E+00 0. -1.
         -4    1    3    3    0  502 -0.23966617760E+02  0.52245568123E+02  0.54673925638E+01  0.57739852241E+02  0.00000000000E+00 0.  1.
         11    1    5    5    0    0  0.17774718827E+03 -0.44132355450E+03 -0.22354079934E+03  0.52567198105E+03  0.00000000000E+00 0. -1.
        -11    1    5    5    0    0  0.15391779298E+03 -0.24493957530E+03 -0.95087637435E+02  0.30451230080E+03  0.00000000000E+00 0.  1.
          1    1    6    6  503    0 -0.25894855848E+03  0.91926937359E+02 -0.26050232402E+02  0.27601364524E+03  0.00000000000E+00 0. -1.
         -1    1    6    6    0  503 -0.10455954319E+02  0.18114823427E+02 -0.25474018401E+02  0.32960573751E+02  0.00000000000E+00 0.  1.
<mgrwt>
<rscale>  0 0.16672447E+04</rscale>
<asrwt>0</asrwt>
<pdfrwt beam="1">  1        1 0.17009507E+00 0.16672447E+04</pdfrwt>
<pdfrwt beam="2">  1       -2 0.96698614E-01 0.16672447E+04</pdfrwt>
<totfact> 0.93935210E+00</totfact>
</mgrwt>
</event>
<event>
12    4  0.4183215E-008  0.3878641E+04  0.7818608E-02  0.8029486E-01
          1   -1    0    0  501    0  0.00000000000E+00  0.00000000000E+00  0.28552308840E+04  0.28552308840E+04  0.00000000000E+00 0. -1.
         -2   -1    0    0    0  501 -0.00000000000E+00 -0.00000000000E+00 -0.13172190757E+04  0.13172190757E+04  0.00000000000E+00 0.  1.
        -24    2    1    2    0    0 -0.52274106330E+03  0.54900300323E+03 -0.10685205383E+04  0.13122165957E+04  0.74254537492E+02 0.  0.
        254    2    1    2    0    0  0.52274106330E+03 -0.54900300323E+03  0.26065323466E+04  0.28602333641E+04  0.90125551661E+03 0.  0.
         23    2    4    4    0    0 -0.56708214526E+02 -0.44293955431E+03  0.52648470880E+03  0.69645393076E+03  0.91927464371E+02 0.  0.
         23    2    4    4    0    0  0.57944927783E+03 -0.10606344892E+03  0.20800476378E+04  0.21637794333E+04  0.91281650364E+02 0.  0.
          3    1    3    3  502    0 -0.20496664153E+02  0.48087313407E+02 -0.68690302406E+02  0.86318367667E+02  0.00000000000E+00 0. -1.
         -4    1    3    3    0  502 -0.50224439915E+03  0.50091568982E+03 -0.99983023592E+03  0.12258982280E+04  0.00000000000E+00 0.  1.
         11    1    5    5    0    0  0.13241520326E+02 -0.79678318205E+02  0.13878771765E+03  0.16058020682E+03  0.00000000000E+00 0.  1.
        -11    1    5    5    0    0 -0.69949734853E+02 -0.36326123610E+03  0.38769699115E+03  0.53587372394E+03  0.00000000000E+00 0. -1.
          3    1    6    6  503    0  0.21398735568E+03 -0.82555591678E+02  0.75708761928E+03  0.79106742909E+03  0.00000000000E+00 0. -1.
         -3    1    6    6    0  503  0.36546192215E+03 -0.23507857245E+02  0.13229600186E+04  0.13727120043E+04  0.00000000000E+00 0.  1.
<mgrwt>
<rscale>  0 0.38786413E+04</rscale>
<asrwt>0</asrwt>
<pdfrwt beam="1">  1        1 0.43926629E+00 0.38786413E+04</pdfrwt>
<pdfrwt beam="2">  1       -2 0.20264909E+00 0.38786413E+04</pdfrwt>
<totfact> 0.67643329E-02</totfact>
</mgrwt>
</event>
<event>
12    4  0.4183215E-008  0.1239355E+04  0.7818608E-02  0.9079090E-01
         -2   -1    0    0    0  501 -0.00000000000E+00  0.00000000000E+00  0.26078271670E+03  0.26078271670E+03  0.00000000000E+00 0.  1.
          1   -1    0    0  501    0  0.00000000000E+00 -0.00000000000E+00 -0.14724917634E+04  0.14724917634E+04  0.00000000000E+00 0. -1.
        -24    2    1    2    0    0  0.24102587575E+03  0.82479011774E+02 -0.47640386458E+03  0.54591659928E+03  0.78536813134E+02 0.  0.
        254    2    1    2    0    0 -0.24102587575E+03 -0.82479011774E+02 -0.73530518213E+03  0.11873578808E+04  0.89679917827E+03 0.  0.
         23    2    4    4    0    0  0.61776805885E+02 -0.21648363562E+03 -0.80157840008E+03  0.83728186758E+03  0.88495514459E+02 0.  0.
         23    2    4    4    0    0 -0.30280268163E+03  0.13400462384E+03  0.66273217946E+02  0.35007601325E+03  0.92273357052E+02 0.  0.
          3    1    3    3  502    0  0.14847121166E+03  0.77526344696E+02 -0.24638474070E+03  0.29792528470E+03  0.00000000000E+00 0. -1.
         -4    1    3    3    0  502  0.92554664086E+02  0.49526670778E+01 -0.23001912388E+03  0.24799131458E+03  0.00000000000E+00 0.  1.
         11    1    5    5    0    0  0.71797933333E+02 -0.93436892927E+02 -0.42106587412E+03  0.43724348656E+03  0.00000000000E+00 0.  1.
        -11    1    5    5    0    0 -0.10021127447E+02 -0.12304674269E+03 -0.38051252596E+03  0.40003838102E+03  0.00000000000E+00 0. -1.
          2    1    6    6  503    0 -0.63372199767E+02  0.59644311642E+02  0.46285040449E+02  0.98568679528E+02  0.00000000000E+00 0. -1.
         -2    1    6    6    0  503 -0.23943048186E+03  0.74360312203E+02  0.19988177498E+02  0.25150733372E+03  0.00000000000E+00 0.  1.
<mgrwt>
<rscale>  0 0.12393553E+04</rscale>
<asrwt>0</asrwt>
<pdfrwt beam="1">  1        1 0.22653719E+00 0.12393553E+04</pdfrwt>
<pdfrwt beam="2">  1       -2 0.40120418E-01 0.12393553E+04</pdfrwt>
<totfact> 0.34800876E+01</totfact>
</mgrwt>
</event>
<event>
12    4  0.4183215E-008  0.1579105E+04  0.7818608E-02  0.8833489E-01
         -2   -1    0    0    0  501 -0.00000000000E+00  0.00000000000E+00  0.27970719717E+03  0.27970719717E+03  0.00000000000E+00 0.  1.
          1   -1    0    0  501    0  0.00000000000E+00 -0.00000000000E+00 -0.22287343012E+04  0.22287343012E+04  0.00000000000E+00 0. -1.
        -24    2    1    2    0    0  0.38904051555E+03 -0.32940906797E+03 -0.43467462803E+03  0.67508118520E+03  0.83244925136E+02 0.  0.
        254    2    1    2    0    0 -0.38904051555E+03  0.32940906797E+03 -0.15143524760E+04  0.18333603131E+04  0.89893479156E+03 0.  0.
         23    2    4    4    0    0  0.23195085000E+03 -0.34892603861E+02 -0.69453761825E+03  0.73852772567E+03  0.89565661919E+02 0.  0.
         23    2    4    4    0    0 -0.62099136556E+03  0.36430167183E+03 -0.81981485772E+03  0.10948325875E+04  0.90642205608E+02 0.  0.
          3    1    3    3  502    0  0.73486892745E+01 -0.17362669758E+02 -0.37550262910E+02  0.42017707931E+02  0.00000000000E+00 0. -1.
         -4    1    3    3    0  502  0.38169182628E+03 -0.31204639822E+03 -0.39712436512E+03  0.63306347727E+03  0.00000000000E+00 0.  1.
         11    1    5    5    0    0  0.17309017216E+03 -0.63631146503E+02 -0.54222644180E+03  0.57272911982E+03  0.00000000000E+00 0.  1.
        -11    1    5    5    0    0  0.58860677844E+02  0.28738542642E+02 -0.15231117645E+03  0.16579860585E+03  0.00000000000E+00 0. -1.
          1    1    6    6  503    0 -0.11239281462E+03  0.87400394185E+02 -0.11778550416E+03  0.18478203016E+03  0.00000000000E+00 0. -1.
         -1    1    6    6    0  503 -0.50859855094E+03  0.27690127765E+03 -0.70202935357E+03  0.91005055730E+03  0.00000000000E+00 0.  1.
<mgrwt>
<rscale>  0 0.15791048E+04</rscale>
<asrwt>0</asrwt>
<pdfrwt beam="1">  1        1 0.34288220E+00 0.15791048E+04</pdfrwt>
<pdfrwt beam="2">  1       -2 0.43031876E-01 0.15791048E+04</pdfrwt>
<totfact> 0.90075381E+00</totfact>
</mgrwt>
</event>
<event>
12    4  0.4183215E-008  0.1836221E+04  0.7818608E-02  0.8687271E-01
          1   -1    0    0  501    0  0.00000000000E+00  0.00000000000E+00  0.17451575421E+04  0.17451575421E+04  0.00000000000E+00 0. -1.
         -2   -1    0    0    0  501 -0.00000000000E+00 -0.00000000000E+00 -0.48300880639E+03  0.48300880639E+03  0.00000000000E+00 0.  1.
        -24    2    1    2    0    0  0.66408605355E+03  0.11545794114E+03  0.26423318688E+03  0.72833611553E+03  0.79457519773E+02 0.  0.
        254    2    1    2    0    0 -0.66408605355E+03 -0.11545794114E+03  0.99791554880E+03  0.14998302329E+04  0.89404388168E+03 0.  0.
         23    2    4    4    0    0 -0.20048646682E+02 -0.10510152342E+03 -0.13318052033E+03  0.19500755337E+03  0.94035187126E+02 0.  0.
         23    2    4    4    0    0 -0.64403740687E+03 -0.10356417721E+02  0.11310960691E+04  0.13048226796E+04  0.91063003739E+02 0.  0.
          1    1    3    3  502    0  0.26056477332E+03  0.39562647541E+02  0.62510050490E+02  0.27086289998E+03  0.00000000000E+00 0. -1.
         -2    1    3    3    0  502  0.40352128023E+03  0.75895293596E+02  0.20172313639E+03  0.45747321555E+03  0.00000000000E+00 0.  1.
         11    1    5    5    0    0  0.12633269344E+02 -0.10568846713E+03 -0.11816484302E+03  0.15903641629E+03  0.00000000000E+00 0. -1.
        -11    1    5    5    0    0 -0.32681916026E+02  0.58694371414E+00 -0.15015677304E+02  0.35971137082E+02  0.00000000000E+00 0.  1.
          1    1    6    6  503    0 -0.46735540992E+03 -0.24479391078E+02  0.74202747679E+03  0.87728279140E+03  0.00000000000E+00 0. -1.
         -1    1    6    6    0  503 -0.17668199695E+03  0.14122973357E+02  0.38906859234E+03  0.42753988816E+03  0.00000000000E+00 0.  1.
<mgrwt>
<rscale>  0 0.18362205E+04</rscale>
<asrwt>0</asrwt>
<pdfrwt beam="1">  1        1 0.26848577E+00 0.18362205E+04</pdfrwt>
<pdfrwt beam="2">  1       -2 0.74309048E-01 0.18362205E+04</pdfrwt>
<totfact> 0.59756752E+00</totfact>
</mgrwt>
</event>
<event>
12    4  0.4183215E-008  0.2862806E+04  0.7818608E-02  0.8284030E-01
          1   -1    0    0  501    0  0.00000000000E+00  0.00000000000E+00  0.83097429061E+03  0.83097429061E+03  0.00000000000E+00 0. -1.
         -2   -1    0    0    0  501 -0.00000000000E+00 -0.00000000000E+00 -0.24656779530E+04  0.24656779530E+04  0.00000000000E+00 0.  1.
        -24    2    1    2    0    0 -0.39930471523E+03 -0.12107371481E+04 -0.83330200681E+03  0.15248952997E+04  0.74731139295E+02 0.  0.
        254    2    1    2    0    0  0.39930471523E+03  0.12107371481E+04 -0.80140165559E+03  0.17717569439E+04  0.93356807853E+03 0.  0.
         23    2    4    4    0    0 -0.48729939754E+01  0.11436699490E+04 -0.48178232638E+03  0.12443103625E+04  0.90495136705E+02 0.  0.
         23    2    4    4    0    0  0.40417770920E+03  0.67067199068E+02 -0.31961932920E+03  0.52744658141E+03  0.90475139318E+02 0.  0.
          1    1    3    3  502    0 -0.79293302955E+02 -0.32882740683E+03 -0.24240575881E+03  0.41614353687E+03  0.00000000000E+00 0. -1.
         -2    1    3    3    0  502 -0.32001141227E+03 -0.88190974127E+03 -0.59089624800E+03  0.11087517629E+04  0.00000000000E+00 0.  1.
         11    1    5    5    0    0 -0.16157630549E+02  0.11039355639E+04 -0.47713578272E+03  0.12027440931E+04  0.00000000000E+00 0.  1.
        -11    1    5    5    0    0  0.11284636574E+02  0.39734385083E+02 -0.46465436596E+01  0.41566269360E+02  0.00000000000E+00 0. -1.
          3    1    6    6  503    0  0.14471153167E+01  0.12929875963E+02 -0.12982013868E+02  0.18379567983E+02  0.00000000000E+00 0. -1.
         -3    1    6    6    0  503  0.40273059389E+03  0.54137323105E+02 -0.30663731534E+03  0.50906701343E+03  0.00000000000E+00 0.  1.
<mgrwt>
<rscale>  0 0.28628063E+04</rscale>
<asrwt>0</asrwt>
<pdfrwt beam="1">  1        1 0.12784220E+00 0.28628063E+04</pdfrwt>
<pdfrwt beam="2">  1       -2 0.37933507E+00 0.28628063E+04</pdfrwt>
<totfact> 0.15871385E-01</totfact>
</mgrwt>
</event>
<event>
12    4  0.4183215E-008  0.1704198E+04  0.7818608E-02  0.8758974E-01
          3   -1    0    0  501    0  0.00000000000E+00  0.00000000000E+00  0.23195516397E+04  0.23195516397E+04  0.00000000000E+00 0. -1.
         -4   -1    0    0    0  501 -0.00000000000E+00 -0.00000000000E+00 -0.31302294265E+03  0.31302294265E+03  0.00000000000E+00 0.  1.
        -24    2    1    2    0    0 -0.21020571184E+03 -0.32097035905E+03 -0.81796715570E+01  0.39218248168E+03  0.80819423601E+02 0.  0.
        254    2    1    2    0    0  0.21020571184E+03  0.32097035905E+03  0.20147083686E+04  0.22403921007E+04  0.90171976885E+03 0.  0.
         23    2    4    4    0    0 -0.42786853562E+02  0.51045855478E+03  0.17263317490E+04  0.18029396559E+04  0.89282944261E+02 0.  0.
         23    2    4    4    0    0  0.25299256540E+03 -0.18948819573E+03  0.28837661961E+03  0.43745244480E+03  0.91063451806E+02 0.  0.
          1    1    3    3  502    0 -0.65443398262E+02 -0.77179905308E+02  0.31288138967E+02  0.10591753301E+03  0.00000000000E+00 0. -1.
         -2    1    3    3    0  502 -0.14476231358E+03 -0.24379045374E+03 -0.39467810524E+02  0.28626494867E+03  0.00000000000E+00 0.  1.
         11    1    5    5    0    0  0.28021077413E+02  0.15877757282E+03  0.53736714897E+03  0.56103382358E+03  0.00000000000E+00 0. -1.
        -11    1    5    5    0    0 -0.70807930975E+02  0.35168098196E+03  0.11889646000E+04  0.12419058323E+04  0.00000000000E+00 0.  1.
          4    1    6    6  503    0  0.22595057124E+03 -0.18827921064E+03  0.23090420247E+03  0.37392442087E+03  0.00000000000E+00 0. -1.
         -4    1    6    6    0  503  0.27041994161E+02 -0.12089850912E+01  0.57472417134E+02  0.63528023930E+02  0.00000000000E+00 0.  1.
<mgrwt>
<rscale>  0 0.17041982E+04</rscale>
<asrwt>0</asrwt>
<pdfrwt beam="1">  1        3 0.35685409E+00 0.17041982E+04</pdfrwt>
<pdfrwt beam="2">  1       -4 0.48157377E-01 0.17041982E+04</pdfrwt>
<totfact> 0.17333200E-01</totfact>
</mgrwt>
</event>
<event>
12    4  0.4183215E-008  0.2167043E+04  0.7818608E-02  0.8532272E-01
          1   -1    0    0  501    0  0.00000000000E+00  0.00000000000E+00  0.19892838247E+04  0.19892838247E+04  0.00000000000E+00 0. -1.
         -2   -1    0    0    0  501 -0.00000000000E+00 -0.00000000000E+00 -0.59017143509E+03  0.59017143509E+03  0.00000000000E+00 0.  1.
        -24    2    1    2    0    0 -0.63247675915E+03 -0.28655576016E+03  0.12684282621E+04  0.14488429423E+04  0.89969776794E+02 0.  0.
        254    2    1    2    0    0  0.63247675915E+03  0.28655576016E+03  0.13068412755E+03  0.11306123175E+04  0.88264648464E+03 0.  0.
         23    2    4    4    0    0  0.68617278430E+02  0.47262694876E+03 -0.81901781945E+02  0.49358700428E+03  0.93998219718E+02 0.  0.
         23    2    4    4    0    0  0.56385948072E+03 -0.18607118860E+03  0.21258590949E+03  0.63702531327E+03  0.89713319028E+02 0.  0.
          1    1    3    3  502    0 -0.57348436109E+03 -0.24670869159E+03  0.10806036621E+04  0.12479798738E+04  0.00000000000E+00 0. -1.
         -2    1    3    3    0  502 -0.58992398054E+02 -0.39847068570E+02  0.18782459999E+03  0.20086306844E+03  0.00000000000E+00 0.  1.
         11    1    5    5    0    0  0.59202664933E+02  0.46843731402E+03 -0.89770232233E+02  0.48062164672E+03  0.00000000000E+00 0.  1.
        -11    1    5    5    0    0  0.94146134965E+01  0.41896347377E+01  0.78684502877E+01  0.12965357552E+02  0.00000000000E+00 0. -1.
          2    1    6    6  503    0  0.33864136610E+03 -0.97119835401E+02  0.81199504153E+02  0.36152952402E+03  0.00000000000E+00 0. -1.
         -2    1    6    6    0  503  0.22521811462E+03 -0.88951353199E+02  0.13138640534E+03  0.27549578925E+03  0.00000000000E+00 0.  1.
<mgrwt>
<rscale>  0 0.21670427E+04</rscale>
<asrwt>0</asrwt>
<pdfrwt beam="1">  1        1 0.30604366E+00 0.21670427E+04</pdfrwt>
<pdfrwt beam="2">  1       -2 0.90795606E-01 0.21670427E+04</pdfrwt>
<totfact> 0.25201183E+00</totfact>
</mgrwt>
</event>
<event>
12    4  0.4183215E-008  0.1962129E+04  0.7818608E-02  0.8624534E-01
         -2   -1    0    0    0  501 -0.00000000000E+00  0.00000000000E+00  0.69435559836E+03  0.69435559836E+03  0.00000000000E+00 0.  1.
          1   -1    0    0  501    0  0.00000000000E+00 -0.00000000000E+00 -0.13861591725E+04  0.13861591725E+04  0.00000000000E+00 0. -1.
        -24    2    1    2    0    0  0.40902366106E+03  0.53823351591E+03  0.12628395713E+03  0.69246517087E+03  0.81022849092E+02 0.  0.
        254    2    1    2    0    0 -0.40902366106E+03 -0.53823351591E+03 -0.81808753126E+03  0.13880496000E+04  0.89466128242E+03 0.  0.
         23    2    4    4    0    0 -0.66441010236E+03 -0.49144615643E+03 -0.70735816039E+03  0.10915971168E+04  0.90931785194E+02 0.  0.
         23    2    4    4    0    0  0.25538644130E+03 -0.46787359481E+02 -0.11072937087E+03  0.29645248318E+03  0.90618926310E+02 0.  0.
          1    1    3    3  502    0  0.12620560138E+03  0.19385390668E+03  0.82138424467E+01  0.23146200155E+03  0.00000000000E+00 0. -1.
         -2    1    3    3    0  502  0.28281805968E+03  0.34437960923E+03  0.11807011468E+03  0.46100316931E+03  0.00000000000E+00 0.  1.
         11    1    5    5    0    0 -0.44014078168E+03 -0.28462170745E+03 -0.40858993515E+03  0.66458946663E+03  0.00000000000E+00 0. -1.
        -11    1    5    5    0    0 -0.22426932068E+03 -0.20682444898E+03 -0.29876822524E+03  0.42700765018E+03  0.00000000000E+00 0.  1.
          3    1    6    6  503    0  0.21671040170E+03 -0.12920751470E+02 -0.62378572467E+02  0.22587923837E+03  0.00000000000E+00 0. -1.
         -3    1    6    6    0  503  0.38676039601E+02 -0.33866608011E+02 -0.48350798407E+02  0.70573244817E+02  0.00000000000E+00 0.  1.
<mgrwt>
<rscale>  0 0.19621288E+04</rscale>
<asrwt>0</asrwt>
<pdfrwt beam="1">  1        1 0.21325526E+00 0.19621288E+04</pdfrwt>
<pdfrwt beam="2">  1       -2 0.10682394E+00 0.19621288E+04</pdfrwt>
<totfact> 0.45255404E+00</totfact>
</mgrwt>
</event>
<event>
12    4  0.4183215E-008  0.2043779E+04  0.7818608E-02  0.8586422E-01
         -4   -1    0    0    0  501 -0.00000000000E+00  0.00000000000E+00  0.77272097706E+03  0.77272097706E+03  0.00000000000E+00 0.  1.
          3   -1    0    0  501    0  0.00000000000E+00 -0.00000000000E+00 -0.13514040444E+04  0.13514040444E+04  0.00000000000E+00 0. -1.
        -24    2    1    2    0    0  0.14817197338E+03 -0.11874163931E+03  0.59939004078E+03  0.63378401560E+03  0.79744886017E+02 0.  0.
        254    2    1    2    0    0 -0.14817197338E+03  0.11874163931E+03 -0.11780731081E+04  0.14903410059E+04  0.89286368224E+03 0.  0.
         23    2    4    4    0    0 -0.16159921775E+03 -0.31390758497E+03 -0.89072016517E+03  0.96252926870E+03  0.91803602243E+02 0.  0.
         23    2    4    4    0    0  0.13427244372E+02  0.43264922428E+03 -0.28735294294E+03  0.52781173715E+03  0.92993945503E+02 0.  0.
          3    1    3    3  502    0  0.11705279185E+03 -0.47155937331E+02  0.40861128214E+03  0.42765432115E+03  0.00000000000E+00 0. -1.
         -4    1    3    3    0  502  0.31119181523E+02 -0.71585701980E+02  0.19077875864E+03  0.20612969445E+03  0.00000000000E+00 0.  1.
         11    1    5    5    0    0 -0.13017458943E+03 -0.26164036292E+03 -0.81175202186E+03  0.86275283148E+03  0.00000000000E+00 0.  1.
        -11    1    5    5    0    0 -0.31424628317E+02 -0.52267222045E+02 -0.78968143316E+02  0.99776437218E+02  0.00000000000E+00 0. -1.
          3    1    6    6  503    0  0.77053588992E+01  0.40913064732E+03 -0.29259019761E+03  0.50304699867E+03  0.00000000000E+00 0. -1.
         -3    1    6    6    0  503  0.57218854725E+01  0.23518576952E+02  0.52372546765E+01  0.24764738476E+02  0.00000000000E+00 0.  1.
<mgrwt>
<rscale>  0 0.20437791E+04</rscale>
<asrwt>0</asrwt>
<pdfrwt beam="1">  1        3 0.20790831E+00 0.20437791E+04</pdfrwt>
<pdfrwt beam="2">  1       -4 0.11888015E+00 0.20437791E+04</pdfrwt>
<totfact> 0.15100005E-01</totfact>
</mgrwt>
</event>
<event>
12    4  0.4183215E-008  0.1104263E+04  0.7818608E-02  0.9201046E-01
         -2   -1    0    0    0  501 -0.00000000000E+00  0.00000000000E+00  0.20793584755E+03  0.20793584755E+03  0.00000000000E+00 0.  1.
          1   -1    0    0  501    0  0.00000000000E+00 -0.00000000000E+00 -0.14660742262E+04  0.14660742262E+04  0.00000000000E+00 0. -1.
        -24    2    1    2    0    0  0.10344175351E+03  0.64816883602E+02 -0.57487745192E+02  0.15790099453E+03  0.82014989218E+02 0.  0.
        254    2    1    2    0    0 -0.10344175351E+03 -0.64816883602E+02 -0.12006506335E+04  0.15161090793E+04  0.91767280212E+03 0.  0.
         23    2    4    4    0    0  0.22748087006E+03  0.65138103886E+02  0.61876060050E+01  0.25461012098E+03  0.93795034054E+02 0.  0.
         23    2    4    4    0    0 -0.33092262358E+03 -0.12995498749E+03 -0.12068382395E+04  0.12614989583E+04  0.92320116307E+02 0.  0.
          1    1    3    3  502    0  0.70152893802E+02  0.11046857145E+02 -0.62309162101E+02  0.94476945565E+02  0.00000000000E+00 0. -1.
         -2    1    3    3    0  502  0.33288859711E+02  0.53770026457E+02  0.48214169086E+01  0.63424048965E+02  0.00000000000E+00 0.  1.
         11    1    5    5    0    0  0.28783126445E+02 -0.40972184265E+01 -0.29239946940E+02  0.41233846095E+02  0.00000000000E+00 0.  1.
        -11    1    5    5    0    0  0.19869774362E+03  0.69235322312E+02  0.35427552945E+02  0.21337627488E+03  0.00000000000E+00 0. -1.
          3    1    6    6  503    0 -0.29670729146E+03 -0.94792099960E+02 -0.11109252710E+04  0.11537658848E+04  0.00000000000E+00 0. -1.
         -3    1    6    6    0  503 -0.34215332121E+02 -0.35162887528E+02 -0.95912968460E+02  0.10773307352E+03  0.00000000000E+00 0.  1.
<mgrwt>
<rscale>  0 0.11042634E+04</rscale>
<asrwt>0</asrwt>
<pdfrwt beam="1">  1        1 0.22554987E+00 0.11042634E+04</pdfrwt>
<pdfrwt beam="2">  1       -2 0.31990132E-01 0.11042634E+04</pdfrwt>
<totfact> 0.54865182E+01</totfact>
</mgrwt>
</event>
<event>
12    4  0.4183215E-008  0.1336089E+04  0.7818608E-02  0.9001426E-01
          1   -1    0    0  501    0  0.00000000000E+00  0.00000000000E+00  0.12308707042E+04  0.12308707042E+04  0.00000000000E+00 0. -1.
         -2   -1    0    0    0  501 -0.00000000000E+00 -0.00000000000E+00 -0.36257523380E+03  0.36257523380E+03  0.00000000000E+00 0.  1.
        -24    2    1    2    0    0  0.36155397084E+03 -0.71380393271E+02  0.18551303435E+03  0.41999758793E+03  0.78526769815E+02 0.  0.
        254    2    1    2    0    0 -0.36155397084E+03  0.71380393271E+02  0.68278243606E+03  0.11734483501E+04  0.88032536084E+03 0.  0.
         23    2    4    4    0    0 -0.55224433008E+03  0.24527963754E+03  0.24742493464E+03  0.65924130878E+03  0.90797049634E+02 0.  0.
         23    2    4    4    0    0  0.19069035924E+03 -0.17389924427E+03  0.43535750143E+03  0.51420704131E+03  0.90933860667E+02 0.  0.
          3    1    3    3  502    0  0.20388337120E+03 -0.27675740966E+02  0.61668091884E+02  0.21479601777E+03  0.00000000000E+00 0. -1.
         -4    1    3    3    0  502  0.15767059964E+03 -0.43704652305E+02  0.12384494246E+03  0.20520157016E+03  0.00000000000E+00 0.  1.
         11    1    5    5    0    0 -0.92884694693E+02  0.36565199292E+02  0.62690837982E+01  0.10001940671E+03  0.00000000000E+00 0.  1.
        -11    1    5    5    0    0 -0.45935963539E+03  0.20871443825E+03  0.24115585084E+03  0.55922190207E+03  0.00000000000E+00 0. -1.
          1    1    6    6  503    0  0.17008858346E+03 -0.11739994952E+03  0.28316992207E+03  0.35056822323E+03  0.00000000000E+00 0. -1.
         -1    1    6    6    0  503  0.20601775781E+02 -0.56499294746E+02  0.15218757936E+03  0.16363881808E+03  0.00000000000E+00 0.  1.
<mgrwt>
<rscale>  0 0.13360887E+04</rscale>
<asrwt>0</asrwt>
<pdfrwt beam="1">  1        1 0.18936472E+00 0.13360887E+04</pdfrwt>
<pdfrwt beam="2">  1       -2 0.55780806E-01 0.13360887E+04</pdfrwt>
<totfact> 0.26322507E+01</totfact>
</mgrwt>
</event>
<event>
12    4  0.4183215E-008  0.1581437E+04  0.7818608E-02  0.8832034E-01
          1   -1    0    0  501    0  0.00000000000E+00  0.00000000000E+00  0.56158348642E+03  0.56158348642E+03  0.00000000000E+00 0. -1.
         -2   -1    0    0    0  501 -0.00000000000E+00 -0.00000000000E+00 -0.11133449005E+04  0.11133449005E+04  0.00000000000E+00 0.  1.
        -24    2    1    2    0    0 -0.48828954149E+03  0.56854156869E+02 -0.37709927349E+03  0.62470925087E+03  0.79991965667E+02 0.  0.
        254    2    1    2    0    0  0.48828954149E+03 -0.56854156869E+02 -0.17466214058E+03  0.10502191361E+04  0.91147918183E+03 0.  0.
         23    2    4    4    0    0 -0.18651525747E+03  0.10453547877E+03 -0.25446770872E+03  0.34602010244E+03  0.96231434157E+02 0.  0.
         23    2    4    4    0    0  0.67480479896E+03 -0.16138963563E+03  0.79805568135E+02  0.70419903362E+03  0.90106709272E+02 0.  0.
          1    1    3    3  502    0 -0.32953068614E+02 -0.94129026202E+01 -0.48083296309E+02  0.59046683656E+02  0.00000000000E+00 0. -1.
         -2    1    3    3    0  502 -0.45533647287E+03  0.66267059489E+02 -0.32901597719E+03  0.56566256721E+03  0.00000000000E+00 0.  1.
         11    1    5    5    0    0 -0.10758127012E+03  0.72356952121E+02 -0.81362864900E+02  0.15306591386E+03  0.00000000000E+00 0.  1.
        -11    1    5    5    0    0 -0.78933987352E+02  0.32178526644E+02 -0.17310484382E+03  0.19295418858E+03  0.00000000000E+00 0. -1.
          3    1    6    6  503    0  0.37418081141E+03 -0.11996094561E+03  0.78637834481E+02  0.40073160234E+03  0.00000000000E+00 0. -1.
         -3    1    6    6    0  503  0.30062398755E+03 -0.41428690021E+02  0.11677336538E+01  0.30346743128E+03  0.00000000000E+00 0.  1.
<mgrwt>
<rscale>  0 0.15814375E+04</rscale>
<asrwt>0</asrwt>
<pdfrwt beam="1">  1        1 0.86397460E-01 0.15814375E+04</pdfrwt>
<pdfrwt beam="2">  1       -2 0.17128383E+00 0.15814375E+04</pdfrwt>
<totfact> 0.66030951E+00</totfact>
</mgrwt>
</event>
<event>
12    4  0.4183215E-008  0.2298940E+04  0.7818608E-02  0.8478339E-01
         -2   -1    0    0    0  501 -0.00000000000E+00  0.00000000000E+00  0.80329853757E+03  0.80329853757E+03  0.00000000000E+00 0.  1.
          1   -1    0    0  501    0  0.00000000000E+00 -0.00000000000E+00 -0.16448199774E+04  0.16448199774E+04  0.00000000000E+00 0. -1.
        -24    2    1    2    0    0  0.47891427361E+02 -0.42637580337E+03  0.57117992509E+03  0.71869479577E+03  0.78649781549E+02 0.  0.
        254    2    1    2    0    0 -0.47891427361E+02  0.42637580337E+03 -0.14127013649E+04  0.17294237192E+04  0.90060609570E+03 0.  0.
         23    2    4    4    0    0  0.24439449911E+03  0.59351408640E+03 -0.94833254359E+03  0.11486430428E+04  0.89769618929E+02 0.  0.
         23    2    4    4    0    0 -0.29228592647E+03 -0.16713828303E+03 -0.46436882135E+03  0.58078067648E+03  0.91112696490E+02 0.  0.
          3    1    3    3  502    0  0.12511823857E+02 -0.24828037622E+02  0.14397538109E+02  0.31309204589E+02  0.00000000000E+00 0. -1.
         -4    1    3    3    0  502  0.35379603503E+02 -0.40154776575E+03  0.55678238698E+03  0.68738559119E+03  0.00000000000E+00 0.  1.
         11    1    5    5    0    0  0.11651443889E+02  0.21470628075E+01 -0.10923288082E+02  0.16114721403E+02  0.00000000000E+00 0.  1.
        -11    1    5    5    0    0  0.23274305522E+03  0.59136702359E+03 -0.93740925551E+03  0.11325283213E+04  0.00000000000E+00 0. -1.
          1    1    6    6  503    0 -0.25251212999E+03 -0.17343562060E+03 -0.42924470976E+03  0.52734553296E+03  0.00000000000E+00 0. -1.
         -1    1    6    6    0  503 -0.39773796480E+02  0.62973375705E+01 -0.35124111593E+02  0.53435143512E+02  0.00000000000E+00 0.  1.
<mgrwt>
<rscale>  0 0.22989402E+04</rscale>
<asrwt>0</asrwt>
<pdfrwt beam="1">  1        1 0.25304923E+00 0.22989402E+04</pdfrwt>
<pdfrwt beam="2">  1       -2 0.12358439E+00 0.22989402E+04</pdfrwt>
<totfact> 0.20361691E+00</totfact>
</mgrwt>
</event>
<event>
12    4  0.4183215E-008  0.1228477E+04  0.7818608E-02  0.9088290E-01
         -4   -1    0    0    0  501 -0.00000000000E+00  0.00000000000E+00  0.43186004516E+03  0.43186004516E+03  0.00000000000E+00 0.  1.
          3   -1    0    0  501    0  0.00000000000E+00 -0.00000000000E+00 -0.87363682532E+03  0.87363682532E+03  0.00000000000E+00 0. -1.
        -24    2    1    2    0    0 -0.83712767539E+02  0.48196332187E+02  0.16148108176E+03  0.20438742536E+03  0.79795776804E+02 0.  0.
        254    2    1    2    0    0  0.83712767539E+02 -0.48196332187E+02 -0.60325786192E+03  0.11011094451E+04  0.91607382250E+03 0.  0.
         23    2    4    4    0    0 -0.31525745867E+03 -0.13901752253E+03 -0.58059797120E+03  0.68105447629E+03  0.89599434704E+02 0.  0.
         23    2    4    4    0    0  0.39897022621E+03  0.90821190341E+02 -0.22659890725E+02  0.42005496883E+03  0.92233270443E+02 0.  0.
          1    1    3    3  502    0 -0.28783474567E+02  0.55120492967E+02  0.49543473421E+02  0.79506684698E+02  0.00000000000E+00 0. -1.
         -2    1    3    3    0  502 -0.54929292972E+02 -0.69241607803E+01  0.11193760833E+03  0.12488074066E+03  0.00000000000E+00 0.  1.
         11    1    5    5    0    0 -0.28366805796E+03 -0.15038609429E+03 -0.54142017223E+03  0.62945956770E+03  0.00000000000E+00 0. -1.
        -11    1    5    5    0    0 -0.31589400707E+02  0.11368571764E+02 -0.39177798965E+02  0.51594908593E+02  0.00000000000E+00 0.  1.
          2    1    6    6  503    0  0.83585619129E+02 -0.58441737232E+00 -0.36928847702E+02  0.91381820191E+02  0.00000000000E+00 0.  1.
         -2    1    6    6    0  503  0.31538460708E+03  0.91405607713E+02  0.14268956977E+02  0.32867314864E+03  0.00000000000E+00 0. -1.
<mgrwt>
<rscale>  0 0.12284768E+04</rscale>
<asrwt>0</asrwt>
<pdfrwt beam="1">  1        3 0.13440566E+00 0.12284768E+04</pdfrwt>
<pdfrwt beam="2">  1       -4 0.66440008E-01 0.12284768E+04</pdfrwt>
<totfact> 0.20270464E+00</totfact>
</mgrwt>
</event>
<event>
12    4  0.4183215E-008  0.1612922E+04  0.7818608E-02  0.8812649E-01
         -2   -1    0    0    0  501 -0.00000000000E+00  0.00000000000E+00  0.38228313166E+03  0.38228313166E+03  0.00000000000E+00 0.  1.
          1   -1    0    0  501    0  0.00000000000E+00 -0.00000000000E+00 -0.17013020522E+04  0.17013020522E+04  0.00000000000E+00 0. -1.
        -24    2    1    2    0    0  0.22775131767E+03  0.38189463228E+03 -0.38493304547E+02  0.45349267425E+03  0.80372247966E+02 0.  0.
        254    2    1    2    0    0 -0.22775131767E+03 -0.38189463228E+03 -0.12805256160E+04  0.16300925096E+04  0.90539580506E+03 0.  0.
         23    2    4    4    0    0 -0.20265816283E+03 -0.44818196880E+03 -0.13859675508E+04  0.14735722750E+04  0.92583960955E+02 0.  0.
         23    2    4    4    0    0 -0.25093154840E+02  0.66287336524E+02  0.10544193478E+03  0.15652023458E+03  0.91416108100E+02 0.  0.
          1    1    3    3  502    0 -0.39519156535E+01 -0.11350729470E+01  0.48606252033E+00  0.41403242266E+01  0.00000000000E+00 0. -1.
         -2    1    3    3    0  502  0.23170323332E+03  0.38302970522E+03 -0.38979367067E+02  0.44935235003E+03  0.00000000000E+00 0.  1.
         11    1    5    5    0    0 -0.25007946140E+02 -0.87333581874E+01 -0.76450985417E+02  0.80909962839E+02  0.00000000000E+00 0. -1.
        -11    1    5    5    0    0 -0.17765021669E+03 -0.43944861061E+03 -0.13095165654E+04  0.13926623122E+04  0.00000000000E+00 0.  1.
          3    1    6    6  503    0  0.25809358952E+02  0.19822826019E+02  0.25029326898E+01  0.32639425745E+02  0.00000000000E+00 0. -1.
         -3    1    6    6    0  503 -0.50902513792E+02  0.46464510504E+02  0.10293900209E+03  0.12388080884E+03  0.00000000000E+00 0.  1.
<mgrwt>
<rscale>  0 0.16129217E+04</rscale>
<asrwt>0</asrwt>
<pdfrwt beam="1">  1        1 0.26173877E+00 0.16129217E+04</pdfrwt>
<pdfrwt beam="2">  1       -2 0.58812791E-01 0.16129217E+04</pdfrwt>
<totfact> 0.10810872E+01</totfact>
</mgrwt>
</event>
<event>
12    4  0.4183215E-008  0.1167367E+04  0.7818608E-02  0.9141910E-01
         -2   -1    0    0    0  501 -0.00000000000E+00  0.00000000000E+00  0.22104340741E+03  0.22104340741E+03  0.00000000000E+00 0.  1.
          1   -1    0    0  501    0  0.00000000000E+00 -0.00000000000E+00 -0.15412648348E+04  0.15412648348E+04  0.00000000000E+00 0. -1.
        -24    2    1    2    0    0 -0.10759203883E+02 -0.21684431521E+02 -0.61809318101E+03  0.62398150210E+03  0.82022920637E+02 0.  0.
        254    2    1    2    0    0  0.10759203883E+02  0.21684431521E+02 -0.70212824643E+03  0.11383267402E+04  0.89566607498E+03 0.  0.
         23    2    4    4    0    0 -0.36471264419E+03  0.21738960594E+03 -0.20571828642E+03  0.47994480457E+03  0.88053668082E+02 0.  0.
         23    2    4    4    0    0  0.37547184807E+03 -0.19570517442E+03 -0.49640996001E+03  0.65838193559E+03  0.88115269492E+02 0.  0.
          3    1    3    3  502    0 -0.12125297793E+02 -0.23648038788E+02 -0.62021493401E+03  0.62078403406E+03  0.00000000000E+00 0. -1.
         -4    1    3    3    0  502  0.13660939096E+01  0.19636072671E+01  0.21217529937E+01  0.31974680351E+01  0.00000000000E+00 0.  1.
         11    1    5    5    0    0 -0.34586748007E+03  0.18950483613E+03 -0.16602177213E+03  0.42790142031E+03  0.00000000000E+00 0.  1.
        -11    1    5    5    0    0 -0.18845164123E+02  0.27884769810E+02 -0.39696514288E+02  0.52043384256E+02  0.00000000000E+00 0. -1.
          2    1    6    6  503    0  0.10296956916E+02 -0.14053720710E+02 -0.53597379328E+02  0.56357905021E+02  0.00000000000E+00 0. -1.
         -2    1    6    6    0  503  0.36517489116E+03 -0.18165145371E+03 -0.44281258068E+03  0.60202403056E+03  0.00000000000E+00 0.  1.
<mgrwt>
<rscale>  0 0.11673670E+04</rscale>
<asrwt>0</asrwt>
<pdfrwt beam="1">  1        1 0.23711766E+00 0.11673670E+04</pdfrwt>
<pdfrwt beam="2">  1       -2 0.34006679E-01 0.11673670E+04</pdfrwt>
<totfact> 0.43155649E+01</totfact>
</mgrwt>
</event>
<event>
12    4  0.4183215E-008  0.2048010E+04  0.7818608E-02  0.8584498E-01
          1   -1    0    0  501    0  0.00000000000E+00  0.00000000000E+00  0.10666920381E+04  0.10666920381E+04  0.00000000000E+00 0. -1.
         -2   -1    0    0    0  501 -0.00000000000E+00 -0.00000000000E+00 -0.98302587695E+03  0.98302587695E+03  0.00000000000E+00 0.  1.
        -24    2    1    2    0    0  0.12023282651E+03 -0.33062681150E+03 -0.71107116759E+03  0.79717539854E+03  0.78079380184E+02 0.  0.
        254    2    1    2    0    0 -0.12023282651E+03  0.33062681150E+03  0.79473732873E+03  0.12525425165E+04  0.90193420653E+03 0.  0.
         23    2    4    4    0    0 -0.45631023192E+03  0.56698543730E+02  0.61735091411E+03  0.77527662610E+03  0.92184289417E+02 0.  0.
         23    2    4    4    0    0  0.33607740541E+03  0.27392826777E+03  0.17738641462E+03  0.47726589039E+03  0.91280182576E+02 0.  0.
          1    1    3    3  502    0  0.85104474077E+02 -0.13946014012E+03 -0.27733195784E+03  0.32187717693E+03  0.00000000000E+00 0. -1.
         -2    1    3    3    0  502  0.35128352429E+02 -0.19116667138E+03 -0.43373920975E+03  0.47529822161E+03  0.00000000000E+00 0.  1.
         11    1    5    5    0    0 -0.22828201906E+03  0.12831555744E+01  0.24263507758E+03  0.33314577528E+03  0.00000000000E+00 0. -1.
        -11    1    5    5    0    0 -0.22802821286E+03  0.55415388155E+02  0.37471583653E+03  0.44213085082E+03  0.00000000000E+00 0.  1.
          3    1    6    6  503    0  0.93397733261E+02  0.11522732748E+03  0.93792600442E+02  0.17549223765E+03  0.00000000000E+00 0. -1.
         -3    1    6    6    0  503  0.24267967215E+03  0.15870094029E+03  0.83593814179E+02  0.30177365275E+03  0.00000000000E+00 0.  1.
<mgrwt>
<rscale>  0 0.20480096E+04</rscale>
<asrwt>0</asrwt>
<pdfrwt beam="1">  1        1 0.16410647E+00 0.20480096E+04</pdfrwt>
<pdfrwt beam="2">  1       -2 0.15123475E+00 0.20480096E+04</pdfrwt>
<totfact> 0.31911026E+00</totfact>
</mgrwt>
</event>
<event>
12    4  0.4183215E-008  0.1584697E+04  0.7818608E-02  0.8830005E-01
         -2   -1    0    0    0  501 -0.00000000000E+00  0.00000000000E+00  0.51901075664E+03  0.51901075664E+03  0.00000000000E+00 0.  1.
          1   -1    0    0  501    0  0.00000000000E+00 -0.00000000000E+00 -0.12096396521E+04  0.12096396521E+04  0.00000000000E+00 0. -1.
        -24    2    1    2    0    0 -0.27067158791E+03  0.45578453692E+03 -0.14347154099E+03  0.55486786000E+03  0.79319646932E+02 0.  0.
        254    2    1    2    0    0  0.27067158791E+03 -0.45578453692E+03 -0.54715735445E+03  0.11737825487E+04  0.89296228843E+03 0.  0.
         23    2    4    4    0    0  0.39072537609E+03 -0.64579198533E+03 -0.53888829448E+03  0.93177943527E+03  0.89992856578E+02 0.  0.
         23    2    4    4    0    0 -0.12005378818E+03  0.19000744840E+03 -0.82690599726E+01  0.24200311345E+03  0.89338609016E+02 0.  0.
          1    1    3    3  502    0 -0.26889658969E+02  0.15138729584E+02 -0.18603417508E+02  0.36032236066E+02  0.00000000000E+00 0. -1.
         -4    1    3    3    0  502 -0.24378192894E+03  0.44064580734E+03 -0.12486812348E+03  0.51883562393E+03  0.00000000000E+00 0.  1.
         11    1    5    5    0    0  0.14502609841E+03 -0.17164006793E+03 -0.13415394894E+03  0.26170625548E+03  0.00000000000E+00 0.  1.
        -11    1    5    5    0    0  0.24569927768E+03 -0.47415191739E+03 -0.40473434554E+03  0.67007317979E+03  0.00000000000E+00 0. -1.
          1    1    6    6  503    0 -0.18082830178E+02  0.10896923990E+03 -0.15552056852E+02  0.11154887029E+03  0.00000000000E+00 0. -1.
         -1    1    6    6    0  503 -0.10197095801E+03  0.81038208504E+02  0.72829968793E+01  0.13045424316E+03  0.00000000000E+00 0.  1.
<mgrwt>
<rscale>  0 0.15846968E+04</rscale>
<asrwt>0</asrwt>
<pdfrwt beam="1">  1        1 0.18609841E+00 0.15846968E+04</pdfrwt>
<pdfrwt beam="2">  1       -2 0.79847809E-01 0.15846968E+04</pdfrwt>
<totfact> 0.12298842E+01</totfact>
</mgrwt>
</event>
<event>
12    4  0.4183215E-008  0.1229078E+04  0.7818608E-02  0.9087779E-01
          1   -1    0    0  501    0  0.00000000000E+00  0.00000000000E+00  0.33447574020E+03  0.33447574020E+03  0.00000000000E+00 0. -1.
         -2   -1    0    0    0  501 -0.00000000000E+00 -0.00000000000E+00 -0.11291044127E+04  0.11291044127E+04  0.00000000000E+00 0.  1.
        -24    2    1    2    0    0 -0.23007352312E+03 -0.16043509278E+03 -0.20954533257E+03  0.35903980726E+03  0.79543018294E+02 0.  0.
        254    2    1    2    0    0  0.23007352312E+03  0.16043509278E+03 -0.58508333995E+03  0.11045403457E+04  0.89387561522E+03 0.  0.
         23    2    4    4    0    0  0.52061788430E+03 -0.44749635354E+02 -0.18601987014E+03  0.56214583911E+03  0.91427791305E+02 0.  0.
         23    2    4    4    0    0 -0.29054436118E+03  0.20518472814E+03 -0.39906346980E+03  0.54239450655E+03  0.91778806539E+02 0.  0.
          1    1    3    3  502    0 -0.21953820402E+03 -0.15668105441E+03 -0.17206298787E+03  0.31992444050E+03  0.00000000000E+00 0. -1.
         -2    1    3    3    0  502 -0.10535319101E+02 -0.37540383746E+01 -0.37482344700E+02  0.39115366762E+02  0.00000000000E+00 0.  1.
         11    1    5    5    0    0  0.16994170952E+03 -0.54414659069E+02 -0.80916799932E+02  0.19593026379E+03  0.00000000000E+00 0.  1.
        -11    1    5    5    0    0  0.35067617478E+03  0.96650237142E+01 -0.10510307021E+03  0.36621557532E+03  0.00000000000E+00 0. -1.
          4    1    6    6  503    0 -0.26938461430E+03  0.15296799346E+03 -0.35269521078E+03  0.46942644701E+03  0.00000000000E+00 0. -1.
         -4    1    6    6    0  503 -0.21159746883E+02  0.52216734676E+02 -0.46368259021E+02  0.72968059540E+02  0.00000000000E+00 0.  1.
<mgrwt>
<rscale>  0 0.12290778E+04</rscale>
<asrwt>0</asrwt>
<pdfrwt beam="1">  1        1 0.51457806E-01 0.12290778E+04</pdfrwt>
<pdfrwt beam="2">  1       -2 0.17370837E+00 0.12290778E+04</pdfrwt>
<totfact> 0.13138818E+01</totfact>
</mgrwt>
</event>
<event>
12    4  0.4183215E-008  0.1816591E+04  0.7818608E-02  0.8697526E-01
         -2   -1    0    0    0  501 -0.00000000000E+00  0.00000000000E+00  0.83182302137E+03  0.83182302137E+03  0.00000000000E+00 0.  1.
          1   -1    0    0  501    0  0.00000000000E+00 -0.00000000000E+00 -0.99179881914E+03  0.99179881914E+03  0.00000000000E+00 0. -1.
        -24    2    1    2    0    0  0.97132937910E+02 -0.25151280886E+03 -0.63739896815E+03  0.69724501102E+03  0.84732875196E+02 0.  0.
        254    2    1    2    0    0 -0.97132937910E+02  0.25151280886E+03  0.47742317039E+03  0.11263768295E+04  0.98391990413E+03 0.  0.
         23    2    4    4    0    0  0.23133020541E+03 -0.17170951544E+03  0.49886593723E+03  0.58328234613E+03  0.91396117776E+02 0.  0.
         23    2    4    4    0    0 -0.32846314332E+03  0.42322232430E+03 -0.21442766845E+02  0.54309448336E+03  0.86525448899E+02 0.  0.
          1    1    3    3  502    0  0.64548101549E+02 -0.22469570039E+03 -0.58487496932E+03  0.62986772018E+03  0.00000000000E+00 0. -1.
         -2    1    3    3    0  502  0.32584836361E+02 -0.26817108471E+02 -0.52523998837E+02  0.67377290842E+02  0.00000000000E+00 0.  1.
         11    1    5    5    0    0  0.18679861485E+03 -0.13408653376E+03  0.45674766705E+03  0.51136225164E+03  0.00000000000E+00 0. -1.
        -11    1    5    5    0    0  0.44531590559E+02 -0.37622981676E+02  0.42118270187E+02  0.71920094490E+02  0.00000000000E+00 0.  1.
          2    1    6    6  503    0 -0.33161735389E+02  0.12966515535E+02 -0.11830007797E+02  0.37520398500E+02  0.00000000000E+00 0.  1.
         -2    1    6    6    0  503 -0.29530140793E+03  0.41025580876E+03 -0.96127590484E+01  0.50557408486E+03  0.00000000000E+00 0. -1.
<mgrwt>
<rscale>  0 0.18165914E+04</rscale>
<asrwt>0</asrwt>
<pdfrwt beam="1">  1        1 0.15258443E+00 0.18165914E+04</pdfrwt>
<pdfrwt beam="2">  1       -2 0.12797277E+00 0.18165914E+04</pdfrwt>
<totfact> 0.57321850E+00</totfact>
</mgrwt>
</event>
<event>
12    4  0.4183215E-008  0.2472817E+04  0.7818608E-02  0.8412734E-01
          1   -1    0    0  501    0  0.00000000000E+00  0.00000000000E+00  0.93929337055E+03  0.93929337055E+03  0.00000000000E+00 0. -1.
         -2   -1    0    0    0  501 -0.00000000000E+00 -0.00000000000E+00 -0.16275062736E+04  0.16275062736E+04  0.00000000000E+00 0.  1.
        -24    2    1    2    0    0  0.29645167149E+03 -0.64110845042E+03 -0.11350773349E+04  0.13393305683E+04  0.80636072583E+02 0.  0.
        254    2    1    2    0    0 -0.29645167149E+03  0.64110845042E+03  0.44686443192E+03  0.12274690758E+04  0.89893763567E+03 0.  0.
         23    2    4    4    0    0 -0.66913883247E+02  0.69682715132E+03  0.60368160478E+03  0.92928027053E+03  0.95314189161E+02 0.  0.
         23    2    4    4    0    0 -0.22953778824E+03 -0.55718700905E+02 -0.15681717286E+03  0.29818880528E+03  0.92372983227E+02 0.  0.
          3    1    3    3  502    0  0.18192281317E+01 -0.45929910192E+02 -0.90722157848E+02  0.10170239017E+03  0.00000000000E+00 0. -1.
         -4    1    3    3    0  502  0.29463244336E+03 -0.59517854023E+03 -0.10443551771E+04  0.12376281781E+04  0.00000000000E+00 0.  1.
         11    1    5    5    0    0  0.46224440700E+01  0.41916781147E+03  0.37674624874E+03  0.56361401429E+03  0.00000000000E+00 0. -1.
        -11    1    5    5    0    0 -0.71536327317E+02  0.27765933985E+03  0.22693535604E+03  0.36566625624E+03  0.00000000000E+00 0.  1.
          4    1    6    6  503    0 -0.22793446940E+03 -0.61431479542E+02 -0.16504741691E+03  0.28804270316E+03  0.00000000000E+00 0. -1.
         -4    1    6    6    0  503 -0.16033188442E+01  0.57127786368E+01  0.82302440487E+01  0.10146102117E+02  0.00000000000E+00 0.  1.
<mgrwt>
<rscale>  0 0.24728169E+04</rscale>
<asrwt>0</asrwt>
<pdfrwt beam="1">  1        1 0.14450667E+00 0.24728169E+04</pdfrwt>
<pdfrwt beam="2">  1       -2 0.25038558E+00 0.24728169E+04</pdfrwt>
<totfact> 0.84369930E-01</totfact>
</mgrwt>
</event>
<event>
12    4  0.4183215E-008  0.2125903E+04  0.7818608E-02  0.8549918E-01
         -2   -1    0    0    0  501 -0.00000000000E+00  0.00000000000E+00  0.96802095962E+03  0.96802095962E+03  0.00000000000E+00 0.  1.
          1   -1    0    0  501    0  0.00000000000E+00 -0.00000000000E+00 -0.11671913925E+04  0.11671913925E+04  0.00000000000E+00 0. -1.
        -24    2    1    2    0    0 -0.57785656339E+03 -0.26124869862E+03 -0.68464278989E+03  0.93667265023E+03  0.80316956837E+02 0.  0.
        254    2    1    2    0    0  0.57785656339E+03  0.26124869862E+03  0.48547235705E+03  0.11985397018E+04  0.89366935556E+03 0.  0.
         23    2    4    4    0    0  0.48518290954E+03  0.39907859377E+03  0.67725392565E+03  0.92944227090E+03  0.10258594152E+03 0.  0.
         23    2    4    4    0    0  0.92673653846E+02 -0.13782989515E+03 -0.19178156860E+03  0.26909743095E+03  0.89709370606E+02 0.  0.
          3    1    3    3  502    0 -0.49553928319E+03 -0.24780129382E+03 -0.57000816295E+03  0.79490500579E+03  0.00000000000E+00 0. -1.
         -4    1    3    3    0  502 -0.82317280201E+02 -0.13447404798E+02 -0.11463462695E+03  0.14176764444E+03  0.00000000000E+00 0.  1.
         11    1    5    5    0    0  0.35634515877E+03  0.34140953646E+03  0.55531048584E+03  0.74290785394E+03  0.00000000000E+00 0. -1.
        -11    1    5    5    0    0  0.12883775077E+03  0.57669057311E+02  0.12194343981E+03  0.18653441695E+03  0.00000000000E+00 0.  1.
          2    1    6    6  503    0  0.43298338967E+02 -0.48084451925E+02 -0.17645376850E+02  0.67068770664E+02  0.00000000000E+00 0. -1.
         -2    1    6    6    0  503  0.49375314879E+02 -0.89745443227E+02 -0.17413619175E+03  0.20202866029E+03  0.00000000000E+00 0.  1.
<mgrwt>
<rscale>  0 0.21259028E+04</rscale>
<asrwt>0</asrwt>
<pdfrwt beam="1">  1        1 0.17956791E+00 0.21259028E+04</pdfrwt>
<pdfrwt beam="2">  1       -2 0.14892630E+00 0.21259028E+04</pdfrwt>
<totfact> 0.27765789E+00</totfact>
</mgrwt>
</event>
<event>
12    4  0.4183215E-008  0.1596035E+04  0.7818608E-02  0.8822987E-01
         -2   -1    0    0    0  501 -0.00000000000E+00  0.00000000000E+00  0.63253398114E+03  0.63253398114E+03  0.00000000000E+00 0.  1.
          1   -1    0    0  501    0  0.00000000000E+00 -0.00000000000E+00 -0.10067951327E+04  0.10067951327E+04  0.00000000000E+00 0. -1.
        -24    2    1    2    0    0  0.49672341072E+01  0.53429524445E+03 -0.20035159479E+03  0.57630355379E+03  0.80553975198E+02 0.  0.
        254    2    1    2    0    0 -0.49672341072E+01 -0.53429524445E+03 -0.17390955680E+03  0.10630255601E+04  0.90237615538E+03 0.  0.
         23    2    4    4    0    0 -0.19215080170E+03  0.19491978740E+03 -0.74706987971E+02  0.29811959697E+03  0.91534179038E+02 0.  0.
         23    2    4    4    0    0  0.18718356760E+03 -0.72921503185E+03 -0.99202568833E+02  0.76490596312E+03  0.91911544986E+02 0.  0.
          1    1    3    3  502    0 -0.53821750947E+01  0.12323193294E+03 -0.11711546845E+02  0.12390414615E+03  0.00000000000E+00 0. -1.
         -2    1    3    3    0  502  0.10349409202E+02  0.41106331151E+03 -0.18864004795E+03  0.45239940764E+03  0.00000000000E+00 0.  1.
         11    1    5    5    0    0 -0.13772192624E+03  0.18864522406E+03 -0.65334088223E+02  0.24253431223E+03  0.00000000000E+00 0.  1.
        -11    1    5    5    0    0 -0.54428875467E+02  0.62745633388E+01 -0.93728997480E+01  0.55585284738E+02  0.00000000000E+00 0. -1.
          2    1    6    6  503    0  0.16784072027E+03 -0.71453764639E+03 -0.98936804052E+02  0.74062341759E+03  0.00000000000E+00 0.  1.
         -2    1    6    6    0  503  0.19342847323E+02 -0.14677385463E+02 -0.26576478029E+00  0.24282545532E+02  0.00000000000E+00 0. -1.
<mgrwt>
<rscale>  0 0.15960353E+04</rscale>
<asrwt>0</asrwt>
<pdfrwt beam="1">  1        1 0.15489156E+00 0.15960353E+04</pdfrwt>
<pdfrwt beam="2">  1       -2 0.97312921E-01 0.15960353E+04</pdfrwt>
<totfact> 0.11079296E+01</totfact>
</mgrwt>
</event>
<event>
12    4  0.4183215E-008  0.1570145E+04  0.7818608E-02  0.8839102E-01
         -2   -1    0    0    0  501 -0.00000000000E+00  0.00000000000E+00  0.40269233695E+03  0.40269233695E+03  0.00000000000E+00 0.  1.
          1   -1    0    0  501    0  0.00000000000E+00 -0.00000000000E+00 -0.15305454608E+04  0.15305454608E+04  0.00000000000E+00 0. -1.
        -24    2    1    2    0    0  0.13347427597E+03  0.50912341029E+03 -0.34411407173E+03  0.63428501466E+03  0.82951529305E+02 0.  0.
        254    2    1    2    0    0 -0.13347427597E+03 -0.50912341029E+03 -0.78373905213E+03  0.12989527831E+04  0.89219358978E+03 0.  0.
         23    2    4    4    0    0 -0.27656853844E+03 -0.71209993870E+03 -0.54651745837E+03  0.94380916715E+03  0.92292646198E+02 0.  0.
         23    2    4    4    0    0  0.14309426247E+03  0.20297652842E+03 -0.23722159376E+03  0.35514361595E+03  0.90429333540E+02 0.  0.
          1    1    3    3  502    0  0.13361925550E+03  0.46861102405E+03 -0.29129222710E+03  0.56771609002E+03  0.00000000000E+00 0. -1.
         -2    1    3    3    0  502 -0.14497953988E+00  0.40512386243E+02 -0.52821844622E+02  0.66568924637E+02  0.00000000000E+00 0.  1.
         11    1    5    5    0    0 -0.96438249647E+02 -0.16043395364E+03 -0.16293006810E+03  0.24816445468E+03  0.00000000000E+00 0. -1.
        -11    1    5    5    0    0 -0.18013028879E+03 -0.55166598507E+03 -0.38358739027E+03  0.69564471247E+03  0.00000000000E+00 0.  1.
          2    1    6    6  503    0  0.13668417833E+03  0.18924283517E+03 -0.17676470574E+03  0.29281594298E+03  0.00000000000E+00 0. -1.
         -2    1    6    6    0  503  0.64100841405E+01  0.13733693246E+02 -0.60456888014E+02  0.62327672964E+02  0.00000000000E+00 0.  1.
<mgrwt>
<rscale>  0 0.15701451E+04</rscale>
<asrwt>0</asrwt>
<pdfrwt beam="1">  1        1 0.23546853E+00 0.15701451E+04</pdfrwt>
<pdfrwt beam="2">  1       -2 0.61952667E-01 0.15701451E+04</pdfrwt>
<totfact> 0.12724439E+01</totfact>
</mgrwt>
</event>
<event>
12    4  0.4183215E-008  0.3763636E+04  0.7818608E-02  0.8054004E-01
         -2   -1    0    0    0  501 -0.00000000000E+00  0.00000000000E+00  0.21766239104E+04  0.21766239104E+04  0.00000000000E+00 0.  1.
          1   -1    0    0  501    0  0.00000000000E+00 -0.00000000000E+00 -0.16269408788E+04  0.16269408788E+04  0.00000000000E+00 0. -1.
        -24    2    1    2    0    0 -0.17354145004E+04  0.35520996834E+03  0.19216348346E+03  0.17836500463E+04  0.81505050849E+02 0.  0.
        254    2    1    2    0    0  0.17354145004E+04 -0.35520996834E+03  0.35751954810E+03  0.20199147429E+04  0.90243987696E+03 0.  0.
         23    2    4    4    0    0  0.95751337529E+03 -0.17480892039E+03  0.63961269911E+03  0.11682780427E+04  0.91537738957E+02 0.  0.
         23    2    4    4    0    0  0.77790112513E+03 -0.18040104795E+03 -0.28209315101E+03  0.85163670023E+03  0.89631605837E+02 0.  0.
          3    1    3    3  502    0 -0.19668936552E+03  0.64520536389E+02  0.11501862974E+02  0.20732076350E+03  0.00000000000E+00 0. -1.
         -4    1    3    3    0  502 -0.15387251349E+04  0.29068943195E+03  0.18066162049E+03  0.15763292828E+04  0.00000000000E+00 0.  1.
         11    1    5    5    0    0  0.68076429311E+03 -0.11422172971E+03  0.50068554964E+03  0.85274418552E+03  0.00000000000E+00 0. -1.
        -11    1    5    5    0    0  0.27674908217E+03 -0.60587190681E+02  0.13892714947E+03  0.31553385716E+03  0.00000000000E+00 0.  1.
          3    1    6    6  503    0  0.41569218361E+03 -0.10183417040E+03 -0.10400859253E+03  0.44044066240E+03  0.00000000000E+00 0. -1.
         -3    1    6    6    0  503  0.36220894152E+03 -0.78566877548E+02 -0.17808455847E+03  0.41119603784E+03  0.00000000000E+00 0.  1.
<mgrwt>
<rscale>  0 0.37636357E+04</rscale>
<asrwt>0</asrwt>
<pdfrwt beam="1">  1        1 0.25029860E+00 0.37636357E+04</pdfrwt>
<pdfrwt beam="2">  1       -2 0.33486522E+00 0.37636357E+04</pdfrwt>
<totfact> 0.72556611E-02</totfact>
</mgrwt>
</event>
<event>
12    4  0.4183215E-008  0.1403085E+04  0.7818608E-02  0.8951588E-01
         -2   -1    0    0    0  501 -0.00000000000E+00  0.00000000000E+00  0.44217440855E+03  0.44217440855E+03  0.00000000000E+00 0.  1.
          1   -1    0    0  501    0  0.00000000000E+00 -0.00000000000E+00 -0.11130499122E+04  0.11130499122E+04  0.00000000000E+00 0. -1.
        -24    2    1    2    0    0  0.12146603320E+03  0.33539093183E+03  0.11422403668E+02  0.36593284767E+03  0.80841222956E+02 0.  0.
        254    2    1    2    0    0 -0.12146603320E+03 -0.33539093183E+03 -0.68229790733E+03  0.11892914731E+04  0.90644508892E+03 0.  0.
         23    2    4    4    0    0  0.78525444311E+02  0.16387286760E+03 -0.60516152576E+03  0.63818416982E+03  0.89654895079E+02 0.  0.
         23    2    4    4    0    0 -0.19999147751E+03 -0.49926379942E+03 -0.77136381566E+02  0.55110730326E+03  0.92240478409E+02 0.  0.
          3    1    3    3  502    0  0.56763604516E+02  0.15750171642E+03  0.45745212347E+02  0.17355552980E+03  0.00000000000E+00 0. -1.
         -4    1    3    3    0  502  0.64702428681E+02  0.17788921541E+03 -0.34322808679E+02  0.19237731787E+03  0.00000000000E+00 0.  1.
         11    1    5    5    0    0  0.58141024738E+02  0.10588851614E+03 -0.24897183171E+03  0.27673042766E+03  0.00000000000E+00 0.  1.
        -11    1    5    5    0    0  0.20384419573E+02  0.57984351460E+02 -0.35618969405E+03  0.36145374217E+03  0.00000000000E+00 0. -1.
          2    1    6    6  503    0 -0.10279162629E+02 -0.41215624219E+02  0.18251751243E+02  0.46233270353E+02  0.00000000000E+00 0. -1.
         -2    1    6    6    0  503 -0.18971231488E+03 -0.45804817520E+03 -0.95388132809E+02  0.50487403291E+03  0.00000000000E+00 0.  1.
<mgrwt>
<rscale>  0 0.14030854E+04</rscale>
<asrwt>0</asrwt>
<pdfrwt beam="1">  1        1 0.17123845E+00 0.14030854E+04</pdfrwt>
<pdfrwt beam="2">  1       -2 0.68026832E-01 0.14030854E+04</pdfrwt>
<totfact> 0.20964022E+01</totfact>
</mgrwt>
</event>
<event>
12    4  0.4183215E-008  0.1333705E+04  0.7818608E-02  0.9003255E-01
          1   -1    0    0  501    0  0.00000000000E+00  0.00000000000E+00  0.63368233472E+03  0.63368233472E+03  0.00000000000E+00 0. -1.
         -2   -1    0    0    0  501 -0.00000000000E+00 -0.00000000000E+00 -0.70175946913E+03  0.70175946913E+03  0.00000000000E+00 0.  1.
        -24    2    1    2    0    0 -0.16373434153E+03 -0.23707099203E+03 -0.22135396618E+03  0.37155505823E+03  0.77743122452E+02 0.  0.
        254    2    1    2    0    0  0.16373434153E+03  0.23707099203E+03  0.15327683177E+03  0.96388674562E+03  0.90695770649E+03 0.  0.
         23    2    4    4    0    0  0.22140639380E+03 -0.81003197837E+01 -0.33211639747E+03  0.40943149547E+03  0.90809920279E+02 0.  0.
         23    2    4    4    0    0 -0.57672052265E+02  0.24517131182E+03  0.48539322924E+03  0.55445525014E+03  0.91536875997E+02 0.  0.
          1    1    3    3  502    0  0.64511947836E+01 -0.20793997173E+02 -0.26773857280E+02  0.34508660742E+02  0.00000000000E+00 0. -1.
         -2    1    3    3    0  502 -0.17018553632E+03 -0.21627699486E+03 -0.19458010890E+03  0.33704639748E+03  0.00000000000E+00 0.  1.
         11    1    5    5    0    0  0.47878916323E+02 -0.12071615245E+02 -0.22025424040E+02  0.54066938392E+02  0.00000000000E+00 0.  1.
        -11    1    5    5    0    0  0.17352747747E+03  0.39712954610E+01 -0.31009097343E+03  0.35536455708E+03  0.00000000000E+00 0. -1.
          4    1    6    6  503    0 -0.52459426486E+02  0.23656082001E+03  0.48729247290E+03  0.54421224457E+03  0.00000000000E+00 0. -1.
         -4    1    6    6    0  503 -0.52126257787E+01  0.86104918103E+01 -0.18992436619E+01  0.10243005575E+02  0.00000000000E+00 0.  1.
<mgrwt>
<rscale>  0 0.13337055E+04</rscale>
<asrwt>0</asrwt>
<pdfrwt beam="1">  1        1 0.97489590E-01 0.13337055E+04</pdfrwt>
<pdfrwt beam="2">  1       -2 0.10796300E+00 0.13337055E+04</pdfrwt>
<totfact> 0.18647087E+01</totfact>
</mgrwt>
</event>
<event>
12    4  0.4183215E-008  0.1432171E+04  0.7818608E-02  0.8930855E-01
          1   -1    0    0  501    0  0.00000000000E+00  0.00000000000E+00  0.10560542034E+04  0.10560542034E+04  0.00000000000E+00 0. -1.
         -2   -1    0    0    0  501 -0.00000000000E+00 -0.00000000000E+00 -0.48556093809E+03  0.48556093809E+03  0.00000000000E+00 0.  1.
        -24    2    1    2    0    0 -0.23226877266E+03 -0.15664899280E+03  0.50910706114E+03  0.58692133068E+03  0.82455800312E+02 0.  0.
        254    2    1    2    0    0  0.23226877266E+03  0.15664899280E+03  0.61386204180E+02  0.95469381083E+03  0.91059558349E+03 0.  0.
         23    2    4    4    0    0 -0.27177556430E+03 -0.96063165127E+02  0.20318482675E+03  0.36616376486E+03  0.98497410271E+02 0.  0.
         23    2    4    4    0    0  0.50404433696E+03  0.25271215793E+03 -0.14179862257E+03  0.58853004596E+03  0.91305187426E+02 0.  0.
          3    1    3    3  502    0 -0.77917910605E+02 -0.38571231971E+02  0.23778932151E+03  0.25318511439E+03  0.00000000000E+00 0. -1.
         -4    1    3    3    0  502 -0.15435086205E+03 -0.11807776083E+03  0.27131773964E+03  0.33373621629E+03  0.00000000000E+00 0.  1.
         11    1    5    5    0    0 -0.23968849969E+02  0.14318363537E+02  0.11964001081E+01  0.27945530527E+02  0.00000000000E+00 0. -1.
        -11    1    5    5    0    0 -0.24780671433E+03 -0.11038152866E+03  0.20198842664E+03  0.33821823433E+03  0.00000000000E+00 0.  1.
          2    1    6    6  503    0  0.40985167017E+02  0.48743133476E+02 -0.29704662592E+02  0.70271217125E+02  0.00000000000E+00 0. -1.
         -2    1    6    6    0  503  0.46305916995E+03  0.20396902445E+03 -0.11209395998E+03  0.51825882884E+03  0.00000000000E+00 0.  1.
<mgrwt>
<rscale>  0 0.14321713E+04</rscale>
<asrwt>0</asrwt>
<pdfrwt beam="1">  1        1 0.16246988E+00 0.14321713E+04</pdfrwt>
<pdfrwt beam="2">  1       -2 0.74701683E-01 0.14321713E+04</pdfrwt>
<totfact> 0.18811093E+01</totfact>
</mgrwt>
</event>
<event>
12    4  0.4183215E-008  0.1259309E+04  0.7818608E-02  0.9062471E-01
          1   -1    0    0  501    0  0.00000000000E+00  0.00000000000E+00  0.11050175547E+04  0.11050175547E+04  0.00000000000E+00 0. -1.
         -2   -1    0    0    0  501 -0.00000000000E+00 -0.00000000000E+00 -0.35878572457E+03  0.35878572457E+03  0.00000000000E+00 0.  1.
        -24    2    1    2    0    0 -0.15209751531E+03  0.20325136457E+03 -0.46803050551E+01  0.26620396796E+03  0.79986723507E+02 0.  0.
        254    2    1    2    0    0  0.15209751531E+03 -0.20325136457E+03  0.75091213523E+03  0.11975993113E+04  0.89773621089E+03 0.  0.
         23    2    4    4    0    0 -0.18642256077E+03 -0.34552468502E+03  0.71047058646E+03  0.81713289675E+03  0.93792524267E+02 0.  0.
         23    2    4    4    0    0  0.33852007608E+03  0.14227332045E+03  0.40441548767E+02  0.38046641459E+03  0.91003484244E+02 0.  0.
          1    1    3    3  502    0 -0.15362200013E+03  0.20003137020E+03 -0.17574850323E+02  0.25282631064E+03  0.00000000000E+00 0. -1.
         -2    1    3    3    0  502  0.15244848154E+01  0.32199943715E+01  0.12894545268E+02  0.13377657320E+02  0.00000000000E+00 0.  1.
         11    1    5    5    0    0 -0.17321431501E+03 -0.24000775408E+03  0.49232274648E+03  0.57444634880E+03  0.00000000000E+00 0. -1.
        -11    1    5    5    0    0 -0.13208245756E+02 -0.10551693094E+03  0.21814783998E+03  0.24268654796E+03  0.00000000000E+00 0.  1.
          3    1    6    6  503    0  0.29295233952E+03  0.85222969850E+02  0.27742072585E+02  0.30635543151E+03  0.00000000000E+00 0. -1.
         -3    1    6    6    0  503  0.45567736556E+02  0.57050350600E+02  0.12699476182E+02  0.74110983084E+02  0.00000000000E+00 0.  1.
<mgrwt>
<rscale>  0 0.12593086E+04</rscale>
<asrwt>0</asrwt>
<pdfrwt beam="1">  1        1 0.17000270E+00 0.12593086E+04</pdfrwt>
<pdfrwt beam="2">  1       -2 0.55197804E-01 0.12593086E+04</pdfrwt>
<totfact> 0.33514860E+01</totfact>
</mgrwt>
</event>
<event>
12    4  0.4183215E-008  0.2169437E+04  0.7818608E-02  0.8531258E-01
          1   -1    0    0  501    0  0.00000000000E+00  0.00000000000E+00  0.15133523577E+04  0.15133523577E+04  0.00000000000E+00 0. -1.
         -2   -1    0    0    0  501 -0.00000000000E+00 -0.00000000000E+00 -0.77748826337E+03  0.77748826337E+03  0.00000000000E+00 0.  1.
        -24    2    1    2    0    0 -0.28946226115E+03  0.73043615713E+03 -0.15488603562E+03  0.80471959204E+03  0.79111045442E+02 0.  0.
        254    2    1    2    0    0  0.28946226115E+03 -0.73043615713E+03  0.89075012992E+03  0.14861210290E+04  0.89319344970E+03 0.  0.
         23    2    4    4    0    0  0.48076228799E+03 -0.11348136032E+03  0.21341501042E+03  0.54582453139E+03  0.91477077472E+02 0.  0.
         23    2    4    4    0    0 -0.19130002684E+03 -0.61695479681E+03  0.67733511950E+03  0.94029649761E+03  0.90253629935E+02 0.  0.
          3    1    3    3  502    0 -0.33263767347E+02  0.38201047583E+02 -0.67356204912E+00  0.50658187298E+02  0.00000000000E+00 0. -1.
         -2    1    3    3    0  502 -0.25619849380E+03  0.69223510955E+03 -0.15421247358E+03  0.75406140475E+03  0.00000000000E+00 0.  1.
         11    1    5    5    0    0  0.70120045456E+02  0.14999802279E+02  0.38172622506E+02  0.81234007363E+02  0.00000000000E+00 0.  1.
        -11    1    5    5    0    0  0.41064224253E+03 -0.12848116260E+03  0.17524238791E+03  0.46459052403E+03  0.00000000000E+00 0. -1.
          4    1    6    6  503    0 -0.10506945839E+03 -0.19909148350E+03  0.25019923081E+03  0.33656598905E+03  0.00000000000E+00 0. -1.
         -4    1    6    6    0  503 -0.86230568446E+02 -0.41786331331E+03  0.42713588870E+03  0.60373050855E+03  0.00000000000E+00 0.  1.
<mgrwt>
<rscale>  0 0.21694365E+04</rscale>
<asrwt>0</asrwt>
<pdfrwt beam="1">  1        1 0.23282344E+00 0.21694365E+04</pdfrwt>
<pdfrwt beam="2">  1       -2 0.11961358E+00 0.21694365E+04</pdfrwt>
<totfact> 0.27509051E+00</totfact>
</mgrwt>
</event>
<event>
12    4  0.4183215E-008  0.2095342E+04  0.7818608E-02  0.8563298E-01
          1   -1    0    0  501    0  0.00000000000E+00  0.00000000000E+00  0.25731210075E+04  0.25731210075E+04  0.00000000000E+00 0. -1.
         -4   -1    0    0    0  501 -0.00000000000E+00 -0.00000000000E+00 -0.42656914850E+03  0.42656914850E+03  0.00000000000E+00 0.  1.
        -24    2    1    2    0    0 -0.23904234095E+03  0.64463580484E+03  0.15361567761E+03  0.70872260195E+03  0.77416977811E+02 0.  0.
        254    2    1    2    0    0  0.23904234095E+03 -0.64463580484E+03  0.19929361814E+04  0.22909675540E+04  0.89668341623E+03 0.  0.
         23    2    4    4    0    0  0.48005359775E+03 -0.67931700645E+03  0.17267431907E+04  0.19189007092E+04  0.92816125300E+02 0.  0.
         23    2    4    4    0    0 -0.24101125680E+03  0.34681201612E+02  0.26619299065E+03  0.37206684482E+03  0.91026463719E+02 0.  0.
          3    1    3    3  502    0 -0.70447047265E+02  0.24584863251E+03  0.89977173881E+02  0.27110925546E+03  0.00000000000E+00 0. -1.
         -4    1    3    3    0  502 -0.16859529368E+03  0.39878717233E+03  0.63638503725E+02  0.43761334648E+03  0.00000000000E+00 0.  1.
         11    1    5    5    0    0  0.32219830746E+02 -0.78066576034E+02  0.13168385057E+03  0.15643894748E+03  0.00000000000E+00 0. -1.
        -11    1    5    5    0    0  0.44783376700E+03 -0.60125043042E+03  0.15950593401E+04  0.17624617617E+04  0.00000000000E+00 0.  1.
          2    1    6    6  503    0 -0.75034020508E+02 -0.30994802961E+02  0.75467113720E+02  0.11084253379E+03  0.00000000000E+00 0. -1.
         -2    1    6    6    0  503 -0.16597723629E+03  0.65676004573E+02  0.19072587693E+03  0.26122431103E+03  0.00000000000E+00 0.  1.
<mgrwt>
<rscale>  0 0.20953415E+04</rscale>
<asrwt>0</asrwt>
<pdfrwt beam="1">  1        1 0.39586476E+00 0.20953415E+04</pdfrwt>
<pdfrwt beam="2">  1       -4 0.65626025E-01 0.20953415E+04</pdfrwt>
<totfact> 0.11855042E+00</totfact>
</mgrwt>
</event>
<event>
12    4  0.4183215E-008  0.1618027E+04  0.7818608E-02  0.8809549E-01
          1   -1    0    0  501    0  0.00000000000E+00  0.00000000000E+00  0.13129221780E+04  0.13129221780E+04  0.00000000000E+00 0. -1.
         -2   -1    0    0    0  501 -0.00000000000E+00 -0.00000000000E+00 -0.49850836805E+03  0.49850836805E+03  0.00000000000E+00 0.  1.
        -24    2    1    2    0    0  0.34423169118E+03 -0.33091691890E+03 -0.50669977285E+02  0.48700571400E+03  0.81275177273E+02 0.  0.
        254    2    1    2    0    0 -0.34423169118E+03  0.33091691890E+03  0.86508378724E+03  0.13244248321E+04  0.88188985276E+03 0.  0.
         23    2    4    4    0    0  0.32296438836E+02  0.49363350514E+01  0.80984389373E+03  0.81562743947E+03  0.91288336832E+02 0.  0.
         23    2    4    4    0    0 -0.37652813002E+03  0.32598058385E+03  0.55239893512E+02  0.50879739259E+03  0.88241527256E+02 0.  0.
          1    1    3    3  502    0  0.11824389167E+03 -0.16561567362E+03 -0.35800974532E+02  0.20662013223E+03  0.00000000000E+00 0. -1.
         -2    1    3    3    0  502  0.22598779951E+03 -0.16530124527E+03 -0.14869002753E+02  0.28038558176E+03  0.00000000000E+00 0.  1.
         11    1    5    5    0    0 -0.17280481562E+02  0.34025796534E+02  0.25973579178E+03  0.26252438249E+03  0.00000000000E+00 0. -1.
        -11    1    5    5    0    0  0.49576920398E+02 -0.29089461483E+02  0.55010810196E+03  0.55310305698E+03  0.00000000000E+00 0.  1.
          3    1    6    6  503    0 -0.42771026290E-02 -0.43560566849E+01  0.27764798395E+01  0.51656643749E+01  0.00000000000E+00 0. -1.
         -3    1    6    6    0  503 -0.37652385291E+03  0.33033664053E+03  0.52463413672E+02  0.50363172821E+03  0.00000000000E+00 0.  1.
<mgrwt>
<rscale>  0 0.16180268E+04</rscale>
<asrwt>0</asrwt>
<pdfrwt beam="1">  1        1 0.20198803E+00 0.16180268E+04</pdfrwt>
<pdfrwt beam="2">  1       -2 0.76693595E-01 0.16180268E+04</pdfrwt>
<totfact> 0.11308826E+01</totfact>
</mgrwt>
</event>
<event>
12    4  0.4183215E-008  0.1511706E+04  0.7818608E-02  0.8876706E-01
         -2   -1    0    0    0  501 -0.00000000000E+00  0.00000000000E+00  0.27609039812E+03  0.27609039812E+03  0.00000000000E+00 0.  1.
          1   -1    0    0  501    0  0.00000000000E+00 -0.00000000000E+00 -0.20692990309E+04  0.20692990309E+04  0.00000000000E+00 0. -1.
        -24    2    1    2    0    0  0.19815101103E+03  0.14954479155E+03 -0.12234016224E+04  0.12506747439E+04  0.76474292842E+02 0.  0.
        254    2    1    2    0    0 -0.19815101103E+03 -0.14954479155E+03 -0.56980701040E+03  0.10947146851E+04  0.90116188608E+03 0.  0.
         23    2    4    4    0    0  0.97243219434E+02  0.16978057257E+03 -0.60933983301E+03  0.64826508636E+03  0.10330006557E+03 0.  0.
         23    2    4    4    0    0 -0.29539423047E+03 -0.31932536411E+03  0.39532822616E+02  0.44644959878E+03  0.92346957896E+02 0.  0.
          1    1    3    3  502    0  0.19608223038E+03  0.15034214029E+03 -0.12237370771E+04  0.12484323906E+04  0.00000000000E+00 0. -1.
         -2    1    3    3    0  502  0.20687806465E+01 -0.79734874478E+00  0.33545464125E+00  0.22423532729E+01  0.00000000000E+00 0.  1.
         11    1    5    5    0    0  0.10942698060E+03  0.12367604966E+03 -0.53533639639E+03  0.56022770963E+03  0.00000000000E+00 0.  1.
        -11    1    5    5    0    0 -0.12183761163E+02  0.46104522906E+02 -0.74003436625E+02  0.88037376726E+02  0.00000000000E+00 0. -1.
          1    1    6    6  503    0  0.26844760424E+01  0.11265750769E+01  0.70089462761E+01  0.75895263968E+01  0.00000000000E+00 0. -1.
         -1    1    6    6    0  503 -0.29807870651E+03 -0.32045193919E+03  0.32523876340E+02  0.43886007239E+03  0.00000000000E+00 0.  1.
<mgrwt>
<rscale>  0 0.15117058E+04</rscale>
<asrwt>0</asrwt>
<pdfrwt beam="1">  1        1 0.31835369E+00 0.15117058E+04</pdfrwt>
<pdfrwt beam="2">  1       -2 0.42475447E-01 0.15117058E+04</pdfrwt>
<totfact> 0.11929490E+01</totfact>
</mgrwt>
</event>
<event>
12    4  0.4183215E-008  0.1502706E+04  0.7818608E-02  0.8882656E-01
         -2   -1    0    0    0  501 -0.00000000000E+00  0.00000000000E+00  0.23958908811E+03  0.23958908811E+03  0.00000000000E+00 0.  1.
          1   -1    0    0  501    0  0.00000000000E+00 -0.00000000000E+00 -0.23562468075E+04  0.23562468075E+04  0.00000000000E+00 0. -1.
        -24    2    1    2    0    0 -0.16961692633E+03 -0.13763857894E+03  0.48166117587E+02  0.23733688415E+03  0.79338147090E+02 0.  0.
        254    2    1    2    0    0  0.16961692633E+03  0.13763857894E+03 -0.21648238370E+04  0.23584990115E+04  0.91013244189E+03 0.  0.
         23    2    4    4    0    0  0.46471797006E+03  0.31677208174E+03 -0.14617697848E+04  0.15687939235E+04  0.89644448915E+02 0.  0.
         23    2    4    4    0    0 -0.29510104373E+03 -0.17913350280E+03 -0.70305405221E+03  0.78970508797E+03  0.10087461428E+03 0.  0.
          3    1    3    3  502    0 -0.47545203704E+02 -0.15658290213E+02 -0.17009984521E+02  0.52868402861E+02  0.00000000000E+00 0. -1.
         -4    1    3    3    0  502 -0.12207172263E+03 -0.12198028873E+03  0.65176102108E+02  0.18446848129E+03  0.00000000000E+00 0.  1.
         11    1    5    5    0    0  0.40393568513E+03  0.23400433722E+03 -0.11967695913E+04  0.12845931349E+04  0.00000000000E+00 0. -1.
        -11    1    5    5    0    0  0.60782284933E+02  0.82767744523E+02 -0.26500019351E+03  0.28420078863E+03  0.00000000000E+00 0.  1.
          2    1    6    6  503    0 -0.26258469853E+03 -0.11633140770E+03 -0.59299573671E+03  0.65888364988E+03  0.00000000000E+00 0. -1.
         -2    1    6    6    0  503 -0.32516345196E+02 -0.62802095106E+02 -0.11005831550E+03  0.13082143809E+03  0.00000000000E+00 0.  1.
<mgrwt>
<rscale>  0 0.15027056E+04</rscale>
<asrwt>0</asrwt>
<pdfrwt beam="1">  1        1 0.36249952E+00 0.15027056E+04</pdfrwt>
<pdfrwt beam="2">  1       -2 0.36859858E-01 0.15027056E+04</pdfrwt>
<totfact> 0.10046257E+01</totfact>
</mgrwt>
</event>
<event>
12    4  0.4183215E-008  0.1809762E+04  0.7818608E-02  0.8701125E-01
         -2   -1    0    0    0  501 -0.00000000000E+00  0.00000000000E+00  0.10114686514E+04  0.10114686514E+04  0.00000000000E+00 0.  1.
          1   -1    0    0  501    0  0.00000000000E+00 -0.00000000000E+00 -0.80952535455E+03  0.80952535455E+03  0.00000000000E+00 0. -1.
        -24    2    1    2    0    0  0.35409926417E+02  0.11147783356E+01 -0.60200215832E+03  0.60815124666E+03  0.78652619616E+02 0.  0.
        254    2    1    2    0    0 -0.35409926417E+02 -0.11147783356E+01  0.80394545513E+03  0.12128427592E+04  0.90741619900E+03 0.  0.
         23    2    4    4    0    0  0.93550539868E+02  0.42933768522E+03  0.36935727158E+03  0.58121239044E+03  0.91107064843E+02 0.  0.
         23    2    4    4    0    0 -0.12896046628E+03 -0.43045246356E+03  0.43458818355E+03  0.63163036881E+03  0.90387544910E+02 0.  0.
          1    1    3    3  502    0 -0.20174413029E+02  0.14133229109E+02 -0.28392989862E+03  0.28499639022E+03  0.00000000000E+00 0. -1.
         -2    1    3    3    0  502  0.55584339446E+02 -0.13018450774E+02 -0.31807225970E+03  0.32315485644E+03  0.00000000000E+00 0.  1.
         11    1    5    5    0    0  0.94959458673E+02  0.37679337786E+03  0.28526660076E+03  0.48204520732E+03  0.00000000000E+00 0. -1.
        -11    1    5    5    0    0 -0.14089188048E+01  0.52544307368E+02  0.84090670819E+02  0.99167183119E+02  0.00000000000E+00 0.  1.
          2    1    6    6  503    0 -0.10896889466E+03 -0.34444903749E+03  0.39365702214E+03  0.53430816063E+03  0.00000000000E+00 0. -1.
         -2    1    6    6    0  503 -0.19991571628E+02 -0.86003426065E+02  0.40931161406E+02  0.97322208181E+02  0.00000000000E+00 0.  1.
<mgrwt>
<rscale>  0 0.18097619E+04</rscale>
<asrwt>0</asrwt>
<pdfrwt beam="1">  1        1 0.12454236E+00 0.18097619E+04</pdfrwt>
<pdfrwt beam="2">  1       -2 0.15561056E+00 0.18097619E+04</pdfrwt>
<totfact> 0.48648172E+00</totfact>
</mgrwt>
</event>
<event>
12    4  0.4183215E-008  0.1751534E+04  0.7818608E-02  0.8732507E-01
         -2   -1    0    0    0  501 -0.00000000000E+00  0.00000000000E+00  0.15390918658E+04  0.15390918658E+04  0.00000000000E+00 0.  1.
          1   -1    0    0  501    0  0.00000000000E+00 -0.00000000000E+00 -0.49832477978E+03  0.49832477978E+03  0.00000000000E+00 0. -1.
        -24    2    1    2    0    0  0.10387296862E+03  0.34082047471E+03  0.97977424366E+03  0.10456399177E+04  0.80355953797E+02 0.  0.
        254    2    1    2    0    0 -0.10387296862E+03 -0.34082047471E+03  0.60992842333E+02  0.99177672788E+03  0.92355441722E+03 0.  0.
         23    2    4    4    0    0  0.57077966352E+02  0.10626766156E+03 -0.33433830969E+03  0.36705442721E+03  0.91630437488E+02 0.  0.
         23    2    4    4    0    0 -0.16095093497E+03 -0.44708813627E+03  0.39533115202E+03  0.62472230067E+03  0.90544067358E+02 0.  0.
          1    1    3    3  502    0  0.54287988034E+02  0.15527349855E+03  0.34069499539E+03  0.37832542193E+03  0.00000000000E+00 0. -1.
         -2    1    3    3    0  502  0.49584980585E+02  0.18554697616E+03  0.63907924827E+03  0.66731449575E+03  0.00000000000E+00 0.  1.
         11    1    5    5    0    0  0.53239346110E+02  0.60187608559E+02 -0.10043348474E+03  0.12862294140E+03  0.00000000000E+00 0.  1.
        -11    1    5    5    0    0  0.38386202420E+01  0.46080052997E+02 -0.23390482495E+03  0.23843148581E+03  0.00000000000E+00 0. -1.
          1    1    6    6  503    0 -0.41529286045E+02 -0.86544452158E+02  0.12919469796E+03  0.16095307943E+03  0.00000000000E+00 0. -1.
         -1    1    6    6    0  503 -0.11942164893E+03 -0.36054368411E+03  0.26613645407E+03  0.46376922124E+03  0.00000000000E+00 0.  1.
<mgrwt>
<rscale>  0 0.17515337E+04</rscale>
<asrwt>0</asrwt>
<pdfrwt beam="1">  1        1 0.76665351E-01 0.17515337E+04</pdfrwt>
<pdfrwt beam="2">  1       -2 0.23678336E+00 0.17515337E+04</pdfrwt>
<totfact> 0.28621689E+00</totfact>
</mgrwt>
</event>
<event>
12    4  0.4183215E-008  0.1576626E+04  0.7818608E-02  0.8835037E-01
          1   -1    0    0  501    0  0.00000000000E+00  0.00000000000E+00  0.32990016533E+04  0.32990016533E+04  0.00000000000E+00 0. -1.
         -2   -1    0    0    0  501 -0.00000000000E+00 -0.00000000000E+00 -0.18837140081E+03  0.18837140081E+03  0.00000000000E+00 0.  1.
        -24    2    1    2    0    0  0.19529638022E+03  0.18763931974E+02  0.21337963227E+04  0.21441687145E+04  0.76680951179E+02 0.  0.
        254    2    1    2    0    0 -0.19529638022E+03 -0.18763931974E+02  0.97683392973E+03  0.13432043395E+04  0.90083328657E+03 0.  0.
         23    2    4    4    0    0 -0.29377333211E+03  0.37444023782E+03  0.66527508808E+03  0.82343094385E+03  0.94547946108E+02 0.  0.
         23    2    4    4    0    0  0.98476951890E+02 -0.39320416979E+03  0.31155884165E+03  0.51977339568E+03  0.93745623093E+02 0.  0.
          1    1    3    3  502    0  0.17871694920E+03  0.15097187301E+02  0.15859363185E+04  0.15960456383E+04  0.00000000000E+00 0. -1.
         -2    1    3    3    0  502  0.16579431025E+02  0.36667446729E+01  0.54786000420E+03  0.54812307628E+03  0.00000000000E+00 0.  1.
         11    1    5    5    0    0 -0.28761297982E+02  0.14565427373E+02  0.18215131107E+02  0.37029109325E+02  0.00000000000E+00 0. -1.
        -11    1    5    5    0    0 -0.26501203413E+03  0.35987481045E+03  0.64705995697E+03  0.78640183452E+03  0.00000000000E+00 0.  1.
          1    1    6    6  503    0  0.85214530417E+02 -0.21377928922E+03  0.21795453049E+03  0.31696573640E+03  0.00000000000E+00 0. -1.
         -1    1    6    6    0  503  0.13262421473E+02 -0.17942488058E+03  0.93604311161E+02  0.20280765928E+03  0.00000000000E+00 0.  1.
<mgrwt>
<rscale>  0 0.15766262E+04</rscale>
<asrwt>0</asrwt>
<pdfrwt beam="1">  1        1 0.50753867E+00 0.15766262E+04</pdfrwt>
<pdfrwt beam="2">  1       -2 0.28980218E-01 0.15766262E+04</pdfrwt>
<totfact> 0.33297635E+00</totfact>
</mgrwt>
</event>
<event>
12    4  0.4183215E-008  0.1313069E+04  0.7818608E-02  0.9019265E-01
         -2   -1    0    0    0  501 -0.00000000000E+00  0.00000000000E+00  0.64201926792E+03  0.64201926792E+03  0.00000000000E+00 0.  1.
          1   -1    0    0  501    0  0.00000000000E+00 -0.00000000000E+00 -0.67137788674E+03  0.67137788674E+03  0.00000000000E+00 0. -1.
        -24    2    1    2    0    0  0.57676264766E+02  0.35737554880E+03  0.77512232830E+02  0.37879888093E+03  0.80228495941E+02 0.  0.
        254    2    1    2    0    0 -0.57676264766E+02 -0.35737554880E+03 -0.10687085165E+03  0.93459827374E+03  0.85499047945E+03 0.  0.
         23    2    4    4    0    0 -0.29456611475E+02 -0.60911402336E+03 -0.20226123521E+03  0.64881850635E+03  0.90378434941E+02 0.  0.
         23    2    4    4    0    0 -0.28219653291E+02  0.25173847457E+03  0.95390383564E+02  0.28577976738E+03  0.91663197411E+02 0.  0.
          3    1    3    3  502    0 -0.67450034267E+01  0.22431495600E+02 -0.11783749477E+02  0.26220675388E+02  0.00000000000E+00 0. -1.
         -2    1    3    3    0  502  0.64421268192E+02  0.33494405320E+03  0.89295982307E+02  0.35257820554E+03  0.00000000000E+00 0.  1.
         11    1    5    5    0    0 -0.51962289401E+02 -0.29593814845E+03 -0.12526926421E+03  0.32553318692E+03  0.00000000000E+00 0. -1.
        -11    1    5    5    0    0  0.22505677926E+02 -0.31317587491E+03 -0.76991971004E+02  0.32328531944E+03  0.00000000000E+00 0.  1.
          1    1    6    6  503    0  0.19808971700E+02  0.18066074566E+03  0.48893416849E+02  0.18820538407E+03  0.00000000000E+00 0. -1.
         -1    1    6    6    0  503 -0.48028624991E+02  0.71077728912E+02  0.46496966715E+02  0.97574383316E+02  0.00000000000E+00 0.  1.
<mgrwt>
<rscale>  0 0.13130690E+04</rscale>
<asrwt>0</asrwt>
<pdfrwt beam="1">  1        1 0.10328891E+00 0.13130690E+04</pdfrwt>
<pdfrwt beam="2">  1       -2 0.98772195E-01 0.13130690E+04</pdfrwt>
<totfact> 0.21212465E+01</totfact>
</mgrwt>
</event>
<event>
12    4  0.4183215E-008  0.2924814E+04  0.7818608E-02  0.8265533E-01
         -2   -1    0    0    0  501 -0.00000000000E+00  0.00000000000E+00  0.17500199873E+04  0.17500199873E+04  0.00000000000E+00 0.  1.
          1   -1    0    0  501    0  0.00000000000E+00 -0.00000000000E+00 -0.12220624388E+04  0.12220624388E+04  0.00000000000E+00 0. -1.
        -24    2    1    2    0    0  0.12716037462E+04 -0.43230717824E+02  0.59678288053E+03  0.14075961975E+04  0.79575539120E+02 0.  0.
        254    2    1    2    0    0 -0.12716037462E+04  0.43230717824E+02 -0.68825332025E+02  0.15644862285E+04  0.90776387388E+03 0.  0.
         23    2    4    4    0    0 -0.13183653750E+04  0.15312564604E+03  0.10421013098E+03  0.13349447235E+04  0.98401921465E+02 0.  0.
         23    2    4    4    0    0  0.46761628776E+02 -0.10989492821E+03 -0.17303546301E+03  0.22954150500E+03  0.92111269061E+02 0.  0.
          3    1    3    3  502    0  0.77100375641E+02 -0.18037458804E+02  0.24846143958E+02  0.82988846924E+02  0.00000000000E+00 0. -1.
         -4    1    3    3    0  502  0.11945033705E+04 -0.25193259020E+02  0.57193673658E+03  0.13246073506E+04  0.00000000000E+00 0.  1.
         11    1    5    5    0    0 -0.11997978544E+04  0.14310037319E+03  0.12274171789E+03  0.12145197148E+04  0.00000000000E+00 0. -1.
        -11    1    5    5    0    0 -0.11856752055E+03  0.10025272852E+02 -0.18531586902E+02  0.12042500877E+03  0.00000000000E+00 0.  1.
          2    1    6    6  503    0 -0.20644348980E+02 -0.58437449250E+01 -0.75031843012E+01  0.22729634273E+02  0.00000000000E+00 0.  1.
         -2    1    6    6    0  503  0.67405977756E+02 -0.10405118329E+03 -0.16553227871E+03  0.20681187073E+03  0.00000000000E+00 0. -1.
<mgrwt>
<rscale>  0 0.29248136E+04</rscale>
<asrwt>0</asrwt>
<pdfrwt beam="1">  1        1 0.18800960E+00 0.29248136E+04</pdfrwt>
<pdfrwt beam="2">  1       -2 0.26923385E+00 0.29248136E+04</pdfrwt>
<totfact> 0.37925036E-01</totfact>
</mgrwt>
</event>
<event>
12    4  0.4183215E-008  0.1308555E+04  0.7818608E-02  0.9022809E-01
          1   -1    0    0  501    0  0.00000000000E+00  0.00000000000E+00  0.68828022096E+03  0.68828022096E+03  0.00000000000E+00 0. -1.
         -2   -1    0    0    0  501 -0.00000000000E+00 -0.00000000000E+00 -0.62195438501E+03  0.62195438501E+03  0.00000000000E+00 0.  1.
        -24    2    1    2    0    0 -0.17130424439E+03 -0.18518771530E+03 -0.19461581421E+03  0.32840785889E+03  0.79603847852E+02 0.  0.
        254    2    1    2    0    0  0.17130424439E+03  0.18518771530E+03  0.26094165016E+03  0.98182674708E+03  0.91227933356E+03 0.  0.
         23    2    4    4    0    0  0.23390545975E+03 -0.43358163639E+02 -0.28360646090E+03  0.38161300942E+03  0.92758664507E+02 0.  0.
         23    2    4    4    0    0 -0.62601215359E+02  0.22854587894E+03  0.54454811106E+03  0.60021373766E+03  0.87015829974E+02 0.  0.
          1    1    3    3  502    0 -0.40796378004E+02 -0.41106830939E+01 -0.36227822936E+02  0.54714690244E+02  0.00000000000E+00 0. -1.
         -2    1    3    3    0  502 -0.13050786639E+03 -0.18107703221E+03 -0.15838799127E+03  0.27369316864E+03  0.00000000000E+00 0.  1.
         11    1    5    5    0    0  0.17614486901E+03 -0.33604736133E+02 -0.14322096791E+03  0.22949627190E+03  0.00000000000E+00 0.  1.
        -11    1    5    5    0    0  0.57760590741E+02 -0.97534275060E+01 -0.14038549299E+03  0.15211673752E+03  0.00000000000E+00 0. -1.
          3    1    6    6  503    0 -0.66365911625E+02  0.98694413365E+02  0.21017308297E+03  0.24149067530E+03  0.00000000000E+00 0.  1.
         -3    1    6    6    0  503  0.37646962658E+01  0.12985146558E+03  0.33437502809E+03  0.35872306235E+03  0.00000000000E+00 0. -1.
<mgrwt>
<rscale>  0 0.13085548E+04</rscale>
<asrwt>0</asrwt>
<pdfrwt beam="1">  1        1 0.10588927E+00 0.13085548E+04</pdfrwt>
<pdfrwt beam="2">  1       -2 0.95685289E-01 0.13085548E+04</pdfrwt>
<totfact> 0.22026661E+01</totfact>
</mgrwt>
</event>
<event>
12    4  0.4183215E-008  0.2086673E+04  0.7818608E-02  0.8567137E-01
          1   -1    0    0  501    0  0.00000000000E+00  0.00000000000E+00  0.14503281381E+04  0.14503281381E+04  0.00000000000E+00 0. -1.
         -2   -1    0    0    0  501 -0.00000000000E+00 -0.00000000000E+00 -0.75055478287E+03  0.75055478287E+03  0.00000000000E+00 0.  1.
        -24    2    1    2    0    0 -0.65985569348E+03  0.26462083894E+02 -0.27550904893E+03  0.71999340837E+03  0.79846690288E+02 0.  0.
        254    2    1    2    0    0  0.65985569348E+03 -0.26462083894E+02  0.97528240419E+03  0.14808895126E+04  0.89763478242E+03 0.  0.
         23    2    4    4    0    0  0.58019149014E+03 -0.32040174805E+03  0.94998407703E+03  0.11619464279E+04  0.91489394573E+02 0.  0.
         23    2    4    4    0    0  0.79664203340E+02  0.29393966415E+03  0.25298327157E+02  0.31894308473E+03  0.91311414875E+02 0.  0.
          3    1    3    3  502    0 -0.95531454939E+02 -0.24324373435E+02 -0.39349947533E+02  0.10614307512E+03  0.00000000000E+00 0. -1.
         -4    1    3    3    0  502 -0.56432423854E+03  0.50786457329E+02 -0.23615910139E+03  0.61385033324E+03  0.00000000000E+00 0.  1.
         11    1    5    5    0    0  0.12158704402E+03 -0.11206343630E+03  0.23301337184E+03  0.28572163812E+03  0.00000000000E+00 0.  1.
        -11    1    5    5    0    0  0.45860444611E+03 -0.20833831175E+03  0.71697070519E+03  0.87622478979E+03  0.00000000000E+00 0. -1.
          3    1    6    6  503    0  0.60623057065E+02  0.29233060674E+03  0.26941559025E+02  0.29976355064E+03  0.00000000000E+00 0. -1.
         -3    1    6    6    0  503  0.19041146275E+02  0.16090574081E+01 -0.16432318683E+01  0.19179534097E+02  0.00000000000E+00 0.  1.
<mgrwt>
<rscale>  0 0.20866727E+04</rscale>
<asrwt>0</asrwt>
<pdfrwt beam="1">  1        1 0.22312741E+00 0.20866727E+04</pdfrwt>
<pdfrwt beam="2">  1       -2 0.11546997E+00 0.20866727E+04</pdfrwt>
<totfact> 0.33421717E+00</totfact>
</mgrwt>
</event>
<event>
12    4  0.4183215E-008  0.1370453E+04  0.7818608E-02  0.8975488E-01
          1   -1    0    0  501    0  0.00000000000E+00  0.00000000000E+00  0.33747374323E+04  0.33747374323E+04  0.00000000000E+00 0. -1.
         -4   -1    0    0    0  501 -0.00000000000E+00 -0.00000000000E+00 -0.13913239158E+03  0.13913239158E+03  0.00000000000E+00 0.  1.
        -24    2    1    2    0    0 -0.97084011731E+02  0.33378942149E+03  0.51722939498E+03  0.62813375270E+03  0.78645286028E+02 0.  0.
        254    2    1    2    0    0  0.97084011731E+02 -0.33378942149E+03  0.27183756458E+04  0.28857360712E+04  0.90391694195E+03 0.  0.
         23    2    4    4    0    0  0.38618757317E+02  0.18782395302E+03  0.14413836374E+03  0.25695505617E+03  0.92091189837E+02 0.  0.
         23    2    4    4    0    0  0.58465254414E+02 -0.52161337451E+03  0.25742372820E+04  0.26287810150E+04  0.91067790155E+02 0.  0.
          3    1    3    3  502    0 -0.43550659100E+02  0.11148357139E+03  0.24455595424E+03  0.27227350469E+03  0.00000000000E+00 0. -1.
         -4    1    3    3    0  502 -0.53533352630E+02  0.22230585010E+03  0.27267344074E+03  0.35586024801E+03  0.00000000000E+00 0.  1.
         11    1    5    5    0    0  0.55861623639E+02  0.18702458192E+03  0.13582218590E+03  0.23779483052E+03  0.00000000000E+00 0.  1.
        -11    1    5    5    0    0 -0.17242866323E+02  0.79937109758E+00  0.83161778392E+01  0.19160225652E+02  0.00000000000E+00 0. -1.
          3    1    6    6  503    0 -0.24080001903E+02 -0.88149047975E+02  0.45998765580E+03  0.46897627300E+03  0.00000000000E+00 0. -1.
         -3    1    6    6    0  503  0.82545256317E+02 -0.43346432653E+03  0.21142496262E+04  0.21598047420E+04  0.00000000000E+00 0.  1.
<mgrwt>
<rscale>  0 0.13704529E+04</rscale>
<asrwt>0</asrwt>
<pdfrwt beam="1">  1        1 0.51919031E+00 0.13704529E+04</pdfrwt>
<pdfrwt beam="2">  1       -4 0.21404986E-01 0.13704529E+04</pdfrwt>
<totfact> 0.31751269E+00</totfact>
</mgrwt>
</event>
<event>
12    4  0.4183215E-008  0.1585812E+04  0.7818608E-02  0.8829312E-01
          1   -1    0    0  501    0  0.00000000000E+00  0.00000000000E+00  0.15062788545E+04  0.15062788545E+04  0.00000000000E+00 0. -1.
         -2   -1    0    0    0  501 -0.00000000000E+00 -0.00000000000E+00 -0.41738604122E+03  0.41738604122E+03  0.00000000000E+00 0.  1.
        -24    2    1    2    0    0 -0.86569286393E+01  0.31943953035E+03  0.84956169293E+03  0.91112571360E+03  0.79236607165E+02 0.  0.
        254    2    1    2    0    0  0.86569286393E+01 -0.31943953035E+03  0.23933112034E+03  0.10125391821E+04  0.93050505329E+03 0.  0.
         23    2    4    4    0    0  0.22212653025E+03  0.26173749853E+03  0.13056390082E+03  0.37669047507E+03  0.83678361789E+02 0.  0.
         23    2    4    4    0    0 -0.21346960161E+03 -0.58117702889E+03  0.10876721952E+03  0.63584870704E+03  0.95589018670E+02 0.  0.
          3    1    3    3  502    0 -0.20900963688E+02  0.19188177737E+03  0.40812751564E+03  0.45146820020E+03  0.00000000000E+00 0. -1.
         -4    1    3    3    0  502  0.12244035049E+02  0.12755775298E+03  0.44143417729E+03  0.45965751340E+03  0.00000000000E+00 0.  1.
         11    1    5    5    0    0  0.16367867125E+03  0.24091544975E+03  0.10558317019E+03  0.30980440148E+03  0.00000000000E+00 0. -1.
        -11    1    5    5    0    0  0.58447859003E+02  0.20822048785E+02  0.24980730626E+02  0.66886073589E+02  0.00000000000E+00 0.  1.
          1    1    6    6  503    0 -0.18092875437E+03 -0.54939806347E+03  0.85336951509E+02  0.58468439486E+03  0.00000000000E+00 0. -1.
         -1    1    6    6    0  503 -0.32540847240E+02 -0.31778965418E+02  0.23430268011E+02  0.51164312183E+02  0.00000000000E+00 0.  1.
<mgrwt>
<rscale>  0 0.15858118E+04</rscale>
<asrwt>0</asrwt>
<pdfrwt beam="1">  1        1 0.23173521E+00 0.15858118E+04</pdfrwt>
<pdfrwt beam="2">  1       -2 0.64213238E-01 0.15858118E+04</pdfrwt>
<totfact> 0.12234429E+01</totfact>
</mgrwt>
</event>
<event>
12    4  0.4183215E-008  0.1378119E+04  0.7818608E-02  0.8969811E-01
         -2   -1    0    0    0  501 -0.00000000000E+00  0.00000000000E+00  0.30804632611E+03  0.30804632611E+03  0.00000000000E+00 0.  1.
          1   -1    0    0  501    0  0.00000000000E+00 -0.00000000000E+00 -0.15413368972E+04  0.15413368972E+04  0.00000000000E+00 0. -1.
        -24    2    1    2    0    0 -0.97451726489E+02  0.36322356833E+03 -0.37109654625E+03  0.53446166391E+03  0.80674803729E+02 0.  0.
        254    2    1    2    0    0  0.97451726489E+02 -0.36322356833E+03 -0.86219402483E+03  0.13149215594E+04  0.91881008445E+03 0.  0.
         23    2    4    4    0    0 -0.12297449614E+03 -0.43239630586E+03 -0.94724910731E+03  0.10524807787E+04  0.91354398895E+02 0.  0.
         23    2    4    4    0    0  0.22042622263E+03  0.69172737526E+02  0.85055082485E+02  0.26244078069E+03  0.90929693013E+02 0.  0.
          3    1    3    3  502    0 -0.10702827160E+03  0.35808388957E+03 -0.35968796735E+03  0.51870469127E+03  0.00000000000E+00 0. -1.
         -4    1    3    3    0  502  0.95765451099E+01  0.51396787632E+01 -0.11408578904E+02  0.15756972635E+02  0.00000000000E+00 0.  1.
         11    1    5    5    0    0 -0.62217098237E+02 -0.35454510862E+03 -0.74686060136E+03  0.82908018866E+03  0.00000000000E+00 0. -1.
        -11    1    5    5    0    0 -0.60757397905E+02 -0.77851197237E+02 -0.20038850596E+03  0.22340059004E+03  0.00000000000E+00 0.  1.
          1    1    6    6  503    0  0.19665232850E+03  0.28963523365E+02  0.83789210036E+02  0.21571197395E+03  0.00000000000E+00 0. -1.
         -1    1    6    6    0  503  0.23773894135E+02  0.40209214160E+02  0.12658724487E+01  0.46728806734E+02  0.00000000000E+00 0.  1.
<mgrwt>
<rscale>  0 0.13781193E+04</rscale>
<asrwt>0</asrwt>
<pdfrwt beam="1">  1        1 0.23712875E+00 0.13781193E+04</pdfrwt>
<pdfrwt beam="2">  1       -2 0.47391742E-01 0.13781193E+04</pdfrwt>
<totfact> 0.22149167E+01</totfact>
</mgrwt>
</event>
<event>
12    4  0.4183215E-008  0.1877976E+04  0.7818608E-02  0.8665897E-01
         -2   -1    0    0    0  501 -0.00000000000E+00  0.00000000000E+00  0.53355807362E+03  0.53355807362E+03  0.00000000000E+00 0.  1.
          1   -1    0    0  501    0  0.00000000000E+00 -0.00000000000E+00 -0.16524890641E+04  0.16524890641E+04  0.00000000000E+00 0. -1.
        -24    2    1    2    0    0 -0.35241725851E+03  0.62717982196E+02 -0.11670422684E+04  0.12232901552E+04  0.79496404097E+02 0.  0.
        254    2    1    2    0    0  0.35241725851E+03 -0.62717982196E+02  0.48111277907E+02  0.96275698251E+03  0.89244318750E+03 0.  0.
         23    2    4    4    0    0 -0.26740976620E+03 -0.31526700709E+01  0.16160839170E+03  0.32368210947E+03  0.84468416208E+02 0.  0.
         23    2    4    4    0    0  0.61982702471E+03 -0.59565312125E+02 -0.11349711379E+03  0.63907487303E+03  0.88326278831E+02 0.  0.
          3    1    3    3  502    0 -0.98955844532E+02 -0.90528560690E+01 -0.40456867450E+03  0.41659335780E+03  0.00000000000E+00 0. -1.
         -4    1    3    3    0  502 -0.25346141398E+03  0.71770838265E+02 -0.76247359387E+03  0.80669679741E+03  0.00000000000E+00 0.  1.
         11    1    5    5    0    0 -0.51971431723E+02  0.40326598507E+01 -0.33687935749E+01  0.52236393740E+02  0.00000000000E+00 0.  1.
        -11    1    5    5    0    0 -0.21543833448E+03 -0.71853299217E+01  0.16497718527E+03  0.27144571573E+03  0.00000000000E+00 0. -1.
          3    1    6    6  503    0  0.51218918163E+03 -0.18188691404E+02 -0.10708708774E+03  0.52358020458E+03  0.00000000000E+00 0. -1.
         -3    1    6    6    0  503  0.10763784309E+03 -0.41376620722E+02 -0.64100260454E+01  0.11549466845E+03  0.00000000000E+00 0.  1.
<mgrwt>
<rscale>  0 0.18779764E+04</rscale>
<asrwt>0</asrwt>
<pdfrwt beam="1">  1        1 0.25422908E+00 0.18779764E+04</pdfrwt>
<pdfrwt beam="2">  1       -2 0.82085858E-01 0.18779764E+04</pdfrwt>
<totfact> 0.55119146E+00</totfact>
</mgrwt>
</event>
<event>
12    4  0.4183215E-008  0.1899225E+04  0.7818608E-02  0.8655242E-01
         -2   -1    0    0    0  501 -0.00000000000E+00  0.00000000000E+00  0.59903468222E+03  0.59903468222E+03  0.00000000000E+00 0.  1.
          1   -1    0    0  501    0  0.00000000000E+00 -0.00000000000E+00 -0.15053623002E+04  0.15053623002E+04  0.00000000000E+00 0. -1.
        -24    2    1    2    0    0  0.68405037332E+03 -0.90629384548E+02 -0.62034926315E+03  0.93117254425E+03  0.78169689161E+02 0.  0.
        254    2    1    2    0    0 -0.68405037332E+03  0.90629384548E+02 -0.28597835481E+03  0.11732244381E+04  0.90472833726E+03 0.  0.
         23    2    4    4    0    0 -0.28913664683E+03 -0.37973571133E+03 -0.25902627387E+03  0.55065493461E+03  0.91252591533E+02 0.  0.
         23    2    4    4    0    0 -0.39491372649E+03  0.47036509588E+03 -0.26952080934E+02  0.62256950352E+03  0.98316820812E+02 0.  0.
          1    1    3    3  502    0  0.52608054457E+03 -0.60194487640E+02 -0.51643704779E+03  0.73965623099E+03  0.00000000000E+00 0. -1.
         -2    1    3    3    0  502  0.15796982875E+03 -0.30434896908E+02 -0.10391221536E+03  0.19151631326E+03  0.00000000000E+00 0.  1.
         11    1    5    5    0    0 -0.29338601548E+03 -0.35926429171E+03 -0.23938638224E+03  0.52196937207E+03  0.00000000000E+00 0. -1.
        -11    1    5    5    0    0  0.42493686527E+01 -0.20471419624E+02 -0.19639891630E+02  0.28685562546E+02  0.00000000000E+00 0.  1.
          3    1    6    6  503    0 -0.25231821192E+03  0.30294153618E+03  0.30000667017E+02  0.39539612344E+03  0.00000000000E+00 0. -1.
         -3    1    6    6    0  503 -0.14259551457E+03  0.16742355969E+03 -0.56952747951E+02  0.22717338008E+03  0.00000000000E+00 0.  1.
<mgrwt>
<rscale>  0 0.18992253E+04</rscale>
<asrwt>0</asrwt>
<pdfrwt beam="1">  1        1 0.23159420E+00 0.18992253E+04</pdfrwt>
<pdfrwt beam="2">  1       -2 0.92159183E-01 0.18992253E+04</pdfrwt>
<totfact> 0.53280640E+00</totfact>
</mgrwt>
</event>
<event>
12    4  0.4183215E-008  0.1324429E+04  0.7818608E-02  0.9010414E-01
          1   -1    0    0  501    0  0.00000000000E+00  0.00000000000E+00  0.26533958978E+03  0.26533958978E+03  0.00000000000E+00 0. -1.
         -2   -1    0    0    0  501 -0.00000000000E+00 -0.00000000000E+00 -0.16527042770E+04  0.16527042770E+04  0.00000000000E+00 0.  1.
        -24    2    1    2    0    0  0.14199372034E+03 -0.67657578064E+02  0.75216779580E+02  0.19252141236E+03  0.81652714604E+02 0.  0.
        254    2    1    2    0    0 -0.14199372034E+03  0.67657578064E+02 -0.14625814668E+04  0.17255224544E+04  0.90196642354E+03 0.  0.
         23    2    4    4    0    0 -0.43605713746E+02  0.40987802770E+03 -0.33164169336E+03  0.53674688487E+03  0.90606565863E+02 0.  0.
         23    2    4    4    0    0 -0.98388006594E+02 -0.34222044963E+03 -0.11309397734E+04  0.11887755695E+04  0.85834419927E+02 0.  0.
          1    1    3    3  502    0  0.12429952655E+03 -0.20933995566E+02  0.43510828095E+02  0.13334840319E+03  0.00000000000E+00 0. -1.
         -2    1    3    3    0  502  0.17694193789E+02 -0.46723582497E+02  0.31705951485E+02  0.59173009175E+02  0.00000000000E+00 0.  1.
         11    1    5    5    0    0 -0.12612975263E+02  0.81089298362E+01 -0.21331278681E+00  0.14996245877E+02  0.00000000000E+00 0. -1.
        -11    1    5    5    0    0 -0.30992738483E+02  0.40176909786E+03 -0.33142838058E+03  0.52175063899E+03  0.00000000000E+00 0.  1.
          1    1    6    6  503    0  0.22081226102E+00 -0.11152012527E+02 -0.11854309262E+03  0.11906670799E+03  0.00000000000E+00 0. -1.
         -1    1    6    6    0  503 -0.98608818855E+02 -0.33106843710E+03 -0.10123966808E+04  0.10697088615E+04  0.00000000000E+00 0.  1.
<mgrwt>
<rscale>  0 0.13244287E+04</rscale>
<asrwt>0</asrwt>
<pdfrwt beam="1">  1        1 0.40821475E-01 0.13244287E+04</pdfrwt>
<pdfrwt beam="2">  1       -2 0.25426220E+00 0.13244287E+04</pdfrwt>
<totfact> 0.53382385E+00</totfact>
</mgrwt>
</event>
<event>
12    4  0.4183215E-008  0.1854121E+04  0.7818608E-02  0.8678036E-01
          1   -1    0    0  501    0  0.00000000000E+00  0.00000000000E+00  0.98515052186E+03  0.98515052186E+03  0.00000000000E+00 0. -1.
         -2   -1    0    0    0  501 -0.00000000000E+00 -0.00000000000E+00 -0.87239571729E+03  0.87239571729E+03  0.00000000000E+00 0.  1.
        -24    2    1    2    0    0  0.20784061777E+03  0.39782973046E+03 -0.50700056740E+03  0.68189202603E+03  0.80379991198E+02 0.  0.
        254    2    1    2    0    0 -0.20784061777E+03 -0.39782973046E+03  0.61975537197E+03  0.11756542131E+04  0.89252444835E+03 0.  0.
         23    2    4    4    0    0 -0.48860655679E+03 -0.85866397539E+02  0.53916703591E+03  0.73841066901E+03  0.91868481656E+02 0.  0.
         23    2    4    4    0    0  0.28076593903E+03 -0.31196333292E+03  0.80588336061E+02  0.43724354411E+03  0.92394823182E+02 0.  0.
          3    1    3    3  502    0  0.10705945484E+03  0.26930468426E+03 -0.28674773733E+03  0.40768983885E+03  0.00000000000E+00 0. -1.
         -4    1    3    3    0  502  0.10078116292E+03  0.12852504620E+03 -0.22025283007E+03  0.27420218719E+03  0.00000000000E+00 0.  1.
         11    1    5    5    0    0 -0.44827226962E+03 -0.60326667025E+02  0.45452470709E+03  0.64123322108E+03  0.00000000000E+00 0. -1.
        -11    1    5    5    0    0 -0.40334287173E+02 -0.25539730515E+02  0.84642328829E+02  0.97177447929E+02  0.00000000000E+00 0.  1.
          4    1    6    6  503    0  0.20591101102E+03 -0.16365126277E+03  0.38132603222E+02  0.26577278960E+03  0.00000000000E+00 0. -1.
         -4    1    6    6    0  503  0.74854928009E+02 -0.14831207015E+03  0.42455732838E+02  0.17147075451E+03  0.00000000000E+00 0.  1.
<mgrwt>
<rscale>  0 0.18541209E+04</rscale>
<asrwt>0</asrwt>
<pdfrwt beam="1">  1        1 0.15156162E+00 0.18541209E+04</pdfrwt>
<pdfrwt beam="2">  1       -2 0.13421473E+00 0.18541209E+04</pdfrwt>
<totfact> 0.51241458E+00</totfact>
</mgrwt>
</event>
<event>
12    4  0.4183215E-008  0.1908618E+04  0.7818608E-02  0.8650579E-01
          1   -1    0    0  501    0  0.00000000000E+00  0.00000000000E+00  0.90994318951E+03  0.90994318951E+03  0.00000000000E+00 0. -1.
         -2   -1    0    0    0  501 -0.00000000000E+00 -0.00000000000E+00 -0.10008376690E+04  0.10008376690E+04  0.00000000000E+00 0.  1.
        -24    2    1    2    0    0 -0.69852660360E+03 -0.11709136236E+03  0.17467889339E+03  0.73389845528E+03  0.80277168558E+02 0.  0.
        254    2    1    2    0    0  0.69852660360E+03  0.11709136236E+03 -0.26557337291E+03  0.11768824033E+04  0.90159479348E+03 0.  0.
         23    2    4    4    0    0 -0.16079271344E+03  0.98626326553E+02 -0.23007987554E+03  0.31164695366E+03  0.92766511270E+02 0.  0.
         23    2    4    4    0    0  0.85931931704E+03  0.18465035809E+02 -0.35493497373E+02  0.86523544961E+03  0.92746691123E+02 0.  0.
          3    1    3    3  502    0 -0.60142931459E+03 -0.12258220052E+03  0.16823523829E+03  0.63643280222E+03  0.00000000000E+00 0. -1.
         -4    1    3    3    0  502 -0.97097289011E+02  0.54908381532E+01  0.64436550972E+01  0.97465653068E+02  0.00000000000E+00 0.  1.
         11    1    5    5    0    0 -0.11263075059E+03  0.18106998035E+02 -0.10309017037E+03  0.15375673183E+03  0.00000000000E+00 0.  1.
        -11    1    5    5    0    0 -0.48161962848E+02  0.80519328518E+02 -0.12698970517E+03  0.15789022183E+03  0.00000000000E+00 0. -1.
          3    1    6    6  503    0  0.38004656204E+03  0.51901605019E+01  0.30289967191E+02  0.38128704305E+03  0.00000000000E+00 0. -1.
         -3    1    6    6    0  503  0.47927275500E+03  0.13274875307E+02 -0.65783464564E+02  0.48394840656E+03  0.00000000000E+00 0.  1.
<mgrwt>
<rscale>  0 0.19086177E+04</rscale>
<asrwt>0</asrwt>
<pdfrwt beam="1">  1        1 0.13999126E+00 0.19086177E+04</pdfrwt>
<pdfrwt beam="2">  1       -2 0.15397503E+00 0.19086177E+04</pdfrwt>
<totfact> 0.40881212E+00</totfact>
</mgrwt>
</event>
<event>
12    4  0.4183215E-008  0.2695243E+04  0.7818608E-02  0.8336550E-01
         -2   -1    0    0    0  501 -0.00000000000E+00  0.00000000000E+00  0.93110216321E+03  0.93110216321E+03  0.00000000000E+00 0.  1.
          1   -1    0    0  501    0  0.00000000000E+00 -0.00000000000E+00 -0.19504662519E+04  0.19504662519E+04  0.00000000000E+00 0. -1.
        -24    2    1    2    0    0 -0.66013298801E+03  0.96904822134E+03 -0.23662090249E+03  0.11987302352E+04  0.78324377784E+02 0.  0.
        254    2    1    2    0    0  0.66013298801E+03 -0.96904822134E+03 -0.78274318618E+03  0.16828381799E+04  0.91892732411E+03 0.  0.
         23    2    4    4    0    0  0.55725427373E+03 -0.59978426418E+02 -0.34186885783E+03  0.66309704727E+03  0.93239696086E+02 0.  0.
         23    2    4    4    0    0  0.10287871428E+03 -0.90906979493E+03 -0.44087432835E+03  0.10197411326E+04  0.92249022862E+02 0.  0.
          1    1    3    3  502    0 -0.28681838003E+03  0.38091809510E+03 -0.12798186661E+03  0.49370308535E+03  0.00000000000E+00 0. -1.
         -2    1    3    3    0  502 -0.37331460798E+03  0.58813012624E+03 -0.10863903588E+03  0.70502714986E+03  0.00000000000E+00 0.  1.
         11    1    5    5    0    0  0.51136657900E+03 -0.68836901144E+02 -0.33660659604E+03  0.61606679635E+03  0.00000000000E+00 0. -1.
        -11    1    5    5    0    0  0.45887694733E+02  0.88584747269E+01 -0.52622617879E+01  0.47030250919E+02  0.00000000000E+00 0.  1.
          2    1    6    6  503    0  0.51444931004E+02 -0.66529728422E+03 -0.35753336391E+03  0.75703181150E+03  0.00000000000E+00 0. -1.
         -2    1    6    6    0  503  0.51433783273E+02 -0.24377251071E+03 -0.83340964438E+02  0.26270932110E+03  0.00000000000E+00 0.  1.
<mgrwt>
<rscale>  0 0.26952427E+04</rscale>
<asrwt>0</asrwt>
<pdfrwt beam="1">  1        1 0.30007173E+00 0.26952427E+04</pdfrwt>
<pdfrwt beam="2">  1       -2 0.14324649E+00 0.26952427E+04</pdfrwt>
<totfact> 0.83625869E-01</totfact>
</mgrwt>
</event>
<event>
12    4  0.4183215E-008  0.1473775E+04  0.7818608E-02  0.8902082E-01
          1   -1    0    0  501    0  0.00000000000E+00  0.00000000000E+00  0.18556215084E+04  0.18556215084E+04  0.00000000000E+00 0. -1.
         -2   -1    0    0    0  501 -0.00000000000E+00 -0.00000000000E+00 -0.29262600846E+03  0.29262600846E+03  0.00000000000E+00 0.  1.
        -24    2    1    2    0    0 -0.12932505822E+03  0.35919166895E+03  0.86103296114E+03  0.94512180251E+03  0.78318807905E+02 0.  0.
        254    2    1    2    0    0  0.12932505822E+03 -0.35919166895E+03  0.70196253880E+03  0.12031257144E+04  0.89945341899E+03 0.  0.
         23    2    4    4    0    0  0.11323472381E+03  0.27178419723E+03  0.37764276816E+03  0.48773869036E+03  0.92661843220E+02 0.  0.
         23    2    4    4    0    0  0.16090334413E+02 -0.63097586618E+03  0.32431977064E+03  0.71538702400E+03  0.90586080095E+02 0.  0.
          3    1    3    3  502    0 -0.11280044958E+03  0.32666386746E+03  0.82199487916E+03  0.89168873779E+03  0.00000000000E+00 0. -1.
         -4    1    3    3    0  502 -0.16524608640E+02  0.32527801488E+02  0.39038081980E+02  0.53433064717E+02  0.00000000000E+00 0.  1.
         11    1    5    5    0    0 -0.64904343235E+01  0.31324857064E+02  0.83399728874E+02  0.89324616899E+02  0.00000000000E+00 0. -1.
        -11    1    5    5    0    0  0.11972515813E+03  0.24045934017E+03  0.29424303929E+03  0.39841407346E+03  0.00000000000E+00 0.  1.
          4    1    6    6  503    0 -0.11429778567E+02 -0.13253618314E+03  0.10793539440E+03  0.17130828656E+03  0.00000000000E+00 0. -1.
         -4    1    6    6    0  503  0.27520112981E+02 -0.49843968304E+03  0.21638437624E+03  0.54407873743E+03  0.00000000000E+00 0.  1.
<mgrwt>
<rscale>  0 0.14737749E+04</rscale>
<asrwt>0</asrwt>
<pdfrwt beam="1">  1        1 0.28548022E+00 0.14737749E+04</pdfrwt>
<pdfrwt beam="2">  1       -2 0.45019387E-01 0.14737749E+04</pdfrwt>
<totfact> 0.14874336E+01</totfact>
</mgrwt>
</event>
<event>
12    4  0.4183215E-008  0.1420243E+04  0.7818608E-02  0.8939295E-01
         -2   -1    0    0    0  501 -0.00000000000E+00  0.00000000000E+00  0.28986046126E+03  0.28986046126E+03  0.00000000000E+00 0.  1.
          1   -1    0    0  501    0  0.00000000000E+00 -0.00000000000E+00 -0.17397082274E+04  0.17397082274E+04  0.00000000000E+00 0. -1.
        -24    2    1    2    0    0  0.29932424093E+03  0.89218356778E+02 -0.33371746774E+02  0.32438789913E+03  0.80987154696E+02 0.  0.
        254    2    1    2    0    0 -0.29932424093E+03 -0.89218356778E+02 -0.14164760193E+04  0.17051807895E+04  0.89648329328E+03 0.  0.
         23    2    4    4    0    0 -0.19152753462E+03  0.23260074001E+03 -0.12961253847E+04  0.13337688445E+04  0.90622387149E+02 0.  0.
         23    2    4    4    0    0 -0.10779670631E+03 -0.32181909679E+03 -0.12035063466E+03  0.37141194498E+03  0.90966458970E+02 0.  0.
          3    1    3    3  502    0  0.69864189889E+02  0.39736180261E+02 -0.39537431202E+02  0.89572191648E+02  0.00000000000E+00 0. -1.
         -4    1    3    3    0  502  0.22946005104E+03  0.49482176516E+02  0.61656844276E+01  0.23481570748E+03  0.00000000000E+00 0.  1.
         11    1    5    5    0    0 -0.40107110539E+02  0.38358668900E+01 -0.16219510487E+03  0.16712434363E+03  0.00000000000E+00 0. -1.
        -11    1    5    5    0    0 -0.15142042408E+03  0.22876487312E+03 -0.11339302798E+04  0.11666445009E+04  0.00000000000E+00 0.  1.
          2    1    6    6  503    0 -0.54860713534E+02 -0.15701939096E+03 -0.10707073670E+03  0.19781033766E+03  0.00000000000E+00 0. -1.
         -2    1    6    6    0  503 -0.52935992773E+02 -0.16479970583E+03 -0.13279897955E+02  0.17360160731E+03  0.00000000000E+00 0.  1.
<mgrwt>
<rscale>  0 0.14202431E+04</rscale>
<asrwt>0</asrwt>
<pdfrwt beam="1">  1        1 0.26764741E+00 0.14202431E+04</pdfrwt>
<pdfrwt beam="2">  1       -2 0.44593918E-01 0.14202431E+04</pdfrwt>
<totfact> 0.18250202E+01</totfact>
</mgrwt>
</event>
<event>
12    4  0.4183215E-008  0.1422309E+04  0.7818608E-02  0.8937826E-01
          1   -1    0    0  501    0  0.00000000000E+00  0.00000000000E+00  0.18160032103E+04  0.18160032103E+04  0.00000000000E+00 0. -1.
         -4   -1    0    0    0  501 -0.00000000000E+00 -0.00000000000E+00 -0.27849127349E+03  0.27849127349E+03  0.00000000000E+00 0.  1.
        -24    2    1    2    0    0 -0.73445282335E+02 -0.41599288892E+03  0.55101327905E+03  0.69886008316E+03  0.79658577824E+02 0.  0.
        254    2    1    2    0    0  0.73445282335E+02  0.41599288892E+03  0.98649865772E+03  0.13956344006E+04  0.89228441950E+03 0.  0.
         23    2    4    4    0    0 -0.23996360928E+03  0.13729654091E+03 -0.29675370877E+02  0.29245879802E+03  0.90656753627E+02 0.  0.
         23    2    4    4    0    0  0.31340889162E+03  0.27869634801E+03  0.10161740286E+04  0.11031756026E+04  0.92141011245E+02 0.  0.
          3    1    3    3  502    0 -0.47282582576E+02 -0.35519374625E+03  0.50074325219E+03  0.61574511334E+03  0.00000000000E+00 0. -1.
         -4    1    3    3    0  502 -0.26162699758E+02 -0.60799142666E+02  0.50270026857E+02  0.83114969818E+02  0.00000000000E+00 0.  1.
         11    1    5    5    0    0 -0.10887254568E+03  0.11383423033E+03 -0.99347905225E+01  0.15782953862E+03  0.00000000000E+00 0. -1.
        -11    1    5    5    0    0 -0.13109106361E+03  0.23462310577E+02 -0.19740580354E+02  0.13462925941E+03  0.00000000000E+00 0.  1.
          1    1    6    6  503    0  0.13611096707E+03  0.10357561823E+03  0.52901539387E+03  0.55597786916E+03  0.00000000000E+00 0. -1.
         -1    1    6    6    0  503  0.17729792454E+03  0.17512072978E+03  0.48715863473E+03  0.54719773340E+03  0.00000000000E+00 0.  1.
<mgrwt>
<rscale>  0 0.14223095E+04</rscale>
<asrwt>0</asrwt>
<pdfrwt beam="1">  1        1 0.27938510E+00 0.14223095E+04</pdfrwt>
<pdfrwt beam="2">  1       -4 0.42844812E-01 0.14223095E+04</pdfrwt>
<totfact> 0.10138560E+01</totfact>
</mgrwt>
</event>
<event>
12    4  0.4183215E-008  0.1688716E+04  0.7818608E-02  0.8767827E-01
          1   -1    0    0  501    0  0.00000000000E+00  0.00000000000E+00  0.14255915285E+04  0.14255915285E+04  0.00000000000E+00 0. -1.
         -2   -1    0    0    0  501 -0.00000000000E+00 -0.00000000000E+00 -0.50010122469E+03  0.50010122469E+03  0.00000000000E+00 0.  1.
        -24    2    1    2    0    0 -0.18191058484E+03 -0.57266655804E+03  0.28398819849E+03  0.66939354270E+03  0.79999815881E+02 0.  0.
        254    2    1    2    0    0  0.18191058484E+03  0.57266655804E+03  0.64150210531E+03  0.12562992105E+04  0.89762147232E+03 0.  0.
         23    2    4    4    0    0  0.39922406478E+03  0.26712081526E+03 -0.20487882825E+02  0.49006246528E+03  0.94910919764E+02 0.  0.
         23    2    4    4    0    0 -0.21731347993E+03  0.30554574279E+03  0.66198998813E+03  0.76623674521E+03  0.91129884357E+02 0.  0.
          3    1    3    3  502    0 -0.47125069434E+02 -0.16193706907E+03  0.12028792718E+03  0.20715591213E+03  0.00000000000E+00 0. -1.
         -4    1    3    3    0  502 -0.13478551541E+03 -0.41072948898E+03  0.16370027131E+03  0.46223763056E+03  0.00000000000E+00 0.  1.
         11    1    5    5    0    0  0.49582319644E+02  0.60500657667E+02 -0.30114079802E+02  0.83818815320E+02  0.00000000000E+00 0. -1.
        -11    1    5    5    0    0  0.34964174513E+03  0.20662015759E+03  0.96261969763E+01  0.40624364996E+03  0.00000000000E+00 0.  1.
          1    1    6    6  503    0 -0.23468032065E+02  0.48288965819E+02  0.44312361333E+02  0.69614352800E+02  0.00000000000E+00 0. -1.
         -1    1    6    6    0  503 -0.19384544787E+03  0.25725677697E+03  0.61767762680E+03  0.69662239241E+03  0.00000000000E+00 0.  1.
<mgrwt>
<rscale>  0 0.16887156E+04</rscale>
<asrwt>0</asrwt>
<pdfrwt beam="1">  1        1 0.21932177E+00 0.16887156E+04</pdfrwt>
<pdfrwt beam="2">  1       -2 0.76938651E-01 0.16887156E+04</pdfrwt>
<totfact> 0.92944352E+00</totfact>
</mgrwt>
</event>
<event>
12    4  0.4183215E-008  0.2845731E+04  0.7818608E-02  0.8289210E-01
          1   -1    0    0  501    0  0.00000000000E+00  0.00000000000E+00  0.33176518544E+04  0.33176518544E+04  0.00000000000E+00 0. -1.
         -2   -1    0    0    0  501 -0.00000000000E+00 -0.00000000000E+00 -0.61023489325E+03  0.61023489325E+03  0.00000000000E+00 0.  1.
        -24    2    1    2    0    0  0.35056979963E+03  0.12179743913E+04  0.10620764202E+04  0.16555924460E+04  0.81358603502E+02 0.  0.
        254    2    1    2    0    0 -0.35056979963E+03 -0.12179743913E+04  0.16453405410E+04  0.22722943017E+04  0.92185416176E+03 0.  0.
         23    2    4    4    0    0 -0.23548927874E+03 -0.13000309465E+04  0.16365860802E+04  0.21052148954E+04  0.89331380535E+02 0.  0.
         23    2    4    4    0    0 -0.11508052088E+03  0.82056555213E+02  0.87544607554E+01  0.16707940631E+03  0.88668387214E+02 0.  0.
          3    1    3    3  502    0  0.25612482537E+03  0.81842055828E+03  0.76008773579E+03  0.11459256095E+04  0.00000000000E+00 0. -1.
         -4    1    3    3    0  502  0.94444974253E+02  0.39955383305E+03  0.30198868444E+03  0.50966683647E+03  0.00000000000E+00 0.  1.
         11    1    5    5    0    0 -0.13009854666E+02 -0.10544268038E+03  0.17213396748E+03  0.20228078980E+03  0.00000000000E+00 0.  1.
        -11    1    5    5    0    0 -0.22247942408E+03 -0.11945882662E+04  0.14644521127E+04  0.19029341056E+04  0.00000000000E+00 0. -1.
          4    1    6    6  503    0 -0.10754169248E+03  0.99395422434E+02  0.14906748310E+02  0.14719672812E+03  0.00000000000E+00 0. -1.
         -4    1    6    6    0  503 -0.75388284000E+01 -0.17338867221E+02 -0.61522875547E+01  0.19882678198E+02  0.00000000000E+00 0.  1.
<mgrwt>
<rscale>  0 0.28457315E+04</rscale>
<asrwt>0</asrwt>
<pdfrwt beam="1">  1        1 0.51040797E+00 0.28457315E+04</pdfrwt>
<pdfrwt beam="2">  1       -2 0.93882293E-01 0.28457315E+04</pdfrwt>
<totfact> 0.25157769E-01</totfact>
</mgrwt>
</event>
<event>
12    4  0.4183215E-008  0.2303090E+04  0.7818608E-02  0.8476704E-01
         -2   -1    0    0    0  501 -0.00000000000E+00  0.00000000000E+00  0.10045890313E+04  0.10045890313E+04  0.00000000000E+00 0.  1.
          1   -1    0    0  501    0  0.00000000000E+00 -0.00000000000E+00 -0.13199989027E+04  0.13199989027E+04  0.00000000000E+00 0. -1.
        -24    2    1    2    0    0 -0.27141437196E+03  0.23537026516E+03 -0.10442769589E+04  0.11072265036E+04  0.79820050759E+02 0.  0.
        254    2    1    2    0    0  0.27141437196E+03 -0.23537026516E+03  0.72886708748E+03  0.12173614304E+04  0.90645281069E+03 0.  0.
         23    2    4    4    0    0  0.31113635231E+03 -0.51492650927E+03  0.25664034908E+03  0.65932967233E+03  0.83043412504E+02 0.  0.
         23    2    4    4    0    0 -0.39721980347E+02  0.27955624411E+03  0.47222673840E+03  0.55803175808E+03  0.93122613909E+02 0.  0.
          3    1    3    3  502    0 -0.27399664376E+03  0.22454339626E+03 -0.10293782340E+04  0.10886291592E+04  0.00000000000E+00 0. -1.
         -4    1    3    3    0  502  0.25822717972E+01  0.10826868894E+02 -0.14898724828E+02  0.18597344412E+02  0.00000000000E+00 0.  1.
         11    1    5    5    0    0  0.81898273732E+02 -0.21321601380E+03  0.94810068408E+02  0.24730011090E+03  0.00000000000E+00 0.  1.
        -11    1    5    5    0    0  0.22923807858E+03 -0.30171049547E+03  0.16183028067E+03  0.41202956142E+03  0.00000000000E+00 0. -1.
          4    1    6    6  503    0 -0.24050864228E+02  0.27793688187E+03  0.46042145653E+03  0.53834493776E+03  0.00000000000E+00 0. -1.
         -4    1    6    6    0  503 -0.15671116119E+02  0.16193622430E+01  0.11805281871E+02  0.19686820326E+02  0.00000000000E+00 0.  1.
<mgrwt>
<rscale>  0 0.23030905E+04</rscale>
<asrwt>0</asrwt>
<pdfrwt beam="1">  1        1 0.20307675E+00 0.23030905E+04</pdfrwt>
<pdfrwt beam="2">  1       -2 0.15455216E+00 0.23030905E+04</pdfrwt>
<totfact> 0.19204983E+00</totfact>
</mgrwt>
</event>
<event>
12    4  0.4183215E-008  0.2324407E+04  0.7818608E-02  0.8468359E-01
          1   -1    0    0  501    0  0.00000000000E+00  0.00000000000E+00  0.62838304180E+03  0.62838304180E+03  0.00000000000E+00 0. -1.
         -2   -1    0    0    0  501 -0.00000000000E+00 -0.00000000000E+00 -0.21495123035E+04  0.21495123035E+04  0.00000000000E+00 0.  1.
        -24    2    1    2    0    0  0.91027493318E+03  0.37674451837E+03 -0.69527184919E+03  0.12083131297E+04  0.77979413518E+02 0.  0.
        254    2    1    2    0    0 -0.91027493318E+03 -0.37674451837E+03 -0.82585741251E+03  0.15695822156E+04  0.90056148027E+03 0.  0.
         23    2    4    4    0    0 -0.10754884346E+04 -0.32776976793E+03 -0.77413298744E+03  0.13679612791E+04  0.89038110742E+02 0.  0.
         23    2    4    4    0    0  0.16521350144E+03 -0.48974750438E+02 -0.51724425069E+02  0.20162093651E+03  0.91003069469E+02 0.  0.
          1    1    3    3  502    0  0.96580263538E+02  0.38034030233E+02 -0.10429316937E+03  0.14714414680E+03  0.00000000000E+00 0. -1.
         -2    1    3    3    0  502  0.81369466964E+03  0.33871048814E+03 -0.59097867982E+03  0.10611689829E+04  0.00000000000E+00 0.  1.
         11    1    5    5    0    0 -0.37184050935E+03 -0.13883711944E+03 -0.31575365235E+03  0.50718978607E+03  0.00000000000E+00 0.  1.
        -11    1    5    5    0    0 -0.70364792527E+03 -0.18893264850E+03 -0.45837933509E+03  0.86077149305E+03  0.00000000000E+00 0. -1.
          2    1    6    6  503    0  0.13222263178E+03 -0.60519997139E+02 -0.70872989861E+02  0.16176673051E+03  0.00000000000E+00 0. -1.
         -2    1    6    6    0  503  0.32990869660E+02  0.11545246702E+02  0.19148564792E+02  0.39854206000E+02  0.00000000000E+00 0.  1.
<mgrwt>
<rscale>  0 0.23244071E+04</rscale>
<asrwt>0</asrwt>
<pdfrwt beam="1">  1        1 0.96674314E-01 0.23244071E+04</pdfrwt>
<pdfrwt beam="2">  1       -2 0.33069420E+00 0.23244071E+04</pdfrwt>
<totfact> 0.52047557E-01</totfact>
</mgrwt>
</event>
<event>
12    4  0.4183215E-008  0.1360184E+04  0.7818608E-02  0.8983155E-01
         -4   -1    0    0    0  501 -0.00000000000E+00  0.00000000000E+00  0.20277224795E+03  0.20277224795E+03  0.00000000000E+00 0.  1.
          3   -1    0    0  501    0  0.00000000000E+00 -0.00000000000E+00 -0.22810075883E+04  0.22810075883E+04  0.00000000000E+00 0. -1.
        -24    2    1    2    0    0  0.21978500662E+03 -0.41202275112E+02 -0.11428767402E+04  0.11672511607E+04  0.79403729034E+02 0.  0.
        254    2    1    2    0    0 -0.21978500662E+03  0.41202275112E+02 -0.93535860012E+03  0.13165286756E+04  0.89908229108E+03 0.  0.
         23    2    4    4    0    0  0.16740368371E+02  0.41775331901E+03 -0.65510026713E+03  0.78245746983E+03  0.91023385019E+02 0.  0.
         23    2    4    4    0    0 -0.23652537499E+03 -0.37655104390E+03 -0.28025833300E+03  0.53407120573E+03  0.94617006364E+02 0.  0.
          3    1    3    3  502    0  0.77160723978E+02 -0.50934130474E+02 -0.37912185517E+03  0.39023255123E+03  0.00000000000E+00 0. -1.
         -4    1    3    3    0  502  0.14262428264E+03  0.97318553617E+01 -0.76375488503E+03  0.77701860944E+03  0.00000000000E+00 0.  1.
         11    1    5    5    0    0 -0.33801593313E+02  0.10256010124E+03 -0.18522027583E+03  0.21440072913E+03  0.00000000000E+00 0.  1.
        -11    1    5    5    0    0  0.50541961684E+02  0.31519321778E+03 -0.46987999130E+03  0.56805674069E+03  0.00000000000E+00 0. -1.
          2    1    6    6  503    0 -0.17542132676E+03 -0.20878203854E+03 -0.20074536552E+03  0.33861672031E+03  0.00000000000E+00 0. -1.
         -2    1    6    6    0  503 -0.61104048235E+02 -0.16776900537E+03 -0.79512967478E+02  0.19545448542E+03  0.00000000000E+00 0.  1.
<mgrwt>
<rscale>  0 0.13601839E+04</rscale>
<asrwt>0</asrwt>
<pdfrwt beam="1">  1        3 0.35092424E+00 0.13601839E+04</pdfrwt>
<pdfrwt beam="2">  1       -4 0.31195730E-01 0.13601839E+04</pdfrwt>
<totfact> 0.46011741E-01</totfact>
</mgrwt>
</event>
<event>
12    4  0.4183215E-008  0.1691343E+04  0.7818608E-02  0.8766317E-01
          1   -1    0    0  501    0  0.00000000000E+00  0.00000000000E+00  0.18385438843E+04  0.18385438843E+04  0.00000000000E+00 0. -1.
         -2   -1    0    0    0  501 -0.00000000000E+00 -0.00000000000E+00 -0.38898193364E+03  0.38898193364E+03  0.00000000000E+00 0.  1.
        -24    2    1    2    0    0  0.82915232063E+02 -0.56603217184E+03  0.40945628662E+03  0.70776060753E+03  0.77480782444E+02 0.  0.
        254    2    1    2    0    0 -0.82915232063E+02  0.56603217184E+03  0.10401056641E+04  0.15197652104E+04  0.94899902379E+03 0.  0.
         23    2    4    4    0    0  0.81203106148E+02  0.68675165219E+03  0.10873616079E+04  0.12918531766E+04  0.91145967038E+02 0.  0.
         23    2    4    4    0    0 -0.16411833821E+03 -0.12071948034E+03 -0.47255943810E+02  0.22791203386E+03  0.90569029376E+02 0.  0.
          3    1    3    3  502    0  0.24296942333E+02 -0.38567552055E+03  0.29592229687E+03  0.48672985767E+03  0.00000000000E+00 0. -1.
         -4    1    3    3    0  502  0.58618289730E+02 -0.18035665129E+03  0.11353398974E+03  0.22103074986E+03  0.00000000000E+00 0.  1.
         11    1    5    5    0    0  0.79348417309E+02  0.59591575372E+03  0.99344232690E+03  0.11611801814E+04  0.00000000000E+00 0. -1.
        -11    1    5    5    0    0  0.18546888388E+01  0.90835898470E+02  0.93919280970E+02  0.13067299514E+03  0.00000000000E+00 0.  1.
          4    1    6    6  503    0 -0.21672841246E+02 -0.60344308958E+02 -0.34150389426E+02  0.72645693398E+02  0.00000000000E+00 0. -1.
         -4    1    6    6    0  503 -0.14244549696E+03 -0.60375171386E+02 -0.13105554384E+02  0.15526634046E+03  0.00000000000E+00 0.  1.
<mgrwt>
<rscale>  0 0.16913431E+04</rscale>
<asrwt>0</asrwt>
<pdfrwt beam="1">  1        1 0.28285290E+00 0.16913431E+04</pdfrwt>
<pdfrwt beam="2">  1       -2 0.59843375E-01 0.16913431E+04</pdfrwt>
<totfact> 0.83514523E+00</totfact>
</mgrwt>
</event>
<event>
12    4  0.4183215E-008  0.1979932E+04  0.7818608E-02  0.8616061E-01
         -4   -1    0    0    0  501 -0.00000000000E+00  0.00000000000E+00  0.17849581599E+04  0.17849581599E+04  0.00000000000E+00 0.  1.
          1   -1    0    0  501    0  0.00000000000E+00 -0.00000000000E+00 -0.54905055161E+03  0.54905055161E+03  0.00000000000E+00 0. -1.
        -24    2    1    2    0    0  0.58797237586E+03 -0.43779641648E+03  0.15763769081E+03  0.75370557984E+03  0.76454185300E+02 0.  0.
        254    2    1    2    0    0 -0.58797237586E+03  0.43779641648E+03  0.10782699175E+04  0.15803031317E+04  0.89292483222E+03 0.  0.
         23    2    4    4    0    0 -0.40559176438E+03  0.70360656971E+03  0.82590134736E+03  0.11619109902E+04  0.91417883270E+02 0.  0.
         23    2    4    4    0    0 -0.18238061148E+03 -0.26581015322E+03  0.25236857015E+03  0.41839214147E+03  0.86280726937E+02 0.  0.
          3    1    3    3  502    0  0.23145727415E+03 -0.18686878610E+03  0.27582336633E+02  0.29875273767E+03  0.00000000000E+00 0. -1.
         -4    1    3    3    0  502  0.35651510172E+03 -0.25092763039E+03  0.13005535418E+03  0.45495284217E+03  0.00000000000E+00 0.  1.
         11    1    5    5    0    0 -0.34157919179E+03  0.55285999623E+03  0.70139758203E+03  0.95618465150E+03  0.00000000000E+00 0.  1.
        -11    1    5    5    0    0 -0.64012572591E+02  0.15074657348E+03  0.12450376533E+03  0.20572633873E+03  0.00000000000E+00 0. -1.
          4    1    6    6  503    0 -0.62745433555E+02 -0.11236129990E+03  0.51153037179E+02  0.13848712706E+03  0.00000000000E+00 0.  1.
         -4    1    6    6    0  503 -0.11963517793E+03 -0.15344885332E+03  0.20121553297E+03  0.27990501441E+03  0.00000000000E+00 0. -1.
<mgrwt>
<rscale>  0 0.19799316E+04</rscale>
<asrwt>0</asrwt>
<pdfrwt beam="1">  1        1 0.84469317E-01 0.19799316E+04</pdfrwt>
<pdfrwt beam="2">  1       -4 0.27460894E+00 0.19799316E+04</pdfrwt>
<totfact> 0.76710632E-01</totfact>
</mgrwt>
</event>
<event>
12    4  0.4183215E-008  0.1580238E+04  0.7818608E-02  0.8832782E-01
         -2   -1    0    0    0  501 -0.00000000000E+00  0.00000000000E+00  0.30132504069E+03  0.30132504069E+03  0.00000000000E+00 0.  1.
          1   -1    0    0  501    0  0.00000000000E+00 -0.00000000000E+00 -0.20718082472E+04  0.20718082472E+04  0.00000000000E+00 0. -1.
        -24    2    1    2    0    0 -0.67610949386E+02 -0.47322852367E+03 -0.95361493176E+03  0.10698883593E+04  0.82238599237E+02 0.  0.
        254    2    1    2    0    0  0.67610949386E+02  0.47322852367E+03 -0.81686827473E+03  0.13032449286E+04  0.89591131788E+03 0.  0.
         23    2    4    4    0    0  0.17963649444E+03 -0.21141270189E+03 -0.37779853660E+03  0.47710988677E+03  0.89092699733E+02 0.  0.
         23    2    4    4    0    0 -0.11202554506E+03  0.68464122555E+03 -0.43906973814E+03  0.82613504180E+03  0.91834317516E+02 0.  0.
          3    1    3    3  502    0 -0.23565364037E+02 -0.10334044544E+03 -0.29164626750E+03  0.31030971527E+03  0.00000000000E+00 0. -1.
         -4    1    3    3    0  502 -0.44045585349E+02 -0.36988807822E+03 -0.66196866426E+03  0.75957864402E+03  0.00000000000E+00 0.  1.
         11    1    5    5    0    0  0.17481679693E+03 -0.15468996677E+03 -0.31880593171E+03  0.39512924519E+03  0.00000000000E+00 0. -1.
        -11    1    5    5    0    0  0.48196975091E+01 -0.56722735116E+02 -0.58992604889E+02  0.81980641586E+02  0.00000000000E+00 0.  1.
          2    1    6    6  503    0 -0.72403932205E+02  0.32537746865E+03 -0.26012821586E+03  0.42282326708E+03  0.00000000000E+00 0. -1.
         -2    1    6    6    0  503 -0.39621612850E+02  0.35926375691E+03 -0.17894152228E+03  0.40331177472E+03  0.00000000000E+00 0.  1.
<mgrwt>
<rscale>  0 0.15802376E+04</rscale>
<asrwt>0</asrwt>
<pdfrwt beam="1">  1        1 0.31873972E+00 0.15802376E+04</pdfrwt>
<pdfrwt beam="2">  1       -2 0.46357700E-01 0.15802376E+04</pdfrwt>
<totfact> 0.99212352E+00</totfact>
</mgrwt>
</event>
<event>
12    4  0.4183215E-008  0.1861818E+04  0.7818608E-02  0.8674099E-01
         -2   -1    0    0    0  501 -0.00000000000E+00  0.00000000000E+00  0.46662975964E+03  0.46662975964E+03  0.00000000000E+00 0.  1.
          1   -1    0    0  501    0  0.00000000000E+00 -0.00000000000E+00 -0.18571281927E+04  0.18571281927E+04  0.00000000000E+00 0. -1.
        -24    2    1    2    0    0  0.66475779883E+03  0.41922675071E+02 -0.22119987542E+03  0.70642571977E+03  0.80296144858E+02 0.  0.
        254    2    1    2    0    0 -0.66475779883E+03 -0.41922675071E+02 -0.11692985577E+04  0.16173322326E+04  0.89713097808E+03 0.  0.
         23    2    4    4    0    0  0.45808842289E+02 -0.15295342747E+03  0.57621173936E+02  0.19213669209E+03  0.90017263652E+02 0.  0.
         23    2    4    4    0    0 -0.71056664112E+03  0.11103075240E+03 -0.12269197316E+04  0.14251955405E+04  0.92830605990E+02 0.  0.
          1    1    3    3  502    0  0.28735267205E+03  0.82011382312E+01 -0.13618833125E+03  0.31809759252E+03  0.00000000000E+00 0. -1.
         -2    1    3    3    0  502  0.37740512679E+03  0.33721536840E+02 -0.85011544165E+02  0.38832812725E+03  0.00000000000E+00 0.  1.
         11    1    5    5    0    0  0.47153072814E+02 -0.13026374522E+03  0.80219431131E+02  0.16008501718E+03  0.00000000000E+00 0.  1.
        -11    1    5    5    0    0 -0.13442305251E+01 -0.22689682252E+02 -0.22598257196E+02  0.32051674912E+02  0.00000000000E+00 0. -1.
          3    1    6    6  503    0 -0.41412894003E+03  0.27132529829E+02 -0.65061771171E+03  0.77171391068E+03  0.00000000000E+00 0. -1.
         -3    1    6    6    0  503 -0.29643770109E+03  0.83898222575E+02 -0.57630201988E+03  0.65348162981E+03  0.00000000000E+00 0.  1.
<mgrwt>
<rscale>  0 0.18618177E+04</rscale>
<asrwt>0</asrwt>
<pdfrwt beam="1">  1        1 0.28571203E+00 0.18618177E+04</pdfrwt>
<pdfrwt beam="2">  1       -2 0.71789193E-01 0.18618177E+04</pdfrwt>
<totfact> 0.54003337E+00</totfact>
</mgrwt>
</event>
<event>
12    4  0.4183215E-008  0.2076248E+04  0.7818608E-02  0.8571779E-01
          1   -1    0    0  501    0  0.00000000000E+00  0.00000000000E+00  0.18311630118E+04  0.18311630118E+04  0.00000000000E+00 0. -1.
         -2   -1    0    0    0  501 -0.00000000000E+00 -0.00000000000E+00 -0.58853391515E+03  0.58853391515E+03  0.00000000000E+00 0.  1.
        -24    2    1    2    0    0 -0.15576953006E+02  0.36259115863E+03  0.13950176572E+04  0.14437623351E+04  0.81611436540E+02 0.  0.
        254    2    1    2    0    0  0.15576953006E+02 -0.36259115863E+03 -0.15238856059E+03  0.97593459182E+03  0.89303474979E+03 0.  0.
         23    2    4    4    0    0 -0.82166655297E+02  0.14747125177E+03 -0.36091393484E+03  0.40892897305E+03  0.92004930863E+02 0.  0.
         23    2    4    4    0    0  0.97743608303E+02 -0.51006241040E+03  0.20852537425E+03  0.56700561877E+03  0.91077244919E+02 0.  0.
          1    1    3    3  502    0 -0.40139093837E+02  0.32237507157E+03  0.12191166500E+04  0.12616585275E+04  0.00000000000E+00 0. -1.
         -2    1    3    3    0  502  0.24562140832E+02  0.40216087063E+02  0.17590100725E+03  0.18210380768E+03  0.00000000000E+00 0.  1.
         11    1    5    5    0    0 -0.10229941062E+03  0.11377877576E+03 -0.28601675605E+03  0.32437071996E+03  0.00000000000E+00 0.  1.
        -11    1    5    5    0    0  0.20132755318E+02  0.33692476006E+02 -0.74897178786E+02  0.84558253093E+02  0.00000000000E+00 0. -1.
          1    1    6    6  503    0 -0.29715141723E+00 -0.11737137747E+03  0.14843941433E+02  0.11830668259E+03  0.00000000000E+00 0. -1.
         -1    1    6    6    0  503  0.98040759720E+02 -0.39269103293E+03  0.19368143282E+03  0.44869893618E+03  0.00000000000E+00 0.  1.
<mgrwt>
<rscale>  0 0.20762481E+04</rscale>
<asrwt>0</asrwt>
<pdfrwt beam="1">  1        1 0.28171738E+00 0.20762481E+04</pdfrwt>
<pdfrwt beam="2">  1       -2 0.90543680E-01 0.20762481E+04</pdfrwt>
<totfact> 0.32724790E+00</totfact>
</mgrwt>
</event>
<event>
12    4  0.4183215E-008  0.1526836E+04  0.7818608E-02  0.8866801E-01
         -2   -1    0    0    0  501 -0.00000000000E+00  0.00000000000E+00  0.37370374915E+03  0.37370374915E+03  0.00000000000E+00 0.  1.
          1   -1    0    0  501    0  0.00000000000E+00 -0.00000000000E+00 -0.15595429389E+04  0.15595429389E+04  0.00000000000E+00 0. -1.
        -24    2    1    2    0    0  0.36081386581E+03  0.82662535208E+02  0.23185602672E+02  0.37979239440E+03  0.81761544633E+02 0.  0.
        254    2    1    2    0    0 -0.36081386581E+03 -0.82662535208E+02 -0.12090247925E+04  0.15534542937E+04  0.90247412889E+03 0.  0.
         23    2    4    4    0    0 -0.20949798829E+03  0.23797413085E+03 -0.11341756217E+04  0.11813612383E+04  0.93482300326E+02 0.  0.
         23    2    4    4    0    0 -0.15131587752E+03 -0.32063666606E+03 -0.74849170793E+02  0.37209305541E+03  0.84536838761E+02 0.  0.
          1    1    3    3  502    0  0.10411668946E+03  0.18825135652E+01 -0.23276486829E+02  0.10670343818E+03  0.00000000000E+00 0. -1.
         -2    1    3    3    0  502  0.25669717635E+03  0.80780021643E+02  0.46462089501E+02  0.27308895621E+03  0.00000000000E+00 0.  1.
         11    1    5    5    0    0 -0.26801985669E+02  0.11994701737E+02 -0.22414321769E+03  0.22605840250E+03  0.00000000000E+00 0. -1.
        -11    1    5    5    0    0 -0.18269600262E+03  0.22597942911E+03 -0.91003240397E+03  0.95530283577E+03  0.00000000000E+00 0.  1.
          1    1    6    6  503    0 -0.16850644230E+01  0.46806167505E+01 -0.53982360436E+01  0.73408833022E+01  0.00000000000E+00 0. -1.
         -1    1    6    6    0  503 -0.14963081310E+03 -0.32531728281E+03 -0.69450934749E+02  0.36475217211E+03  0.00000000000E+00 0.  1.
<mgrwt>
<rscale>  0 0.15268360E+04</rscale>
<asrwt>0</asrwt>
<pdfrwt beam="1">  1        1 0.23992968E+00 0.15268360E+04</pdfrwt>
<pdfrwt beam="2">  1       -2 0.57492886E-01 0.15268360E+04</pdfrwt>
<totfact> 0.14281284E+01</totfact>
</mgrwt>
</event>
<event>
12    4  0.4183215E-008  0.2722166E+04  0.7818608E-02  0.8327849E-01
          1   -1    0    0  501    0  0.00000000000E+00  0.00000000000E+00  0.12356747572E+04  0.12356747572E+04  0.00000000000E+00 0. -1.
         -2   -1    0    0    0  501 -0.00000000000E+00 -0.00000000000E+00 -0.14992184917E+04  0.14992184917E+04  0.00000000000E+00 0.  1.
        -24    2    1    2    0    0  0.97176468859E+03  0.71359483706E+03 -0.78412172806E+01  0.12082783372E+04  0.79566663447E+02 0.  0.
        254    2    1    2    0    0 -0.97176468859E+03 -0.71359483706E+03 -0.25570251723E+03  0.15266149117E+04  0.90090238649E+03 0.  0.
         23    2    4    4    0    0 -0.46011263055E+03 -0.54844749834E+03 -0.54910809829E+03  0.90631439817E+03  0.85952274508E+02 0.  0.
         23    2    4    4    0    0 -0.51165205804E+03 -0.16514733872E+03  0.29340558107E+03  0.62030051358E+03  0.98104129186E+02 0.  0.
          1    1    3    3  502    0  0.50988845892E+03  0.40113040542E+03 -0.37539137245E+02  0.64984692776E+03  0.00000000000E+00 0. -1.
         -2    1    3    3    0  502  0.46187622967E+03  0.31246443164E+03  0.29697919964E+02  0.55843140941E+03  0.00000000000E+00 0.  1.
         11    1    5    5    0    0 -0.14158970234E+03 -0.16942766822E+03 -0.12090016671E+03  0.25173444118E+03  0.00000000000E+00 0.  1.
        -11    1    5    5    0    0 -0.31852292821E+03 -0.37901983012E+03 -0.42820793158E+03  0.65457995699E+03  0.00000000000E+00 0. -1.
          1    1    6    6  503    0 -0.49961468718E+03 -0.14356577262E+03  0.26796696706E+03  0.58483524359E+03  0.00000000000E+00 0. -1.
         -1    1    6    6    0  503 -0.12037370859E+02 -0.21581566102E+02  0.25438614004E+02  0.35465269985E+02  0.00000000000E+00 0.  1.
<mgrwt>
<rscale>  0 0.27221656E+04</rscale>
<asrwt>0</asrwt>
<pdfrwt beam="1">  1        1 0.19010381E+00 0.27221656E+04</pdfrwt>
<pdfrwt beam="2">  1       -2 0.23064900E+00 0.27221656E+04</pdfrwt>
<totfact> 0.65205064E-01</totfact>
</mgrwt>
</event>
<event>
12    4  0.4183215E-008  0.1762892E+04  0.7818608E-02  0.8726286E-01
          1   -1    0    0  501    0  0.00000000000E+00  0.00000000000E+00  0.24125583358E+03  0.24125583358E+03  0.00000000000E+00 0. -1.
         -2   -1    0    0    0  501 -0.00000000000E+00 -0.00000000000E+00 -0.32204274764E+04  0.32204274764E+04  0.00000000000E+00 0.  1.
        -24    2    1    2    0    0  0.27340346374E+03  0.40304420809E+02  0.43853315207E+02  0.29105315668E+03  0.80093235902E+02 0.  0.
        254    2    1    2    0    0 -0.27340346374E+03 -0.40304420809E+02 -0.30230249580E+04  0.31706301533E+04  0.91533697175E+03 0.  0.
         23    2    4    4    0    0  0.20137657768E+03 -0.21715260853E+03 -0.44773647679E+03  0.54449262292E+03  0.91085028060E+02 0.  0.
         23    2    4    4    0    0 -0.47478004141E+03  0.17684818772E+03 -0.25752884812E+04  0.26261375304E+04  0.88296079617E+02 0.  0.
          3    1    3    3  502    0  0.22589643450E+03  0.70010155836E+01  0.53470152204E+02  0.23224398920E+03  0.00000000000E+00 0. -1.
         -4    1    3    3    0  502  0.47507029235E+02  0.33303405226E+02 -0.96168369965E+01  0.58809167484E+02  0.00000000000E+00 0.  1.
         11    1    5    5    0    0  0.59231906889E+02 -0.12291930795E+03 -0.23611475529E+03  0.27270451541E+03  0.00000000000E+00 0.  1.
        -11    1    5    5    0    0  0.14214467079E+03 -0.94233300579E+02 -0.21162172150E+03  0.27178810751E+03  0.00000000000E+00 0. -1.
          4    1    6    6  503    0 -0.31049230467E+03  0.74904760542E+02 -0.17006600588E+04  0.17303932588E+04  0.00000000000E+00 0. -1.
         -4    1    6    6    0  503 -0.16428773674E+03  0.10194342718E+03 -0.87462842245E+03  0.89574427163E+03  0.00000000000E+00 0.  1.
<mgrwt>
<rscale>  0 0.17628918E+04</rscale>
<asrwt>0</asrwt>
<pdfrwt beam="1">  1        1 0.37116285E-01 0.17628918E+04</pdfrwt>
<pdfrwt beam="2">  1       -2 0.49545035E+00 0.17628918E+04</pdfrwt>
<totfact> 0.16946635E-01</totfact>
</mgrwt>
</event>
<event>
12    4  0.4183215E-008  0.1640568E+04  0.7818608E-02  0.8796006E-01
         -4   -1    0    0    0  501 -0.00000000000E+00  0.00000000000E+00  0.72443658131E+03  0.72443658131E+03  0.00000000000E+00 0.  1.
          3   -1    0    0  501    0  0.00000000000E+00 -0.00000000000E+00 -0.92881267561E+03  0.92881267561E+03  0.00000000000E+00 0. -1.
        -24    2    1    2    0    0 -0.46003741007E+03 -0.21800380992E+02  0.26440518917E+03  0.53687247074E+03  0.78817957942E+02 0.  0.
        254    2    1    2    0    0  0.46003741007E+03  0.21800380992E+02 -0.46878128347E+03  0.11163767862E+04  0.90245862050E+03 0.  0.
         23    2    4    4    0    0 -0.57012282384E+02  0.15057753639E+03  0.18997314113E+03  0.26411008446E+03  0.87979245016E+02 0.  0.
         23    2    4    4    0    0  0.51704969246E+03 -0.12877715540E+03 -0.65875442460E+03  0.85226670172E+03  0.92071704161E+02 0.  0.
          1    1    3    3  502    0 -0.16606148882E+03  0.22101935092E+01  0.13817842438E+03  0.21604300495E+03  0.00000000000E+00 0. -1.
         -2    1    3    3    0  502 -0.29397592125E+03 -0.24010574502E+02  0.12622676479E+03  0.32082946578E+03  0.00000000000E+00 0.  1.
         11    1    5    5    0    0  0.91704523332E+01 -0.21240550893E+01 -0.24231457984E+01  0.97201050189E+01  0.00000000000E+00 0.  1.
        -11    1    5    5    0    0 -0.66182734717E+02  0.15270159148E+03  0.19239628693E+03  0.25438997944E+03  0.00000000000E+00 0. -1.
          3    1    6    6  503    0  0.27508005005E+03 -0.11537507460E+03 -0.37180161488E+03  0.47667272064E+03  0.00000000000E+00 0. -1.
         -3    1    6    6    0  503  0.24196964241E+03 -0.13402080793E+02 -0.28695280972E+03  0.37559398108E+03  0.00000000000E+00 0.  1.
<mgrwt>
<rscale>  0 0.16405680E+04</rscale>
<asrwt>0</asrwt>
<pdfrwt beam="1">  1        3 0.14289426E+00 0.16405680E+04</pdfrwt>
<pdfrwt beam="2">  1       -4 0.11145178E+00 0.16405680E+04</pdfrwt>
<totfact> 0.50970822E-01</totfact>
</mgrwt>
</event>
<event>
12    4  0.4802557E-008  0.1512926E+04  0.7818608E-02  0.8875902E-01
          1   -1    0    0  501    0  0.00000000000E+00  0.00000000000E+00  0.95748069991E+03  0.95748069991E+03  0.00000000000E+00 0. -1.
         -2   -1    0    0    0  501 -0.00000000000E+00 -0.00000000000E+00 -0.59764784841E+03  0.59764784841E+03  0.00000000000E+00 0.  1.
        -24    2    1    2    0    0 -0.40868247089E+02  0.60342165672E+02  0.60035149288E+03  0.60863519851E+03  0.68582062401E+02 0.  0.
        254    2    1    2    0    0  0.40868247089E+02 -0.60342165672E+02 -0.24051864139E+03  0.94649334981E+03  0.91251797451E+03 0.  0.
         23    2    4    4    0    0  0.36626551141E+03 -0.29626662261E+03 -0.23510802151E+03  0.53457090835E+03  0.92552351440E+02 0.  0.
         23    2    4    4    0    0 -0.32539726432E+03  0.23592445694E+03 -0.54106198806E+01  0.41192244146E+03  0.90039402255E+02 0.  0.
          1    1    3    3  502    0 -0.43756941731E+02  0.59091799982E+02  0.60094959099E+03  0.60543118659E+03  0.00000000000E+00 0. -1.
         -2    1    3    3    0  502  0.28886946413E+01  0.12503656899E+01 -0.59809810918E+00  0.32040119284E+01  0.00000000000E+00 0.  1.
         11    1    5    5    0    0  0.37060898873E+03 -0.29656543256E+03 -0.22885206430E+03  0.52694909209E+03  0.00000000000E+00 0.  1.
        -11    1    5    5    0    0 -0.43434773203E+01  0.29880994809E+00 -0.62559572036E+01  0.76218162632E+01  0.00000000000E+00 0. -1.
          1    1    6    6  503    0 -0.13240467917E+03  0.69397531735E+02 -0.39825440840E+02  0.15470320686E+03  0.00000000000E+00 0. -1.
         -1    1    6    6    0  503 -0.19299258516E+03  0.16652692520E+03  0.34414820959E+02  0.25721923459E+03  0.00000000000E+00 0.  1.
<mgrwt>
<rscale>  0 0.15129260E+04</rscale>
<asrwt>0</asrwt>
<pdfrwt beam="1">  1        1 0.14730472E+00 0.15129260E+04</pdfrwt>
<pdfrwt beam="2">  1       -2 0.91945823E-01 0.15129260E+04</pdfrwt>
<totfact> 0.13927737E+01</totfact>
</mgrwt>
</event>
<event>
12    4  0.4183215E-008  0.1313921E+04  0.7818608E-02  0.9018598E-01
         -2   -1    0    0    0  501 -0.00000000000E+00  0.00000000000E+00  0.18736076650E+03  0.18736076650E+03  0.00000000000E+00 0.  1.
          1   -1    0    0  501    0  0.00000000000E+00 -0.00000000000E+00 -0.23035618140E+04  0.23035618140E+04  0.00000000000E+00 0. -1.
        -24    2    1    2    0    0  0.84299931546E+02 -0.61066052211E+02  0.52731500009E+02  0.13955644155E+03  0.76549644630E+02 0.  0.
        254    2    1    2    0    0 -0.84299931546E+02  0.61066052211E+02 -0.21689325475E+04  0.23513661389E+04  0.90211905122E+03 0.  0.
         23    2    4    4    0    0  0.21740452217E+03  0.33633796631E+03 -0.15537539967E+04  0.16074394863E+04  0.96551881807E+02 0.  0.
         23    2    4    4    0    0 -0.30170445371E+03 -0.27527191410E+03 -0.61517855079E+03  0.74392665268E+03  0.90454469894E+02 0.  0.
          1    1    3    3  502    0  0.33743698171E+02  0.10109524858E+02 -0.39809308056E+01  0.35449787999E+02  0.00000000000E+00 0. -1.
         -2    1    3    3    0  502  0.50556233375E+02 -0.71175577069E+02  0.56712430815E+02  0.10410665355E+03  0.00000000000E+00 0.  1.
         11    1    5    5    0    0  0.12943105061E+03  0.14445329312E+03 -0.89159483821E+03  0.91244753617E+03  0.00000000000E+00 0. -1.
        -11    1    5    5    0    0  0.87973471560E+02  0.19188467320E+03 -0.66215915850E+03  0.69499195009E+03  0.00000000000E+00 0.  1.
          3    1    6    6  503    0 -0.21086791717E+03 -0.13700443425E+03 -0.40045383781E+03  0.47286231581E+03  0.00000000000E+00 0. -1.
         -3    1    6    6    0  503 -0.90836536541E+02 -0.13826747985E+03 -0.21472471298E+03  0.27106433686E+03  0.00000000000E+00 0.  1.
<mgrwt>
<rscale>  0 0.13139210E+04</rscale>
<asrwt>0</asrwt>
<pdfrwt beam="1">  1        1 0.35439412E+00 0.13139210E+04</pdfrwt>
<pdfrwt beam="2">  1       -2 0.28824733E-01 0.13139210E+04</pdfrwt>
<totfact> 0.17669871E+01</totfact>
</mgrwt>
</event>
<event>
12    4  0.4183215E-008  0.1445896E+04  0.7818608E-02  0.8921250E-01
         -2   -1    0    0    0  501 -0.00000000000E+00  0.00000000000E+00  0.86256331289E+03  0.86256331289E+03  0.00000000000E+00 0.  1.
          1   -1    0    0  501    0  0.00000000000E+00 -0.00000000000E+00 -0.60593118046E+03  0.60593118046E+03  0.00000000000E+00 0. -1.
        -24    2    1    2    0    0  0.19324533347E+02  0.37242600297E+02 -0.36155970674E+03  0.37227060587E+03  0.78099510808E+02 0.  0.
        254    2    1    2    0    0 -0.19324533347E+02 -0.37242600297E+02  0.61819183916E+03  0.10962238875E+04  0.90431477519E+03 0.  0.
         23    2    4    4    0    0  0.35410820534E+03  0.17128808317E+03  0.95911228356E+02  0.41504627084E+03  0.91280965630E+02 0.  0.
         23    2    4    4    0    0 -0.37343273868E+03 -0.20853068347E+03  0.52228061081E+03  0.68117761665E+03  0.91043136662E+02 0.  0.
          1    1    3    3  502    0  0.12074779063E+02  0.56066229604E+02 -0.32905521232E+03  0.33401580074E+03  0.00000000000E+00 0. -1.
         -2    1    3    3    0  502  0.72497542842E+01 -0.18823629308E+02 -0.32504494419E+02  0.38254805122E+02  0.00000000000E+00 0.  1.
         11    1    5    5    0    0  0.21626224452E+03  0.10586280137E+03  0.12395999470E+02  0.24110153861E+03  0.00000000000E+00 0.  1.
        -11    1    5    5    0    0  0.13784596082E+03  0.65425281803E+02  0.83515228885E+02  0.17394473223E+03  0.00000000000E+00 0. -1.
          1    1    6    6  503    0 -0.19481294100E+03 -0.61032961472E+02  0.21667782171E+03  0.29770183537E+03  0.00000000000E+00 0. -1.
         -1    1    6    6    0  503 -0.17861979769E+03 -0.14749772200E+03  0.30560278910E+03  0.38347578128E+03  0.00000000000E+00 0.  1.
<mgrwt>
<rscale>  0 0.14458963E+04</rscale>
<asrwt>0</asrwt>
<pdfrwt beam="1">  1        1 0.93220181E-01 0.14458963E+04</pdfrwt>
<pdfrwt beam="2">  1       -2 0.13270205E+00 0.14458963E+04</pdfrwt>
<totfact> 0.11826965E+01</totfact>
</mgrwt>
</event>
<event>
12    4  0.4183215E-008  0.2717599E+04  0.7818608E-02  0.8329317E-01
         -2   -1    0    0    0  501 -0.00000000000E+00  0.00000000000E+00  0.13627078643E+04  0.13627078643E+04  0.00000000000E+00 0.  1.
          1   -1    0    0  501    0  0.00000000000E+00 -0.00000000000E+00 -0.13549026060E+04  0.13549026060E+04  0.00000000000E+00 0. -1.
        -24    2    1    2    0    0 -0.30525507857E+03 -0.10235568194E+04  0.57269094454E+03  0.12145076890E+04  0.78770446338E+02 0.  0.
        254    2    1    2    0    0  0.30525507857E+03  0.10235568194E+04 -0.56488568618E+03  0.15031027813E+04  0.89407656669E+03 0.  0.
         23    2    4    4    0    0  0.56604342543E+03  0.79765900087E+03 -0.21958296188E+03  0.10064165129E+04  0.89400665865E+02 0.  0.
         23    2    4    4    0    0 -0.26078834686E+03  0.22589781853E+03 -0.34530272430E+03  0.49668626843E+03  0.91776312612E+02 0.  0.
          1    1    3    3  502    0 -0.14666707582E+02 -0.89721587773E+02  0.70884399816E+02  0.11528084733E+03  0.00000000000E+00 0. -1.
         -2    1    3    3    0  502 -0.29058837099E+03 -0.93383523163E+03  0.50180654472E+03  0.10992268417E+04  0.00000000000E+00 0.  1.
         11    1    5    5    0    0  0.39020838344E+01  0.16997236344E+00  0.38236982766E+01  0.54658775476E+01  0.00000000000E+00 0.  1.
        -11    1    5    5    0    0  0.56214134160E+03  0.79748902851E+03 -0.22340666016E+03  0.10009506353E+04  0.00000000000E+00 0. -1.
          3    1    6    6  503    0 -0.25654943749E+03  0.18596379603E+03 -0.30695992427E+03  0.44116271648E+03  0.00000000000E+00 0. -1.
         -3    1    6    6    0  503 -0.42389093777E+01  0.39934022507E+02 -0.38342800032E+02  0.55523551945E+02  0.00000000000E+00 0.  1.
<mgrwt>
<rscale>  0 0.27175993E+04</rscale>
<asrwt>0</asrwt>
<pdfrwt beam="1">  1        1 0.20844656E+00 0.27175993E+04</pdfrwt>
<pdfrwt beam="2">  1       -2 0.20964736E+00 0.27175993E+04</pdfrwt>
<totfact> 0.72836440E-01</totfact>
</mgrwt>
</event>
<event>
12    4  0.4183215E-008  0.1244066E+04  0.7818608E-02  0.9075137E-01
          1   -1    0    0  501    0  0.00000000000E+00  0.00000000000E+00  0.18220462069E+04  0.18220462069E+04  0.00000000000E+00 0. -1.
         -2   -1    0    0    0  501 -0.00000000000E+00 -0.00000000000E+00 -0.21235736591E+03  0.21235736591E+03  0.00000000000E+00 0.  1.
        -24    2    1    2    0    0  0.11531025442E+02 -0.86828095296E+01  0.10775253658E+04  0.10805805911E+04  0.79907097382E+02 0.  0.
        254    2    1    2    0    0 -0.11531025442E+02  0.86828095296E+01  0.53216347518E+03  0.95382298170E+03  0.79143664331E+03 0.  0.
         23    2    4    4    0    0 -0.14129666069E+03 -0.16354334203E+03 -0.11816415376E+03  0.26246771110E+03  0.90638629144E+02 0.  0.
         23    2    4    4    0    0  0.12976563525E+03  0.17222615156E+03  0.65032762894E+03  0.69135527059E+03  0.92439806578E+02 0.  0.
          3    1    3    3  502    0  0.71668761702E+01 -0.34020523645E+02  0.94179680956E+03  0.94243832193E+03  0.00000000000E+00 0. -1.
         -4    1    3    3    0  502  0.43641492715E+01  0.25337714115E+02  0.13572855624E+03  0.13814226918E+03  0.00000000000E+00 0.  1.
         11    1    5    5    0    0  0.12075851535E+02 -0.22491601633E+02 -0.79153578491E+01  0.26727349741E+02  0.00000000000E+00 0.  1.
        -11    1    5    5    0    0 -0.15337251223E+03 -0.14105174040E+03 -0.11024879591E+03  0.23574036136E+03  0.00000000000E+00 0. -1.
          2    1    6    6  503    0  0.13432102417E+03  0.11413253749E+03  0.49666478033E+03  0.52701449474E+03  0.00000000000E+00 0. -1.
         -2    1    6    6    0  503 -0.45553889206E+01  0.58093614074E+02  0.15366284861E+03  0.16434077585E+03  0.00000000000E+00 0.  1.
<mgrwt>
<rscale>  0 0.12440658E+04</rscale>
<asrwt>0</asrwt>
<pdfrwt beam="1">  1        1 0.28031479E+00 0.12440658E+04</pdfrwt>
<pdfrwt beam="2">  1       -2 0.32670365E-01 0.12440658E+04</pdfrwt>
<totfact> 0.29793026E+01</totfact>
</mgrwt>
</event>
<event>
12    4  0.4183215E-008  0.1388453E+04  0.7818608E-02  0.8962219E-01
         -2   -1    0    0    0  501 -0.00000000000E+00  0.00000000000E+00  0.34403899183E+03  0.34403899183E+03  0.00000000000E+00 0.  1.
          1   -1    0    0  501    0  0.00000000000E+00 -0.00000000000E+00 -0.14008605744E+04  0.14008605744E+04  0.00000000000E+00 0. -1.
        -24    2    1    2    0    0 -0.39343795051E+03  0.47697316770E+02 -0.40017257237E+03  0.56880809550E+03  0.79599666446E+02 0.  0.
        254    2    1    2    0    0  0.39343795051E+03 -0.47697316770E+02 -0.65664901024E+03  0.11760914708E+04  0.89159114512E+03 0.  0.
         23    2    4    4    0    0 -0.68064149631E+02  0.29343985505E+03 -0.20386724007E+02  0.31449778038E+03  0.88054292044E+02 0.  0.
         23    2    4    4    0    0  0.46150210014E+03 -0.34113717182E+03 -0.63626228624E+03  0.86159369040E+03  0.90306323246E+02 0.  0.
          3    1    3    3  502    0 -0.26925471113E+03  0.23816938327E+02 -0.32082812596E+03  0.41951881058E+03  0.00000000000E+00 0. -1.
         -4    1    3    3    0  502 -0.12418323938E+03  0.23880378442E+02 -0.79344446410E+02  0.14928928493E+03  0.00000000000E+00 0.  1.
         11    1    5    5    0    0  0.17304120509E+01  0.39670721992E+02 -0.32077345946E+02  0.51046220548E+02  0.00000000000E+00 0. -1.
        -11    1    5    5    0    0 -0.69794561682E+02  0.25376913306E+03  0.11690621939E+02  0.26345155983E+03  0.00000000000E+00 0.  1.
          4    1    6    6  503    0  0.35081762598E+02 -0.59160406116E+02 -0.60207799492E+02  0.91409314834E+02  0.00000000000E+00 0. -1.
         -4    1    6    6    0  503  0.42642033755E+03 -0.28197676571E+03 -0.57605448674E+03  0.77018437557E+03  0.00000000000E+00 0.  1.
<mgrwt>
<rscale>  0 0.13884533E+04</rscale>
<asrwt>0</asrwt>
<pdfrwt beam="1">  1        1 0.21551701E+00 0.13884533E+04</pdfrwt>
<pdfrwt beam="2">  1       -2 0.52929076E-01 0.13884533E+04</pdfrwt>
<totfact> 0.22113852E+01</totfact>
</mgrwt>
</event>
<event>
12    4  0.4183215E-008  0.1361561E+04  0.7818608E-02  0.8982122E-01
          1   -1    0    0  501    0  0.00000000000E+00  0.00000000000E+00  0.20158737570E+04  0.20158737570E+04  0.00000000000E+00 0. -1.
         -2   -1    0    0    0  501 -0.00000000000E+00 -0.00000000000E+00 -0.22990641044E+03  0.22990641044E+03  0.00000000000E+00 0.  1.
        -24    2    1    2    0    0  0.51987806666E+02 -0.15516645502E+03  0.10599132169E+04  0.10755080452E+04  0.80759934533E+02 0.  0.
        254    2    1    2    0    0 -0.51987806666E+02  0.15516645502E+03  0.72605412963E+03  0.11702721223E+04  0.90310734698E+03 0.  0.
         23    2    4    4    0    0  0.19898991674E+03  0.14109195503E+03  0.84058199037E+03  0.87970312458E+03  0.88292571207E+02 0.  0.
         23    2    4    4    0    0 -0.25097772341E+03  0.14074499981E+02 -0.11452786074E+03  0.29056899767E+03  0.90143232273E+02 0.  0.
          1    1    3    3  502    0  0.22515420025E+02 -0.90698330237E+02  0.82097858408E+03  0.82628019870E+03  0.00000000000E+00 0. -1.
         -2    1    3    3    0  502  0.29472386641E+02 -0.64468124779E+02  0.23893463284E+03  0.24922784647E+03  0.00000000000E+00 0.  1.
         11    1    5    5    0    0  0.62107864256E+02  0.18849334414E+02  0.12358674016E+03  0.13959357633E+03  0.00000000000E+00 0. -1.
        -11    1    5    5    0    0  0.13688205248E+03  0.12224262062E+03  0.71699525021E+03  0.74010954825E+03  0.00000000000E+00 0.  1.
          2    1    6    6  503    0 -0.37037059003E+02  0.11064483070E+02  0.13835409214E+02  0.41055877451E+02  0.00000000000E+00 0. -1.
         -2    1    6    6    0  503 -0.21394066440E+03  0.30100169112E+01 -0.12836326995E+03  0.24951312022E+03  0.00000000000E+00 0.  1.
<mgrwt>
<rscale>  0 0.13615613E+04</rscale>
<asrwt>0</asrwt>
<pdfrwt beam="1">  1        1 0.31013441E+00 0.13615613E+04</pdfrwt>
<pdfrwt beam="2">  1       -2 0.35370218E-01 0.13615613E+04</pdfrwt>
<totfact> 0.18758118E+01</totfact>
</mgrwt>
</event>
<event>
12    4  0.4183215E-008  0.1382787E+04  0.7818608E-02  0.8966374E-01
         -2   -1    0    0    0  501 -0.00000000000E+00  0.00000000000E+00  0.33266438017E+03  0.33266438017E+03  0.00000000000E+00 0.  1.
          1   -1    0    0  501    0  0.00000000000E+00 -0.00000000000E+00 -0.14369579846E+04  0.14369579846E+04  0.00000000000E+00 0. -1.
        -24    2    1    2    0    0  0.52419349349E+02  0.16160781259E+03  0.13304343390E+03  0.22964733936E+03  0.78565080642E+02 0.  0.
        254    2    1    2    0    0 -0.52419349349E+02 -0.16160781259E+03 -0.12373370383E+04  0.15399750254E+04  0.90091911910E+03 0.  0.
         23    2    4    4    0    0 -0.35683116104E+03 -0.17805023192E+03 -0.19830847026E+03  0.45362062025E+03  0.86110714612E+02 0.  0.
         23    2    4    4    0    0  0.30441181169E+03  0.16442419335E+02 -0.10390285681E+04  0.10863544051E+04  0.87456412400E+02 0.  0.
          1    1    3    3  502    0  0.24194645102E+02  0.13390467198E+03  0.64667431594E+02  0.15065762091E+03  0.00000000000E+00 0. -1.
         -2    1    3    3    0  502  0.28224704247E+02  0.27703140608E+02  0.68376002311E+02  0.78989718454E+02  0.00000000000E+00 0.  1.
         11    1    5    5    0    0 -0.21995184362E+02 -0.27747388063E+02  0.20563595662E+01  0.35467369427E+02  0.00000000000E+00 0. -1.
        -11    1    5    5    0    0 -0.33483597667E+03 -0.15030284386E+03 -0.20036482982E+03  0.41815325083E+03  0.00000000000E+00 0.  1.
          4    1    6    6  503    0  0.65851673709E+02  0.19309070481E+02 -0.36383079508E+03  0.37024604060E+03  0.00000000000E+00 0.  1.
         -4    1    6    6    0  503  0.23856013798E+03 -0.28666511463E+01 -0.67519777298E+03  0.71610836453E+03  0.00000000000E+00 0. -1.
<mgrwt>
<rscale>  0 0.13827867E+04</rscale>
<asrwt>0</asrwt>
<pdfrwt beam="1">  1        1 0.22107045E+00 0.13827867E+04</pdfrwt>
<pdfrwt beam="2">  1       -2 0.51179136E-01 0.13827867E+04</pdfrwt>
<totfact> 0.22368234E+01</totfact>
</mgrwt>
</event>
<event>
12    4  0.4183215E-008  0.2097428E+04  0.7818608E-02  0.8562377E-01
          1   -1    0    0  501    0  0.00000000000E+00  0.00000000000E+00  0.19465328094E+04  0.19465328094E+04  0.00000000000E+00 0. -1.
         -2   -1    0    0    0  501 -0.00000000000E+00 -0.00000000000E+00 -0.56500493126E+03  0.56500493126E+03  0.00000000000E+00 0.  1.
        -24    2    1    2    0    0 -0.46599211755E+02 -0.83383905162E+03  0.76755929402E+03  0.11371174104E+04  0.80185314637E+02 0.  0.
        254    2    1    2    0    0  0.46599211755E+02  0.83383905162E+03  0.61396858407E+03  0.13744203302E+04  0.90256012059E+03 0.  0.
         23    2    4    4    0    0 -0.12393647541E+03  0.45663906409E+03  0.78187579259E+03  0.91852390739E+03  0.92070237364E+02 0.  0.
         23    2    4    4    0    0  0.17053568717E+03  0.37719998753E+03 -0.16790720852E+03  0.45589642281E+03  0.91030030596E+02 0.  0.
          3    1    3    3  502    0 -0.39843808644E+02 -0.54515488487E+03  0.45109320903E+03  0.70870759896E+03  0.00000000000E+00 0. -1.
         -4    1    3    3    0  502 -0.67554031111E+01 -0.28868416675E+03  0.31646608499E+03  0.42840981145E+03  0.00000000000E+00 0.  1.
         11    1    5    5    0    0  0.20454157005E+01  0.96125819312E+02  0.11359764517E+03  0.14882466815E+03  0.00000000000E+00 0.  1.
        -11    1    5    5    0    0 -0.12598189111E+03  0.36051324478E+03  0.66827814742E+03  0.76969923923E+03  0.00000000000E+00 0. -1.
          2    1    6    6  503    0  0.12339835567E+03  0.18964563044E+03 -0.58467217571E+02  0.23369004013E+03  0.00000000000E+00 0. -1.
         -2    1    6    6    0  503  0.47137331494E+02  0.18755435709E+03 -0.10943999095E+03  0.22220638268E+03  0.00000000000E+00 0.  1.
<mgrwt>
<rscale>  0 0.20974276E+04</rscale>
<asrwt>0</asrwt>
<pdfrwt beam="1">  1        1 0.29946658E+00 0.20974276E+04</pdfrwt>
<pdfrwt beam="2">  1       -2 0.86923837E-01 0.20974276E+04</pdfrwt>
<totfact> 0.29963590E+00</totfact>
</mgrwt>
</event>
<event>
12    4  0.7494653E-008  0.2083647E+04  0.7818608E-02  0.8568481E-01
         -2   -1    0    0    0  501 -0.00000000000E+00  0.00000000000E+00  0.56311923389E+03  0.56311923389E+03  0.00000000000E+00 0.  1.
          1   -1    0    0  501    0  0.00000000000E+00 -0.00000000000E+00 -0.19274713533E+04  0.19274713533E+04  0.00000000000E+00 0. -1.
        -24    2    1    2    0    0  0.45679343228E+03  0.31766136590E+03  0.20410662061E+03  0.59793798776E+03  0.79380989387E+02 0.  0.
        254    2    1    2    0    0 -0.45679343228E+03 -0.31766136590E+03 -0.15684587400E+04  0.18926525994E+04  0.90138896146E+03 0.  0.
         23    2    4    4    0    0 -0.19529127941E+03 -0.35437254293E+03 -0.14164305673E+03  0.43867136025E+03  0.93011955071E+02 0.  0.
         23    2    4    4    0    0 -0.26150215287E+03  0.36711177030E+02 -0.14268156833E+04  0.14539812392E+04  0.92343723854E+02 0.  0.
          1    1    3    3  502    0  0.18006845969E+02  0.30692090644E+02  0.76646380290E+00  0.35592673356E+02  0.00000000000E+00 0. -1.
         -2    1    3    3    0  502  0.43878658631E+03  0.28696927525E+03  0.20334015681E+03  0.56234531441E+03  0.00000000000E+00 0.  1.
         11    1    5    5    0    0 -0.18320717518E+03 -0.35661956641E+03 -0.12932195754E+03  0.42126779237E+03  0.00000000000E+00 0.  1.
        -11    1    5    5    0    0 -0.12084104235E+02  0.22470234871E+01 -0.12321099183E+02  0.17403567875E+02  0.00000000000E+00 0. -1.
          1    1    6    6  503    0 -0.77023895736E+01  0.13672517933E+02 -0.27619140915E+02  0.31766043138E+02  0.00000000000E+00 0. -1.
         -1    1    6    6    0  503 -0.25379976329E+03  0.23038659096E+02 -0.13991965424E+04  0.14222151960E+04  0.00000000000E+00 0.  1.
<mgrwt>
<rscale>  0 0.20836470E+04</rscale>
<asrwt>0</asrwt>
<pdfrwt beam="1">  1        1 0.29653406E+00 0.20836470E+04</pdfrwt>
<pdfrwt beam="2">  1       -2 0.86633727E-01 0.20836470E+04</pdfrwt>
<totfact> 0.31143003E+00</totfact>
</mgrwt>
</event>
<event>
12    4  0.4183215E-008  0.1581238E+04  0.7818608E-02  0.8832158E-01
         -2   -1    0    0    0  501 -0.00000000000E+00  0.00000000000E+00  0.63549916296E+03  0.63549916296E+03  0.00000000000E+00 0.  1.
          1   -1    0    0  501    0  0.00000000000E+00 -0.00000000000E+00 -0.98360164592E+03  0.98360164592E+03  0.00000000000E+00 0. -1.
        -24    2    1    2    0    0  0.23388234697E+03  0.46431799628E+03  0.24514232965E+02  0.52679908898E+03  0.81389057262E+02 0.  0.
        254    2    1    2    0    0 -0.23388234697E+03 -0.46431799628E+03 -0.37261671593E+03  0.10923017199E+04  0.88543078578E+03 0.  0.
         23    2    4    4    0    0 -0.41005361479E+03 -0.27703196485E+03  0.13054317074E+03  0.51951147786E+03  0.89218718050E+02 0.  0.
         23    2    4    4    0    0  0.17617126783E+03 -0.18728603143E+03 -0.50315988667E+03  0.57279024203E+03  0.93842509773E+02 0.  0.
          3    1    3    3  502    0  0.45337497861E+02  0.10670409589E+03 -0.27611964738E+02  0.11917916507E+03  0.00000000000E+00 0. -1.
         -4    1    3    3    0  502  0.18854484911E+03  0.35761390040E+03  0.52126197703E+02  0.40761992391E+03  0.00000000000E+00 0.  1.
         11    1    5    5    0    0 -0.28820356081E+02  0.14584633645E+01  0.18506725034E+02  0.34281757708E+02  0.00000000000E+00 0. -1.
        -11    1    5    5    0    0 -0.38123325871E+03 -0.27849042821E+03  0.11203644571E+03  0.48522972016E+03  0.00000000000E+00 0.  1.
          3    1    6    6  503    0  0.42434727172E+02 -0.10615214519E+03 -0.17172444272E+03  0.20629655408E+03  0.00000000000E+00 0. -1.
         -3    1    6    6    0  503  0.13373654066E+03 -0.81133886239E+02 -0.33143544395E+03  0.36649368795E+03  0.00000000000E+00 0.  1.
<mgrwt>
<rscale>  0 0.15812375E+04</rscale>
<asrwt>0</asrwt>
<pdfrwt beam="1">  1        1 0.15132333E+00 0.15812375E+04</pdfrwt>
<pdfrwt beam="2">  1       -2 0.97769102E-01 0.15812375E+04</pdfrwt>
<totfact> 0.11439886E+01</totfact>
</mgrwt>
</event>
<event>
12    4  0.4183215E-008  0.2845878E+04  0.7818608E-02  0.8289165E-01
          1   -1    0    0  501    0  0.00000000000E+00  0.00000000000E+00  0.23068646444E+04  0.23068646444E+04  0.00000000000E+00 0. -1.
         -2   -1    0    0    0  501 -0.00000000000E+00 -0.00000000000E+00 -0.87770886316E+03  0.87770886316E+03  0.00000000000E+00 0.  1.
        -24    2    1    2    0    0 -0.52792605243E+03  0.80772345396E+03 -0.28637096434E+03  0.10105652719E+04  0.90059672998E+02 0.  0.
        254    2    1    2    0    0  0.52792605243E+03 -0.80772345396E+03  0.17155267456E+04  0.21740082357E+04  0.92312333895E+03 0.  0.
         23    2    4    4    0    0 -0.23459592536E+03 -0.23073035602E+03  0.25559872125E+03  0.42641415172E+03  0.90700480122E+02 0.  0.
         23    2    4    4    0    0  0.76252197778E+03 -0.57699309794E+03  0.14599280244E+04  0.17475940839E+04  0.91293177542E+02 0.  0.
          1    1    3    3  502    0 -0.60378688915E+02  0.52112826530E+02 -0.12356654550E+02  0.80709476988E+02  0.00000000000E+00 0. -1.
         -2    1    3    3    0  502 -0.46754736351E+03  0.75561062743E+03 -0.27401430979E+03  0.92985579494E+03  0.00000000000E+00 0.  1.
         11    1    5    5    0    0 -0.90145380725E+02 -0.10518988203E+03  0.16267134555E+03  0.21366578484E+03  0.00000000000E+00 0.  1.
        -11    1    5    5    0    0 -0.14445054463E+03 -0.12554047400E+03  0.92927375703E+02  0.21274836688E+03  0.00000000000E+00 0. -1.
          1    1    6    6  503    0  0.68411216922E+03 -0.48071591669E+03  0.12565970667E+04  0.15093486809E+04  0.00000000000E+00 0. -1.
         -1    1    6    6    0  503  0.78409808562E+02 -0.96277181252E+02  0.20333095768E+03  0.23824540302E+03  0.00000000000E+00 0.  1.
<mgrwt>
<rscale>  0 0.28458781E+04</rscale>
<asrwt>0</asrwt>
<pdfrwt beam="1">  1        1 0.35490225E+00 0.28458781E+04</pdfrwt>
<pdfrwt beam="2">  1       -2 0.13503213E+00 0.28458781E+04</pdfrwt>
<totfact> 0.55038193E-01</totfact>
</mgrwt>
</event>
<event>
12    4  0.4183215E-008  0.2907894E+04  0.7818608E-02  0.8270533E-01
          1   -1    0    0  501    0  0.00000000000E+00  0.00000000000E+00  0.18965683526E+04  0.18965683526E+04  0.00000000000E+00 0. -1.
         -2   -1    0    0    0  501 -0.00000000000E+00 -0.00000000000E+00 -0.11146247394E+04  0.11146247394E+04  0.00000000000E+00 0.  1.
        -24    2    1    2    0    0  0.71725575790E+02 -0.18273621627E+03  0.16998578619E+04  0.17130075176E+04  0.79629903624E+02 0.  0.
        254    2    1    2    0    0 -0.71725575790E+02  0.18273621627E+03 -0.91791424872E+03  0.12981855745E+04  0.89676202795E+03 0.  0.
         23    2    4    4    0    0 -0.78212012937E+02  0.22507436246E+03  0.10156286943E+03  0.27383649368E+03  0.88858433564E+02 0.  0.
         23    2    4    4    0    0  0.64864371473E+01 -0.42338146195E+02 -0.10194771182E+04  0.10243490808E+04  0.90126868235E+02 0.  0.
          1    1    3    3  502    0  0.40897802311E+02 -0.17301061540E+03  0.15083475148E+04  0.15187881776E+04  0.00000000000E+00 0. -1.
         -2    1    3    3    0  502  0.30827773479E+02 -0.97256008690E+01  0.19151034715E+03  0.19421933991E+03  0.00000000000E+00 0.  1.
         11    1    5    5    0    0 -0.27205975536E+02  0.23618319959E+02 -0.10774036485E+02  0.37604122177E+02  0.00000000000E+00 0. -1.
        -11    1    5    5    0    0 -0.51006037401E+02  0.20145604250E+03  0.11233690592E+03  0.23623237150E+03  0.00000000000E+00 0.  1.
          1    1    6    6  503    0  0.16129925818E+02 -0.29948539290E+02 -0.11981784292E+03  0.12455282010E+03  0.00000000000E+00 0. -1.
         -1    1    6    6    0  503 -0.96434886703E+01 -0.12389606904E+02 -0.89965927523E+03  0.89979626069E+03  0.00000000000E+00 0.  1.
<mgrwt>
<rscale>  0 0.29078941E+04</rscale>
<asrwt>0</asrwt>
<pdfrwt beam="1">  1        1 0.29177975E+00 0.29078941E+04</pdfrwt>
<pdfrwt beam="2">  1       -2 0.17148073E+00 0.29078941E+04</pdfrwt>
<totfact> 0.54942166E-01</totfact>
</mgrwt>
</event>
<event>
12    4  0.4183215E-008  0.1685982E+04  0.7818608E-02  0.8769400E-01
          1   -1    0    0  501    0  0.00000000000E+00  0.00000000000E+00  0.15151516929E+04  0.15151516929E+04  0.00000000000E+00 0. -1.
         -2   -1    0    0    0  501 -0.00000000000E+00 -0.00000000000E+00 -0.46901828672E+03  0.46901828672E+03  0.00000000000E+00 0.  1.
        -24    2    1    2    0    0 -0.14722100595E+03 -0.70801288669E+02  0.10789727545E+04  0.10941225210E+04  0.78962261426E+02 0.  0.
        254    2    1    2    0    0  0.14722100595E+03  0.70801288669E+02 -0.32839348326E+02  0.89004745871E+03  0.87431070501E+03 0.  0.
         23    2    4    4    0    0 -0.24130027200E+03  0.19799169710E+03  0.22623743466E+03  0.39588067286E+03  0.90064404254E+02 0.  0.
         23    2    4    4    0    0  0.38852127794E+03 -0.12719040843E+03 -0.25907678299E+03  0.49416678586E+03  0.99768979887E+02 0.  0.
          3    1    3    3  502    0 -0.71652815754E+02 -0.11034907389E+02  0.67207062652E+03  0.67596954238E+03  0.00000000000E+00 0. -1.
         -4    1    3    3    0  502 -0.75568190191E+02 -0.59766381280E+02  0.40690212802E+03  0.41815297857E+03  0.00000000000E+00 0.  1.
         11    1    5    5    0    0 -0.23838866171E+03  0.17413604219E+03  0.18573122248E+03  0.34878159674E+03  0.00000000000E+00 0.  1.
        -11    1    5    5    0    0 -0.29116102881E+01  0.23855654913E+02  0.40506212186E+02  0.47099076121E+02  0.00000000000E+00 0. -1.
          2    1    6    6  503    0  0.13528267631E+03 -0.53337009627E+02 -0.38809032564E+02  0.15050707662E+03  0.00000000000E+00 0. -1.
         -2    1    6    6    0  503  0.25323860164E+03 -0.73853398803E+02 -0.22026775042E+03  0.34365970923E+03  0.00000000000E+00 0.  1.
<mgrwt>
<rscale>  0 0.16859820E+04</rscale>
<asrwt>0</asrwt>
<pdfrwt beam="1">  1        1 0.23310026E+00 0.16859820E+04</pdfrwt>
<pdfrwt beam="2">  1       -2 0.72156660E-01 0.16859820E+04</pdfrwt>
<totfact> 0.92845343E+00</totfact>
</mgrwt>
</event>
<event>
12    4  0.4183215E-008  0.2330901E+04  0.7818608E-02  0.8465836E-01
         -2   -1    0    0    0  501 -0.00000000000E+00  0.00000000000E+00  0.26328718955E+04  0.26328718955E+04  0.00000000000E+00 0.  1.
          1   -1    0    0  501    0  0.00000000000E+00 -0.00000000000E+00 -0.51589085270E+03  0.51589085270E+03  0.00000000000E+00 0. -1.
        -24    2    1    2    0    0 -0.78699059043E+03 -0.17750130811E+03  0.17246032046E+04  0.19057294205E+04  0.81777178356E+02 0.  0.
        254    2    1    2    0    0  0.78699059043E+03  0.17750130811E+03  0.39237783816E+03  0.12430333277E+04  0.86041302992E+03 0.  0.
         23    2    4    4    0    0  0.85251295307E+03  0.38609073917E+03  0.27871469056E+03  0.98083144182E+03  0.92217376328E+02 0.  0.
         23    2    4    4    0    0 -0.65522362636E+02 -0.20858943107E+03  0.11366314760E+03  0.26220188587E+03  0.89597918917E+02 0.  0.
          1    1    3    3  502    0 -0.44324650118E+02 -0.26551773682E+00  0.62265821849E+02  0.76431522805E+02  0.00000000000E+00 0. -1.
         -2    1    3    3    0  502 -0.74266594031E+03 -0.17723579037E+03  0.16623373827E+04  0.18292978977E+04  0.00000000000E+00 0.  1.
         11    1    5    5    0    0  0.46573817683E+03  0.22394649068E+03  0.19993045412E+03  0.55410853316E+03  0.00000000000E+00 0. -1.
        -11    1    5    5    0    0  0.38677477624E+03  0.16214424849E+03  0.78784236439E+02  0.42672290865E+03  0.00000000000E+00 0.  1.
          3    1    6    6  503    0  0.92097187479E+01  0.82093247583E+00 -0.46369479266E+01  0.10343796963E+02  0.00000000000E+00 0. -1.
         -3    1    6    6    0  503 -0.74732081384E+02 -0.20941036354E+03  0.11830009553E+03  0.25185808891E+03  0.00000000000E+00 0.  1.
<mgrwt>
<rscale>  0 0.23309007E+04</rscale>
<asrwt>0</asrwt>
<pdfrwt beam="1">  1        1 0.79367825E-01 0.23309007E+04</pdfrwt>
<pdfrwt beam="2">  1       -2 0.40505721E+00 0.23309007E+04</pdfrwt>
<totfact> 0.23067722E-01</totfact>
</mgrwt>
</event>
<event>
12    4  0.4183215E-008  0.2034763E+04  0.7818608E-02  0.8590538E-01
          1   -1    0    0  501    0  0.00000000000E+00  0.00000000000E+00  0.24023722114E+04  0.24023722114E+04  0.00000000000E+00 0. -1.
         -2   -1    0    0    0  501 -0.00000000000E+00 -0.00000000000E+00 -0.43085138651E+03  0.43085138651E+03  0.00000000000E+00 0.  1.
        -24    2    1    2    0    0  0.45922094541E+03  0.37719712760E+03  0.15606463108E+04  0.16718818109E+04  0.80064553327E+02 0.  0.
        254    2    1    2    0    0 -0.45922094541E+03 -0.37719712760E+03  0.41087451409E+03  0.11613417869E+04  0.90924987212E+03 0.  0.
         23    2    4    4    0    0 -0.47553094686E+03 -0.62904257194E+03  0.20007645559E+03  0.81864813619E+03  0.91268527269E+02 0.  0.
         23    2    4    4    0    0  0.16310001448E+02  0.25184544433E+03  0.21079805850E+03  0.34269365074E+03  0.96493382201E+02 0.  0.
          1    1    3    3  502    0  0.44888710445E+03  0.35299761096E+03  0.14561325532E+04  0.15641064409E+04  0.00000000000E+00 0. -1.
         -2    1    3    3    0  502  0.10333840960E+02  0.24199516645E+02  0.10451375758E+03  0.10777537010E+03  0.00000000000E+00 0.  1.
         11    1    5    5    0    0 -0.26886283675E+03 -0.28671746342E+03  0.11858289076E+03  0.41055575845E+03  0.00000000000E+00 0.  1.
        -11    1    5    5    0    0 -0.20666811011E+03 -0.34232510852E+03  0.81493564829E+02  0.40809237774E+03  0.00000000000E+00 0. -1.
          1    1    6    6  503    0 -0.12362751447E+02 -0.13632565217E+01  0.75757903779E+00  0.12460739051E+02  0.00000000000E+00 0. -1.
         -1    1    6    6    0  503  0.28672752895E+02  0.25320870086E+03  0.21004047946E+03  0.33023291169E+03  0.00000000000E+00 0.  1.
<mgrwt>
<rscale>  0 0.20347633E+04</rscale>
<asrwt>0</asrwt>
<pdfrwt beam="1">  1        1 0.36959572E+00 0.20347633E+04</pdfrwt>
<pdfrwt beam="2">  1       -2 0.66284830E-01 0.20347633E+04</pdfrwt>
<totfact> 0.26920531E+00</totfact>
</mgrwt>
</event>
<event>
12    4  0.4183215E-008  0.1566001E+04  0.7818608E-02  0.8841711E-01
         -2   -1    0    0    0  501 -0.00000000000E+00  0.00000000000E+00  0.25343762831E+03  0.25343762831E+03  0.00000000000E+00 0.  1.
          1   -1    0    0  501    0  0.00000000000E+00 -0.00000000000E+00 -0.24190965221E+04  0.24190965221E+04  0.00000000000E+00 0. -1.
        -24    2    1    2    0    0 -0.17564569190E+03 -0.34487287309E+03 -0.14988029067E+03  0.42249740260E+03  0.79064821513E+02 0.  0.
        254    2    1    2    0    0  0.17564569190E+03  0.34487287309E+03 -0.20157786031E+04  0.22500367478E+04  0.92169044805E+03 0.  0.
         23    2    4    4    0    0  0.28767595433E+03  0.31795595322E+03 -0.30680967669E+03  0.53474439293E+03  0.89252143826E+02 0.  0.
         23    2    4    4    0    0 -0.11203026243E+03  0.26916919869E+02 -0.17089689264E+04  0.17152923548E+04  0.91530164115E+02 0.  0.
          3    1    3    3  502    0 -0.74381629038E+02 -0.22574144657E+03 -0.10491539119E+03  0.25980582508E+03  0.00000000000E+00 0. -1.
         -4    1    3    3    0  502 -0.10126406286E+03 -0.11913142652E+03 -0.44964899475E+02  0.16269157752E+03  0.00000000000E+00 0.  1.
         11    1    5    5    0    0  0.23209662941E+03  0.22660674594E+03 -0.18806450266E+03  0.37495028984E+03  0.00000000000E+00 0.  1.
        -11    1    5    5    0    0  0.55579324921E+02  0.91349207278E+02 -0.11874517403E+03  0.15979410310E+03  0.00000000000E+00 0. -1.
          2    1    6    6  503    0 -0.12939854503E+02 -0.15392690553E+02 -0.71260150279E+02  0.74043121050E+02  0.00000000000E+00 0. -1.
         -2    1    6    6    0  503 -0.99090407927E+02  0.42309610422E+02 -0.16377087761E+04  0.16412492338E+04  0.00000000000E+00 0.  1.
<mgrwt>
<rscale>  0 0.15660014E+04</rscale>
<asrwt>0</asrwt>
<pdfrwt beam="1">  1        1 0.37216868E+00 0.15660014E+04</pdfrwt>
<pdfrwt beam="2">  1       -2 0.38990406E-01 0.15660014E+04</pdfrwt>
<totfact> 0.81111721E+00</totfact>
</mgrwt>
</event>
<event>
12    4  0.4183215E-008  0.1824233E+04  0.7818608E-02  0.8693518E-01
         -2   -1    0    0    0  501 -0.00000000000E+00  0.00000000000E+00  0.30774995169E+03  0.30774995169E+03  0.00000000000E+00 0.  1.
          1   -1    0    0  501    0  0.00000000000E+00 -0.00000000000E+00 -0.27033523083E+04  0.27033523083E+04  0.00000000000E+00 0. -1.
        -24    2    1    2    0    0 -0.39706421137E+03  0.40150906807E+01  0.17206806358E+02  0.40536253221E+03  0.79665547286E+02 0.  0.
        254    2    1    2    0    0  0.39706421137E+03 -0.40150906807E+01 -0.24128091629E+04  0.26057397278E+04  0.90030848223E+03 0.  0.
         23    2    4    4    0    0  0.29630928960E+03  0.13866144307E+03 -0.23823683654E+04  0.24064696679E+04  0.91602638108E+02 0.  0.
         23    2    4    4    0    0  0.10075492178E+03 -0.14267653375E+03 -0.30440797585E+02  0.19927005988E+03  0.90960249903E+02 0.  0.
          3    1    3    3  502    0 -0.50779150798E+02  0.24508433106E+02 -0.10550384120E+02  0.57362845590E+02  0.00000000000E+00 0. -1.
         -4    1    3    3    0  502 -0.34628506058E+03 -0.20493342426E+02  0.27757190478E+02  0.34799968662E+03  0.00000000000E+00 0.  1.
         11    1    5    5    0    0  0.20786897499E+01 -0.81908799823E+01 -0.28012903428E+02  0.29259771435E+02  0.00000000000E+00 0. -1.
        -11    1    5    5    0    0  0.29423059985E+03  0.14685232305E+03 -0.23543554619E+04  0.23772098965E+04  0.00000000000E+00 0.  1.
          3    1    6    6  503    0 -0.19401881195E+01  0.54889689293E+01 -0.17599785385E+02  0.18537679343E+02  0.00000000000E+00 0. -1.
         -3    1    6    6    0  503  0.10269510990E+03 -0.14816550268E+03 -0.12841012201E+02  0.18073238054E+03  0.00000000000E+00 0.  1.
<mgrwt>
<rscale>  0 0.18242330E+04</rscale>
<asrwt>0</asrwt>
<pdfrwt beam="1">  1        1 0.41590038E+00 0.18242330E+04</pdfrwt>
<pdfrwt beam="2">  1       -2 0.47346144E-01 0.18242330E+04</pdfrwt>
<totfact> 0.34187535E+00</totfact>
</mgrwt>
</event>
<event>
12    4  0.4183215E-008  0.2204862E+04  0.7818608E-02  0.8516407E-01
          1   -1    0    0  501    0  0.00000000000E+00  0.00000000000E+00  0.74477666388E+03  0.74477666388E+03  0.00000000000E+00 0. -1.
         -2   -1    0    0    0  501 -0.00000000000E+00 -0.00000000000E+00 -0.16318367700E+04  0.16318367700E+04  0.00000000000E+00 0.  1.
        -24    2    1    2    0    0  0.71275424484E+03  0.52645593645E+03 -0.61359545970E+03  0.10807829991E+04  0.80112648115E+02 0.  0.
        254    2    1    2    0    0 -0.71275424484E+03 -0.52645593645E+03 -0.27346464638E+03  0.12958304348E+04  0.90510725125E+03 0.  0.
         23    2    4    4    0    0 -0.27621818775E+03 -0.65149529086E+03  0.74576417303E+02  0.71744796055E+03  0.91800505597E+02 0.  0.
         23    2    4    4    0    0 -0.43653605709E+03  0.12503935441E+03 -0.34804106368E+03  0.57838247420E+03  0.84824142594E+02 0.  0.
          3    1    3    3  502    0  0.38936949544E+03  0.27244229145E+03 -0.28256747971E+03  0.55288134960E+03  0.00000000000E+00 0. -1.
         -4    1    3    3    0  502  0.32338474940E+03  0.25401364500E+03 -0.33102797999E+03  0.52790164949E+03  0.00000000000E+00 0.  1.
         11    1    5    5    0    0  0.60131564657E+01 -0.40545038702E+01  0.13218412606E+00  0.72535870408E+01  0.00000000000E+00 0. -1.
        -11    1    5    5    0    0 -0.28223134422E+03 -0.64744078699E+03  0.74444233177E+02  0.71019437351E+03  0.00000000000E+00 0.  1.
          3    1    6    6  503    0 -0.37955549264E+03  0.96600820823E+02 -0.33012525757E+03  0.51222727013E+03  0.00000000000E+00 0. -1.
         -3    1    6    6    0  503 -0.56980564452E+02  0.28438533586E+02 -0.17915806109E+02  0.66155204076E+02  0.00000000000E+00 0.  1.
<mgrwt>
<rscale>  0 0.22048619E+04</rscale>
<asrwt>0</asrwt>
<pdfrwt beam="1">  1        1 0.11458103E+00 0.22048619E+04</pdfrwt>
<pdfrwt beam="2">  1       -2 0.25105181E+00 0.22048619E+04</pdfrwt>
<totfact> 0.12517549E+00</totfact>
</mgrwt>
</event>
<event>
12    4  0.4183215E-008  0.2279006E+04  0.7818608E-02  0.8486245E-01
          1   -1    0    0  501    0  0.00000000000E+00  0.00000000000E+00  0.14429427613E+04  0.14429427613E+04  0.00000000000E+00 0. -1.
         -2   -1    0    0    0  501 -0.00000000000E+00 -0.00000000000E+00 -0.89987399491E+03  0.89987399491E+03  0.00000000000E+00 0.  1.
        -24    2    1    2    0    0 -0.52830271962E+03 -0.13183455322E+02  0.10502289655E+04  0.11777007626E+04  0.68706908011E+02 0.  0.
        254    2    1    2    0    0  0.52830271962E+03  0.13183455322E+02 -0.50716019912E+03  0.11651159936E+04  0.90609394873E+03 0.  0.
         23    2    4    4    0    0  0.15665624298E+01  0.37881049396E+03 -0.10642200616E+03  0.40364427219E+03  0.90017835011E+02 0.  0.
         23    2    4    4    0    0  0.52673615719E+03 -0.36562703864E+03 -0.40073819296E+03  0.76147172142E+03  0.90077591809E+02 0.  0.
          3    1    3    3  502    0 -0.39177583173E+03  0.14032079402E+01  0.83599881744E+03  0.92324660523E+03  0.00000000000E+00 0. -1.
         -4    1    3    3    0  502 -0.13652688789E+03 -0.14586663262E+02  0.21423014802E+03  0.25445415734E+03  0.00000000000E+00 0.  1.
         11    1    5    5    0    0 -0.14030932669E+02  0.34134122057E+03 -0.11800808667E+03  0.36143686095E+03  0.00000000000E+00 0. -1.
        -11    1    5    5    0    0  0.15597495099E+02  0.37469273393E+02  0.11586080511E+02  0.42207411240E+02  0.00000000000E+00 0.  1.
          4    1    6    6  503    0  0.39605086630E+03 -0.25073569297E+03 -0.24997419370E+03  0.53123608118E+03  0.00000000000E+00 0. -1.
         -4    1    6    6    0  503  0.13068529089E+03 -0.11489134567E+03 -0.15076399926E+03  0.23023564024E+03  0.00000000000E+00 0.  1.
<mgrwt>
<rscale>  0 0.22790056E+04</rscale>
<asrwt>0</asrwt>
<pdfrwt beam="1">  1        1 0.22199119E+00 0.22790056E+04</pdfrwt>
<pdfrwt beam="2">  1       -2 0.13844215E+00 0.22790056E+04</pdfrwt>
<totfact> 0.21069867E+00</totfact>
</mgrwt>
</event>
<event>
12    4  0.4183215E-008  0.1388106E+04  0.7818608E-02  0.8962473E-01
         -2   -1    0    0    0  501 -0.00000000000E+00  0.00000000000E+00  0.22644192814E+03  0.22644192814E+03  0.00000000000E+00 0.  1.
          1   -1    0    0  501    0  0.00000000000E+00 -0.00000000000E+00 -0.21272998165E+04  0.21272998165E+04  0.00000000000E+00 0. -1.
        -24    2    1    2    0    0  0.11069803009E+03 -0.10801661915E+03  0.68216714399E+02  0.18692955769E+03  0.79796588502E+02 0.  0.
        254    2    1    2    0    0 -0.11069803009E+03  0.10801661915E+03 -0.19690746028E+04  0.21668121869E+04  0.89100988682E+03 0.  0.
         23    2    4    4    0    0 -0.26496196613E+02  0.20342112929E+03 -0.19959562586E+04  0.20086404333E+04  0.93342378368E+02 0.  0.
         23    2    4    4    0    0 -0.84201833480E+02 -0.95404510143E+02  0.26881655846E+02  0.15817175369E+03  0.90020613896E+02 0.  0.
          1    1    3    3  502    0 -0.96656639010E+00 -0.11577346783E+02 -0.13865597170E+02  0.18089333709E+02  0.00000000000E+00 0. -1.
         -4    1    3    3    0  502  0.11166459648E+03 -0.96439272362E+02  0.82082311570E+02  0.16884022398E+03  0.00000000000E+00 0.  1.
         11    1    5    5    0    0  0.25882557359E+02  0.15297046579E+02 -0.27813042509E+03  0.27975067430E+03  0.00000000000E+00 0.  1.
        -11    1    5    5    0    0 -0.52378753972E+02  0.18812408271E+03 -0.17178258335E+04  0.17288897590E+04  0.00000000000E+00 0. -1.
          1    1    6    6  503    0 -0.63748351639E+02 -0.10938629841E+03  0.36234285820E+02  0.13168955193E+03  0.00000000000E+00 0. -1.
         -1    1    6    6    0  503 -0.20453481841E+02  0.13981788271E+02 -0.93526299741E+01  0.26482201761E+02  0.00000000000E+00 0.  1.
<mgrwt>
<rscale>  0 0.13881064E+04</rscale>
<asrwt>0</asrwt>
<pdfrwt beam="1">  1        1 0.32727688E+00 0.13881064E+04</pdfrwt>
<pdfrwt beam="2">  1       -2 0.34837221E-01 0.13881064E+04</pdfrwt>
<totfact> 0.16195267E+01</totfact>
</mgrwt>
</event>
<event>
12    4  0.4183215E-008  0.1742931E+04  0.7818608E-02  0.8737251E-01
          3   -1    0    0  501    0  0.00000000000E+00  0.00000000000E+00  0.87239927349E+03  0.87239927349E+03  0.00000000000E+00 0. -1.
         -4   -1    0    0    0  501 -0.00000000000E+00 -0.00000000000E+00 -0.87053300883E+03  0.87053300883E+03  0.00000000000E+00 0.  1.
        -24    2    1    2    0    0  0.29540242246E+03  0.10890472811E+03  0.55111086701E+03  0.63962953681E+03  0.79245981778E+02 0.  0.
        254    2    1    2    0    0 -0.29540242246E+03 -0.10890472811E+03 -0.54924460234E+03  0.11033027455E+04  0.90359530989E+03 0.  0.
         23    2    4    4    0    0 -0.40266442216E+03 -0.30001889126E+03 -0.61541289768E+01  0.51044372892E+03  0.91460128486E+02 0.  0.
         23    2    4    4    0    0  0.10726199969E+03  0.19111416314E+03 -0.54309047337E+03  0.59285901660E+03  0.92221425740E+02 0.  0.
          1    1    3    3  502    0  0.15166376170E+03  0.60550515438E+02  0.36268930010E+03  0.39775845678E+03  0.00000000000E+00 0. -1.
         -2    1    3    3    0  502  0.14373866076E+03  0.48354212675E+02  0.18842156691E+03  0.24187108004E+03  0.00000000000E+00 0.  1.
         11    1    5    5    0    0  0.44244180081E+01 -0.86712346260E+01  0.10187060093E+01  0.97879286156E+01  0.00000000000E+00 0. -1.
        -11    1    5    5    0    0 -0.40708884017E+03 -0.29134765663E+03 -0.71728349861E+01  0.50065580030E+03  0.00000000000E+00 0.  1.
          3    1    6    6  503    0  0.51933496509E+02  0.64358228821E+02 -0.10620969269E+03  0.13460894658E+03  0.00000000000E+00 0. -1.
         -3    1    6    6    0  503  0.55328503185E+02  0.12675593432E+03 -0.43688078068E+03  0.45825007002E+03  0.00000000000E+00 0.  1.
<mgrwt>
<rscale>  0 0.17429313E+04</rscale>
<asrwt>0</asrwt>
<pdfrwt beam="1">  1        3 0.13421527E+00 0.17429313E+04</pdfrwt>
<pdfrwt beam="2">  1       -4 0.13392816E+00 0.17429313E+04</pdfrwt>
<totfact> 0.37384680E-01</totfact>
</mgrwt>
</event>
<event>
12    4  0.4183215E-008  0.2108180E+04  0.7818608E-02  0.8557648E-01
          1   -1    0    0  501    0  0.00000000000E+00  0.00000000000E+00  0.61198724582E+03  0.61198724582E+03  0.00000000000E+00 0. -1.
         -2   -1    0    0    0  501 -0.00000000000E+00 -0.00000000000E+00 -0.18155706829E+04  0.18155706829E+04  0.00000000000E+00 0.  1.
        -24    2    1    2    0    0 -0.37036722043E+03 -0.33373607193E+03  0.31380543810E+03  0.59450815249E+03  0.80090241157E+02 0.  0.
        254    2    1    2    0    0  0.37036722043E+03  0.33373607193E+03 -0.15173888752E+04  0.18330497762E+04  0.89947253428E+03 0.  0.
         23    2    4    4    0    0 -0.18150657318E+03  0.37590162855E+03 -0.40979442060E+03  0.59144714570E+03  0.87358963709E+02 0.  0.
         23    2    4    4    0    0  0.55187379361E+03 -0.42165556621E+02 -0.11075944546E+04  0.12416026305E+04  0.92027159535E+02 0.  0.
          3    1    3    3  502    0 -0.26667832211E+03 -0.19592929320E+03  0.22820182408E+03  0.40197224771E+03  0.00000000000E+00 0. -1.
         -4    1    3    3    0  502 -0.10368889832E+03 -0.13780677873E+03  0.85603614026E+02  0.19253590478E+03  0.00000000000E+00 0.  1.
         11    1    5    5    0    0  0.47346223682E+01  0.60902260413E+01  0.14676332440E+01  0.78524804707E+01  0.00000000000E+00 0. -1.
        -11    1    5    5    0    0 -0.18624119555E+03  0.36981140251E+03 -0.41126205385E+03  0.58359466522E+03  0.00000000000E+00 0.  1.
          4    1    6    6  503    0  0.38861837316E+02 -0.14008989819E+02 -0.14121550554E+03  0.14713365760E+03  0.00000000000E+00 0. -1.
         -4    1    6    6    0  503  0.51301195629E+03 -0.28156566802E+02 -0.96637894902E+03  0.10944689729E+04  0.00000000000E+00 0.  1.
<mgrwt>
<rscale>  0 0.21081804E+04</rscale>
<asrwt>0</asrwt>
<pdfrwt beam="1">  1        1 0.94151885E-01 0.21081804E+04</pdfrwt>
<pdfrwt beam="2">  1       -2 0.27931856E+00 0.21081804E+04</pdfrwt>
<totfact> 0.11392846E+00</totfact>
</mgrwt>
</event>
<event>
12    4  0.4183215E-008  0.1812451E+04  0.7818608E-02  0.8699706E-01
          1   -1    0    0  501    0  0.00000000000E+00  0.00000000000E+00  0.20036214610E+04  0.20036214610E+04  0.00000000000E+00 0. -1.
         -2   -1    0    0    0  501 -0.00000000000E+00 -0.00000000000E+00 -0.40988028623E+03  0.40988028623E+03  0.00000000000E+00 0.  1.
        -24    2    1    2    0    0  0.15616653165E+03  0.42231486182E+03  0.12839948496E+04  0.13626988297E+04  0.74615672832E+02 0.  0.
        254    2    1    2    0    0 -0.15616653165E+03 -0.42231486182E+03  0.30974632524E+03  0.10508029176E+04  0.89749994845E+03 0.  0.
         23    2    4    4    0    0  0.34263773680E+03 -0.23368597331E+03 -0.68688289515E+01  0.42393812944E+03  0.87559145656E+02 0.  0.
         23    2    4    4    0    0 -0.49880426844E+03 -0.18862888851E+03  0.31661515420E+03  0.62686478813E+03  0.91256511747E+02 0.  0.
          3    1    3    3  502    0  0.38840863177E+02  0.97606264144E+02  0.40303093384E+03  0.41649673358E+03  0.00000000000E+00 0. -1.
         -4    1    3    3    0  502  0.11732566847E+03  0.32470859767E+03  0.88096391572E+03  0.94620209611E+03  0.00000000000E+00 0.  1.
         11    1    5    5    0    0  0.22269773332E+03 -0.10651292738E+03  0.17304056082E+02  0.24746457217E+03  0.00000000000E+00 0. -1.
        -11    1    5    5    0    0  0.11994000348E+03 -0.12717304593E+03 -0.24172885034E+02  0.17647355727E+03  0.00000000000E+00 0.  1.
          4    1    6    6  503    0 -0.46945595400E+03 -0.19901198875E+03  0.29789549403E+03  0.59053906711E+03  0.00000000000E+00 0. -1.
         -4    1    6    6    0  503 -0.29348314441E+02  0.10383100247E+02  0.18719660161E+02  0.36325721022E+02  0.00000000000E+00 0.  1.
<mgrwt>
<rscale>  0 0.18124513E+04</rscale>
<asrwt>0</asrwt>
<pdfrwt beam="1">  1        1 0.30824945E+00 0.18124513E+04</pdfrwt>
<pdfrwt beam="2">  1       -2 0.63058507E-01 0.18124513E+04</pdfrwt>
<totfact> 0.57149179E+00</totfact>
</mgrwt>
</event>
<event>
12    4  0.4183215E-008  0.1338533E+04  0.7818608E-02  0.8999554E-01
          1   -1    0    0  501    0  0.00000000000E+00  0.00000000000E+00  0.50048406620E+03  0.50048406620E+03  0.00000000000E+00 0. -1.
         -2   -1    0    0    0  501 -0.00000000000E+00 -0.00000000000E+00 -0.89496943201E+03  0.89496943201E+03  0.00000000000E+00 0.  1.
        -24    2    1    2    0    0  0.68337762467E+02  0.19713190066E+03 -0.42978425299E+03  0.48410965623E+03  0.78208817295E+02 0.  0.
        254    2    1    2    0    0 -0.68337762467E+02 -0.19713190066E+03  0.35298887183E+02  0.91134384198E+03  0.88643699768E+03 0.  0.
         23    2    4    4    0    0 -0.45257542812E+03 -0.16301079761E+03  0.12689682431E+03  0.50590454827E+03  0.91867130465E+02 0.  0.
         23    2    4    4    0    0  0.38423766566E+03 -0.34121103044E+02 -0.91597937126E+02  0.40543929371E+03  0.84782105541E+02 0.  0.
          3    1    3    3  502    0  0.23228014702E+02  0.35581274525E+02 -0.34579304835E+02  0.54784086072E+02  0.00000000000E+00 0. -1.
         -4    1    3    3    0  502  0.45109747765E+02  0.16155062613E+03 -0.39520494816E+03  0.42932557016E+03  0.00000000000E+00 0.  1.
         11    1    5    5    0    0 -0.32029291376E+03 -0.71821659538E+02  0.71402338783E+02  0.33592290093E+03  0.00000000000E+00 0. -1.
        -11    1    5    5    0    0 -0.13228251437E+03 -0.91189138076E+02  0.55494485527E+02  0.16998164734E+03  0.00000000000E+00 0.  1.
          4    1    6    6  503    0  0.32891669103E+03 -0.51476331468E+02 -0.98159538153E+02  0.34708975391E+03  0.00000000000E+00 0. -1.
         -4    1    6    6    0  503  0.55320974622E+02  0.17355228424E+02  0.65616010269E+01  0.58349539799E+02  0.00000000000E+00 0.  1.
<mgrwt>
<rscale>  0 0.13385334E+04</rscale>
<asrwt>0</asrwt>
<pdfrwt beam="1">  1        1 0.76997549E-01 0.13385334E+04</pdfrwt>
<pdfrwt beam="2">  1       -2 0.13768760E+00 0.13385334E+04</pdfrwt>
<totfact> 0.14211699E+01</totfact>
</mgrwt>
</event>
<event>
12    4  0.4183215E-008  0.1091385E+04  0.7818608E-02  0.9213629E-01
          1   -1    0    0  501    0  0.00000000000E+00  0.00000000000E+00  0.16890593207E+04  0.16890593207E+04  0.00000000000E+00 0. -1.
         -2   -1    0    0    0  501 -0.00000000000E+00 -0.00000000000E+00 -0.17629962996E+03  0.17629962996E+03  0.00000000000E+00 0.  1.
        -24    2    1    2    0    0  0.53663705288E+02  0.12261008207E+03  0.26831037788E+03  0.31069637481E+03  0.81417153934E+02 0.  0.
        254    2    1    2    0    0 -0.53663705288E+02 -0.12261008207E+03  0.12444493129E+04  0.15546625759E+04  0.92217601737E+03 0.  0.
         23    2    4    4    0    0  0.32492619038E+03  0.11863209592E+03  0.19042486116E+03  0.40518745252E+03  0.90910068486E+02 0.  0.
         23    2    4    4    0    0 -0.37858989567E+03 -0.24124217799E+03  0.10540244517E+04  0.11494751234E+04  0.93794545903E+02 0.  0.
          3    1    3    3  502    0 -0.96994491750E+01  0.42556881447E+02  0.14044866285E+03  0.14707479175E+03  0.00000000000E+00 0. -1.
         -4    1    3    3    0  502  0.63363154463E+02  0.80053200620E+02  0.12786171503E+03  0.16362158306E+03  0.00000000000E+00 0.  1.
         11    1    5    5    0    0  0.95468641367E+02 -0.72211946626E+01  0.57137731805E+02  0.11149496640E+03  0.00000000000E+00 0. -1.
        -11    1    5    5    0    0  0.22945754902E+03  0.12585329058E+03  0.13328712935E+03  0.29369248612E+03  0.00000000000E+00 0.  1.
          3    1    6    6  503    0 -0.22218424353E+03 -0.10378289309E+03  0.65474257092E+03  0.69915989670E+03  0.00000000000E+00 0. -1.
         -3    1    6    6    0  503 -0.15640565214E+03 -0.13745928490E+03  0.39928188082E+03  0.45031522667E+03  0.00000000000E+00 0.  1.
<mgrwt>
<rscale>  0 0.10913854E+04</rscale>
<asrwt>0</asrwt>
<pdfrwt beam="1">  1        1 0.25985527E+00 0.10913854E+04</pdfrwt>
<pdfrwt beam="2">  1       -2 0.27123021E-01 0.10913854E+04</pdfrwt>
<totfact> 0.52486229E+01</totfact>
</mgrwt>
</event>
<event>
12    4  0.4183215E-008  0.1793497E+04  0.7818608E-02  0.8709765E-01
          1   -1    0    0  501    0  0.00000000000E+00  0.00000000000E+00  0.13093216533E+04  0.13093216533E+04  0.00000000000E+00 0. -1.
         -2   -1    0    0    0  501 -0.00000000000E+00 -0.00000000000E+00 -0.61417890334E+03  0.61417890334E+03  0.00000000000E+00 0.  1.
        -24    2    1    2    0    0  0.42048683226E+03 -0.42406642324E+03  0.55482125387E+03  0.81935787585E+03  0.82940928041E+02 0.  0.
        254    2    1    2    0    0 -0.42048683226E+03  0.42406642324E+03  0.14032149609E+03  0.11041426808E+04  0.91804108288E+03 0.  0.
         23    2    4    4    0    0 -0.23167101680E+03  0.40600856228E+03 -0.33539485376E+03  0.58272115772E+03  0.92519333433E+02 0.  0.
         23    2    4    4    0    0 -0.18881581546E+03  0.18057860966E+02  0.47571634985E+03  0.52142152307E+03  0.97963568215E+02 0.  0.
          1    1    3    3  502    0  0.26751155036E+03 -0.31706056149E+03  0.35627960569E+03  0.54683177180E+03  0.00000000000E+00 0. -1.
         -2    1    3    3    0  502  0.15297528190E+03 -0.10700586176E+03  0.19854164819E+03  0.27252610405E+03  0.00000000000E+00 0.  1.
         11    1    5    5    0    0 -0.11523591911E+03  0.16824751025E+03 -0.94395949141E+02  0.22471568030E+03  0.00000000000E+00 0. -1.
        -11    1    5    5    0    0 -0.11643509768E+03  0.23776105203E+03 -0.24099890462E+03  0.35800547742E+03  0.00000000000E+00 0.  1.
          3    1    6    6  503    0 -0.15615194737E+03 -0.26189478438E+02  0.34433803695E+03  0.37899604634E+03  0.00000000000E+00 0. -1.
         -3    1    6    6    0  503 -0.32663868091E+02  0.44247339404E+02  0.13137831290E+03  0.14242547673E+03  0.00000000000E+00 0.  1.
<mgrwt>
<rscale>  0 0.17934968E+04</rscale>
<asrwt>0</asrwt>
<pdfrwt beam="1">  1        1 0.20143410E+00 0.17934968E+04</pdfrwt>
<pdfrwt beam="2">  1       -2 0.94489062E-01 0.17934968E+04</pdfrwt>
<totfact> 0.69641116E+00</totfact>
</mgrwt>
</event>
<event>
12    4  0.4183215E-008  0.2517748E+04  0.7818608E-02  0.8396690E-01
          1   -1    0    0  501    0  0.00000000000E+00  0.00000000000E+00  0.16190671993E+04  0.16190671993E+04  0.00000000000E+00 0. -1.
         -2   -1    0    0    0  501 -0.00000000000E+00 -0.00000000000E+00 -0.97881277887E+03  0.97881277887E+03  0.00000000000E+00 0.  1.
        -24    2    1    2    0    0 -0.36144881157E+02  0.59012443708E+03  0.12323453522E+04  0.13691195136E+04  0.79119351235E+02 0.  0.
        254    2    1    2    0    0  0.36144881157E+02 -0.59012443708E+03 -0.59209093176E+03  0.12287604646E+04  0.89984848956E+03 0.  0.
         23    2    4    4    0    0  0.37433580192E+03 -0.58518074014E+03 -0.26210486307E+03  0.74752940363E+03  0.86818539571E+02 0.  0.
         23    2    4    4    0    0 -0.33819092076E+03 -0.49436969382E+01 -0.32998606869E+03  0.48123106095E+03  0.91076832774E+02 0.  0.
          3    1    3    3  502    0  0.88849485947E+01  0.43175208182E+03  0.89528248779E+03  0.99399171798E+03  0.00000000000E+00 0. -1.
         -4    1    3    3    0  502 -0.45029829751E+02  0.15837235526E+03  0.33706286437E+03  0.37512779558E+03  0.00000000000E+00 0.  1.
         11    1    5    5    0    0  0.24815879130E+03 -0.34179535260E+03 -0.12196195918E+03  0.43963799682E+03  0.00000000000E+00 0.  1.
        -11    1    5    5    0    0  0.12617701061E+03 -0.24338538754E+03 -0.14014290389E+03  0.30789140681E+03  0.00000000000E+00 0. -1.
          3    1    6    6  503    0 -0.14446080726E+03 -0.23640560744E+02 -0.88424116248E+02  0.17101644739E+03  0.00000000000E+00 0. -1.
         -3    1    6    6    0  503 -0.19373011351E+03  0.18696863805E+02 -0.24156195245E+03  0.31021461356E+03  0.00000000000E+00 0.  1.
<mgrwt>
<rscale>  0 0.25177479E+04</rscale>
<asrwt>0</asrwt>
<pdfrwt beam="1">  1        1 0.24908726E+00 0.25177479E+04</pdfrwt>
<pdfrwt beam="2">  1       -2 0.15058658E+00 0.25177479E+04</pdfrwt>
<totfact> 0.12508795E+00</totfact>
</mgrwt>
</event>
<event>
12    4  0.4183215E-008  0.1877368E+04  0.7818608E-02  0.8666205E-01
         -4   -1    0    0    0  501 -0.00000000000E+00  0.00000000000E+00  0.12276323542E+04  0.12276323542E+04  0.00000000000E+00 0.  1.
          3   -1    0    0  501    0  0.00000000000E+00 -0.00000000000E+00 -0.71774530742E+03  0.71774530742E+03  0.00000000000E+00 0. -1.
        -24    2    1    2    0    0 -0.53735627554E+03  0.48372691114E+03  0.22395267292E+03  0.76137352084E+03  0.82409629870E+02 0.  0.
        254    2    1    2    0    0  0.53735627554E+03 -0.48372691114E+03  0.28593437389E+03  0.11840041408E+04  0.89295232116E+03 0.  0.
         23    2    4    4    0    0  0.46386895885E+03  0.15363733900E+03  0.16760594424E+03  0.52513880382E+03  0.94340700705E+02 0.  0.
         23    2    4    4    0    0  0.73487316689E+02 -0.63736425014E+03  0.11832842966E+03  0.65886533699E+03  0.92023594521E+02 0.  0.
          3    1    3    3  502    0 -0.24685386524E+02  0.84319920254E+01  0.20782517255E+02  0.33352358549E+02  0.00000000000E+00 0. -1.
         -4    1    3    3    0  502 -0.51267088902E+03  0.47529491912E+03  0.20317015566E+03  0.72802116229E+03  0.00000000000E+00 0.  1.
         11    1    5    5    0    0  0.25912687797E+03  0.37650375757E+02  0.76369566183E+02  0.27275740196E+03  0.00000000000E+00 0. -1.
        -11    1    5    5    0    0  0.20474208088E+03  0.11598696325E+03  0.91236378053E+02  0.25238140186E+03  0.00000000000E+00 0.  1.
          1    1    6    6  503    0 -0.58427976178E+01 -0.83012723401E+02  0.43462277690E+02  0.93884078056E+02  0.00000000000E+00 0. -1.
         -1    1    6    6    0  503  0.79330114307E+02 -0.55435152674E+03  0.74866151968E+02  0.56498125894E+03  0.00000000000E+00 0.  1.
<mgrwt>
<rscale>  0 0.18773677E+04</rscale>
<asrwt>0</asrwt>
<pdfrwt beam="1">  1        3 0.11042236E+00 0.18773677E+04</pdfrwt>
<pdfrwt beam="2">  1       -4 0.18886652E+00 0.18773677E+04</pdfrwt>
<totfact> 0.23191975E-01</totfact>
</mgrwt>
</event>
<event>
12    4  0.4183215E-008  0.1395248E+04  0.7818608E-02  0.8957265E-01
         -2   -1    0    0    0  501 -0.00000000000E+00  0.00000000000E+00  0.14332288252E+03  0.14332288252E+03  0.00000000000E+00 0.  1.
          1   -1    0    0  501    0  0.00000000000E+00 -0.00000000000E+00 -0.33956865170E+04  0.33956865170E+04  0.00000000000E+00 0. -1.
        -24    2    1    2    0    0  0.55203732376E+02 -0.37041420518E+03 -0.56391866127E+03  0.68208098128E+03  0.83522889239E+02 0.  0.
        254    2    1    2    0    0 -0.55203732376E+02  0.37041420518E+03 -0.26884449732E+04  0.28569284182E+04  0.89109453906E+03 0.  0.
         23    2    4    4    0    0 -0.14404080774E+03  0.59590348558E+03 -0.12484697479E+04  0.13937765053E+04  0.89930622482E+02 0.  0.
         23    2    4    4    0    0  0.88837075364E+02 -0.22548928040E+03 -0.14399752253E+04  0.14631519129E+04  0.92452308517E+02 0.  0.
          3    1    3    3  502    0  0.65851509168E+02 -0.22306664074E+03 -0.38787690446E+03  0.45226501134E+03  0.00000000000E+00 0. -1.
         -4    1    3    3    0  502 -0.10647776792E+02 -0.14734756445E+03 -0.17604175681E+03  0.22981596994E+03  0.00000000000E+00 0.  1.
         11    1    5    5    0    0 -0.11960017393E+03  0.35123153398E+03 -0.81341160033E+03  0.89403927409E+03  0.00000000000E+00 0. -1.
        -11    1    5    5    0    0 -0.24440633805E+02  0.24467195161E+03 -0.43505814761E+03  0.49973723123E+03  0.00000000000E+00 0.  1.
          1    1    6    6  503    0  0.78748199115E+02 -0.13110903251E+03 -0.66361195745E+03  0.68100784675E+03  0.00000000000E+00 0. -1.
         -1    1    6    6    0  503  0.10088876249E+02 -0.94380247887E+02 -0.77636326780E+03  0.78214406615E+03  0.00000000000E+00 0.  1.
<mgrwt>
<rscale>  0 0.13952485E+04</rscale>
<asrwt>0</asrwt>
<pdfrwt beam="1">  1        1 0.52241334E+00 0.13952485E+04</pdfrwt>
<pdfrwt beam="2">  1       -2 0.22049673E-01 0.13952485E+04</pdfrwt>
<totfact> 0.47051132E+00</totfact>
</mgrwt>
</event>
<event>
12    4  0.4183215E-008  0.1413056E+04  0.7818608E-02  0.8944422E-01
         -2   -1    0    0    0  501 -0.00000000000E+00  0.00000000000E+00  0.20755320939E+04  0.20755320939E+04  0.00000000000E+00 0.  1.
          1   -1    0    0  501    0  0.00000000000E+00 -0.00000000000E+00 -0.24050783421E+03  0.24050783421E+03  0.00000000000E+00 0. -1.
        -24    2    1    2    0    0 -0.37982833542E+03  0.13127451638E+03  0.37462349704E+03  0.55663823746E+03  0.89447190131E+02 0.  0.
        254    2    1    2    0    0  0.37982833542E+03 -0.13127451638E+03  0.14604007627E+04  0.17594016907E+04  0.89510969079E+03 0.  0.
         23    2    4    4    0    0  0.31314783022E+03 -0.40163976719E+03  0.13541048021E+04  0.14494769662E+04  0.89485163781E+02 0.  0.
         23    2    4    4    0    0  0.66680505199E+02  0.27036525082E+03  0.10629596061E+03  0.30992472445E+03  0.84916694238E+02 0.  0.
          3    1    3    3  502    0 -0.15894422866E+03  0.54921811316E+02  0.98508425270E+02  0.19489377371E+03  0.00000000000E+00 0. -1.
         -4    1    3    3    0  502 -0.22088410677E+03  0.76352705064E+02  0.27611507177E+03  0.36174446375E+03  0.00000000000E+00 0.  1.
         11    1    5    5    0    0  0.16583105329E+03 -0.25908635577E+03  0.90356731535E+03  0.95449440614E+03  0.00000000000E+00 0.  1.
        -11    1    5    5    0    0  0.14731677693E+03 -0.14255341142E+03  0.45053748671E+03  0.49498256010E+03  0.00000000000E+00 0. -1.
          4    1    6    6  503    0 -0.66633286872E+01  0.11890486609E+03  0.68720786690E+02  0.13749659506E+03  0.00000000000E+00 0. -1.
         -4    1    6    6    0  503  0.73343833886E+02  0.15146038472E+03  0.37575173924E+02  0.17242812939E+03  0.00000000000E+00 0.  1.
<mgrwt>
<rscale>  0 0.14130559E+04</rscale>
<asrwt>0</asrwt>
<pdfrwt beam="1">  1        1 0.37001207E-01 0.14130559E+04</pdfrwt>
<pdfrwt beam="2">  1       -2 0.31931262E+00 0.14130559E+04</pdfrwt>
<totfact> 0.24188374E+00</totfact>
</mgrwt>
</event>
<event>
12    4  0.4183215E-008  0.1061304E+04  0.7818608E-02  0.9243751E-01
         -2   -1    0    0    0  501 -0.00000000000E+00  0.00000000000E+00  0.48696547083E+03  0.48696547083E+03  0.00000000000E+00 0.  1.
          1   -1    0    0  501    0  0.00000000000E+00 -0.00000000000E+00 -0.57825759117E+03  0.57825759117E+03  0.00000000000E+00 0. -1.
        -24    2    1    2    0    0  0.26691567933E+02 -0.84542994911E+02 -0.10245470010E+03  0.15801948344E+03  0.81321791579E+02 0.  0.
        254    2    1    2    0    0 -0.26691567933E+02  0.84542994911E+02  0.11162579763E+02  0.90720357855E+03  0.90279220863E+03 0.  0.
         23    2    4    4    0    0  0.16541436903E+03 -0.17515921739E+03 -0.33664019571E+03  0.42391428613E+03  0.91290939830E+02 0.  0.
         23    2    4    4    0    0 -0.19210593697E+03  0.25970221231E+03  0.34780277548E+03  0.48328929242E+03  0.90839635864E+02 0.  0.
          3    1    3    3  502    0  0.12447095269E+02 -0.98835791493E+02 -0.79456431203E+02  0.12742357835E+03  0.00000000000E+00 0. -1.
         -4    1    3    3    0  502  0.14244472665E+02  0.14292796582E+02 -0.22998268902E+02  0.30595905087E+02  0.00000000000E+00 0.  1.
         11    1    5    5    0    0  0.15311210313E+03 -0.18576813244E+03 -0.32203507224E+03  0.40206927626E+03  0.00000000000E+00 0. -1.
        -11    1    5    5    0    0  0.12302265902E+02  0.10608915046E+02 -0.14605123471E+02  0.21845009874E+02  0.00000000000E+00 0.  1.
          3    1    6    6  503    0 -0.17763012470E+03  0.22595030129E+03  0.25783742801E+03  0.38611674289E+03  0.00000000000E+00 0. -1.
         -3    1    6    6    0  503 -0.14475812265E+02  0.33751911018E+02  0.89965347469E+02  0.97172549536E+02  0.00000000000E+00 0.  1.
<mgrwt>
<rscale>  0 0.10613039E+04</rscale>
<asrwt>0</asrwt>
<pdfrwt beam="1">  1        1 0.88962706E-01 0.10613039E+04</pdfrwt>
<pdfrwt beam="2">  1       -2 0.74917765E-01 0.10613039E+04</pdfrwt>
<totfact> 0.50568227E+01</totfact>
</mgrwt>
</event>
<event>
12    4  0.4183215E-008  0.1360372E+04  0.7818608E-02  0.8983014E-01
         -2   -1    0    0    0  501 -0.00000000000E+00  0.00000000000E+00  0.63004063665E+03  0.63004063665E+03  0.00000000000E+00 0.  1.
          1   -1    0    0  501    0  0.00000000000E+00 -0.00000000000E+00 -0.73432193290E+03  0.73432193290E+03  0.00000000000E+00 0. -1.
        -24    2    1    2    0    0  0.26878593970E+03 -0.20595385162E+03 -0.20465386694E+03  0.40378478967E+03  0.80598267550E+02 0.  0.
        254    2    1    2    0    0 -0.26878593970E+03  0.20595385162E+03  0.10037257068E+03  0.96057777988E+03  0.89329286792E+03 0.  0.
         23    2    4    4    0    0  0.24414109604E+03  0.28268993286E+03  0.18876234274E+03  0.42718206797E+03  0.85643588420E+02 0.  0.
         23    2    4    4    0    0 -0.51292703575E+03 -0.76736081239E+02 -0.88389772053E+02  0.53339571192E+03  0.87838849738E+02 0.  0.
          3    1    3    3  502    0  0.24715413431E+03 -0.21147938322E+03 -0.19643347973E+03  0.37999316782E+03  0.00000000000E+00 0. -1.
         -4    1    3    3    0  502  0.21631805400E+02  0.55255315966E+01 -0.82203872131E+01  0.23791621849E+02  0.00000000000E+00 0.  1.
         11    1    5    5    0    0  0.23053603507E+03  0.28115613223E+03  0.16394863786E+03  0.39884181077E+03  0.00000000000E+00 0. -1.
        -11    1    5    5    0    0  0.13605060971E+02  0.15338006281E+01  0.24813704877E+02  0.28340257199E+02  0.00000000000E+00 0.  1.
          3    1    6    6  503    0 -0.25243358080E+03 -0.60981915112E+02 -0.82052881699E+02  0.27234937504E+03  0.00000000000E+00 0. -1.
         -3    1    6    6    0  503 -0.26049345495E+03 -0.15754166127E+02 -0.63368903534E+01  0.26104633688E+03  0.00000000000E+00 0.  1.
<mgrwt>
<rscale>  0 0.13603715E+04</rscale>
<asrwt>0</asrwt>
<pdfrwt beam="1">  1        1 0.11297261E+00 0.13603715E+04</pdfrwt>
<pdfrwt beam="2">  1       -2 0.96929329E-01 0.13603715E+04</pdfrwt>
<totfact> 0.19278256E+01</totfact>
</mgrwt>
</event>
<event>
12    4  0.4183215E-008  0.1823925E+04  0.7818608E-02  0.8693679E-01
         -2   -1    0    0    0  501 -0.00000000000E+00  0.00000000000E+00  0.50419206420E+03  0.50419206420E+03  0.00000000000E+00 0.  1.
          1   -1    0    0  501    0  0.00000000000E+00 -0.00000000000E+00 -0.16495219893E+04  0.16495219893E+04  0.00000000000E+00 0. -1.
        -24    2    1    2    0    0 -0.62400613953E+03 -0.72630810682E+02 -0.95792066429E+02  0.64050646497E+03  0.80084423306E+02 0.  0.
        254    2    1    2    0    0  0.62400613953E+03  0.72630810682E+02 -0.10495378587E+04  0.15132075885E+04  0.89084712065E+03 0.  0.
         23    2    4    4    0    0 -0.71273609177E+02 -0.27619347416E+03 -0.37013159163E+03  0.47622865552E+03  0.91834496181E+02 0.  0.
         23    2    4    4    0    0  0.69527974870E+03  0.34882428484E+03 -0.67940626704E+03  0.10369789330E+04  0.92952251988E+02 0.  0.
          1    1    3    3  502    0 -0.37538710563E+02  0.10249216997E+01 -0.25215887646E+02  0.45233242698E+02  0.00000000000E+00 0. -1.
         -2    1    3    3    0  502 -0.58646742896E+03 -0.73655732382E+02 -0.70576178784E+02  0.59527322228E+03  0.00000000000E+00 0.  1.
         11    1    5    5    0    0 -0.23352509988E+02 -0.37604596996E+02 -0.17111191606E+02  0.47457752961E+02  0.00000000000E+00 0. -1.
        -11    1    5    5    0    0 -0.47921099188E+02 -0.23858887716E+03 -0.35302040002E+03  0.42877090256E+03  0.00000000000E+00 0.  1.
          2    1    6    6  503    0  0.51861549520E+03  0.24724863691E+03 -0.55140158829E+03  0.79632759081E+03  0.00000000000E+00 0.  1.
         -2    1    6    6    0  503  0.17666425350E+03  0.10157564793E+03 -0.12800467875E+03  0.24065134219E+03  0.00000000000E+00 0. -1.
<mgrwt>
<rscale>  0 0.18239253E+04</rscale>
<asrwt>0</asrwt>
<pdfrwt beam="1">  1        1 0.25377261E+00 0.18239253E+04</pdfrwt>
<pdfrwt beam="2">  1       -2 0.77568010E-01 0.18239253E+04</pdfrwt>
<totfact> 0.63186349E+00</totfact>
</mgrwt>
</event>
<event>
12    4  0.4342855E-008  0.2501177E+04  0.7818608E-02  0.8402566E-01
          1   -1    0    0  501    0  0.00000000000E+00  0.00000000000E+00  0.14122745381E+04  0.14122745381E+04  0.00000000000E+00 0. -1.
         -2   -1    0    0    0  501 -0.00000000000E+00 -0.00000000000E+00 -0.11074135728E+04  0.11074135728E+04  0.00000000000E+00 0.  1.
        -24    2    1    2    0    0  0.51918926246E+03 -0.76540428442E+03  0.70677335741E+03  0.11666590147E+04  0.78507763187E+02 0.  0.
        254    2    1    2    0    0 -0.51918926246E+03  0.76540428442E+03 -0.40191239203E+03  0.13530290963E+04  0.90208256583E+03 0.  0.
         23    2    4    4    0    0 -0.71393138661E+03  0.77018760194E+03 -0.42527444793E+03  0.11367163881E+04  0.91535915680E+02 0.  0.
         23    2    4    4    0    0  0.19474212415E+03 -0.47833175197E+01  0.23362055901E+02  0.21631270819E+03  0.91093507022E+02 0.  0.
          3    1    3    3  502    0  0.49870260892E+03 -0.73466177117E+03  0.69591422635E+03  0.11281528357E+04  0.00000000000E+00 0. -1.
         -4    1    3    3    0  502  0.20486653532E+02 -0.30742513253E+02  0.10859131062E+02  0.38506179004E+02  0.00000000000E+00 0.  1.
         11    1    5    5    0    0 -0.63363045231E+03  0.71345600022E+03 -0.36650067401E+03  0.10221691437E+04  0.00000000000E+00 0. -1.
        -11    1    5    5    0    0 -0.80300934301E+02  0.56731601721E+02 -0.58773773927E+02  0.11454724434E+03  0.00000000000E+00 0.  1.
          2    1    6    6  503    0  0.30756599179E+02 -0.16089893622E+01 -0.30827606632E+02  0.43576353341E+02  0.00000000000E+00 0. -1.
         -2    1    6    6    0  503  0.16398552498E+03 -0.31743281574E+01  0.54189662534E+02  0.17273635485E+03  0.00000000000E+00 0.  1.
<mgrwt>
<rscale>  0 0.25011773E+04</rscale>
<asrwt>0</asrwt>
<pdfrwt beam="1">  1        1 0.21727301E+00 0.25011773E+04</pdfrwt>
<pdfrwt beam="2">  1       -2 0.17037132E+00 0.25011773E+04</pdfrwt>
<totfact> 0.12443328E+00</totfact>
</mgrwt>
</event>
<event>
12    4  0.4183215E-008  0.1299701E+04  0.7818608E-02  0.9029803E-01
         -2   -1    0    0    0  501 -0.00000000000E+00  0.00000000000E+00  0.24600528278E+03  0.24600528278E+03  0.00000000000E+00 0.  1.
          1   -1    0    0  501    0  0.00000000000E+00 -0.00000000000E+00 -0.17166519195E+04  0.17166519195E+04  0.00000000000E+00 0. -1.
        -24    2    1    2    0    0  0.19055994770E+03 -0.15124499326E+03 -0.72441951854E+03  0.76826747196E+03  0.79139926555E+02 0.  0.
        254    2    1    2    0    0 -0.19055994770E+03  0.15124499326E+03 -0.74622711816E+03  0.11943897303E+04  0.90029093870E+03 0.  0.
         23    2    4    4    0    0 -0.44526340167E+03  0.36231778590E+03 -0.54697576712E+03  0.79792002378E+03  0.89219951152E+02 0.  0.
         23    2    4    4    0    0  0.25470345398E+03 -0.21107279264E+03 -0.19925135104E+03  0.39646970652E+03  0.89786157246E+02 0.  0.
          3    1    3    3  502    0  0.18590545286E+03 -0.11435502365E+03 -0.63318389899E+03  0.66974604051E+03  0.00000000000E+00 0. -1.
         -4    1    3    3    0  502  0.46544948365E+01 -0.36889969615E+02 -0.91235619554E+02  0.98521431455E+02  0.00000000000E+00 0.  1.
         11    1    5    5    0    0 -0.42533656497E+02  0.55159929974E+01 -0.39909848483E+02  0.58586125658E+02  0.00000000000E+00 0.  1.
        -11    1    5    5    0    0 -0.40272974518E+03  0.35680179290E+03 -0.50706591864E+03  0.73933389812E+03  0.00000000000E+00 0. -1.
          1    1    6    6  503    0  0.19691964186E+03 -0.17082288731E+03 -0.19568200068E+03  0.32595896915E+03  0.00000000000E+00 0. -1.
         -1    1    6    6    0  503  0.57783812120E+02 -0.40249905328E+02 -0.35693503607E+01  0.70510737366E+02  0.00000000000E+00 0.  1.
<mgrwt>
<rscale>  0 0.12997006E+04</rscale>
<asrwt>0</asrwt>
<pdfrwt beam="1">  1        1 0.26410031E+00 0.12997006E+04</pdfrwt>
<pdfrwt beam="2">  1       -2 0.37846965E-01 0.12997006E+04</pdfrwt>
<totfact> 0.26386091E+01</totfact>
</mgrwt>
</event>
<event>
12    4  0.4183215E-008  0.1846837E+04  0.7818608E-02  0.8681781E-01
          1   -1    0    0  501    0  0.00000000000E+00  0.00000000000E+00  0.98629414855E+03  0.98629414855E+03  0.00000000000E+00 0. -1.
         -2   -1    0    0    0  501 -0.00000000000E+00 -0.00000000000E+00 -0.86455089691E+03  0.86455089691E+03  0.00000000000E+00 0.  1.
        -24    2    1    2    0    0 -0.29185520269E+03 -0.28944141889E+03 -0.52288828575E+03  0.66997837508E+03  0.80641610817E+02 0.  0.
        254    2    1    2    0    0  0.29185520269E+03  0.28944141889E+03  0.64463153738E+03  0.11808666704E+04  0.89996693267E+03 0.  0.
         23    2    4    4    0    0  0.44659381164E+03 -0.16423395165E+03  0.42442845988E+03  0.64474691583E+03  0.95604625660E+02 0.  0.
         23    2    4    4    0    0 -0.15473860895E+03  0.45367537054E+03  0.22020307751E+03  0.53611975455E+03  0.95758116810E+02 0.  0.
          1    1    3    3  502    0 -0.87328666772E+02 -0.49581954994E+02 -0.92736153073E+02  0.13669184463E+03  0.00000000000E+00 0. -1.
         -2    1    3    3    0  502 -0.20452653592E+03 -0.23985946390E+03 -0.43015213268E+03  0.53328653045E+03  0.00000000000E+00 0.  1.
         11    1    5    5    0    0  0.44409657856E+03 -0.17195772684E+03  0.41100488428E+03  0.62905981100E+03  0.00000000000E+00 0.  1.
        -11    1    5    5    0    0  0.24972330799E+01  0.77237751889E+01  0.13423575597E+02  0.15687104833E+02  0.00000000000E+00 0. -1.
          4    1    6    6  503    0 -0.15311242337E+03  0.37505530758E+03  0.15421920182E+03  0.43346679244E+03  0.00000000000E+00 0.  1.
         -4    1    6    6    0  503 -0.16261855797E+01  0.78620062962E+02  0.65983875683E+02  0.10265296211E+03  0.00000000000E+00 0. -1.
<mgrwt>
<rscale>  0 0.18468367E+04</rscale>
<asrwt>0</asrwt>
<pdfrwt beam="1">  1        1 0.15173756E+00 0.18468367E+04</pdfrwt>
<pdfrwt beam="2">  1       -2 0.13300783E+00 0.18468367E+04</pdfrwt>
<totfact> 0.52360039E+00</totfact>
</mgrwt>
</event>
<event>
12    4  0.4183215E-008  0.2108655E+04  0.7818608E-02  0.8557440E-01
          3   -1    0    0  501    0  0.00000000000E+00  0.00000000000E+00  0.99218011150E+03  0.99218011150E+03  0.00000000000E+00 0. -1.
         -4   -1    0    0    0  501 -0.00000000000E+00 -0.00000000000E+00 -0.11203674465E+04  0.11203674465E+04  0.00000000000E+00 0.  1.
        -24    2    1    2    0    0  0.27469699106E+03 -0.93326239568E+02 -0.85291728618E+03  0.90505795799E+03  0.86566658497E+02 0.  0.
        254    2    1    2    0    0 -0.27469699106E+03  0.93326239568E+02  0.72472995121E+03  0.12074896000E+04  0.92121083797E+03 0.  0.
         23    2    4    4    0    0 -0.33785358868E+02 -0.29425259571E+03  0.67076222125E+03  0.73893734074E+03  0.91544500222E+02 0.  0.
         23    2    4    4    0    0 -0.24091163219E+03  0.38757883528E+03  0.53967729958E+02  0.46855225924E+03  0.91503746824E+02 0.  0.
          1    1    3    3  502    0  0.15508425283E+03 -0.98444716169E+01 -0.39490174422E+03  0.42437651524E+03  0.00000000000E+00 0. -1.
         -2    1    3    3    0  502  0.11961273822E+03 -0.83481767952E+02 -0.45801554196E+03  0.48068144275E+03  0.00000000000E+00 0.  1.
         11    1    5    5    0    0 -0.70484166399E+01 -0.72716058405E+02  0.84831271572E+02  0.11195378495E+03  0.00000000000E+00 0. -1.
        -11    1    5    5    0    0 -0.26736942228E+02 -0.22153653731E+03  0.58593094968E+03  0.62698355579E+03  0.00000000000E+00 0.  1.
          2    1    6    6  503    0 -0.14364005162E+03  0.19955071403E+03  0.71698011675E+02  0.25611239091E+03  0.00000000000E+00 0. -1.
         -2    1    6    6    0  503 -0.97271580568E+02  0.18802812125E+03 -0.17730281716E+02  0.21243986833E+03  0.00000000000E+00 0.  1.
<mgrwt>
<rscale>  0 0.21086548E+04</rscale>
<asrwt>0</asrwt>
<pdfrwt beam="1">  1        3 0.15264310E+00 0.21086548E+04</pdfrwt>
<pdfrwt beam="2">  1       -4 0.17236422E+00 0.21086548E+04</pdfrwt>
<totfact> 0.13239627E-01</totfact>
</mgrwt>
</event>
<event>
12    4  0.4183215E-008  0.1436155E+04  0.7818608E-02  0.8928056E-01
          1   -1    0    0  501    0  0.00000000000E+00  0.00000000000E+00  0.35440027888E+03  0.35440027888E+03  0.00000000000E+00 0. -1.
         -4   -1    0    0    0  501 -0.00000000000E+00 -0.00000000000E+00 -0.14549507743E+04  0.14549507743E+04  0.00000000000E+00 0.  1.
        -24    2    1    2    0    0 -0.40295347555E+03 -0.15183242338E+03 -0.27016528585E+03  0.51492149412E+03  0.82038254391E+02 0.  0.
        254    2    1    2    0    0  0.40295347555E+03  0.15183242338E+03 -0.83038520960E+03  0.12944295591E+04  0.89475342910E+03 0.  0.
         23    2    4    4    0    0  0.39093173127E+03  0.31511102656E+03 -0.94518472609E+03  0.10740146931E+04  0.89503167411E+02 0.  0.
         23    2    4    4    0    0  0.12021744280E+02 -0.16327860318E+03  0.11479951649E+03  0.22041486600E+03  0.92732731937E+02 0.  0.
          3    1    3    3  502    0 -0.16427703551E+03 -0.71639262088E+02 -0.66798463281E+02  0.19126202698E+03  0.00000000000E+00 0. -1.
         -4    1    3    3    0  502 -0.23867644004E+03 -0.80193161296E+02 -0.20336682256E+03  0.32365946714E+03  0.00000000000E+00 0.  1.
         11    1    5    5    0    0  0.13113750542E+03  0.16054711927E+03 -0.36276844891E+03  0.41781978215E+03  0.00000000000E+00 0. -1.
        -11    1    5    5    0    0  0.25979422585E+03  0.15456390729E+03 -0.58241627718E+03  0.65619491095E+03  0.00000000000E+00 0.  1.
          3    1    6    6  503    0  0.91288127900E+01 -0.16590075895E+03  0.78247230868E+02  0.18365463833E+03  0.00000000000E+00 0. -1.
         -3    1    6    6    0  503  0.28929314903E+01  0.26221557663E+01  0.36552285626E+02  0.36760227664E+02  0.00000000000E+00 0.  1.
<mgrwt>
<rscale>  0 0.14361545E+04</rscale>
<asrwt>0</asrwt>
<pdfrwt beam="1">  1        1 0.54523120E-01 0.14361545E+04</pdfrwt>
<pdfrwt beam="2">  1       -4 0.22383858E+00 0.14361545E+04</pdfrwt>
<totfact> 0.30047676E+00</totfact>
</mgrwt>
</event>
<event>
12    4  0.4183215E-008  0.1194905E+04  0.7818608E-02  0.9117328E-01
         -2   -1    0    0    0  501 -0.00000000000E+00  0.00000000000E+00  0.35704152356E+03  0.35704152356E+03  0.00000000000E+00 0.  1.
          1   -1    0    0  501    0  0.00000000000E+00 -0.00000000000E+00 -0.99974187194E+03  0.99974187194E+03  0.00000000000E+00 0. -1.
        -24    2    1    2    0    0  0.20050485635E+03  0.58693294351E+02 -0.25693584607E+03  0.34067849820E+03  0.79991936586E+02 0.  0.
        254    2    1    2    0    0 -0.20050485635E+03 -0.58693294351E+02 -0.38576450231E+03  0.10161048973E+04  0.91651940015E+03 0.  0.
         23    2    4    4    0    0 -0.50947523774E+03 -0.12142897807E+03 -0.43116136039E+03  0.68435691256E+03  0.90190079838E+02 0.  0.
         23    2    4    4    0    0  0.30897038139E+03  0.62735683722E+02  0.45396858077E+02  0.33174798474E+03  0.92722101283E+02 0.  0.
          3    1    3    3  502    0  0.14027658037E+03  0.69246852224E+02 -0.14587347722E+03  0.21389650979E+03  0.00000000000E+00 0. -1.
         -4    1    3    3    0  502  0.60228275981E+02 -0.10553557873E+02 -0.11106236885E+03  0.12678198841E+03  0.00000000000E+00 0.  1.
         11    1    5    5    0    0 -0.41935592150E+02 -0.96320878856E+00 -0.69245092998E+02  0.80959277198E+02  0.00000000000E+00 0. -1.
        -11    1    5    5    0    0 -0.46753964559E+03 -0.12046576928E+03 -0.36191626739E+03  0.60339763537E+03  0.00000000000E+00 0.  1.
          4    1    6    6  503    0  0.16593342691E+01  0.12178345825E+00 -0.12682042781E+02  0.12790716576E+02  0.00000000000E+00 0. -1.
         -4    1    6    6    0  503  0.30731104712E+03  0.62613900264E+02  0.58078900858E+02  0.31895726816E+03  0.00000000000E+00 0.  1.
<mgrwt>
<rscale>  0 0.11949048E+04</rscale>
<asrwt>0</asrwt>
<pdfrwt beam="1">  1        1 0.15380644E+00 0.11949048E+04</pdfrwt>
<pdfrwt beam="2">  1       -2 0.54929465E-01 0.11949048E+04</pdfrwt>
<totfact> 0.40958847E+01</totfact>
</mgrwt>
</event>
<event>
12    4  0.4183215E-008  0.1539961E+04  0.7818608E-02  0.8858306E-01
          1   -1    0    0  501    0  0.00000000000E+00  0.00000000000E+00  0.22686814471E+04  0.22686814471E+04  0.00000000000E+00 0. -1.
         -2   -1    0    0    0  501 -0.00000000000E+00 -0.00000000000E+00 -0.26132808792E+03  0.26132808792E+03  0.00000000000E+00 0.  1.
        -24    2    1    2    0    0  0.37097747388E+03  0.29309931031E+03  0.93806714601E+03  0.10535735029E+04  0.80719661740E+02 0.  0.
        254    2    1    2    0    0 -0.37097747388E+03 -0.29309931031E+03  0.10692862132E+04  0.14764360322E+04  0.90164231235E+03 0.  0.
         23    2    4    4    0    0 -0.81187703231E+02 -0.41553113595E+03  0.88158339135E+02  0.44208431768E+03  0.91701052733E+02 0.  0.
         23    2    4    4    0    0 -0.28978977065E+03  0.12243182565E+03  0.98112787409E+03  0.10343517145E+04  0.91125741830E+02 0.  0.
          3    1    3    3  502    0  0.18638688507E+03  0.12316784497E+03  0.36428302353E+03  0.42733185020E+03  0.00000000000E+00 0. -1.
         -4    1    3    3    0  502  0.18459058881E+03  0.16993146534E+03  0.57378412247E+03  0.62624165271E+03  0.00000000000E+00 0.  1.
         11    1    5    5    0    0 -0.76295921276E+01 -0.27423438173E+02 -0.17200291074E+02  0.33258166671E+02  0.00000000000E+00 0. -1.
        -11    1    5    5    0    0 -0.73558111104E+02 -0.38810769778E+03  0.10535863021E+03  0.40882615101E+03  0.00000000000E+00 0.  1.
          4    1    6    6  503    0 -0.26352008153E+01 -0.91856685432E+01  0.14047822595E+02  0.16990059140E+02  0.00000000000E+00 0. -1.
         -4    1    6    6    0  503 -0.28715456984E+03  0.13161749419E+03  0.96708005149E+03  0.10173616553E+04  0.00000000000E+00 0.  1.
<mgrwt>
<rscale>  0 0.15399613E+04</rscale>
<asrwt>0</asrwt>
<pdfrwt beam="1">  1        1 0.34902790E+00 0.15399613E+04</pdfrwt>
<pdfrwt beam="2">  1       -2 0.40204323E-01 0.15399613E+04</pdfrwt>
<totfact> 0.97066038E+00</totfact>
</mgrwt>
</event>
<event>
12    4  0.4183215E-008  0.2166850E+04  0.7818608E-02  0.8532354E-01
         -2   -1    0    0    0  501 -0.00000000000E+00  0.00000000000E+00  0.25209618354E+04  0.25209618354E+04  0.00000000000E+00 0.  1.
          1   -1    0    0  501    0  0.00000000000E+00 -0.00000000000E+00 -0.46561979477E+03  0.46561979477E+03  0.00000000000E+00 0. -1.
        -24    2    1    2    0    0  0.75054062417E+03  0.44808346447E+03  0.72751647286E+03  0.11400627479E+04  0.79830014041E+02 0.  0.
        254    2    1    2    0    0 -0.75054062417E+03 -0.44808346447E+03  0.13278255677E+04  0.18465188823E+04  0.93937278252E+03 0.  0.
         23    2    4    4    0    0 -0.34997251016E+03 -0.61149136352E+03  0.11860385213E+04  0.13826038513E+04  0.92214913372E+02 0.  0.
         23    2    4    4    0    0 -0.40056811401E+03  0.16340789905E+03  0.14178704647E+03  0.46391503093E+03  0.89199966050E+02 0.  0.
          1    1    3    3  502    0  0.21256607310E+03  0.13541535698E+03  0.25698709558E+03  0.35995002657E+03  0.00000000000E+00 0. -1.
         -2    1    3    3    0  502  0.53797455108E+03  0.31266810749E+03  0.47052937728E+03  0.78011272130E+03  0.00000000000E+00 0.  1.
         11    1    5    5    0    0 -0.31741374095E+02 -0.19882695556E+02  0.83803703888E+02  0.91792685969E+02  0.00000000000E+00 0. -1.
        -11    1    5    5    0    0 -0.31823113607E+03 -0.59160866797E+03  0.11022348174E+04  0.12908111654E+04  0.00000000000E+00 0.  1.
          3    1    6    6  503    0 -0.26697890118E+03  0.77095348219E+02  0.12254522990E+03  0.30370834655E+03  0.00000000000E+00 0. -1.
         -3    1    6    6    0  503 -0.13358921283E+03  0.86312550834E+02  0.19241816571E+02  0.16020668438E+03  0.00000000000E+00 0.  1.
<mgrwt>
<rscale>  0 0.21668500E+04</rscale>
<asrwt>0</asrwt>
<pdfrwt beam="1">  1        1 0.71633816E-01 0.21668500E+04</pdfrwt>
<pdfrwt beam="2">  1       -2 0.38784027E+00 0.21668500E+04</pdfrwt>
<totfact> 0.34922386E-01</totfact>
</mgrwt>
</event>
<event>
12    4  0.4183215E-008  0.1827538E+04  0.7818608E-02  0.8691791E-01
         -2   -1    0    0    0  501 -0.00000000000E+00  0.00000000000E+00  0.50815399629E+03  0.50815399629E+03  0.00000000000E+00 0.  1.
          1   -1    0    0  501    0  0.00000000000E+00 -0.00000000000E+00 -0.16431511358E+04  0.16431511358E+04  0.00000000000E+00 0. -1.
        -24    2    1    2    0    0  0.61286297084E+03  0.20407004501E+03 -0.70530045553E+03  0.95995615838E+03  0.82592306858E+02 0.  0.
        254    2    1    2    0    0 -0.61286297084E+03 -0.20407004501E+03 -0.42969668397E+03  0.11913489737E+04  0.90411699055E+03 0.  0.
         23    2    4    4    0    0 -0.34046394791E+03 -0.28637550772E+03 -0.66964964196E+03  0.80909262787E+03  0.90959365986E+02 0.  0.
         23    2    4    4    0    0 -0.27239902293E+03  0.82305462707E+02  0.23995295799E+03  0.38225634582E+03  0.86988935993E+02 0.  0.
          3    1    3    3  502    0  0.33136775076E+03  0.14899351127E+03 -0.36696681057E+03  0.51639935390E+03  0.00000000000E+00 0. -1.
         -4    1    3    3    0  502  0.28149522008E+03  0.55076533743E+02 -0.33833364495E+03  0.44355680448E+03  0.00000000000E+00 0.  1.
         11    1    5    5    0    0 -0.25358257801E+03 -0.23362580433E+03 -0.44862581447E+03  0.56581822322E+03  0.00000000000E+00 0. -1.
        -11    1    5    5    0    0 -0.86881369902E+02 -0.52749703389E+02 -0.22102382749E+03  0.24327440466E+03  0.00000000000E+00 0.  1.
          2    1    6    6  503    0 -0.18346601888E+03  0.71623812444E+02  0.20976373083E+03  0.28773351102E+03  0.00000000000E+00 0. -1.
         -2    1    6    6    0  503 -0.88933004052E+02  0.10681650263E+02  0.30189227164E+02  0.94522834801E+02  0.00000000000E+00 0.  1.
<mgrwt>
<rscale>  0 0.18275380E+04</rscale>
<asrwt>0</asrwt>
<pdfrwt beam="1">  1        1 0.25279248E+00 0.18275380E+04</pdfrwt>
<pdfrwt beam="2">  1       -2 0.78177538E-01 0.18275380E+04</pdfrwt>
<totfact> 0.62696580E+00</totfact>
</mgrwt>
</event>
<event>
12    4  0.4183215E-008  0.1615655E+04  0.7818608E-02  0.8810988E-01
          1   -1    0    0  501    0  0.00000000000E+00  0.00000000000E+00  0.21586059679E+04  0.21586059679E+04  0.00000000000E+00 0. -1.
         -2   -1    0    0    0  501 -0.00000000000E+00 -0.00000000000E+00 -0.30231777393E+03  0.30231777393E+03  0.00000000000E+00 0.  1.
        -24    2    1    2    0    0 -0.61136149598E+02  0.27616267218E+03 -0.79239275291E+02  0.30418412947E+03  0.79029561414E+02 0.  0.
        254    2    1    2    0    0  0.61136149598E+02 -0.27616267218E+03  0.19355274692E+04  0.21567396123E+04  0.90843586509E+03 0.  0.
         23    2    4    4    0    0  0.16002515987E+03 -0.48701005228E+03  0.58443367636E+03  0.78269809636E+03  0.90921642963E+02 0.  0.
         23    2    4    4    0    0 -0.98889010272E+02  0.21084738010E+03  0.13510937929E+04  0.13740415160E+04  0.91104316380E+02 0.  0.
          1    1    3    3  502    0 -0.10806029302E+02  0.16419541271E+03 -0.13944856492E+02  0.16514043372E+03  0.00000000000E+00 0. -1.
         -2    1    3    3    0  502 -0.50330120296E+02  0.11196725947E+03 -0.65294418800E+02  0.13904369575E+03  0.00000000000E+00 0.  1.
         11    1    5    5    0    0  0.87029021853E+01 -0.15568139893E+03  0.16040132650E+03  0.22369851145E+03  0.00000000000E+00 0.  1.
        -11    1    5    5    0    0  0.15132225769E+03 -0.33132865335E+03  0.42403234986E+03  0.55899958491E+03  0.00000000000E+00 0. -1.
          3    1    6    6  503    0 -0.11272983530E+03  0.15055684305E+03  0.10354040309E+04  0.10523482722E+04  0.00000000000E+00 0. -1.
         -3    1    6    6    0  503  0.13840825028E+02  0.60290537056E+02  0.31568976196E+03  0.32169324379E+03  0.00000000000E+00 0.  1.
<mgrwt>
<rscale>  0 0.16156546E+04</rscale>
<asrwt>0</asrwt>
<pdfrwt beam="1">  1        1 0.33209322E+00 0.16156546E+04</pdfrwt>
<pdfrwt beam="2">  1       -2 0.46510428E-01 0.16156546E+04</pdfrwt>
<totfact> 0.85794449E+00</totfact>
</mgrwt>
</event>
<event>
12    4  0.4183215E-008  0.2109513E+04  0.7818608E-02  0.8557064E-01
          1   -1    0    0  501    0  0.00000000000E+00  0.00000000000E+00  0.68418410174E+03  0.68418410174E+03  0.00000000000E+00 0. -1.
         -2   -1    0    0    0  501 -0.00000000000E+00 -0.00000000000E+00 -0.16260410276E+04  0.16260410276E+04  0.00000000000E+00 0.  1.
        -24    2    1    2    0    0  0.39216404024E+03 -0.55028707526E+03 -0.97936137801E+03  0.11924769595E+04  0.79019557730E+02 0.  0.
        254    2    1    2    0    0 -0.39216404024E+03  0.55028707526E+03  0.37504452151E+02  0.11177481698E+04  0.88957624048E+03 0.  0.
         23    2    4    4    0    0  0.14468703898E+03 -0.75439590544E+02 -0.18155842654E+03  0.25970594190E+03  0.88646731141E+02 0.  0.
         23    2    4    4    0    0 -0.53685107922E+03  0.62572666580E+03  0.21906287869E+03  0.85804222795E+03  0.92222440737E+02 0.  0.
          3    1    3    3  502    0  0.17080172880E+03 -0.21433305941E+03 -0.33496299814E+03  0.43279568048E+03  0.00000000000E+00 0. -1.
         -4    1    3    3    0  502  0.22136231144E+03 -0.33595401585E+03 -0.64439837987E+03  0.75968127900E+03  0.00000000000E+00 0.  1.
         11    1    5    5    0    0  0.13701724185E+03 -0.80264065086E+02 -0.12409670806E+03  0.20153420965E+03  0.00000000000E+00 0.  1.
        -11    1    5    5    0    0  0.76697971300E+01  0.48244745425E+01 -0.57461718478E+02  0.58171732251E+02  0.00000000000E+00 0. -1.
          2    1    6    6  503    0 -0.99466874756E+02  0.13813081002E+03  0.10183820197E+02  0.17052123048E+03  0.00000000000E+00 0. -1.
         -2    1    6    6    0  503 -0.43738420446E+03  0.48759585578E+03  0.20887905849E+03  0.68752099747E+03  0.00000000000E+00 0.  1.
<mgrwt>
<rscale>  0 0.21095131E+04</rscale>
<asrwt>0</asrwt>
<pdfrwt beam="1">  1        1 0.10525909E+00 0.21095131E+04</pdfrwt>
<pdfrwt beam="2">  1       -2 0.25016016E+00 0.21095131E+04</pdfrwt>
<totfact> 0.14555504E+00</totfact>
</mgrwt>
</event>
<event>
12    4  0.4183215E-008  0.1408063E+04  0.7818608E-02  0.8948003E-01
          1   -1    0    0  501    0  0.00000000000E+00  0.00000000000E+00  0.12250355559E+04  0.12250355559E+04  0.00000000000E+00 0. -1.
         -2   -1    0    0    0  501 -0.00000000000E+00 -0.00000000000E+00 -0.40460874493E+03  0.40460874493E+03  0.00000000000E+00 0.  1.
        -24    2    1    2    0    0 -0.38506853512E+03  0.15929474455E+03  0.25319896922E+03  0.49421894834E+03  0.80560899348E+02 0.  0.
        254    2    1    2    0    0  0.38506853512E+03 -0.15929474455E+03  0.56722784177E+03  0.11354253525E+04  0.89094933317E+03 0.  0.
         23    2    4    4    0    0  0.46681000556E+02  0.34538105602E+03  0.13743490420E+03  0.38476503374E+03  0.87684597434E+02 0.  0.
         23    2    4    4    0    0  0.33838753456E+03 -0.50467580057E+03  0.42979293758E+03  0.75066031878E+03  0.97801624573E+02 0.  0.
          1    1    3    3  502    0 -0.29763582309E+03  0.84719450760E+02  0.18820742901E+03  0.36219677643E+03  0.00000000000E+00 0. -1.
         -2    1    3    3    0  502 -0.87432712034E+02  0.74575293786E+02  0.64991540214E+02  0.13202217191E+03  0.00000000000E+00 0.  1.
         11    1    5    5    0    0  0.30531716584E+02  0.13147321297E+03  0.10207192527E+02  0.13535722451E+03  0.00000000000E+00 0.  1.
        -11    1    5    5    0    0  0.16149283972E+02  0.21390784305E+03  0.12722771167E+03  0.24940780924E+03  0.00000000000E+00 0. -1.
          3    1    6    6  503    0  0.24832063599E+03 -0.35458062942E+03  0.25074712030E+03  0.50026460934E+03  0.00000000000E+00 0. -1.
         -3    1    6    6    0  503  0.90066898572E+02 -0.15009517114E+03  0.17904581728E+03  0.25039570943E+03  0.00000000000E+00 0.  1.
<mgrwt>
<rscale>  0 0.14080626E+04</rscale>
<asrwt>0</asrwt>
<pdfrwt beam="1">  1        1 0.18846701E+00 0.14080626E+04</pdfrwt>
<pdfrwt beam="2">  1       -2 0.62247500E-01 0.14080626E+04</pdfrwt>
<totfact> 0.20973518E+01</totfact>
</mgrwt>
</event>
<event>
12    4  0.4183215E-008  0.2169473E+04  0.7818608E-02  0.8531243E-01
          1   -1    0    0  501    0  0.00000000000E+00  0.00000000000E+00  0.43067308126E+04  0.43067308126E+04  0.00000000000E+00 0. -1.
         -2   -1    0    0    0  501 -0.00000000000E+00 -0.00000000000E+00 -0.27321252881E+03  0.27321252881E+03  0.00000000000E+00 0.  1.
        -24    2    1    2    0    0 -0.51168415485E+03  0.50173159281E+03  0.53549566995E+03  0.89819466783E+03  0.80266949833E+02 0.  0.
        254    2    1    2    0    0  0.51168415485E+03 -0.50173159281E+03  0.34980226139E+04  0.36817486736E+04  0.89752761676E+03 0.  0.
         23    2    4    4    0    0 -0.16792143964E+03 -0.30621520605E+03  0.18690614272E+04  0.19036068290E+04  0.91449322335E+02 0.  0.
         23    2    4    4    0    0  0.67960559450E+03 -0.19551638677E+03  0.16289611867E+04  0.17781418446E+04  0.90462424177E+02 0.  0.
          1    1    3    3  502    0 -0.13221937121E+03  0.10157655977E+03  0.15954758123E+03  0.23077086102E+03  0.00000000000E+00 0. -1.
         -2    1    3    3    0  502 -0.37946478364E+03  0.40015503304E+03  0.37594808872E+03  0.66742380681E+03  0.00000000000E+00 0.  1.
         11    1    5    5    0    0 -0.16285145322E+03 -0.30984891546E+03  0.17659726759E+04  0.18003295360E+04  0.00000000000E+00 0. -1.
        -11    1    5    5    0    0 -0.50699864238E+01  0.36337094148E+01  0.10308875129E+03  0.10327729300E+03  0.00000000000E+00 0.  1.
          1    1    6    6  503    0  0.62568811134E+03 -0.17438609230E+03  0.15466070069E+04  0.16774651578E+04  0.00000000000E+00 0. -1.
         -1    1    6    6    0  503  0.53917483160E+02 -0.21130294462E+02  0.82354179811E+02  0.10067668681E+03  0.00000000000E+00 0.  1.
<mgrwt>
<rscale>  0 0.21694726E+04</rscale>
<asrwt>0</asrwt>
<pdfrwt beam="1">  1        1 0.66257392E+00 0.21694726E+04</pdfrwt>
<pdfrwt beam="2">  1       -2 0.42032700E-01 0.21694726E+04</pdfrwt>
<totfact> 0.21783304E-01</totfact>
</mgrwt>
</event>
<event>
12    4  0.4183215E-008  0.1185097E+04  0.7818608E-02  0.9126002E-01
         -4   -1    0    0    0  501 -0.00000000000E+00  0.00000000000E+00  0.10985063519E+04  0.10985063519E+04  0.00000000000E+00 0.  1.
          3   -1    0    0  501    0  0.00000000000E+00 -0.00000000000E+00 -0.31962838958E+03  0.31962838958E+03  0.00000000000E+00 0. -1.
        -24    2    1    2    0    0 -0.30173956518E+02  0.22879598174E+03  0.10181093673E+03  0.26417036893E+03  0.78501261589E+02 0.  0.
        254    2    1    2    0    0  0.30173956518E+02 -0.22879598174E+03  0.67706702559E+03  0.11539643725E+04  0.90551418931E+03 0.  0.
         23    2    4    4    0    0  0.43366808012E+03 -0.20394018288E+03  0.51462959538E+03  0.70905199969E+03  0.90837855072E+02 0.  0.
         23    2    4    4    0    0 -0.40349412360E+03 -0.24855798862E+02  0.16243743021E+03  0.44491237285E+03  0.90198571314E+02 0.  0.
          3    1    3    3  502    0 -0.35131542063E+02  0.23347163681E+03  0.94882458317E+02  0.25445217888E+03  0.00000000000E+00 0. -1.
         -4    1    3    3    0  502  0.49575855450E+01 -0.46756550663E+01  0.69284784139E+01  0.97181900509E+01  0.00000000000E+00 0.  1.
         11    1    5    5    0    0  0.28422823281E+03 -0.91850419174E+02  0.28293015738E+03  0.41142637468E+03  0.00000000000E+00 0. -1.
        -11    1    5    5    0    0  0.14943984731E+03 -0.11208976371E+03  0.23169943801E+03  0.29762562501E+03  0.00000000000E+00 0.  1.
          3    1    6    6  503    0 -0.21254666970E+03 -0.21606453592E+02  0.13306232315E+03  0.25169129401E+03  0.00000000000E+00 0. -1.
         -3    1    6    6    0  503 -0.19094745390E+03 -0.32493452696E+01  0.29375107063E+02  0.19322107885E+03  0.00000000000E+00 0.  1.
<mgrwt>
<rscale>  0 0.11850972E+04</rscale>
<asrwt>0</asrwt>
<pdfrwt beam="1">  1        3 0.49173599E-01 0.11850972E+04</pdfrwt>
<pdfrwt beam="2">  1       -4 0.16900098E+00 0.11850972E+04</pdfrwt>
<totfact> 0.19926483E+00</totfact>
</mgrwt>
</event>
<event>
12    4  0.4183215E-008  0.1824636E+04  0.7818608E-02  0.8693307E-01
         -2   -1    0    0    0  501 -0.00000000000E+00  0.00000000000E+00  0.52929666292E+03  0.52929666292E+03  0.00000000000E+00 0.  1.
          1   -1    0    0  501    0  0.00000000000E+00 -0.00000000000E+00 -0.15725095791E+04  0.15725095791E+04  0.00000000000E+00 0. -1.
        -24    2    1    2    0    0  0.56787631635E+03 -0.11373308797E+03 -0.81028356458E+03  0.99919961225E+03  0.80135411114E+02 0.  0.
        254    2    1    2    0    0 -0.56787631635E+03  0.11373308797E+03 -0.23292935161E+03  0.11026066298E+04  0.90888204472E+03 0.  0.
         23    2    4    4    0    0 -0.12510471020E+03  0.22282332104E+03 -0.49800367130E+03  0.56748769092E+03  0.93451601354E+02 0.  0.
         23    2    4    4    0    0 -0.44277160615E+03 -0.10909023307E+03  0.26507431969E+03  0.53511893886E+03  0.90224772682E+02 0.  0.
          1    1    3    3  502    0  0.49377660231E+03 -0.10087818703E+03 -0.74589511030E+03  0.90019512172E+03  0.00000000000E+00 0. -1.
         -2    1    3    3    0  502  0.74099714040E+02 -0.12854900944E+02 -0.64388454282E+02  0.99004490524E+02  0.00000000000E+00 0.  1.
         11    1    5    5    0    0 -0.89071846109E+02  0.20823557785E+03 -0.46187924367E+03  0.51442033921E+03  0.00000000000E+00 0.  1.
        -11    1    5    5    0    0 -0.36032864091E+02  0.14587743188E+02 -0.36124427631E+02  0.53067351710E+02  0.00000000000E+00 0. -1.
          3    1    6    6  503    0 -0.98552119099E+02 -0.56229301548E+02  0.39280325911E+02  0.12007163918E+03  0.00000000000E+00 0. -1.
         -3    1    6    6    0  503 -0.34421948705E+03 -0.52860931521E+02  0.22579399378E+03  0.41504729968E+03  0.00000000000E+00 0.  1.
<mgrwt>
<rscale>  0 0.18246359E+04</rscale>
<asrwt>0</asrwt>
<pdfrwt beam="1">  1        1 0.24192454E+00 0.18246359E+04</pdfrwt>
<pdfrwt beam="2">  1       -2 0.81430258E-01 0.18246359E+04</pdfrwt>
<totfact> 0.63975120E+00</totfact>
</mgrwt>
</event>
<event>
12    4  0.4183215E-008  0.1713638E+04  0.7818608E-02  0.8753624E-01
          1   -1    0    0  501    0  0.00000000000E+00  0.00000000000E+00  0.10788723326E+04  0.10788723326E+04  0.00000000000E+00 0. -1.
         -2   -1    0    0    0  501 -0.00000000000E+00 -0.00000000000E+00 -0.68046889204E+03  0.68046889204E+03  0.00000000000E+00 0.  1.
        -24    2    1    2    0    0 -0.31110263754E+03 -0.42719348744E+03  0.47260723765E+03  0.71343456924E+03  0.79700418455E+02 0.  0.
        254    2    1    2    0    0  0.31110263754E+03  0.42719348744E+03 -0.74203797135E+02  0.10459066554E+04  0.89951953921E+03 0.  0.
         23    2    4    4    0    0 -0.77186833659E+01  0.43441113302E+03  0.30776768671E+03  0.54020991062E+03  0.91286296848E+02 0.  0.
         23    2    4    4    0    0  0.31882132091E+03 -0.72176455725E+01 -0.38197148384E+03  0.50569674474E+03  0.90154612179E+02 0.  0.
          1    1    3    3  502    0 -0.25180722051E+03 -0.28708681769E+03  0.35080387198E+03  0.51854515116E+03  0.00000000000E+00 0. -1.
         -2    1    3    3    0  502 -0.59295417032E+02 -0.14010666976E+03  0.12180336567E+03  0.19488941808E+03  0.00000000000E+00 0.  1.
         11    1    5    5    0    0  0.31247115476E+02  0.33502900801E+03  0.22008712956E+03  0.40206860488E+03  0.00000000000E+00 0.  1.
        -11    1    5    5    0    0 -0.38965798842E+02  0.99382125009E+02  0.87680557146E+02  0.13814130574E+03  0.00000000000E+00 0. -1.
          4    1    6    6  503    0  0.14484331390E+02 -0.33715551958E+01  0.27663592079E+01  0.15126664653E+02  0.00000000000E+00 0. -1.
         -4    1    6    6    0  503  0.30433698952E+03 -0.38460903767E+01 -0.38473784305E+03  0.49057008009E+03  0.00000000000E+00 0.  1.
<mgrwt>
<rscale>  0 0.17136383E+04</rscale>
<asrwt>0</asrwt>
<pdfrwt beam="1">  1        1 0.16598036E+00 0.17136383E+04</pdfrwt>
<pdfrwt beam="2">  1       -2 0.10468752E+00 0.17136383E+04</pdfrwt>
<totfact> 0.81171646E+00</totfact>
</mgrwt>
</event>
<event>
12    4  0.4183215E-008  0.1301490E+04  0.7818608E-02  0.9028384E-01
          1   -1    0    0  501    0  0.00000000000E+00  0.00000000000E+00  0.60797306149E+03  0.60797306149E+03  0.00000000000E+00 0. -1.
         -2   -1    0    0    0  501 -0.00000000000E+00 -0.00000000000E+00 -0.69652602663E+03  0.69652602663E+03  0.00000000000E+00 0.  1.
        -24    2    1    2    0    0 -0.30889662082E+03  0.46837640141E+02 -0.49939996860E+02  0.32613781429E+03  0.79126378266E+02 0.  0.
        254    2    1    2    0    0  0.30889662082E+03 -0.46837640141E+02 -0.38612968277E+02  0.97836127383E+03  0.92633089872E+03 0.  0.
         23    2    4    4    0    0 -0.17854356662E+02 -0.44328353743E+03  0.20595218368E+02  0.45311656831E+03  0.89840908571E+02 0.  0.
         23    2    4    4    0    0  0.32675097748E+03  0.39644589728E+03 -0.59208186645E+02  0.52524470552E+03  0.91874047207E+02 0.  0.
          3    1    3    3  502    0 -0.28820554867E+03  0.50043538835E+02 -0.65853160469E+02  0.29983901148E+03  0.00000000000E+00 0. -1.
         -4    1    3    3    0  502 -0.20691072144E+02 -0.32058986945E+01  0.15913163609E+02  0.26298802805E+02  0.00000000000E+00 0.  1.
         11    1    5    5    0    0 -0.47123466710E+02 -0.15620344926E+03  0.21346555282E+02  0.16454730049E+03  0.00000000000E+00 0.  1.
        -11    1    5    5    0    0  0.29269110047E+02 -0.28708008816E+03 -0.75133691473E+00  0.28856926782E+03  0.00000000000E+00 0. -1.
          1    1    6    6  503    0  0.25416503378E+03  0.32833845654E+03 -0.81748312621E+02  0.42318883853E+03  0.00000000000E+00 0. -1.
         -1    1    6    6    0  503  0.72585943699E+02  0.68107440742E+02  0.22540125976E+02  0.10205586698E+03  0.00000000000E+00 0.  1.
<mgrwt>
<rscale>  0 0.13014900E+04</rscale>
<asrwt>0</asrwt>
<pdfrwt beam="1">  1        1 0.93534318E-01 0.13014900E+04</pdfrwt>
<pdfrwt beam="2">  1       -2 0.10715785E+00 0.13014900E+04</pdfrwt>
<totfact> 0.20219366E+01</totfact>
</mgrwt>
</event>
<event>
12    4  0.4183215E-008  0.1285626E+04  0.7818608E-02  0.9041042E-01
          1   -1    0    0  501    0  0.00000000000E+00  0.00000000000E+00  0.12906788382E+04  0.12906788382E+04  0.00000000000E+00 0. -1.
         -2   -1    0    0    0  501 -0.00000000000E+00 -0.00000000000E+00 -0.32014835742E+03  0.32014835742E+03  0.00000000000E+00 0.  1.
        -24    2    1    2    0    0 -0.14140086973E+03 -0.23903350345E+03  0.17642903450E+03  0.33866207553E+03  0.80209572078E+02 0.  0.
        254    2    1    2    0    0  0.14140086973E+03  0.23903350345E+03  0.79410144629E+03  0.12721651201E+04  0.95429333230E+03 0.  0.
         23    2    4    4    0    0  0.29381318963E+03  0.28311450385E+03  0.94443665380E+03  0.10338527813E+04  0.10203414959E+03 0.  0.
         23    2    4    4    0    0 -0.15241231990E+03 -0.44081000400E+02 -0.15033520751E+03  0.23831233880E+03  0.94970765781E+02 0.  0.
          3    1    3    3  502    0 -0.35107879434E+02 -0.41027491559E+02  0.17500904046E+01  0.54026670066E+02  0.00000000000E+00 0. -1.
         -4    1    3    3    0  502 -0.10629299029E+03 -0.19800601189E+03  0.17467894410E+03  0.28463540546E+03  0.00000000000E+00 0.  1.
         11    1    5    5    0    0  0.23242564464E+03  0.24815395291E+03  0.68171415278E+03  0.76179803802E+03  0.00000000000E+00 0.  1.
        -11    1    5    5    0    0  0.61387544987E+02  0.34960550944E+02  0.26272250102E+03  0.27205474329E+03  0.00000000000E+00 0. -1.
          4    1    6    6  503    0 -0.11322236584E+03 -0.66851324157E+02 -0.13952220997E+03  0.19171554643E+03  0.00000000000E+00 0.  1.
         -4    1    6    6    0  503 -0.39189954060E+02  0.22770323757E+02 -0.10812997539E+02  0.46596792368E+02  0.00000000000E+00 0. -1.
<mgrwt>
<rscale>  0 0.12856262E+04</rscale>
<asrwt>0</asrwt>
<pdfrwt beam="1">  1        1 0.19856597E+00 0.12856262E+04</pdfrwt>
<pdfrwt beam="2">  1       -2 0.49253594E-01 0.12856262E+04</pdfrwt>
<totfact> 0.30921974E+01</totfact>
</mgrwt>
</event>
<event>
12    4  0.4183215E-008  0.2071283E+04  0.7818608E-02  0.8574000E-01
          1   -1    0    0  501    0  0.00000000000E+00  0.00000000000E+00  0.26393674787E+04  0.26393674787E+04  0.00000000000E+00 0. -1.
         -2   -1    0    0    0  501 -0.00000000000E+00 -0.00000000000E+00 -0.40636773478E+03  0.40636773478E+03  0.00000000000E+00 0.  1.
        -24    2    1    2    0    0  0.18841717847E+03  0.91318769498E+02 -0.28760597678E+03  0.36485504571E+03  0.81005281899E+02 0.  0.
        254    2    1    2    0    0 -0.18841717847E+03 -0.91318769498E+02  0.25206057207E+04  0.26808801677E+04  0.88872106076E+03 0.  0.
         23    2    4    4    0    0  0.13326746971E+03  0.16952055363E+03  0.16343870565E+03  0.28591720607E+03  0.92406718542E+02 0.  0.
         23    2    4    4    0    0 -0.32168464817E+03 -0.26083932313E+03  0.23571670150E+04  0.23949629617E+04  0.89961578970E+02 0.  0.
          3    1    3    3  502    0  0.95333315285E+02  0.72240001428E+02 -0.10568105903E+03  0.15961060443E+03  0.00000000000E+00 0. -1.
         -4    1    3    3    0  502  0.93083863181E+02  0.19078768070E+02 -0.18192491776E+03  0.20524444128E+03  0.00000000000E+00 0.  1.
         11    1    5    5    0    0  0.13732596494E+03  0.14633135031E+03  0.11311971753E+03  0.23036352842E+03  0.00000000000E+00 0. -1.
        -11    1    5    5    0    0 -0.40584952355E+01  0.23189203330E+02  0.50318988125E+02  0.55553677651E+02  0.00000000000E+00 0.  1.
          2    1    6    6  503    0 -0.30143155433E+03 -0.22458029213E+03  0.19672622247E+04  0.20028524535E+04  0.00000000000E+00 0. -1.
         -2    1    6    6    0  503 -0.20253093848E+02 -0.36259031000E+02  0.38990479029E+03  0.39211050819E+03  0.00000000000E+00 0.  1.
<mgrwt>
<rscale>  0 0.20712835E+04</rscale>
<asrwt>0</asrwt>
<pdfrwt beam="1">  1        1 0.40605653E+00 0.20712835E+04</pdfrwt>
<pdfrwt beam="2">  1       -2 0.62518115E-01 0.20712835E+04</pdfrwt>
<totfact> 0.20826943E+00</totfact>
</mgrwt>
</event>
<event>
12    4  0.4183215E-008  0.1338757E+04  0.7818608E-02  0.8999383E-01
         -2   -1    0    0    0  501 -0.00000000000E+00  0.00000000000E+00  0.59090705279E+03  0.59090705279E+03  0.00000000000E+00 0.  1.
          1   -1    0    0  501    0  0.00000000000E+00 -0.00000000000E+00 -0.75827029180E+03  0.75827029180E+03  0.00000000000E+00 0. -1.
        -24    2    1    2    0    0  0.22005819930E+03 -0.26949447199E+03 -0.10263186988E+03  0.37334225614E+03  0.88307745928E+02 0.  0.
        254    2    1    2    0    0 -0.22005819930E+03  0.26949447199E+03 -0.64731369129E+02  0.97583508845E+03  0.90940150000E+03 0.  0.
         23    2    4    4    0    0 -0.32449244811E+03 -0.18130447198E+03  0.20499688322E+03  0.43272640260E+03  0.84034260488E+02 0.  0.
         23    2    4    4    0    0  0.10443424882E+03  0.45079894397E+03 -0.26972825235E+03  0.54310868586E+03  0.89930608418E+02 0.  0.
          3    1    3    3  502    0  0.21435723223E+03 -0.25481759581E+03 -0.11607463673E+03  0.35263912352E+03  0.00000000000E+00 0. -1.
         -4    1    3    3    0  502  0.57009670615E+01 -0.14676876178E+02  0.13442766841E+02  0.20703132616E+02  0.00000000000E+00 0.  1.
         11    1    5    5    0    0 -0.12175855236E+03 -0.11576667805E+03  0.92312891479E+02  0.19169960551E+03  0.00000000000E+00 0. -1.
        -11    1    5    5    0    0 -0.20273389575E+03 -0.65537793923E+02  0.11268399174E+03  0.24102679709E+03  0.00000000000E+00 0.  1.
          4    1    6    6  503    0  0.30844419340E+02  0.24347578159E+03 -0.99000830078E+02  0.26463748560E+03  0.00000000000E+00 0. -1.
         -4    1    6    6    0  503  0.73589829475E+02  0.20732316237E+03 -0.17072742227E+03  0.27847120026E+03  0.00000000000E+00 0.  1.
<mgrwt>
<rscale>  0 0.13387565E+04</rscale>
<asrwt>0</asrwt>
<pdfrwt beam="1">  1        1 0.11665697E+00 0.13387565E+04</pdfrwt>
<pdfrwt beam="2">  1       -2 0.90908777E-01 0.13387565E+04</pdfrwt>
<totfact> 0.21333971E+01</totfact>
</mgrwt>
</event>
<event>
12    4  0.4183215E-008  0.1304193E+04  0.7818608E-02  0.9026246E-01
          3   -1    0    0  501    0  0.00000000000E+00  0.00000000000E+00  0.20032927899E+04  0.20032927899E+04  0.00000000000E+00 0. -1.
         -4   -1    0    0    0  501 -0.00000000000E+00 -0.00000000000E+00 -0.21226553658E+03  0.21226553658E+03  0.00000000000E+00 0.  1.
        -24    2    1    2    0    0  0.30899942033E+02  0.22568527290E+03  0.54546257506E+02  0.24768957114E+03  0.80536827752E+02 0.  0.
        254    2    1    2    0    0 -0.30899942033E+02 -0.22568527290E+03  0.17364809958E+04  0.19678687553E+04  0.89735864659E+03 0.  0.
         23    2    4    4    0    0  0.34505298108E+03  0.70493957085E+02  0.11452106260E+04  0.12014903789E+04  0.89670479611E+02 0.  0.
         23    2    4    4    0    0 -0.37595292311E+03 -0.29617922998E+03  0.59127036980E+03  0.76637837644E+03  0.93125877222E+02 0.  0.
          1    1    3    3  502    0  0.22935295752E+02  0.22862649969E+03  0.60150084096E+02  0.23751660314E+03  0.00000000000E+00 0. -1.
         -2    1    3    3    0  502  0.79646462812E+01 -0.29412267943E+01 -0.56038265900E+01  0.10172967998E+02  0.00000000000E+00 0.  1.
         11    1    5    5    0    0  0.28830238629E+03  0.36833920845E+02  0.10108212305E+04  0.10517768602E+04  0.00000000000E+00 0. -1.
        -11    1    5    5    0    0  0.56750594786E+02  0.33660036240E+02  0.13438939552E+03  0.14971351868E+03  0.00000000000E+00 0.  1.
          4    1    6    6  503    0 -0.36003003667E+03 -0.29228427355E+03  0.53618069782E+03  0.70890159020E+03  0.00000000000E+00 0. -1.
         -4    1    6    6    0  503 -0.15922886443E+02 -0.38949564265E+01  0.55089671979E+02  0.57476786245E+02  0.00000000000E+00 0.  1.
<mgrwt>
<rscale>  0 0.13041933E+04</rscale>
<asrwt>0</asrwt>
<pdfrwt beam="1">  1        3 0.30819888E+00 0.13041933E+04</pdfrwt>
<pdfrwt beam="2">  1       -4 0.32656238E-01 0.13041933E+04</pdfrwt>
<totfact> 0.72043817E-01</totfact>
</mgrwt>
</event>
<event>
12    4  0.4183215E-008  0.1417040E+04  0.7818608E-02  0.8941575E-01
         -2   -1    0    0    0  501 -0.00000000000E+00  0.00000000000E+00  0.58836889354E+03  0.58836889354E+03  0.00000000000E+00 0.  1.
          1   -1    0    0  501    0  0.00000000000E+00 -0.00000000000E+00 -0.85320768069E+03  0.85320768069E+03  0.00000000000E+00 0. -1.
        -24    2    1    2    0    0  0.30387194581E+03  0.25120229278E+03 -0.33381849233E+02  0.40378814828E+03  0.80559105510E+02 0.  0.
        254    2    1    2    0    0 -0.30387194581E+03 -0.25120229278E+03 -0.23145693792E+03  0.10377884260E+04  0.93166074920E+03 0.  0.
         23    2    4    4    0    0  0.25036706889E+03  0.36647340327E+02 -0.30025653855E+03  0.40321523145E+03  0.91661536089E+02 0.  0.
         23    2    4    4    0    0 -0.55423901470E+03 -0.28784963311E+03  0.68799600629E+02  0.63457319451E+03  0.88946374012E+02 0.  0.
          1    1    3    3  502    0  0.12508934863E+03  0.66879590576E+02 -0.38412017439E+02  0.14695478168E+03  0.00000000000E+00 0. -1.
         -2    1    3    3    0  502  0.17878259719E+03  0.18432270220E+03  0.50301682064E+01  0.25683336660E+03  0.00000000000E+00 0.  1.
         11    1    5    5    0    0  0.19463523076E+03  0.62063622984E+02 -0.25662347514E+03  0.32800971685E+03  0.00000000000E+00 0. -1.
        -11    1    5    5    0    0  0.55731838125E+02 -0.25416282658E+02 -0.43633063405E+02  0.75205514605E+02  0.00000000000E+00 0.  1.
          4    1    6    6  503    0 -0.83136912524E+02 -0.67352608370E+02 -0.13881968827E+02  0.10789267416E+03  0.00000000000E+00 0. -1.
         -4    1    6    6    0  503 -0.47110210218E+03 -0.22049702474E+03  0.82681569456E+02  0.52668052035E+03  0.00000000000E+00 0.  1.
<mgrwt>
<rscale>  0 0.14170404E+04</rscale>
<asrwt>0</asrwt>
<pdfrwt beam="1">  1        1 0.13126272E+00 0.14170404E+04</pdfrwt>
<pdfrwt beam="2">  1       -2 0.90518291E-01 0.14170404E+04</pdfrwt>
<totfact> 0.17712180E+01</totfact>
</mgrwt>
</event>
<event>
12    4  0.4183215E-008  0.2269316E+04  0.7818608E-02  0.8490119E-01
         -2   -1    0    0    0  501 -0.00000000000E+00  0.00000000000E+00  0.27425870520E+03  0.27425870520E+03  0.00000000000E+00 0.  1.
          1   -1    0    0  501    0  0.00000000000E+00 -0.00000000000E+00 -0.46942853796E+04  0.46942853796E+04  0.00000000000E+00 0. -1.
        -24    2    1    2    0    0  0.83708355617E+03  0.37367791763E+03 -0.23115623115E+04  0.24879659326E+04  0.79436109402E+02 0.  0.
        254    2    1    2    0    0 -0.83708355617E+03 -0.37367791763E+03 -0.21084643628E+04  0.24805781522E+04  0.93129046684E+03 0.  0.
         23    2    4    4    0    0 -0.92999898023E+03 -0.42996263899E+03 -0.20987846554E+04  0.23372406126E+04  0.89614046132E+02 0.  0.
         23    2    4    4    0    0  0.92915424060E+02  0.56284721362E+02 -0.96797073802E+01  0.14333753954E+03  0.93009180300E+02 0.  0.
          1    1    3    3  502    0  0.53212865113E+03  0.21695751962E+03 -0.15367487673E+04  0.16406792009E+04  0.00000000000E+00 0. -1.
         -2    1    3    3    0  502  0.30495490504E+03  0.15672039801E+03 -0.77481354426E+03  0.84728673165E+03  0.00000000000E+00 0.  1.
         11    1    5    5    0    0 -0.62331138130E+03 -0.31171307682E+03 -0.13423101279E+04  0.15124412716E+04  0.00000000000E+00 0. -1.
        -11    1    5    5    0    0 -0.30668759893E+03 -0.11824956217E+03 -0.75647452748E+03  0.82479934107E+03  0.00000000000E+00 0.  1.
          2    1    6    6  503    0  0.82201873895E+02  0.75724971463E+02 -0.27237351268E+02  0.11503604948E+03  0.00000000000E+00 0. -1.
         -2    1    6    6    0  503  0.10713550165E+02 -0.19440250101E+02  0.17557643887E+02  0.28301490067E+02  0.00000000000E+00 0.  1.
<mgrwt>
<rscale>  0 0.22693159E+04</rscale>
<asrwt>0</asrwt>
<pdfrwt beam="1">  1        1 0.72219770E+00 0.22693159E+04</pdfrwt>
<pdfrwt beam="2">  1       -2 0.42193650E-01 0.22693159E+04</pdfrwt>
<totfact> 0.85625673E-02</totfact>
</mgrwt>
</event>
<event>
12    4  0.4183215E-008  0.1325915E+04  0.7818608E-02  0.9009263E-01
         -2   -1    0    0    0  501 -0.00000000000E+00  0.00000000000E+00  0.32667613506E+03  0.32667613506E+03  0.00000000000E+00 0.  1.
          1   -1    0    0  501    0  0.00000000000E+00 -0.00000000000E+00 -0.13454078017E+04  0.13454078017E+04  0.00000000000E+00 0. -1.
        -24    2    1    2    0    0 -0.55111651879E+02  0.10180077041E+03  0.14067440470E+03  0.19900519823E+03  0.80081769180E+02 0.  0.
        254    2    1    2    0    0  0.55111651879E+02 -0.10180077041E+03 -0.11594060714E+04  0.14730787385E+04  0.90129786454E+03 0.  0.
         23    2    4    4    0    0 -0.24256316049E+03  0.30140285648E+03 -0.54027372504E+03  0.67103765313E+03  0.93355584918E+02 0.  0.
         23    2    4    4    0    0  0.29767481236E+03 -0.40320362689E+03 -0.61913234632E+03  0.80204108541E+03  0.93603321403E+02 0.  0.
          1    1    3    3  502    0 -0.10024279189E+01  0.57300463095E+02  0.22384346837E+02  0.61525660630E+02  0.00000000000E+00 0. -1.
         -2    1    3    3    0  502 -0.54109223961E+02  0.44500307317E+02  0.11829005786E+03  0.13747953760E+03  0.00000000000E+00 0.  1.
         11    1    5    5    0    0 -0.19570343673E+03  0.27120702614E+03 -0.40841151664E+03  0.52787598268E+03  0.00000000000E+00 0. -1.
        -11    1    5    5    0    0 -0.46859723754E+02  0.30195830343E+02 -0.13186220841E+03  0.14316167045E+03  0.00000000000E+00 0.  1.
          2    1    6    6  503    0  0.82961044862E+02 -0.18934709170E+03 -0.25799604287E+03  0.33060068699E+03  0.00000000000E+00 0. -1.
         -2    1    6    6    0  503  0.21471376750E+03 -0.21385653519E+03 -0.36113630345E+03  0.47144039843E+03  0.00000000000E+00 0.  1.
<mgrwt>
<rscale>  0 0.13259150E+04</rscale>
<asrwt>0</asrwt>
<pdfrwt beam="1">  1        1 0.20698582E+00 0.13259150E+04</pdfrwt>
<pdfrwt beam="2">  1       -2 0.50257867E-01 0.13259150E+04</pdfrwt>
<totfact> 0.27044730E+01</totfact>
</mgrwt>
</event>
<event>
12    4  0.4183215E-008  0.2584629E+04  0.7818608E-02  0.8373441E-01
          1   -1    0    0  501    0  0.00000000000E+00  0.00000000000E+00  0.12803053787E+04  0.12803053787E+04  0.00000000000E+00 0. -1.
         -2   -1    0    0    0  501 -0.00000000000E+00 -0.00000000000E+00 -0.13044360987E+04  0.13044360987E+04  0.00000000000E+00 0.  1.
        -24    2    1    2    0    0 -0.59829108521E+03  0.50271539837E+03  0.80788537254E+03  0.11269372174E+04  0.81447666205E+02 0.  0.
        254    2    1    2    0    0  0.59829108521E+03 -0.50271539837E+03 -0.83201609257E+03  0.14578042600E+04  0.90678966012E+03 0.  0.
         23    2    4    4    0    0  0.21110324637E+03 -0.21416648435E+03  0.15865728334E+03  0.35192351857E+03  0.90808401144E+02 0.  0.
         23    2    4    4    0    0  0.38718783884E+03 -0.28854891403E+03 -0.99067337591E+03  0.11058807414E+04  0.91452600506E+02 0.  0.
          1    1    3    3  502    0 -0.42501179568E+03  0.34513065619E+03  0.61611161025E+03  0.82422309637E+03  0.00000000000E+00 0. -1.
         -2    1    3    3    0  502 -0.17327928953E+03  0.15758474219E+03  0.19177376229E+03  0.30271412100E+03  0.00000000000E+00 0.  1.
         11    1    5    5    0    0  0.18309675459E+03 -0.17298453217E+03  0.90807360521E+02  0.26775743993E+03  0.00000000000E+00 0.  1.
        -11    1    5    5    0    0  0.28006491782E+02 -0.41181952175E+02  0.67849922822E+02  0.84166078642E+02  0.00000000000E+00 0. -1.
          2    1    6    6  503    0  0.30416379401E+03 -0.17855403166E+03 -0.68051386605E+03  0.76648305767E+03  0.00000000000E+00 0. -1.
         -2    1    6    6    0  503  0.83024044823E+02 -0.10999488237E+03 -0.31015950986E+03  0.33939768373E+03  0.00000000000E+00 0.  1.
<mgrwt>
<rscale>  0 0.25846288E+04</rscale>
<asrwt>0</asrwt>
<pdfrwt beam="1">  1        1 0.19697006E+00 0.25846288E+04</pdfrwt>
<pdfrwt beam="2">  1       -2 0.20068248E+00 0.25846288E+04</pdfrwt>
<totfact> 0.95211703E-01</totfact>
</mgrwt>
</event>
<event>
12    4  0.4183215E-008  0.1181509E+04  0.7818608E-02  0.9129198E-01
          1   -1    0    0  501    0  0.00000000000E+00  0.00000000000E+00  0.16053764523E+04  0.16053764523E+04  0.00000000000E+00 0. -1.
         -2   -1    0    0    0  501 -0.00000000000E+00 -0.00000000000E+00 -0.21738864557E+03  0.21738864557E+03  0.00000000000E+00 0.  1.
        -24    2    1    2    0    0  0.81165715858E+02 -0.33316557205E+02 -0.55940351401E+02  0.13106492306E+03  0.79692061880E+02 0.  0.
        254    2    1    2    0    0 -0.81165715858E+02  0.33316557205E+02  0.14439281581E+04  0.16917001748E+04  0.87705364101E+03 0.  0.
         23    2    4    4    0    0  0.31791883692E+03  0.20633183005E+03  0.40477091528E+03  0.56151359874E+03  0.88390139452E+02 0.  0.
         23    2    4    4    0    0 -0.39908455278E+03 -0.17301527285E+03  0.10391572428E+04  0.11301865761E+04  0.90945898549E+02 0.  0.
          1    1    3    3  502    0  0.75093781456E+02  0.36493422627E+01 -0.17099658552E+02  0.77102477489E+02  0.00000000000E+00 0. -1.
         -2    1    3    3    0  502  0.60719344015E+01 -0.36965899467E+02 -0.38840692849E+02  0.53962445569E+02  0.00000000000E+00 0.  1.
         11    1    5    5    0    0  0.26946371966E+03  0.15413200353E+03  0.28104667117E+03  0.41875362936E+03  0.00000000000E+00 0.  1.
        -11    1    5    5    0    0  0.48455117263E+02  0.52199826520E+02  0.12372424411E+03  0.14275996938E+03  0.00000000000E+00 0. -1.
          3    1    6    6  503    0 -0.10908925677E+03 -0.60819532297E+01  0.23303503297E+03  0.25737673300E+03  0.00000000000E+00 0. -1.
         -3    1    6    6    0  503 -0.28999529601E+03 -0.16693331962E+03  0.80612220987E+03  0.87280984307E+03  0.00000000000E+00 0.  1.
<mgrwt>
<rscale>  0 0.11815085E+04</rscale>
<asrwt>0</asrwt>
<pdfrwt beam="1">  1        1 0.24698099E+00 0.11815085E+04</pdfrwt>
<pdfrwt beam="2">  1       -2 0.33444408E-01 0.11815085E+04</pdfrwt>
<totfact> 0.40209415E+01</totfact>
</mgrwt>
</event>
<event>
12    4  0.4183215E-008  0.3074721E+04  0.7818608E-02  0.8222710E-01
         -2   -1    0    0    0  501 -0.00000000000E+00  0.00000000000E+00  0.18781927200E+04  0.18781927200E+04  0.00000000000E+00 0.  1.
          1   -1    0    0  501    0  0.00000000000E+00 -0.00000000000E+00 -0.12583780854E+04  0.12583780854E+04  0.00000000000E+00 0. -1.
        -24    2    1    2    0    0 -0.96313130956E+03 -0.23262526945E+03 -0.73356853452E+03  0.12354867591E+04  0.81045059847E+02 0.  0.
        254    2    1    2    0    0  0.96313130956E+03  0.23262526945E+03  0.13533831692E+04  0.19010840463E+04  0.89483971349E+03 0.  0.
         23    2    4    4    0    0  0.10241103173E+04  0.35166228781E+03  0.86735326575E+03  0.13904897469E+04  0.93229512382E+02 0.  0.
         23    2    4    4    0    0 -0.60979007768E+02 -0.11903701836E+03  0.48602990344E+03  0.51059429933E+03  0.81198647394E+02 0.  0.
          3    1    3    3  502    0 -0.62145052451E+03 -0.15217477854E+03 -0.42485439994E+03  0.76802290252E+03  0.00000000000E+00 0. -1.
         -4    1    3    3    0  502 -0.34168078504E+03 -0.80450490908E+02 -0.30871413458E+03  0.46746385662E+03  0.00000000000E+00 0.  1.
         11    1    5    5    0    0  0.25870210968E+03  0.13154867965E+03  0.24211300704E+03  0.37795574456E+03  0.00000000000E+00 0.  1.
        -11    1    5    5    0    0  0.76540820765E+03  0.22011360816E+03  0.62524025870E+03  0.10125340024E+04  0.00000000000E+00 0. -1.
          3    1    6    6  503    0 -0.24263988984E+02 -0.43381717027E+02  0.32645316783E+03  0.33021566486E+03  0.00000000000E+00 0. -1.
         -3    1    6    6    0  503 -0.36715018785E+02 -0.75655301329E+02  0.15957673562E+03  0.18037863447E+03  0.00000000000E+00 0.  1.
<mgrwt>
<rscale>  0 0.30747205E+04</rscale>
<asrwt>0</asrwt>
<pdfrwt beam="1">  1        1 0.19359663E+00 0.30747205E+04</pdfrwt>
<pdfrwt beam="2">  1       -2 0.28895273E+00 0.30747205E+04</pdfrwt>
<totfact> 0.26712324E-01</totfact>
</mgrwt>
</event>
<event>
12    4  0.4183215E-008  0.1538863E+04  0.7818608E-02  0.8859013E-01
         -2   -1    0    0    0  501 -0.00000000000E+00  0.00000000000E+00  0.60146965377E+03  0.60146965377E+03  0.00000000000E+00 0.  1.
          1   -1    0    0  501    0  0.00000000000E+00 -0.00000000000E+00 -0.98429670910E+03  0.98429670910E+03  0.00000000000E+00 0. -1.
        -24    2    1    2    0    0  0.34275308894E+03 -0.12528337088E+03  0.23966340949E+03  0.44369924351E+03  0.79087709822E+02 0.  0.
        254    2    1    2    0    0 -0.34275308894E+03  0.12528337088E+03 -0.62249046483E+03  0.11420671194E+04  0.88523856860E+03 0.  0.
         23    2    4    4    0    0 -0.43521799891E+02  0.33826032811E+03 -0.67224667910E+03  0.75949906059E+03  0.92784852352E+02 0.  0.
         23    2    4    4    0    0 -0.29923128905E+03 -0.21297695723E+03  0.49756214280E+02  0.38256805878E+03  0.94784440066E+02 0.  0.
          1    1    3    3  502    0  0.17157286353E+02  0.38314488844E+01 -0.26654092241E+01  0.17780800935E+02  0.00000000000E+00 0. -1.
         -2    1    3    3    0  502  0.32559580259E+03 -0.12911481977E+03  0.24232881872E+03  0.42591844258E+03  0.00000000000E+00 0.  1.
         11    1    5    5    0    0 -0.48480612361E+02  0.17172626835E+03 -0.42935243421E+03  0.46495569012E+03  0.00000000000E+00 0.  1.
        -11    1    5    5    0    0  0.49588124700E+01  0.16653405976E+03 -0.24289424490E+03  0.29454337047E+03  0.00000000000E+00 0. -1.
          1    1    6    6  503    0 -0.13053541995E+02  0.30493676329E+01 -0.12866747905E+02  0.18580818153E+02  0.00000000000E+00 0. -1.
         -1    1    6    6    0  503 -0.28617774705E+03 -0.21602632486E+03  0.62622962185E+02  0.36398724062E+03  0.00000000000E+00 0.  1.
<mgrwt>
<rscale>  0 0.15388627E+04</rscale>
<asrwt>0</asrwt>
<pdfrwt beam="1">  1        1 0.15143026E+00 0.15388627E+04</pdfrwt>
<pdfrwt beam="2">  1       -2 0.92533793E-01 0.15388627E+04</pdfrwt>
<totfact> 0.13040821E+01</totfact>
</mgrwt>
</event>
<event>
12    4  0.4183215E-008  0.1955813E+04  0.7818608E-02  0.8627563E-01
          1   -1    0    0  501    0  0.00000000000E+00  0.00000000000E+00  0.83526214175E+03  0.83526214175E+03  0.00000000000E+00 0. -1.
         -2   -1    0    0    0  501 -0.00000000000E+00 -0.00000000000E+00 -0.11449112238E+04  0.11449112238E+04  0.00000000000E+00 0.  1.
        -24    2    1    2    0    0  0.44462041130E+03 -0.12665427184E+03 -0.74322667761E+03  0.87833495732E+03  0.73196914002E+02 0.  0.
        254    2    1    2    0    0 -0.44462041130E+03  0.12665427184E+03  0.43357759555E+03  0.11018384082E+04  0.90129336610E+03 0.  0.
         23    2    4    4    0    0  0.25223970999E+03  0.15103044876E+03  0.84793076128E+02  0.31768597536E+03  0.85436792051E+02 0.  0.
         23    2    4    4    0    0 -0.69686012129E+03 -0.24376176920E+02  0.34878451942E+03  0.78415243287E+03  0.83881883263E+02 0.  0.
          1    1    3    3  502    0  0.95243689167E+02 -0.17644062266E+02 -0.10684339814E+03  0.14421575845E+03  0.00000000000E+00 0. -1.
         -2    1    3    3    0  502  0.34937672214E+03 -0.10901020958E+03 -0.63638327947E+03  0.73411919887E+03  0.00000000000E+00 0.  1.
         11    1    5    5    0    0  0.25692738659E+03  0.14731657858E+03  0.73879158395E+02  0.30524086612E+03  0.00000000000E+00 0. -1.
        -11    1    5    5    0    0 -0.46876766080E+01  0.37138701841E+01  0.10913917733E+02  0.12445109241E+02  0.00000000000E+00 0.  1.
          2    1    6    6  503    0 -0.41213363737E+02 -0.58475298252E+01  0.45031051253E+02  0.61323164730E+02  0.00000000000E+00 0.  1.
         -2    1    6    6    0  503 -0.65564675755E+03 -0.18528647095E+02  0.30375346817E+03  0.72282926814E+03  0.00000000000E+00 0. -1.
<mgrwt>
<rscale>  0 0.19558129E+04</rscale>
<asrwt>0</asrwt>
<pdfrwt beam="1">  1        1 0.12850187E+00 0.19558129E+04</pdfrwt>
<pdfrwt beam="2">  1       -2 0.17614019E+00 0.19558129E+04</pdfrwt>
<totfact> 0.32429075E+00</totfact>
</mgrwt>
</event>
<event>
12    4  0.4183215E-008  0.2627818E+04  0.7818608E-02  0.8358813E-01
          1   -1    0    0  501    0  0.00000000000E+00  0.00000000000E+00  0.74874891817E+03  0.74874891817E+03  0.00000000000E+00 0. -1.
         -2   -1    0    0    0  501 -0.00000000000E+00 -0.00000000000E+00 -0.23056559903E+04  0.23056559903E+04  0.00000000000E+00 0.  1.
        -24    2    1    2    0    0  0.10256890268E+04  0.16568150354E+03 -0.12809577028E+04  0.16514005250E+04  0.82357254342E+02 0.  0.
        254    2    1    2    0    0 -0.10256890268E+04 -0.16568150354E+03 -0.27594936940E+03  0.14030043835E+04  0.90154584205E+03 0.  0.
         23    2    4    4    0    0 -0.32451668986E+03  0.33031152364E+03  0.56217134107E+02  0.47737093711E+03  0.10151778553E+03 0.  0.
         23    2    4    4    0    0 -0.70117233697E+03 -0.49599302718E+03 -0.33216650350E+03  0.92563344640E+03  0.93866724192E+02 0.  0.
          3    1    3    3  502    0  0.84961334616E+03  0.16791316915E+03 -0.10732667723E+04  0.13791081302E+04  0.00000000000E+00 0. -1.
         -4    1    3    3    0  502  0.17607568067E+03 -0.22316656159E+01 -0.20769093051E+03  0.27229239481E+03  0.00000000000E+00 0.  1.
         11    1    5    5    0    0 -0.15035739633E+03  0.95890710672E+02 -0.74045057741E+01  0.17848585863E+03  0.00000000000E+00 0. -1.
        -11    1    5    5    0    0 -0.17415929353E+03  0.23442081297E+03  0.63621639881E+02  0.29888507848E+03  0.00000000000E+00 0.  1.
          2    1    6    6  503    0 -0.10216439608E+03 -0.93005182846E+02 -0.22089147073E+02  0.13991232355E+03  0.00000000000E+00 0. -1.
         -2    1    6    6    0  503 -0.59900794089E+03 -0.40298784433E+03 -0.31007735643E+03  0.78572112285E+03  0.00000000000E+00 0.  1.
<mgrwt>
<rscale>  0 0.26278184E+04</rscale>
<asrwt>0</asrwt>
<pdfrwt beam="1">  1        1 0.11519214E+00 0.26278184E+04</pdfrwt>
<pdfrwt beam="2">  1       -2 0.35471630E+00 0.26278184E+04</pdfrwt>
<totfact> 0.27487074E-01</totfact>
</mgrwt>
</event>
<event>
12    4  0.4183215E-008  0.1128047E+04  0.7818608E-02  0.9178279E-01
          1   -1    0    0  501    0  0.00000000000E+00  0.00000000000E+00  0.17394033719E+03  0.17394033719E+03  0.00000000000E+00 0. -1.
         -2   -1    0    0    0  501 -0.00000000000E+00 -0.00000000000E+00 -0.18289166894E+04  0.18289166894E+04  0.00000000000E+00 0.  1.
        -24    2    1    2    0    0  0.85939050227E+02 -0.82249675281E+02 -0.34730092316E+02  0.14785144093E+03  0.80643287608E+02 0.  0.
        254    2    1    2    0    0 -0.85939050227E+02  0.82249675281E+02 -0.16202462599E+04  0.18550055857E+04  0.89537548027E+03 0.  0.
         23    2    4    4    0    0 -0.26917123632E+03  0.14311272508E+03 -0.12096331706E+03  0.34046556729E+03  0.91379822124E+02 0.  0.
         23    2    4    4    0    0  0.18323218610E+03 -0.60863049799E+02 -0.14992829429E+04  0.15145400184E+04  0.93294049643E+02 0.  0.
          3    1    3    3  502    0  0.52548225180E+02 -0.30931464567E+02  0.21566999719E+02  0.64677715998E+02  0.00000000000E+00 0. -1.
         -4    1    3    3    0  502  0.33390825047E+02 -0.51318210714E+02 -0.56297092035E+02  0.83173724936E+02  0.00000000000E+00 0.  1.
         11    1    5    5    0    0 -0.22358257708E+03  0.13142311919E+03 -0.13359809610E+03  0.29173559316E+03  0.00000000000E+00 0.  1.
        -11    1    5    5    0    0 -0.45588659239E+02  0.11689605893E+02  0.12634779047E+02  0.48729974130E+02  0.00000000000E+00 0. -1.
          3    1    6    6  503    0 -0.40996396391E+01  0.34193103498E+01 -0.54277693077E+01  0.76131076504E+01  0.00000000000E+00 0. -1.
         -3    1    6    6    0  503  0.18733182574E+03 -0.64282360148E+02 -0.14938551736E+04  0.15069269107E+04  0.00000000000E+00 0.  1.
<mgrwt>
<rscale>  0 0.11280468E+04</rscale>
<asrwt>0</asrwt>
<pdfrwt beam="1">  1        1 0.26760051E-01 0.11280468E+04</pdfrwt>
<pdfrwt beam="2">  1       -2 0.28137180E+00 0.11280468E+04</pdfrwt>
<totfact> 0.64418173E+00</totfact>
</mgrwt>
</event>
<event>
12    4  0.4183215E-008  0.1551943E+04  0.7818608E-02  0.8850628E-01
          1   -1    0    0  501    0  0.00000000000E+00  0.00000000000E+00  0.91398547677E+03  0.91398547677E+03  0.00000000000E+00 0. -1.
         -2   -1    0    0    0  501 -0.00000000000E+00 -0.00000000000E+00 -0.65879766405E+03  0.65879766405E+03  0.00000000000E+00 0.  1.
        -24    2    1    2    0    0  0.50121013961E+03  0.82624374258E+02 -0.14640366898E+02  0.51429319020E+03  0.79023755095E+02 0.  0.
        254    2    1    2    0    0 -0.50121013961E+03 -0.82624374258E+02  0.26982817962E+03  0.10584899506E+04  0.88856926449E+03 0.  0.
         23    2    4    4    0    0 -0.27259051943E+03 -0.18568398579E+02  0.58533502527E+03  0.65272658857E+03  0.93725828446E+02 0.  0.
         23    2    4    4    0    0 -0.22861962018E+03 -0.64055975679E+02 -0.31550684565E+03  0.40576336205E+03  0.93430388959E+02 0.  0.
          3    1    3    3  502    0  0.88496623014E+02  0.14863388395E+02 -0.33101846261E+02  0.95646771118E+02  0.00000000000E+00 0. -1.
         -4    1    3    3    0  502  0.41271351660E+03  0.67760985863E+02  0.18461479362E+02  0.41864641908E+03  0.00000000000E+00 0.  1.
         11    1    5    5    0    0 -0.18340106805E+03  0.24362988741E+02  0.43524696097E+03  0.47293701908E+03  0.00000000000E+00 0. -1.
        -11    1    5    5    0    0 -0.89189451377E+02 -0.42931387320E+02  0.15008806430E+03  0.17978956950E+03  0.00000000000E+00 0.  1.
          3    1    6    6  503    0 -0.14862169567E+03 -0.78968103015E+02 -0.24963398859E+03  0.30106726487E+03  0.00000000000E+00 0. -1.
         -3    1    6    6    0  503 -0.79997924512E+02  0.14912127336E+02 -0.65872857054E+02  0.10469609718E+03  0.00000000000E+00 0.  1.
<mgrwt>
<rscale>  0 0.15519426E+04</rscale>
<asrwt>0</asrwt>
<pdfrwt beam="1">  1        1 0.14061315E+00 0.15519426E+04</pdfrwt>
<pdfrwt beam="2">  1       -2 0.10135349E+00 0.15519426E+04</pdfrwt>
<totfact> 0.11970231E+01</totfact>
</mgrwt>
</event>
<event>
12    4  0.4183215E-008  0.1380202E+04  0.7818608E-02  0.8968275E-01
          1   -1    0    0  501    0  0.00000000000E+00  0.00000000000E+00  0.48026880376E+03  0.48026880376E+03  0.00000000000E+00 0. -1.
         -2   -1    0    0    0  501 -0.00000000000E+00 -0.00000000000E+00 -0.99161054544E+03  0.99161054544E+03  0.00000000000E+00 0.  1.
        -24    2    1    2    0    0 -0.25195839705E+02 -0.12256038994E+03 -0.52732069809E+03  0.54800100822E+03  0.81130184619E+02 0.  0.
        254    2    1    2    0    0  0.25195839705E+02  0.12256038994E+03  0.15978956410E+02  0.92387834098E+03  0.91522673822E+03 0.  0.
         23    2    4    4    0    0  0.26469414899E+03 -0.15221913969E+03  0.31147985852E+03  0.44598270577E+03  0.92990389721E+02 0.  0.
         23    2    4    4    0    0 -0.23949830929E+03  0.27477952963E+03 -0.29550090211E+03  0.47789563521E+03  0.90555093453E+02 0.  0.
          1    1    3    3  502    0 -0.43167435211E+02 -0.30698689829E+02 -0.14449524295E+03  0.15389838289E+03  0.00000000000E+00 0. -1.
         -2    1    3    3    0  502  0.17971595507E+02 -0.91861700115E+02 -0.38282545513E+03  0.39410262533E+03  0.00000000000E+00 0.  1.
         11    1    5    5    0    0  0.53087895746E+01 -0.50942803906E+01  0.46437034392E+02  0.47016306773E+02  0.00000000000E+00 0. -1.
        -11    1    5    5    0    0  0.25938535942E+03 -0.14712485930E+03  0.26504282413E+03  0.39896639899E+03  0.00000000000E+00 0.  1.
          2    1    6    6  503    0  0.62853213347E+01  0.21699240959E+02 -0.14162775556E+02  0.26663580666E+02  0.00000000000E+00 0. -1.
         -2    1    6    6    0  503 -0.24578363062E+03  0.25308028867E+03 -0.28133812655E+03  0.45123205455E+03  0.00000000000E+00 0.  1.
<mgrwt>
<rscale>  0 0.13802023E+04</rscale>
<asrwt>0</asrwt>
<pdfrwt beam="1">  1        1 0.73887509E-01 0.13802023E+04</pdfrwt>
<pdfrwt beam="2">  1       -2 0.15255547E+00 0.13802023E+04</pdfrwt>
<totfact> 0.11449153E+01</totfact>
</mgrwt>
</event>
<event>
12    4  0.4183215E-008  0.1424255E+04  0.7818608E-02  0.8936447E-01
         -2   -1    0    0    0  501 -0.00000000000E+00  0.00000000000E+00  0.12864395391E+03  0.12864395391E+03  0.00000000000E+00 0.  1.
          1   -1    0    0  501    0  0.00000000000E+00 -0.00000000000E+00 -0.39420842360E+04  0.39420842360E+04  0.00000000000E+00 0. -1.
        -24    2    1    2    0    0  0.33506197687E+03  0.24727220842E+03 -0.87829633638E+03  0.97547047659E+03  0.82025135202E+02 0.  0.
        254    2    1    2    0    0 -0.33506197687E+03 -0.24727220842E+03 -0.29351439457E+04  0.30952577133E+04  0.89002261568E+03 0.  0.
         23    2    4    4    0    0 -0.50269699660E+03 -0.36543646515E+03 -0.12892620864E+04  0.14341437208E+04  0.91232692087E+02 0.  0.
         23    2    4    4    0    0  0.16763501973E+03  0.11816425673E+03 -0.16458818593E+04  0.16611139925E+04  0.91149930518E+02 0.  0.
          3    1    3    3  502    0  0.79894192216E+01  0.25846446286E+02 -0.86426464574E+02  0.90561599941E+02  0.00000000000E+00 0. -1.
         -4    1    3    3    0  502  0.32707255765E+03  0.22142576213E+03 -0.79186987181E+03  0.88490887665E+03  0.00000000000E+00 0.  1.
         11    1    5    5    0    0 -0.43171316415E+03 -0.33657603155E+03 -0.10703848142E+04  0.12022409624E+04  0.00000000000E+00 0. -1.
        -11    1    5    5    0    0 -0.70983832455E+02 -0.28860433597E+02 -0.21887727221E+03  0.23190275847E+03  0.00000000000E+00 0.  1.
          2    1    6    6  503    0  0.12865087016E+03  0.39925637792E+02 -0.87806946018E+03  0.88834175848E+03  0.00000000000E+00 0. -1.
         -2    1    6    6    0  503  0.38984149576E+02  0.78238618942E+02 -0.76781239914E+03  0.77277223403E+03  0.00000000000E+00 0.  1.
<mgrwt>
<rscale>  0 0.14242546E+04</rscale>
<asrwt>0</asrwt>
<pdfrwt beam="1">  1        1 0.60647437E+00 0.14242546E+04</pdfrwt>
<pdfrwt beam="2">  1       -2 0.19791382E-01 0.14242546E+04</pdfrwt>
<totfact> 0.20493405E+00</totfact>
</mgrwt>
</event>
<event>
12    4  0.4183215E-008  0.1635589E+04  0.7818608E-02  0.8798978E-01
          1   -1    0    0  501    0  0.00000000000E+00  0.00000000000E+00  0.10108459290E+04  0.10108459290E+04  0.00000000000E+00 0. -1.
         -2   -1    0    0    0  501 -0.00000000000E+00 -0.00000000000E+00 -0.66161225693E+03  0.66161225693E+03  0.00000000000E+00 0.  1.
        -24    2    1    2    0    0  0.14841428203E+03 -0.51425588208E+03 -0.14906858977E+03  0.56045454817E+03  0.73497923369E+02 0.  0.
        254    2    1    2    0    0 -0.14841428203E+03  0.51425588208E+03  0.49830226180E+03  0.11120036377E+04  0.83771178505E+03 0.  0.
         23    2    4    4    0    0 -0.40824330639E+02 -0.62816780002E+02 -0.17710452948E+03  0.21247939096E+03  0.90381986033E+02 0.  0.
         23    2    4    4    0    0 -0.10758995139E+03  0.57707266208E+03  0.67540679128E+03  0.89952424675E+03  0.91548248610E+02 0.  0.
          1    1    3    3  502    0  0.65040891544E+01 -0.72151604517E+02 -0.42745723609E+02  0.84115124068E+02  0.00000000000E+00 0. -1.
         -2    1    3    3    0  502  0.14191019288E+03 -0.44210427756E+03 -0.10632286616E+03  0.47633942410E+03  0.00000000000E+00 0.  1.
         11    1    5    5    0    0 -0.54709877087E+02 -0.77551244521E+02 -0.15973800414E+03  0.18580526404E+03  0.00000000000E+00 0.  1.
        -11    1    5    5    0    0  0.13885546448E+02  0.14734464519E+02 -0.17366525343E+02  0.26674126927E+02  0.00000000000E+00 0. -1.
          1    1    6    6  503    0  0.59159794627E+01  0.43354551049E-01  0.51285793867E+01  0.78296244575E+01  0.00000000000E+00 0. -1.
         -1    1    6    6    0  503 -0.11350593086E+03  0.57702930753E+03  0.67027821189E+03  0.89169462229E+03  0.00000000000E+00 0.  1.
<mgrwt>
<rscale>  0 0.16355893E+04</rscale>
<asrwt>0</asrwt>
<pdfrwt beam="1">  1        1 0.15551476E+00 0.16355893E+04</pdfrwt>
<pdfrwt beam="2">  1       -2 0.10178650E+00 0.16355893E+04</pdfrwt>
<totfact> 0.98558358E+00</totfact>
</mgrwt>
</event>
<event>
12    4  0.4183215E-008  0.1546208E+04  0.7818608E-02  0.8854293E-01
         -2   -1    0    0    0  501 -0.00000000000E+00  0.00000000000E+00  0.12958017082E+04  0.12958017082E+04  0.00000000000E+00 0.  1.
          1   -1    0    0  501    0  0.00000000000E+00 -0.00000000000E+00 -0.46125106159E+03  0.46125106159E+03  0.00000000000E+00 0. -1.
        -24    2    1    2    0    0 -0.36199243343E+03 -0.33201585751E+03  0.21156828792E+03  0.54084747416E+03  0.80509616522E+02 0.  0.
        254    2    1    2    0    0  0.36199243343E+03  0.33201585751E+03  0.62298235863E+03  0.12162052956E+04  0.92183255006E+03 0.  0.
         23    2    4    4    0    0  0.88985347485E+02  0.41549537478E+03  0.77004669973E+03  0.88405755280E+03  0.89616060822E+02 0.  0.
         23    2    4    4    0    0  0.27300708594E+03 -0.83479517269E+02 -0.14706434110E+03  0.33214774279E+03  0.84808630679E+02 0.  0.
          3    1    3    3  502    0 -0.13611028111E+03 -0.12872996514E+03  0.38929942060E+02  0.19134511475E+03  0.00000000000E+00 0. -1.
         -4    1    3    3    0  502 -0.22588215231E+03 -0.20328589237E+03  0.17263834586E+03  0.34950235941E+03  0.00000000000E+00 0.  1.
         11    1    5    5    0    0  0.65276258305E+02  0.30711326217E+03  0.64178573431E+03  0.71447076529E+03  0.00000000000E+00 0. -1.
        -11    1    5    5    0    0  0.23709089179E+02  0.10838211261E+03  0.12826096542E+03  0.16958678750E+03  0.00000000000E+00 0.  1.
          4    1    6    6  503    0  0.49753258840E+02 -0.47448530963E+02 -0.15352534021E+02  0.70444660242E+02  0.00000000000E+00 0.  1.
         -4    1    6    6    0  503  0.22325382710E+03 -0.36030986306E+02 -0.13171180708E+03  0.26170308255E+03  0.00000000000E+00 0. -1.
<mgrwt>
<rscale>  0 0.15462082E+04</rscale>
<asrwt>0</asrwt>
<pdfrwt beam="1">  1        1 0.70961702E-01 0.15462082E+04</pdfrwt>
<pdfrwt beam="2">  1       -2 0.19935411E+00 0.15462082E+04</pdfrwt>
<totfact> 0.55989972E+00</totfact>
</mgrwt>
</event>
<event>
12    4  0.4183215E-008  0.1512209E+04  0.7818608E-02  0.8876374E-01
         -4   -1    0    0    0  501 -0.00000000000E+00  0.00000000000E+00  0.30068710749E+03  0.30068710749E+03  0.00000000000E+00 0.  1.
          3   -1    0    0  501    0  0.00000000000E+00 -0.00000000000E+00 -0.19012920220E+04  0.19012920220E+04  0.00000000000E+00 0. -1.
        -24    2    1    2    0    0  0.18789661373E+03  0.32834699595E+03 -0.85501236441E+02  0.39577762940E+03  0.78819942289E+02 0.  0.
        254    2    1    2    0    0 -0.18789661373E+03 -0.32834699595E+03 -0.15151036780E+04  0.18062015001E+04  0.90758350383E+03 0.  0.
         23    2    4    4    0    0 -0.92820327013E+02  0.27234715964E+03 -0.84138103397E+03  0.89361441358E+03  0.88521677406E+02 0.  0.
         23    2    4    4    0    0 -0.95076286713E+02 -0.60069415559E+03 -0.67372264408E+03  0.91258708649E+03  0.95079021988E+02 0.  0.
          1    1    3    3  502    0  0.95903470249E+01  0.34705651978E+02  0.13187481213E+02  0.38345360815E+02  0.00000000000E+00 0. -1.
         -2    1    3    3    0  502  0.17830626670E+03  0.29364134397E+03 -0.98688717654E+02  0.35743226859E+03  0.00000000000E+00 0.  1.
         11    1    5    5    0    0 -0.34315244119E+02  0.68311321748E+02 -0.12569842372E+03  0.14711922506E+03  0.00000000000E+00 0. -1.
        -11    1    5    5    0    0 -0.58505082894E+02  0.20403583789E+03 -0.71568261025E+03  0.74649518852E+03  0.00000000000E+00 0.  1.
          2    1    6    6  503    0 -0.37535242423E+02 -0.12676404805E+03 -0.97398416676E+02  0.16420861692E+03  0.00000000000E+00 0. -1.
         -2    1    6    6    0  503 -0.57541044291E+02 -0.47393010754E+03 -0.57632422740E+03  0.74837846956E+03  0.00000000000E+00 0.  1.
<mgrwt>
<rscale>  0 0.15122090E+04</rscale>
<asrwt>0</asrwt>
<pdfrwt beam="1">  1        3 0.29250646E+00 0.15122090E+04</pdfrwt>
<pdfrwt beam="2">  1       -4 0.46259556E-01 0.15122090E+04</pdfrwt>
<totfact> 0.42896750E-01</totfact>
</mgrwt>
</event>
<event>
12    4  0.4183215E-008  0.2668183E+04  0.7818608E-02  0.8345403E-01
         -2   -1    0    0    0  501 -0.00000000000E+00  0.00000000000E+00  0.18783004091E+04  0.18783004091E+04  0.00000000000E+00 0.  1.
          1   -1    0    0  501    0  0.00000000000E+00 -0.00000000000E+00 -0.94755853634E+03  0.94755853634E+03  0.00000000000E+00 0. -1.
        -24    2    1    2    0    0  0.29061168131E+03 -0.74392513445E+03  0.13331665197E+04  0.15561575196E+04  0.80084340596E+02 0.  0.
        254    2    1    2    0    0 -0.29061168131E+03  0.74392513445E+03 -0.40242464686E+03  0.12697014259E+04  0.90128594772E+03 0.  0.
         23    2    4    4    0    0  0.31198602714E+03  0.28974445503E+03 -0.74917272134E+02  0.44182668480E+03  0.91165187388E+02 0.  0.
         23    2    4    4    0    0 -0.60259770845E+03  0.45418067942E+03 -0.32750737472E+03  0.82787474110E+03  0.93334980893E+02 0.  0.
          1    1    3    3  502    0  0.12580188524E+03 -0.36169246724E+03  0.56670372053E+03  0.68395954709E+03  0.00000000000E+00 0. -1.
         -2    1    3    3    0  502  0.16480979607E+03 -0.38223266720E+03  0.76646279914E+03  0.87219797249E+03  0.00000000000E+00 0.  1.
         11    1    5    5    0    0  0.69052415769E+02  0.95539992139E+02 -0.55251322557E+02  0.13018769091E+03  0.00000000000E+00 0. -1.
        -11    1    5    5    0    0  0.24293361137E+03  0.19420446289E+03 -0.19665949577E+02  0.31163899389E+03  0.00000000000E+00 0.  1.
          2    1    6    6  503    0 -0.20682553056E+03  0.14264918427E+03 -0.63250510047E+02  0.25908727658E+03  0.00000000000E+00 0. -1.
         -2    1    6    6    0  503 -0.39577217789E+03  0.31153149515E+03 -0.26425686468E+03  0.56878746452E+03  0.00000000000E+00 0.  1.
<mgrwt>
<rscale>  0 0.26681826E+04</rscale>
<asrwt>0</asrwt>
<pdfrwt beam="1">  1        1 0.14577824E+00 0.26681826E+04</pdfrwt>
<pdfrwt beam="2">  1       -2 0.28896929E+00 0.26681826E+04</pdfrwt>
<totfact> 0.47470645E-01</totfact>
</mgrwt>
</event>
<event>
12    4  0.4183215E-008  0.2019158E+04  0.7818608E-02  0.8597716E-01
          3   -1    0    0  501    0  0.00000000000E+00  0.00000000000E+00  0.41327140961E+03  0.41327140961E+03  0.00000000000E+00 0. -1.
         -4   -1    0    0    0  501 -0.00000000000E+00 -0.00000000000E+00 -0.24662972145E+04  0.24662972145E+04  0.00000000000E+00 0.  1.
        -24    2    1    2    0    0  0.42419746008E+03  0.47977511848E+03 -0.11931752603E+03  0.65756741286E+03  0.89613508984E+02 0.  0.
        254    2    1    2    0    0 -0.42419746008E+03 -0.47977511848E+03 -0.19337082789E+04  0.22220012113E+04  0.88765647950E+03 0.  0.
         23    2    4    4    0    0 -0.61489005733E+03 -0.26241921761E+03 -0.79386765536E+03  0.10425202013E+04  0.98330501760E+02 0.  0.
         23    2    4    4    0    0  0.19069259726E+03 -0.21735590087E+03 -0.11398406235E+04  0.11794810099E+04  0.91277332747E+02 0.  0.
          3    1    3    3  502    0  0.19501650606E+03  0.17951750056E+03 -0.13999327032E+02  0.26543163301E+03  0.00000000000E+00 0. -1.
         -4    1    3    3    0  502  0.22918095402E+03  0.30025761792E+03 -0.10531819900E+03  0.39213577985E+03  0.00000000000E+00 0.  1.
         11    1    5    5    0    0 -0.35267165377E+03 -0.99320049989E+02 -0.40988897356E+03  0.54977335180E+03  0.00000000000E+00 0. -1.
        -11    1    5    5    0    0 -0.26221840357E+03 -0.16309916762E+03 -0.38397868180E+03  0.49274684953E+03  0.00000000000E+00 0.  1.
          3    1    6    6  503    0  0.79814298546E+02 -0.14395289076E+03 -0.51564067289E+03  0.54127447801E+03  0.00000000000E+00 0. -1.
         -3    1    6    6    0  503  0.11087829871E+03 -0.73403010116E+02 -0.62419995063E+03  0.63820653192E+03  0.00000000000E+00 0.  1.
<mgrwt>
<rscale>  0 0.20191584E+04</rscale>
<asrwt>0</asrwt>
<pdfrwt beam="1">  1        3 0.63580216E-01 0.20191584E+04</pdfrwt>
<pdfrwt beam="2">  1       -4 0.37943035E+00 0.20191584E+04</pdfrwt>
<totfact> 0.48186384E-02</totfact>
</mgrwt>
</event>
<event>
12    4  0.4183215E-008  0.1880397E+04  0.7818608E-02  0.8664676E-01
          1   -1    0    0  501    0  0.00000000000E+00  0.00000000000E+00  0.48423257611E+03  0.48423257611E+03  0.00000000000E+00 0. -1.
         -2   -1    0    0    0  501 -0.00000000000E+00 -0.00000000000E+00 -0.18255137669E+04  0.18255137669E+04  0.00000000000E+00 0.  1.
        -24    2    1    2    0    0  0.90597397465E+02  0.69314409975E+03 -0.30288013860E+03  0.76602802748E+03  0.80037048250E+02 0.  0.
        254    2    1    2    0    0 -0.90597397465E+02 -0.69314409975E+03 -0.10384010521E+04  0.15437183155E+04  0.90340072006E+03 0.  0.
         23    2    4    4    0    0  0.27523572611E+03  0.63460104745E+02 -0.28924863207E+03  0.41424526045E+03  0.90291056201E+02 0.  0.
         23    2    4    4    0    0 -0.36583312357E+03 -0.75660420449E+03 -0.74915242008E+03  0.11294730550E+04  0.90533071205E+02 0.  0.
          1    1    3    3  502    0  0.77119806894E+02  0.63608811665E+03 -0.29954594819E+03  0.70730709868E+03  0.00000000000E+00 0. -1.
         -2    1    3    3    0  502  0.13477590570E+02  0.57055983093E+02 -0.33341904123E+01  0.58720928808E+02  0.00000000000E+00 0.  1.
         11    1    5    5    0    0  0.27360132968E+03  0.75498192291E+02 -0.27176544063E+03  0.39295562010E+03  0.00000000000E+00 0. -1.
        -11    1    5    5    0    0  0.16343964217E+01 -0.12038087546E+02 -0.17483191432E+02  0.21289640347E+02  0.00000000000E+00 0.  1.
          1    1    6    6  503    0 -0.33569437754E+03 -0.70258072226E+03 -0.65875780672E+03  0.10199373678E+04  0.00000000000E+00 0. -1.
         -1    1    6    6    0  503 -0.30138746035E+02 -0.54023482229E+02 -0.90394613354E+02  0.10953568719E+03  0.00000000000E+00 0.  1.
<mgrwt>
<rscale>  0 0.18803970E+04</rscale>
<asrwt>0</asrwt>
<pdfrwt beam="1">  1        1 0.74497320E-01 0.18803970E+04</pdfrwt>
<pdfrwt beam="2">  1       -2 0.28084827E+00 0.18803970E+04</pdfrwt>
<totfact> 0.15822055E+00</totfact>
</mgrwt>
</event>
<event>
12    4  0.4183215E-008  0.1763422E+04  0.7818608E-02  0.8725996E-01
          1   -1    0    0  501    0  0.00000000000E+00  0.00000000000E+00  0.67568085370E+03  0.67568085370E+03  0.00000000000E+00 0. -1.
         -2   -1    0    0    0  501 -0.00000000000E+00 -0.00000000000E+00 -0.11505649720E+04  0.11505649720E+04  0.00000000000E+00 0.  1.
        -24    2    1    2    0    0 -0.59104749332E+03 -0.25811620208E+03 -0.50112374763E+03  0.82049205411E+03  0.78237377831E+02 0.  0.
        254    2    1    2    0    0  0.59104749332E+03  0.25811620208E+03  0.26239629335E+02  0.10057537716E+04  0.77129178512E+03 0.  0.
         23    2    4    4    0    0  0.40481428515E+03  0.28679844196E+03  0.35366496093E+03  0.61667648383E+03  0.95304928208E+02 0.  0.
         23    2    4    4    0    0  0.18623320816E+03 -0.28682239885E+02 -0.32742533159E+03  0.38907728777E+03  0.93103756008E+02 0.  0.
          1    1    3    3  502    0 -0.31119626566E+03 -0.13405336976E+03 -0.21379593497E+03  0.40065212281E+03  0.00000000000E+00 0. -1.
         -2    1    3    3    0  502 -0.27985122765E+03 -0.12406283232E+03 -0.28732781267E+03  0.41983993130E+03  0.00000000000E+00 0.  1.
         11    1    5    5    0    0  0.29158724840E+03  0.19451069558E+03  0.19536770446E+03  0.40128054285E+03  0.00000000000E+00 0. -1.
        -11    1    5    5    0    0  0.11322703676E+03  0.92287746380E+02  0.15829725647E+03  0.21539594098E+03  0.00000000000E+00 0.  1.
          1    1    6    6  503    0  0.47506638504E+02  0.96040600723E+01 -0.16545874008E+03  0.17241146522E+03  0.00000000000E+00 0. -1.
         -1    1    6    6    0  503  0.13872656966E+03 -0.38286299958E+02 -0.16196659152E+03  0.21666582255E+03  0.00000000000E+00 0.  1.
<mgrwt>
<rscale>  0 0.17634225E+04</rscale>
<asrwt>0</asrwt>
<pdfrwt beam="1">  1        1 0.10395090E+00 0.17634225E+04</pdfrwt>
<pdfrwt beam="2">  1       -2 0.17700999E+00 0.17634225E+04</pdfrwt>
<totfact> 0.45279893E+00</totfact>
</mgrwt>
</event>
<event>
12    4  0.4183215E-008  0.1533451E+04  0.7818608E-02  0.8862508E-01
         -2   -1    0    0    0  501 -0.00000000000E+00  0.00000000000E+00  0.31593054156E+03  0.31593054156E+03  0.00000000000E+00 0.  1.
          1   -1    0    0  501    0  0.00000000000E+00 -0.00000000000E+00 -0.18607498447E+04  0.18607498447E+04  0.00000000000E+00 0. -1.
        -24    2    1    2    0    0 -0.10533238693E+03  0.22599582598E+03  0.11471853461E+03  0.28898476238E+03  0.90458971958E+02 0.  0.
        254    2    1    2    0    0  0.10533238693E+03 -0.22599582598E+03 -0.16595378378E+04  0.18876956239E+04  0.86438412083E+03 0.  0.
         23    2    4    4    0    0 -0.97014540847E+02 -0.44650783303E+03 -0.48494720389E+03  0.67219588116E+03  0.88839439465E+02 0.  0.
         23    2    4    4    0    0  0.20234692778E+03  0.22051200704E+03 -0.11745906339E+04  0.12154997427E+04  0.90590523356E+02 0.  0.
          1    1    3    3  502    0  0.16524099064E+01  0.43783413976E+01 -0.11499026381E+02  0.12414827409E+02  0.00000000000E+00 0. -1.
         -2    1    3    3    0  502 -0.10698479684E+03  0.22161748458E+03  0.12621756099E+03  0.27656993497E+03  0.00000000000E+00 0.  1.
         11    1    5    5    0    0 -0.80441190035E+02 -0.37685607660E+03 -0.35557009814E+03  0.52432945961E+03  0.00000000000E+00 0. -1.
        -11    1    5    5    0    0 -0.16573350812E+02 -0.69651756422E+02 -0.12937710575E+03  0.14786642155E+03  0.00000000000E+00 0.  1.
          2    1    6    6  503    0  0.15914120104E+03  0.21172517030E+03 -0.93065527029E+03  0.96761185489E+03  0.00000000000E+00 0. -1.
         -2    1    6    6    0  503  0.43205726738E+02  0.87868367489E+01 -0.24393536359E+03  0.24788788783E+03  0.00000000000E+00 0.  1.
<mgrwt>
<rscale>  0 0.15334506E+04</rscale>
<asrwt>0</asrwt>
<pdfrwt beam="1">  1        1 0.28626920E+00 0.15334506E+04</pdfrwt>
<pdfrwt beam="2">  1       -2 0.48604700E-01 0.15334506E+04</pdfrwt>
<totfact> 0.12580464E+01</totfact>
</mgrwt>
</event>
<event>
12    4  0.4183215E-008  0.1502299E+04  0.7818608E-02  0.8882926E-01
         -2   -1    0    0    0  501 -0.00000000000E+00  0.00000000000E+00  0.50227430838E+03  0.50227430838E+03  0.00000000000E+00 0.  1.
          1   -1    0    0  501    0  0.00000000000E+00 -0.00000000000E+00 -0.11233414758E+04  0.11233414758E+04  0.00000000000E+00 0. -1.
        -24    2    1    2    0    0 -0.66401998455E+02 -0.67998275175E+02 -0.70356957113E+03  0.71476533237E+03  0.82742662055E+02 0.  0.
        254    2    1    2    0    0  0.66401998455E+02  0.67998275175E+02  0.82502403734E+02  0.91085045178E+03  0.90211357825E+03 0.  0.
         23    2    4    4    0    0 -0.30767474702E+03 -0.13833232673E+03  0.26375001979E+03  0.43788084351E+03  0.91520367138E+02 0.  0.
         23    2    4    4    0    0  0.37407674548E+03  0.20633060191E+03 -0.18124761605E+03  0.47296960827E+03  0.91344530389E+02 0.  0.
          3    1    3    3  502    0 -0.58295002198E+02 -0.84645880697E+02 -0.50616203573E+03  0.51649127661E+03  0.00000000000E+00 0. -1.
         -4    1    3    3    0  502 -0.81069962571E+01  0.16647605522E+02 -0.19740753540E+03  0.19827405577E+03  0.00000000000E+00 0.  1.
         11    1    5    5    0    0 -0.48088355290E+02 -0.58569123558E+02  0.38199289807E+02  0.84864703444E+02  0.00000000000E+00 0. -1.
        -11    1    5    5    0    0 -0.25958639173E+03 -0.79763203177E+02  0.22555072998E+03  0.35301614007E+03  0.00000000000E+00 0.  1.
          2    1    6    6  503    0  0.17083608844E+03  0.13309149861E+03 -0.57752242695E+02  0.22412861855E+03  0.00000000000E+00 0. -1.
         -2    1    6    6    0  503  0.20324065704E+03  0.73239103295E+02 -0.12349537336E+03  0.24884098972E+03  0.00000000000E+00 0.  1.
<mgrwt>
<rscale>  0 0.15022990E+04</rscale>
<asrwt>0</asrwt>
<pdfrwt beam="1">  1        1 0.17282176E+00 0.15022990E+04</pdfrwt>
<pdfrwt beam="2">  1       -2 0.77272971E-01 0.15022990E+04</pdfrwt>
<totfact> 0.15431125E+01</totfact>
</mgrwt>
</event>
<event>
12    4  0.4183215E-008  0.1521059E+04  0.7818608E-02  0.8870569E-01
          1   -1    0    0  501    0  0.00000000000E+00  0.00000000000E+00  0.31360409531E+04  0.31360409531E+04  0.00000000000E+00 0. -1.
         -2   -1    0    0    0  501 -0.00000000000E+00 -0.00000000000E+00 -0.18443789314E+03  0.18443789314E+03  0.00000000000E+00 0.  1.
        -24    2    1    2    0    0  0.44810250786E+03 -0.12234971247E+03  0.10403414271E+04  0.11422503448E+04  0.81610387885E+02 0.  0.
        254    2    1    2    0    0 -0.44810250786E+03  0.12234971247E+03  0.19112616328E+04  0.21782285015E+04  0.93594501221E+03 0.  0.
         23    2    4    4    0    0  0.13686574948E+03  0.14766769866E+03  0.54403182931E+02  0.22912254790E+03  0.94865446996E+02 0.  0.
         23    2    4    4    0    0 -0.58496825734E+03 -0.25317986181E+02  0.18568584499E+04  0.19491059536E+04  0.90894734963E+02 0.  0.
          3    1    3    3  502    0  0.11552296547E+02 -0.19408466678E+02  0.62303106532E+02  0.66270817241E+02  0.00000000000E+00 0. -1.
         -4    1    3    3    0  502  0.43655021131E+03 -0.10294124580E+03  0.97803832059E+03  0.10759795275E+04  0.00000000000E+00 0.  1.
         11    1    5    5    0    0  0.13654558159E+03  0.13605839967E+03  0.21171099669E+02  0.19391956949E+03  0.00000000000E+00 0.  1.
        -11    1    5    5    0    0  0.32016789646E+00  0.11609298985E+02  0.33232083262E+02  0.35202978402E+02  0.00000000000E+00 0. -1.
          2    1    6    6  503    0 -0.56651751696E+03 -0.39853907517E+02  0.18035401572E+04  0.18908430737E+04  0.00000000000E+00 0.  1.
         -2    1    6    6    0  503 -0.18450740385E+02  0.14535921336E+02  0.53318292743E+02  0.58262879871E+02  0.00000000000E+00 0. -1.
<mgrwt>
<rscale>  0 0.15210586E+04</rscale>
<asrwt>0</asrwt>
<pdfrwt beam="1">  1        1 0.48246780E+00 0.15210586E+04</pdfrwt>
<pdfrwt beam="2">  1       -2 0.28375063E-01 0.15210586E+04</pdfrwt>
<totfact> 0.46099333E+00</totfact>
</mgrwt>
</event>
<event>
12    4  0.4183215E-008  0.1382104E+04  0.7818608E-02  0.8966876E-01
          1   -1    0    0  501    0  0.00000000000E+00  0.00000000000E+00  0.21771337110E+04  0.21771337110E+04  0.00000000000E+00 0. -1.
         -2   -1    0    0    0  501 -0.00000000000E+00 -0.00000000000E+00 -0.21934925527E+03  0.21934925527E+03  0.00000000000E+00 0.  1.
        -24    2    1    2    0    0 -0.20636094091E+03  0.16788189776E+03  0.55291886559E+02  0.28321843415E+03  0.79914449245E+02 0.  0.
        254    2    1    2    0    0  0.20636094091E+03 -0.16788189776E+03  0.19024925692E+04  0.21132645321E+04  0.88070417133E+03 0.  0.
         23    2    4    4    0    0 -0.74526076397E+02  0.28189929337E+03  0.32200061864E+03  0.44365790510E+03  0.90147604977E+02 0.  0.
         23    2    4    4    0    0  0.28088701730E+03 -0.44978119113E+03  0.15804919505E+04  0.16696066270E+04  0.91819643364E+02 0.  0.
          1    1    3    3  502    0 -0.13382254513E+03  0.13560457239E+03  0.77462997085E+01  0.19067532299E+03  0.00000000000E+00 0. -1.
         -2    1    3    3    0  502 -0.72538395780E+02  0.32277325369E+02  0.47545586851E+02  0.92543111166E+02  0.00000000000E+00 0.  1.
         11    1    5    5    0    0 -0.39766333487E+02  0.98800241822E+02  0.60332263760E+02  0.12240437539E+03  0.00000000000E+00 0.  1.
        -11    1    5    5    0    0 -0.34759742910E+02  0.18309905154E+03  0.26166835488E+03  0.32125352971E+03  0.00000000000E+00 0. -1.
          1    1    6    6  503    0  0.26008259208E+03 -0.42388878978E+03  0.13910783702E+04  0.14773028440E+04  0.00000000000E+00 0. -1.
         -1    1    6    6    0  503  0.20804425227E+02 -0.25892401347E+02  0.18941358028E+03  0.19230378299E+03  0.00000000000E+00 0.  1.
<mgrwt>
<rscale>  0 0.13821037E+04</rscale>
<asrwt>0</asrwt>
<pdfrwt beam="1">  1        1 0.33494363E+00 0.13821037E+04</pdfrwt>
<pdfrwt beam="2">  1       -2 0.33746041E-01 0.13821037E+04</pdfrwt>
<totfact> 0.15927800E+01</totfact>
</mgrwt>
</event>
<event>
12    4  0.4183215E-008  0.1514780E+04  0.7818608E-02  0.8874683E-01
         -2   -1    0    0    0  501 -0.00000000000E+00  0.00000000000E+00  0.27273381338E+03  0.27273381338E+03  0.00000000000E+00 0.  1.
          1   -1    0    0  501    0  0.00000000000E+00 -0.00000000000E+00 -0.21032955675E+04  0.21032955675E+04  0.00000000000E+00 0. -1.
        -24    2    1    2    0    0  0.38637020636E+03  0.26353854037E+03 -0.71969406579E+03  0.86202980097E+03  0.80008317140E+02 0.  0.
        254    2    1    2    0    0 -0.38637020636E+03 -0.26353854037E+03 -0.11108676883E+04  0.15139995799E+04  0.91620587664E+03 0.  0.
         23    2    4    4    0    0 -0.46198131799E+03  0.22227361115E+03 -0.47302141701E+03  0.70349463537E+03  0.91231270174E+02 0.  0.
         23    2    4    4    0    0  0.75611111633E+02 -0.48581215152E+03 -0.63784627132E+03  0.81050494454E+03  0.91323121521E+02 0.  0.
          1    1    3    3  502    0  0.78545015683E+02  0.83264325471E+02 -0.13381527564E+03  0.17609314405E+03  0.00000000000E+00 0. -1.
         -2    1    3    3    0  502  0.30782519067E+03  0.18027421490E+03 -0.58587879015E+03  0.68593665693E+03  0.00000000000E+00 0.  1.
         11    1    5    5    0    0 -0.48763708149E+02  0.47301076561E+01 -0.20125721791E+02  0.52965251142E+02  0.00000000000E+00 0. -1.
        -11    1    5    5    0    0 -0.41321760984E+03  0.21754350350E+03 -0.45289569522E+03  0.65052938423E+03  0.00000000000E+00 0.  1.
          1    1    6    6  503    0  0.24119744871E+02 -0.20434603833E+03 -0.34050240940E+03  0.39784539244E+03  0.00000000000E+00 0. -1.
         -1    1    6    6    0  503  0.51491366762E+02 -0.28146611319E+03 -0.29734386192E+03  0.41265955211E+03  0.00000000000E+00 0.  1.
<mgrwt>
<rscale>  0 0.15147803E+04</rscale>
<asrwt>0</asrwt>
<pdfrwt beam="1">  1        1 0.32358394E+00 0.15147803E+04</pdfrwt>
<pdfrwt beam="2">  1       -2 0.41959048E-01 0.15147803E+04</pdfrwt>
<totfact> 0.11586838E+01</totfact>
</mgrwt>
</event>
<event>
12    4  0.4183215E-008  0.1449198E+04  0.7818608E-02  0.8918957E-01
          1   -1    0    0  501    0  0.00000000000E+00  0.00000000000E+00  0.24328601427E+04  0.24328601427E+04  0.00000000000E+00 0. -1.
         -2   -1    0    0    0  501 -0.00000000000E+00 -0.00000000000E+00 -0.21581340603E+03  0.21581340603E+03  0.00000000000E+00 0.  1.
        -24    2    1    2    0    0  0.29456242491E+03  0.10133219981E+03  0.12980996711E+04  0.13379888668E+04  0.90090036079E+02 0.  0.
        254    2    1    2    0    0 -0.29456242491E+03 -0.10133219981E+03  0.91894706553E+03  0.13106846819E+04  0.88113301453E+03 0.  0.
         23    2    4    4    0    0 -0.40142848659E+03 -0.26404844933E+03  0.97382812669E+03  0.10895064408E+04  0.88411824879E+02 0.  0.
         23    2    4    4    0    0  0.10686606168E+03  0.16271624952E+03 -0.54881061154E+02  0.22117824112E+03  0.89503913183E+02 0.  0.
          3    1    3    3  502    0  0.27316273218E+03  0.11736167382E+03  0.12039971707E+04  0.12401616136E+04  0.00000000000E+00 0. -1.
         -4    1    3    3    0  502  0.21399692730E+02 -0.16029474007E+02  0.94102500447E+02  0.97827253239E+02  0.00000000000E+00 0.  1.
         11    1    5    5    0    0 -0.22592432614E+03 -0.17300214220E+03  0.65804290359E+03  0.71693235756E+03  0.00000000000E+00 0. -1.
        -11    1    5    5    0    0 -0.17550416045E+03 -0.91046307127E+02  0.31578522310E+03  0.37257408324E+03  0.00000000000E+00 0.  1.
          1    1    6    6  503    0  0.48952230395E+01  0.68475875229E+02  0.73062056922E+01  0.69038317901E+02  0.00000000000E+00 0. -1.
         -1    1    6    6    0  503  0.10197083864E+03  0.94240374291E+02 -0.62187266846E+02  0.15213992322E+03  0.00000000000E+00 0.  1.
<mgrwt>
<rscale>  0 0.14491982E+04</rscale>
<asrwt>0</asrwt>
<pdfrwt beam="1">  1        1 0.37428616E+00 0.14491982E+04</pdfrwt>
<pdfrwt beam="2">  1       -2 0.33202064E-01 0.14491982E+04</pdfrwt>
<totfact> 0.10922885E+01</totfact>
</mgrwt>
</event>
<event>
12    4  0.4183215E-008  0.1778996E+04  0.7818608E-02  0.8717550E-01
         -2   -1    0    0    0  501 -0.00000000000E+00  0.00000000000E+00  0.21421038164E+03  0.21421038164E+03  0.00000000000E+00 0.  1.
          1   -1    0    0  501    0  0.00000000000E+00 -0.00000000000E+00 -0.36935947627E+04  0.36935947627E+04  0.00000000000E+00 0. -1.
        -24    2    1    2    0    0 -0.17811028543E+03 -0.63403157720E+03 -0.14815180354E+04  0.16232124218E+04  0.78762697297E+02 0.  0.
        254    2    1    2    0    0  0.17811028543E+03  0.63403157720E+03 -0.19978663456E+04  0.22845927225E+04  0.89116477601E+03 0.  0.
         23    2    4    4    0    0 -0.17716084012E+03 -0.14484458768E+03 -0.40913007744E+03  0.47748583331E+03  0.90771046578E+02 0.  0.
         23    2    4    4    0    0  0.35527112554E+03  0.77887616488E+03 -0.15887362682E+04  0.18071068892E+04  0.93202608316E+02 0.  0.
          1    1    3    3  502    0 -0.14243611972E+03 -0.40219735024E+03 -0.10153867389E+04  0.11013904786E+04  0.00000000000E+00 0. -1.
         -2    1    3    3    0  502 -0.35674165703E+02 -0.23183422696E+03 -0.46613129653E+03  0.52182194329E+03  0.00000000000E+00 0.  1.
         11    1    5    5    0    0 -0.92928727966E+00 -0.25832186649E+02 -0.15646856887E+02  0.30215717306E+02  0.00000000000E+00 0. -1.
        -11    1    5    5    0    0 -0.17623155284E+03 -0.11901240103E+03 -0.39348322055E+03  0.44727011601E+03  0.00000000000E+00 0.  1.
          2    1    6    6  503    0  0.63840545166E+02  0.88071244300E+02 -0.25168308697E+03  0.27418339765E+03  0.00000000000E+00 0. -1.
         -2    1    6    6    0  503  0.29143058038E+03  0.69080492058E+03 -0.13370531812E+04  0.15329234915E+04  0.00000000000E+00 0.  1.
<mgrwt>
<rscale>  0 0.17789956E+04</rscale>
<asrwt>0</asrwt>
<pdfrwt beam="1">  1        1 0.56824528E+00 0.17789956E+04</pdfrwt>
<pdfrwt beam="2">  1       -2 0.32955447E-01 0.17789956E+04</pdfrwt>
<totfact> 0.12567152E+00</totfact>
</mgrwt>
</event>
<event>
12    4  0.4183215E-008  0.2441993E+04  0.7818608E-02  0.8423947E-01
         -2   -1    0    0    0  501 -0.00000000000E+00  0.00000000000E+00  0.82302897814E+03  0.82302897814E+03  0.00000000000E+00 0.  1.
          1   -1    0    0  501    0  0.00000000000E+00 -0.00000000000E+00 -0.18113966558E+04  0.18113966558E+04  0.00000000000E+00 0. -1.
        -24    2    1    2    0    0 -0.61073340690E+03  0.85791093002E+03 -0.35951741290E+03  0.11158288340E+04  0.82551550472E+02 0.  0.
        254    2    1    2    0    0  0.61073340690E+03 -0.85791093002E+03 -0.62885026472E+03  0.15185967999E+04  0.89536424266E+03 0.  0.
         23    2    4    4    0    0  0.61080899796E+03 -0.97242098847E+03 -0.35140382766E+03  0.12042432347E+04  0.89593009800E+02 0.  0.
         23    2    4    4    0    0 -0.75591060871E-01  0.11451005844E+03 -0.27744643705E+03  0.31435356520E+03  0.93429541998E+02 0.  0.
          1    1    3    3  502    0 -0.92916838948E+02  0.10406264758E+03 -0.72904826680E+02  0.15740929875E+03  0.00000000000E+00 0. -1.
         -2    1    3    3    0  502 -0.51781656795E+03  0.75384828245E+03 -0.28661258622E+03  0.95841953526E+03  0.00000000000E+00 0.  1.
         11    1    5    5    0    0  0.51170482076E+03 -0.86989738212E+03 -0.30764743113E+03  0.10550877788E+04  0.00000000000E+00 0. -1.
        -11    1    5    5    0    0  0.99104177198E+02 -0.10252360635E+03 -0.43756396532E+02  0.14915545593E+03  0.00000000000E+00 0.  1.
          3    1    6    6  503    0  0.20097777875E+02  0.93277118765E+02 -0.11566836793E+03  0.14994569984E+03  0.00000000000E+00 0. -1.
         -3    1    6    6    0  503 -0.20173368936E+02  0.21232939679E+02 -0.16177806912E+03  0.16440786535E+03  0.00000000000E+00 0.  1.
<mgrwt>
<rscale>  0 0.24419926E+04</rscale>
<asrwt>0</asrwt>
<pdfrwt beam="1">  1        1 0.27867641E+00 0.24419926E+04</pdfrwt>
<pdfrwt beam="2">  1       -2 0.12661984E+00 0.24419926E+04</pdfrwt>
<totfact> 0.14571794E+00</totfact>
</mgrwt>
</event>
<event>
12    4  0.4183215E-008  0.2056223E+04  0.7818608E-02  0.8580776E-01
          1   -1    0    0  501    0  0.00000000000E+00  0.00000000000E+00  0.86128229178E+03  0.86128229178E+03  0.00000000000E+00 0. -1.
         -2   -1    0    0    0  501 -0.00000000000E+00 -0.00000000000E+00 -0.12272553387E+04  0.12272553387E+04  0.00000000000E+00 0.  1.
        -24    2    1    2    0    0 -0.39253238421E+02 -0.31612516816E+03 -0.92436062055E+03  0.98118381556E+03  0.82481418669E+02 0.  0.
        254    2    1    2    0    0  0.39253238421E+02  0.31612516816E+03  0.55838757368E+03  0.11073538149E+04  0.90164286179E+03 0.  0.
         23    2    4    4    0    0 -0.38511766346E+03  0.33411078766E+03  0.34785212367E+03  0.62412157340E+03  0.92633715795E+02 0.  0.
         23    2    4    4    0    0  0.42437090188E+03 -0.17985619501E+02  0.21053545001E+03  0.48323224148E+03  0.93670051869E+02 0.  0.
          3    1    3    3  502    0  0.25829221126E+02 -0.91163046941E+02 -0.25444933998E+03  0.27151853787E+03  0.00000000000E+00 0. -1.
         -2    1    3    3    0  502 -0.65082459547E+02 -0.22496212122E+03 -0.66991128057E+03  0.70966527769E+03  0.00000000000E+00 0.  1.
         11    1    5    5    0    0 -0.23751100827E+02  0.25500889981E+02 -0.58891963591E+00  0.34853364353E+02  0.00000000000E+00 0. -1.
        -11    1    5    5    0    0 -0.36136656263E+03  0.30860989768E+03  0.34844104330E+03  0.58926820905E+03  0.00000000000E+00 0.  1.
          1    1    6    6  503    0  0.31096805647E+03 -0.16430611095E+02  0.19825458318E+03  0.36915576235E+03  0.00000000000E+00 0. -1.
         -1    1    6    6    0  503  0.11340284541E+03 -0.15550084056E+01  0.12280866826E+02  0.11407647912E+03  0.00000000000E+00 0.  1.
<mgrwt>
<rscale>  0 0.20562230E+04</rscale>
<asrwt>0</asrwt>
<pdfrwt beam="1">  1        1 0.13250497E+00 0.20562230E+04</pdfrwt>
<pdfrwt beam="2">  1       -2 0.18880851E+00 0.20562230E+04</pdfrwt>
<totfact> 0.25020084E+00</totfact>
</mgrwt>
</event>
<event>
12    4  0.4183215E-008  0.2446761E+04  0.7818608E-02  0.8422202E-01
          1   -1    0    0  501    0  0.00000000000E+00  0.00000000000E+00  0.41132289077E+04  0.41132289077E+04  0.00000000000E+00 0. -1.
         -2   -1    0    0    0  501 -0.00000000000E+00 -0.00000000000E+00 -0.36386494388E+03  0.36386494388E+03  0.00000000000E+00 0.  1.
        -24    2    1    2    0    0  0.90534337133E+03 -0.28678318546E+03  0.24517655122E+04  0.26305005042E+04  0.80545392252E+02 0.  0.
        254    2    1    2    0    0 -0.90534337133E+03  0.28678318546E+03  0.12975984516E+04  0.18465933474E+04  0.90788437231E+03 0.  0.
         23    2    4    4    0    0 -0.27609812019E+03 -0.93011524395E+02 -0.49568259593E+02  0.30907826491E+03  0.90504396805E+02 0.  0.
         23    2    4    4    0    0 -0.62924525115E+03  0.37979470986E+03  0.13471667112E+04  0.15375150825E+04  0.94344439760E+02 0.  0.
          1    1    3    3  502    0  0.70784260080E+03 -0.23545371402E+03  0.18341609356E+04  0.19800570539E+04  0.00000000000E+00 0. -1.
         -2    1    3    3    0  502  0.19750077053E+03 -0.51329471441E+02  0.61760457661E+03  0.65044345031E+03  0.00000000000E+00 0.  1.
         11    1    5    5    0    0 -0.16268010364E+03 -0.73141867133E+01 -0.22945656177E+02  0.16445308323E+03  0.00000000000E+00 0.  1.
        -11    1    5    5    0    0 -0.11341801655E+03 -0.85697337682E+02 -0.26622603416E+02  0.14462518168E+03  0.00000000000E+00 0. -1.
          1    1    6    6  503    0 -0.80072526278E+02  0.76772341149E+02  0.25440585856E+03  0.27753908319E+03  0.00000000000E+00 0. -1.
         -1    1    6    6    0  503 -0.54917272487E+03  0.30302236871E+03  0.10927608526E+04  0.12599759993E+04  0.00000000000E+00 0.  1.
<mgrwt>
<rscale>  0 0.24467610E+04</rscale>
<asrwt>0</asrwt>
<pdfrwt beam="1">  1        1 0.63280441E+00 0.24467610E+04</pdfrwt>
<pdfrwt beam="2">  1       -2 0.55979225E-01 0.24467610E+04</pdfrwt>
<totfact> 0.17935613E-01</totfact>
</mgrwt>
</event>
<event>
12    4  0.4183215E-008  0.1240080E+04  0.7818608E-02  0.9078481E-01
         -2   -1    0    0    0  501 -0.00000000000E+00  0.00000000000E+00  0.15701982409E+03  0.15701982409E+03  0.00000000000E+00 0.  1.
          1   -1    0    0  501    0  0.00000000000E+00 -0.00000000000E+00 -0.24484127119E+04  0.24484127119E+04  0.00000000000E+00 0. -1.
        -24    2    1    2    0    0  0.10395664323E+03  0.25307370378E+03 -0.79644392785E+03  0.84517118574E+03  0.71680679249E+02 0.  0.
        254    2    1    2    0    0 -0.10395664323E+03 -0.25307370378E+03 -0.14949489600E+04  0.17602613502E+04  0.88814094886E+03 0.  0.
         23    2    4    4    0    0  0.97779226215E+02 -0.28890602720E+03 -0.81109511002E+02  0.32875898946E+03  0.92066556068E+02 0.  0.
         23    2    4    4    0    0 -0.20173586945E+03  0.35832323416E+02 -0.14138394490E+04  0.14315023608E+04  0.90970902262E+02 0.  0.
          3    1    3    3  502    0  0.75976169087E+02  0.17296380510E+03 -0.63868890883E+03  0.66604232479E+03  0.00000000000E+00 0. -1.
         -4    1    3    3    0  502  0.27980474145E+02  0.80109898688E+02 -0.15775501902E+03  0.17912886096E+03  0.00000000000E+00 0.  1.
         11    1    5    5    0    0  0.45978934293E+01 -0.38434173282E+01 -0.22365140028E+02  0.23154091846E+02  0.00000000000E+00 0.  1.
        -11    1    5    5    0    0  0.93181332786E+02 -0.28506260987E+03 -0.58744370975E+02  0.30560489762E+03  0.00000000000E+00 0. -1.
          1    1    6    6  503    0 -0.17638810346E+03  0.62632049714E+02 -0.11635967207E+04  0.11785554146E+04  0.00000000000E+00 0. -1.
         -1    1    6    6    0  503 -0.25347765991E+02 -0.26799726298E+02 -0.25024272821E+03  0.25294694620E+03  0.00000000000E+00 0.  1.
<mgrwt>
<rscale>  0 0.12400796E+04</rscale>
<asrwt>0</asrwt>
<pdfrwt beam="1">  1        1 0.37667887E+00 0.12400796E+04</pdfrwt>
<pdfrwt beam="2">  1       -2 0.24156896E-01 0.12400796E+04</pdfrwt>
<totfact> 0.19555196E+01</totfact>
</mgrwt>
</event>
<event>
12    4  0.4183215E-008  0.2392574E+04  0.7818608E-02  0.8442289E-01
         -4   -1    0    0    0  501 -0.00000000000E+00  0.00000000000E+00  0.13417007410E+04  0.13417007410E+04  0.00000000000E+00 0.  1.
          3   -1    0    0  501    0  0.00000000000E+00 -0.00000000000E+00 -0.10666335114E+04  0.10666335114E+04  0.00000000000E+00 0. -1.
        -24    2    1    2    0    0 -0.85150665710E+03 -0.56651874829E+03  0.11230217872E+03  0.10324383207E+04  0.85498699113E+02 0.  0.
        254    2    1    2    0    0  0.85150665710E+03  0.56651874829E+03  0.16276505082E+03  0.13758959316E+04  0.90586426889E+03 0.  0.
         23    2    4    4    0    0  0.80921225561E+03  0.47676460223E+03  0.45972131417E+03  0.10499198072E+04  0.94122017546E+02 0.  0.
         23    2    4    4    0    0  0.42294401489E+02  0.89754146058E+02 -0.29695626335E+03  0.32597612447E+03  0.90734713615E+02 0.  0.
          3    1    3    3  502    0 -0.65149233266E+02 -0.60658358605E+02  0.29444178560E+02  0.93759366012E+02  0.00000000000E+00 0. -1.
         -4    1    3    3    0  502 -0.78635742383E+03 -0.50586038968E+03  0.82858000164E+02  0.93867895473E+03  0.00000000000E+00 0.  1.
         11    1    5    5    0    0  0.75966709205E+03  0.46984523569E+03  0.42614638123E+03  0.98967134670E+03  0.00000000000E+00 0.  1.
        -11    1    5    5    0    0  0.49545163563E+02  0.69193665440E+01  0.33574932938E+02  0.60248460459E+02  0.00000000000E+00 0. -1.
          1    1    6    6  503    0  0.16760007290E+02  0.66331038688E+02 -0.75749666056E+02  0.10207211395E+03  0.00000000000E+00 0. -1.
         -1    1    6    6    0  503  0.25534394199E+02  0.23423107370E+02 -0.22120659729E+03  0.22390401053E+03  0.00000000000E+00 0.  1.
<mgrwt>
<rscale>  0 0.23925743E+04</rscale>
<asrwt>0</asrwt>
<pdfrwt beam="1">  1        3 0.16409746E+00 0.23925743E+04</pdfrwt>
<pdfrwt beam="2">  1       -4 0.20641550E+00 0.23925743E+04</pdfrwt>
<totfact> 0.62579103E-02</totfact>
</mgrwt>
</event>
<event>
12    4  0.4183215E-008  0.1210453E+04  0.7818608E-02  0.9103756E-01
         -2   -1    0    0    0  501 -0.00000000000E+00  0.00000000000E+00  0.34002576087E+03  0.34002576087E+03  0.00000000000E+00 0.  1.
          1   -1    0    0  501    0  0.00000000000E+00 -0.00000000000E+00 -0.10772680559E+04  0.10772680559E+04  0.00000000000E+00 0. -1.
        -24    2    1    2    0    0  0.12956446067E+03 -0.49837432284E+02 -0.41161338960E+03  0.44181281926E+03  0.80636627178E+02 0.  0.
        254    2    1    2    0    0 -0.12956446067E+03  0.49837432284E+02 -0.32562890544E+03  0.97548099751E+03  0.90898749899E+03 0.  0.
         23    2    4    4    0    0  0.24113210376E+03 -0.33033844944E+02  0.19477698250E+03  0.32480779838E+03  0.91247501879E+02 0.  0.
         23    2    4    4    0    0 -0.37069656443E+03  0.82871277228E+02 -0.52040588794E+03  0.65067319914E+03  0.90938069083E+02 0.  0.
          3    1    3    3  502    0  0.74912627959E+02 -0.64308120724E+02 -0.31231056888E+03  0.32754439035E+03  0.00000000000E+00 0. -1.
         -4    1    3    3    0  502  0.54651832707E+02  0.14470688440E+02 -0.99302820718E+02  0.11426842891E+03  0.00000000000E+00 0.  1.
         11    1    5    5    0    0  0.23170218940E+03 -0.74149282618E+01  0.16588880033E+03  0.28506136148E+03  0.00000000000E+00 0. -1.
        -11    1    5    5    0    0  0.94299143565E+01 -0.25618916682E+02  0.28888182165E+02  0.39746436891E+02  0.00000000000E+00 0.  1.
          4    1    6    6  503    0 -0.31257815764E+03  0.34660881838E+02 -0.43313795280E+03  0.53527092908E+03  0.00000000000E+00 0. -1.
         -4    1    6    6    0  503 -0.58118406786E+02  0.48210395390E+02 -0.87267935139E+02  0.11540227006E+03  0.00000000000E+00 0.  1.
<mgrwt>
<rscale>  0 0.12104526E+04</rscale>
<asrwt>0</asrwt>
<pdfrwt beam="1">  1        1 0.16573354E+00 0.12104526E+04</pdfrwt>
<pdfrwt beam="2">  1       -2 0.52311657E-01 0.12104526E+04</pdfrwt>
<totfact> 0.39450616E+01</totfact>
</mgrwt>
</event>
<event>
12    4  0.4183215E-008  0.1273509E+04  0.7818608E-02  0.9050840E-01
         -2   -1    0    0    0  501 -0.00000000000E+00  0.00000000000E+00  0.34391388335E+03  0.34391388335E+03  0.00000000000E+00 0.  1.
          1   -1    0    0  501    0  0.00000000000E+00 -0.00000000000E+00 -0.11789477820E+04  0.11789477820E+04  0.00000000000E+00 0. -1.
        -24    2    1    2    0    0 -0.25750846341E+03  0.10065235936E+02 -0.39870090737E+03  0.48134422661E+03  0.79485427926E+02 0.  0.
        254    2    1    2    0    0  0.25750846341E+03 -0.10065235936E+02 -0.43633299130E+03  0.10415174388E+04  0.90992317163E+03 0.  0.
         23    2    4    4    0    0  0.35084790918E+03  0.32464026889E+03 -0.13445278078E+02  0.48625944244E+03  0.88215136418E+02 0.  0.
         23    2    4    4    0    0 -0.93339445778E+02 -0.33470550482E+03 -0.42288771323E+03  0.55525799634E+03  0.93474046659E+02 0.  0.
          1    1    3    3  502    0 -0.12488912742E+03  0.11602421200E+02 -0.12436820239E+03  0.17663340593E+03  0.00000000000E+00 0. -1.
         -2    1    3    3    0  502 -0.13261933598E+03 -0.15371852638E+01 -0.27433270498E+03  0.30471082067E+03  0.00000000000E+00 0.  1.
         11    1    5    5    0    0  0.20203948995E+03  0.13736139178E+03 -0.31714547903E+02  0.24636136061E+03  0.00000000000E+00 0. -1.
        -11    1    5    5    0    0  0.14880841923E+03  0.18727887711E+03  0.18269269825E+02  0.23989808183E+03  0.00000000000E+00 0.  1.
          4    1    6    6  503    0  0.15608839557E+02 -0.80385376163E+02 -0.11697385225E+03  0.14278769794E+03  0.00000000000E+00 0. -1.
         -4    1    6    6    0  503 -0.10894828533E+03 -0.25432012866E+03 -0.30591386097E+03  0.41247029839E+03  0.00000000000E+00 0.  1.
<mgrwt>
<rscale>  0 0.12735093E+04</rscale>
<asrwt>0</asrwt>
<pdfrwt beam="1">  1        1 0.18137658E+00 0.12735093E+04</pdfrwt>
<pdfrwt beam="2">  1       -2 0.52909828E-01 0.12735093E+04</pdfrwt>
<totfact> 0.32205908E+01</totfact>
</mgrwt>
</event>
<event>
12    4  0.4633702E-008  0.1421805E+04  0.7818608E-02  0.8938184E-01
         -2   -1    0    0    0  501 -0.00000000000E+00  0.00000000000E+00  0.22498842810E+03  0.22498842810E+03  0.00000000000E+00 0.  1.
          1   -1    0    0  501    0  0.00000000000E+00 -0.00000000000E+00 -0.22462607384E+04  0.22462607384E+04  0.00000000000E+00 0. -1.
        -24    2    1    2    0    0 -0.16190243404E+02  0.15850660179E+03  0.80736987074E+02  0.19595670996E+03  0.80586005642E+02 0.  0.
        254    2    1    2    0    0  0.16190243404E+02 -0.15850660179E+03 -0.21020092974E+04  0.22752924566E+04  0.85622789594E+03 0.  0.
         23    2    4    4    0    0  0.18141505548E+03 -0.45715996675E+03 -0.10005411525E+04  0.11185355879E+04  0.90180962486E+02 0.  0.
         23    2    4    4    0    0 -0.16522481207E+03  0.29865336496E+03 -0.11014681449E+04  0.11567568686E+04  0.91440188519E+02 0.  0.
          1    1    3    3  502    0  0.67725992487E+01 -0.52385427421E+01  0.16462743503E+02  0.18556194499E+02  0.00000000000E+00 0. -1.
         -2    1    3    3    0  502 -0.22962842652E+02  0.16374514453E+03  0.64274243571E+02  0.17740051546E+03  0.00000000000E+00 0.  1.
         11    1    5    5    0    0  0.17861194327E+03 -0.45955278882E+03 -0.99982243165E+03  0.11147806452E+04  0.00000000000E+00 0.  1.
        -11    1    5    5    0    0  0.28031122105E+01  0.23928220683E+01 -0.71872088731E+00  0.37549427731E+01  0.00000000000E+00 0. -1.
          4    1    6    6  503    0  0.10244005527E+02  0.21166371840E+02 -0.50597664421E+02  0.55794969226E+02  0.00000000000E+00 0. -1.
         -4    1    6    6    0  503 -0.17546881760E+03  0.27748699312E+03 -0.10508704804E+04  0.11009618994E+04  0.00000000000E+00 0.  1.
<mgrwt>
<rscale>  0 0.14218054E+04</rscale>
<asrwt>0</asrwt>
<pdfrwt beam="1">  1        1 0.34557859E+00 0.14218054E+04</pdfrwt>
<pdfrwt beam="2">  1       -2 0.34613603E-01 0.14218054E+04</pdfrwt>
<totfact> 0.13572256E+01</totfact>
</mgrwt>
</event>
<event>
12    4  0.4183215E-008  0.2533322E+04  0.7818608E-02  0.8391210E-01
          1   -1    0    0  501    0  0.00000000000E+00  0.00000000000E+00  0.24133430703E+04  0.24133430703E+04  0.00000000000E+00 0. -1.
         -2   -1    0    0    0  501 -0.00000000000E+00 -0.00000000000E+00 -0.66481623510E+03  0.66481623510E+03  0.00000000000E+00 0.  1.
        -24    2    1    2    0    0 -0.48494626315E+03  0.14643354546E+03 -0.42889779667E+03  0.66869393455E+03  0.81133203663E+02 0.  0.
        254    2    1    2    0    0  0.48494626315E+03 -0.14643354546E+03  0.21774246319E+04  0.24094653708E+04  0.89873782851E+03 0.  0.
         23    2    4    4    0    0  0.33821818473E+03  0.46069162968E+02  0.21134326012E+04  0.21427117695E+04  0.90013660775E+02 0.  0.
         23    2    4    4    0    0  0.14672807843E+03 -0.19250270843E+03  0.63992030678E+02  0.26675360133E+03  0.92065640080E+02 0.  0.
          3    1    3    3  502    0 -0.93491627880E+02  0.58722199757E+02 -0.72462142601E+02  0.13205962039E+03  0.00000000000E+00 0. -1.
         -2    1    3    3    0  502 -0.39145463527E+03  0.87711345703E+02 -0.35643565407E+03  0.53663431416E+03  0.00000000000E+00 0.  1.
         11    1    5    5    0    0  0.19644546025E+03  0.10529763168E+02  0.95164114390E+03  0.97176260554E+03  0.00000000000E+00 0. -1.
        -11    1    5    5    0    0  0.14177272447E+03  0.35539399800E+02  0.11617914573E+04  0.11709491639E+04  0.00000000000E+00 0.  1.
          1    1    6    6  503    0  0.93446141146E+02 -0.17680607546E+03  0.31628378879E+02  0.20246709354E+03  0.00000000000E+00 0. -1.
         -1    1    6    6    0  503  0.53281937280E+02 -0.15696632968E+02  0.32363651800E+02  0.64286507796E+02  0.00000000000E+00 0.  1.
<mgrwt>
<rscale>  0 0.25333217E+04</rscale>
<asrwt>0</asrwt>
<pdfrwt beam="1">  1        1 0.37128354E+00 0.25333217E+04</pdfrwt>
<pdfrwt beam="2">  1       -2 0.10227942E+00 0.25333217E+04</pdfrwt>
<totfact> 0.94800408E-01</totfact>
</mgrwt>
</event>
<event>
12    4  0.4183215E-008  0.2589873E+04  0.7818608E-02  0.8371649E-01
         -2   -1    0    0    0  501 -0.00000000000E+00  0.00000000000E+00  0.83393142450E+03  0.83393142450E+03  0.00000000000E+00 0.  1.
          1   -1    0    0  501    0  0.00000000000E+00 -0.00000000000E+00 -0.20107893364E+04  0.20107893364E+04  0.00000000000E+00 0. -1.
        -24    2    1    2    0    0  0.41914906258E+03 -0.18051233555E+03 -0.17110262724E+04  0.17727941703E+04  0.83172262649E+02 0.  0.
        254    2    1    2    0    0 -0.41914906258E+03  0.18051233555E+03  0.53416836050E+03  0.10719265907E+04  0.80958022360E+03 0.  0.
         23    2    4    4    0    0 -0.53360275862E+03 -0.18402612442E+01  0.61977886823E+03  0.82309691597E+03  0.92883782195E+02 0.  0.
         23    2    4    4    0    0  0.11445369605E+03  0.18235259679E+03 -0.85610507738E+02  0.24882967468E+03  0.90746514385E+02 0.  0.
          3    1    3    3  502    0  0.31223309103E+03 -0.11852502962E+03 -0.13682414769E+04  0.14084113124E+04  0.00000000000E+00 0. -1.
         -4    1    3    3    0  502  0.10691597154E+03 -0.61987305930E+02 -0.34278479550E+03  0.36438285785E+03  0.00000000000E+00 0.  1.
         11    1    5    5    0    0 -0.35489417905E+03 -0.26796600947E+01  0.47590644442E+03  0.59366994428E+03  0.00000000000E+00 0. -1.
        -11    1    5    5    0    0 -0.17870857957E+03  0.83939885055E+00  0.14387242381E+03  0.22942697169E+03  0.00000000000E+00 0.  1.
          3    1    6    6  503    0  0.38783662356E+02  0.87397516152E+02 -0.84196456995E+02  0.12740306773E+03  0.00000000000E+00 0. -1.
         -3    1    6    6    0  503  0.75670033693E+02  0.94955080638E+02 -0.14140507428E+01  0.12142660696E+03  0.00000000000E+00 0.  1.
<mgrwt>
<rscale>  0 0.25898729E+04</rscale>
<asrwt>0</asrwt>
<pdfrwt beam="1">  1        1 0.30935220E+00 0.25898729E+04</pdfrwt>
<pdfrwt beam="2">  1       -2 0.12829714E+00 0.25898729E+04</pdfrwt>
<totfact> 0.10193069E+00</totfact>
</mgrwt>
</event>
<event>
12    4  0.4183215E-008  0.1214802E+04  0.7818608E-02  0.9099998E-01
         -2   -1    0    0    0  501 -0.00000000000E+00  0.00000000000E+00  0.21937826441E+03  0.21937826441E+03  0.00000000000E+00 0.  1.
          1   -1    0    0  501    0  0.00000000000E+00 -0.00000000000E+00 -0.16817341522E+04  0.16817341522E+04  0.00000000000E+00 0. -1.
        -24    2    1    2    0    0 -0.18989240022E+02  0.67385543937E+02  0.63157779076E+02  0.12630707184E+03  0.84042659229E+02 0.  0.
        254    2    1    2    0    0  0.18989240022E+02 -0.67385543937E+02 -0.15255136669E+04  0.17748053448E+04  0.90434543249E+03 0.  0.
         23    2    4    4    0    0  0.57341631471E+02 -0.26099589078E+01 -0.16193933493E+04  0.16229855576E+04  0.91391607481E+02 0.  0.
         23    2    4    4    0    0 -0.38352391449E+02 -0.64775585029E+02  0.93879682357E+02  0.15181978722E+03  0.92569275060E+02 0.  0.
          3    1    3    3  502    0 -0.27703252826E+01  0.19894510037E+02 -0.20532513264E+02  0.28723689399E+02  0.00000000000E+00 0. -1.
         -4    1    3    3    0  502 -0.16218914739E+02  0.47491033900E+02  0.83690292340E+02  0.97583382439E+02  0.00000000000E+00 0.  1.
         11    1    5    5    0    0  0.77743480198E+02  0.16500176800E+02 -0.11263669064E+04  0.11291672650E+04  0.00000000000E+00 0.  1.
        -11    1    5    5    0    0 -0.20401848727E+02 -0.19110135708E+02 -0.49302644285E+03  0.49381829256E+03  0.00000000000E+00 0. -1.
          1    1    6    6  503    0  0.17460808778E+02 -0.29313371839E+02 -0.32967068816E+01  0.34278592270E+02  0.00000000000E+00 0. -1.
         -1    1    6    6    0  503 -0.55813200227E+02 -0.35462213190E+02  0.97176389239E+02  0.11754119495E+03  0.00000000000E+00 0.  1.
<mgrwt>
<rscale>  0 0.12148019E+04</rscale>
<asrwt>0</asrwt>
<pdfrwt beam="1">  1        1 0.25872834E+00 0.12148019E+04</pdfrwt>
<pdfrwt beam="2">  1       -2 0.33750501E-01 0.12148019E+04</pdfrwt>
<totfact> 0.34959746E+01</totfact>
</mgrwt>
</event>
<event>
12    4  0.4183215E-008  0.2184992E+04  0.7818608E-02  0.8524701E-01
          3   -1    0    0  501    0  0.00000000000E+00  0.00000000000E+00  0.14368861118E+04  0.14368861118E+04  0.00000000000E+00 0. -1.
         -4   -1    0    0    0  501 -0.00000000000E+00 -0.00000000000E+00 -0.83064836073E+03  0.83064836073E+03  0.00000000000E+00 0.  1.
        -24    2    1    2    0    0 -0.89973267684E+03  0.31049957257E+02  0.16645947832E+03  0.91904667690E+03  0.80343305671E+02 0.  0.
        254    2    1    2    0    0  0.89973267684E+03 -0.31049957257E+02  0.43977827275E+03  0.13484877956E+04  0.90251394237E+03 0.  0.
         23    2    4    4    0    0  0.36429800517E+03  0.17958771510E+03  0.61268621742E+03  0.74080569934E+03  0.91890691436E+02 0.  0.
         23    2    4    4    0    0  0.53543467168E+03 -0.21063767236E+03 -0.17290794467E+03  0.60768209630E+03  0.91224208314E+02 0.  0.
          1    1    3    3  502    0 -0.89040806948E+02 -0.16188310044E+02  0.31595003902E+02  0.95857033939E+02  0.00000000000E+00 0. -1.
         -2    1    3    3    0  502 -0.81069186990E+03  0.47238267301E+02  0.13486447442E+03  0.82318964296E+03  0.00000000000E+00 0.  1.
         11    1    5    5    0    0 -0.42396819281E+01  0.38547753976E+01  0.17412781760E+01  0.59888434530E+01  0.00000000000E+00 0.  1.
        -11    1    5    5    0    0  0.36853768710E+03  0.17573293971E+03  0.61094493924E+03  0.73481685589E+03  0.00000000000E+00 0. -1.
          2    1    6    6  503    0  0.34447189995E+03 -0.16750390104E+03 -0.81465948757E+02  0.39160585737E+03  0.00000000000E+00 0. -1.
         -2    1    6    6    0  503  0.19096277172E+03 -0.43133771318E+02 -0.91441995912E+02  0.21607623893E+03  0.00000000000E+00 0.  1.
<mgrwt>
<rscale>  0 0.21849916E+04</rscale>
<asrwt>0</asrwt>
<pdfrwt beam="1">  1        3 0.22105940E+00 0.21849916E+04</pdfrwt>
<pdfrwt beam="2">  1       -4 0.12779206E+00 0.21849916E+04</pdfrwt>
<totfact> 0.10338729E-01</totfact>
</mgrwt>
</event>
<event>
12    4  0.4183215E-008  0.1281656E+04  0.7818608E-02  0.9044240E-01
         -2   -1    0    0    0  501 -0.00000000000E+00  0.00000000000E+00  0.84728246065E+03  0.84728246065E+03  0.00000000000E+00 0.  1.
          1   -1    0    0  501    0  0.00000000000E+00 -0.00000000000E+00 -0.48467955224E+03  0.48467955224E+03  0.00000000000E+00 0. -1.
        -24    2    1    2    0    0 -0.14824060708E+03 -0.27255885575E+03 -0.63893268997E+02  0.32577840647E+03  0.76063216233E+02 0.  0.
        254    2    1    2    0    0  0.14824060708E+03  0.27255885575E+03  0.42649617741E+03  0.10061836064E+04  0.85687971913E+03 0.  0.
         23    2    4    4    0    0 -0.30840714116E+03  0.21250028040E+03  0.36825481342E+03  0.53328420470E+03  0.92244791152E+02 0.  0.
         23    2    4    4    0    0  0.45664774824E+03  0.60058575349E+02  0.58241363993E+02  0.47289940172E+03  0.90042152477E+02 0.  0.
          1    1    3    3  502    0 -0.15476122334E+03 -0.26623254700E+03 -0.68676304029E+02  0.31551107756E+03  0.00000000000E+00 0. -1.
         -2    1    3    3    0  502  0.65206162551E+01 -0.63263087484E+01  0.47830350316E+01  0.10267328905E+02  0.00000000000E+00 0.  1.
         11    1    5    5    0    0 -0.24219726526E+03  0.16520936564E+03  0.33556619718E+03  0.44559883582E+03  0.00000000000E+00 0. -1.
        -11    1    5    5    0    0 -0.66209875897E+02  0.47290914755E+02  0.32688616242E+02  0.87685368885E+02  0.00000000000E+00 0.  1.
          1    1    6    6  503    0  0.94277599536E+02  0.45238734815E+02 -0.52920737455E+01  0.10470346196E+03  0.00000000000E+00 0. -1.
         -1    1    6    6    0  503  0.36237014871E+03  0.14819840533E+02  0.63533437739E+02  0.36819593976E+03  0.00000000000E+00 0.  1.
<mgrwt>
<rscale>  0 0.12816559E+04</rscale>
<asrwt>0</asrwt>
<pdfrwt beam="1">  1        1 0.74566085E-01 0.12816559E+04</pdfrwt>
<pdfrwt beam="2">  1       -2 0.13035115E+00 0.12816559E+04</pdfrwt>
<totfact> 0.17158498E+01</totfact>
</mgrwt>
</event>
<event>
12    4  0.4183215E-008  0.2792360E+04  0.7818608E-02  0.8305644E-01
         -2   -1    0    0    0  501 -0.00000000000E+00  0.00000000000E+00  0.55067932679E+03  0.55067932679E+03  0.00000000000E+00 0.  1.
          1   -1    0    0  501    0  0.00000000000E+00 -0.00000000000E+00 -0.35398430291E+04  0.35398430291E+04  0.00000000000E+00 0. -1.
        -24    2    1    2    0    0  0.10325632859E+04  0.28314846914E+03 -0.40802270655E+03  0.11485877021E+04  0.80069877858E+02 0.  0.
        254    2    1    2    0    0 -0.10325632859E+04 -0.28314846914E+03 -0.25811409957E+04  0.29419346538E+04  0.91996232098E+03 0.  0.
         23    2    4    4    0    0 -0.67289285745E+03  0.27963549323E+03 -0.12502626385E+04  0.14501617416E+04  0.93976618561E+02 0.  0.
         23    2    4    4    0    0 -0.35967042849E+03 -0.56278396237E+03 -0.13308783572E+04  0.14917729122E+04  0.89780923819E+02 0.  0.
          1    1    3    3  502    0  0.90694793411E+03  0.25584261592E+03 -0.38518313353E+03  0.10180255624E+04  0.00000000000E+00 0. -1.
         -2    1    3    3    0  502  0.12561535183E+03  0.27305853221E+02 -0.22839573012E+02  0.13056213973E+03  0.00000000000E+00 0.  1.
         11    1    5    5    0    0 -0.48130429459E+03  0.24009515116E+03 -0.87876634116E+03  0.10303056770E+04  0.00000000000E+00 0.  1.
        -11    1    5    5    0    0 -0.19158856286E+03  0.39540342073E+02 -0.37149629735E+03  0.41985606464E+03  0.00000000000E+00 0. -1.
          3    1    6    6  503    0 -0.38839946639E+02 -0.92405301698E+02 -0.26550095858E+03  0.28379224839E+03  0.00000000000E+00 0. -1.
         -3    1    6    6    0  503 -0.32083048185E+03 -0.47037866068E+03 -0.10653773987E+04  0.12079806638E+04  0.00000000000E+00 0.  1.
<mgrwt>
<rscale>  0 0.27923598E+04</rscale>
<asrwt>0</asrwt>
<pdfrwt beam="1">  1        1 0.54459121E+00 0.27923598E+04</pdfrwt>
<pdfrwt beam="2">  1       -2 0.84719900E-01 0.27923598E+04</pdfrwt>
<totfact> 0.21497823E-01</totfact>
</mgrwt>
</event>
<event>
12    4  0.4183215E-008  0.1948221E+04  0.7818608E-02  0.8631219E-01
         -2   -1    0    0    0  501 -0.00000000000E+00  0.00000000000E+00  0.72038695247E+03  0.72038695247E+03  0.00000000000E+00 0.  1.
          1   -1    0    0  501    0  0.00000000000E+00 -0.00000000000E+00 -0.13171967202E+04  0.13171967202E+04  0.00000000000E+00 0. -1.
        -24    2    1    2    0    0  0.46125834701E+03 -0.49894287025E+03 -0.60575183005E+03  0.91380873703E+03  0.80049221124E+02 0.  0.
        254    2    1    2    0    0 -0.46125834701E+03  0.49894287025E+03  0.89420623256E+01  0.11237749356E+04  0.89503457755E+03 0.  0.
         23    2    4    4    0    0 -0.30388825016E+03 -0.15969449102E+03  0.20936762041E+03  0.41173719081E+03  0.88556844852E+02 0.  0.
         23    2    4    4    0    0 -0.15737009685E+03  0.65863736126E+03 -0.20042555809E+03  0.71203774482E+03  0.90878075930E+02 0.  0.
          1    1    3    3  502    0  0.16450394622E+03 -0.13489850365E+03 -0.15896835484E+03  0.26557502226E+03  0.00000000000E+00 0. -1.
         -2    1    3    3    0  502  0.29675440080E+03 -0.36404436660E+03 -0.44678347521E+03  0.64823371477E+03  0.00000000000E+00 0.  1.
         11    1    5    5    0    0 -0.12168090404E+01 -0.16563406774E+02  0.23561963070E+02  0.28826952178E+02  0.00000000000E+00 0. -1.
        -11    1    5    5    0    0 -0.30267144112E+03 -0.14313108424E+03  0.18580565734E+03  0.38291023863E+03  0.00000000000E+00 0.  1.
          2    1    6    6  503    0 -0.12797157319E+03  0.43212811295E+03 -0.16970671657E+03  0.48157221597E+03  0.00000000000E+00 0. -1.
         -2    1    6    6    0  503 -0.29398523661E+02  0.22650924831E+03 -0.30718841513E+02  0.23046552885E+03  0.00000000000E+00 0.  1.
<mgrwt>
<rscale>  0 0.19482211E+04</rscale>
<asrwt>0</asrwt>
<pdfrwt beam="1">  1        1 0.20264565E+00 0.19482211E+04</pdfrwt>
<pdfrwt beam="2">  1       -2 0.11082876E+00 0.19482211E+04</pdfrwt>
<totfact> 0.46381863E+00</totfact>
</mgrwt>
</event>
<event>
12    4  0.4183215E-008  0.1725483E+04  0.7818608E-02  0.8746963E-01
         -2   -1    0    0    0  501 -0.00000000000E+00  0.00000000000E+00  0.12094618307E+04  0.12094618307E+04  0.00000000000E+00 0.  1.
          1   -1    0    0  501    0  0.00000000000E+00 -0.00000000000E+00 -0.61541625909E+03  0.61541625909E+03  0.00000000000E+00 0. -1.
        -24    2    1    2    0    0 -0.32759459087E+03  0.53446404562E+03  0.16666930233E+03  0.65375788091E+03  0.81551692099E+02 0.  0.
        254    2    1    2    0    0  0.32759459087E+03 -0.53446404562E+03  0.42737626928E+03  0.11711202089E+04  0.89213341830E+03 0.  0.
         23    2    4    4    0    0  0.46311505048E+03  0.22977091335E+02  0.34223458965E+03  0.58375155657E+03  0.92940135204E+02 0.  0.
         23    2    4    4    0    0 -0.13552045961E+03 -0.55744113696E+03  0.85141679626E+02  0.58736865231E+03  0.92986084756E+02 0.  0.
          3    1    3    3  502    0 -0.28925411884E+03  0.47518522831E+03  0.17376151765E+03  0.58280529466E+03  0.00000000000E+00 0. -1.
         -4    1    3    3    0  502 -0.38340472032E+02  0.59278817316E+02 -0.70922153181E+01  0.70952586254E+02  0.00000000000E+00 0.  1.
         11    1    5    5    0    0  0.32892767719E+03  0.55620047291E+02  0.22267892037E+03  0.40108965090E+03  0.00000000000E+00 0. -1.
        -11    1    5    5    0    0  0.13418737329E+03 -0.32642955956E+02  0.11955566928E+03  0.18266190566E+03  0.00000000000E+00 0.  1.
          3    1    6    6  503    0 -0.10260445495E+03 -0.30302615820E+03  0.84243881943E+02  0.33083161635E+03  0.00000000000E+00 0. -1.
         -3    1    6    6    0  503 -0.32916004654E+02 -0.25441497875E+03  0.89779768332E+00  0.25653703596E+03  0.00000000000E+00 0.  1.
<mgrwt>
<rscale>  0 0.17254825E+04</rscale>
<asrwt>0</asrwt>
<pdfrwt beam="1">  1        1 0.94679425E-01 0.17254825E+04</pdfrwt>
<pdfrwt beam="2">  1       -2 0.18607105E+00 0.17254825E+04</pdfrwt>
<totfact> 0.45170129E+00</totfact>
</mgrwt>
</event>
<event>
12    4  0.4183215E-008  0.1210405E+04  0.7818608E-02  0.9103798E-01
         -2   -1    0    0    0  501 -0.00000000000E+00  0.00000000000E+00  0.26109376509E+03  0.26109376509E+03  0.00000000000E+00 0.  1.
          1   -1    0    0  501    0  0.00000000000E+00 -0.00000000000E+00 -0.14028293166E+04  0.14028293166E+04  0.00000000000E+00 0. -1.
        -24    2    1    2    0    0 -0.18480646819E+03  0.10342703936E+03 -0.48316913098E+03  0.53351747168E+03  0.79610930769E+02 0.  0.
        254    2    1    2    0    0  0.18480646819E+03 -0.10342703936E+03 -0.65856642049E+03  0.11304056100E+04  0.89401148186E+03 0.  0.
         23    2    4    4    0    0  0.59804608242E+02 -0.37657524238E+03 -0.71144594262E+03  0.81220369136E+03  0.90188705779E+02 0.  0.
         23    2    4    4    0    0  0.12500185995E+03  0.27314820302E+03  0.52879522138E+02  0.31820191860E+03  0.90668689945E+02 0.  0.
          1    1    3    3  502    0  0.13358927528E+01 -0.69341068683E+01 -0.49745779240E+01  0.86378743351E+01  0.00000000000E+00 0. -1.
         -2    1    3    3    0  502 -0.18614236094E+03  0.11036114623E+03 -0.47819455306E+03  0.52487959734E+03  0.00000000000E+00 0.  1.
         11    1    5    5    0    0  0.74056218937E+02 -0.29306130431E+03 -0.60362464667E+03  0.67507922921E+03  0.00000000000E+00 0. -1.
        -11    1    5    5    0    0 -0.14251610695E+02 -0.83513938070E+02 -0.10782129596E+03  0.13712446215E+03  0.00000000000E+00 0.  1.
          2    1    6    6  503    0  0.12339673166E+03  0.26051288135E+03  0.70217128298E+02  0.29668865809E+03  0.00000000000E+00 0. -1.
         -2    1    6    6    0  503  0.16051282906E+01  0.12635321675E+02 -0.17337606159E+02  0.21513260515E+02  0.00000000000E+00 0.  1.
<mgrwt>
<rscale>  0 0.12104049E+04</rscale>
<asrwt>0</asrwt>
<pdfrwt beam="1">  1        1 0.21581989E+00 0.12104049E+04</pdfrwt>
<pdfrwt beam="2">  1       -2 0.40168272E-01 0.12104049E+04</pdfrwt>
<totfact> 0.38916177E+01</totfact>
</mgrwt>
</event>
<event>
12    4  0.4183215E-008  0.1719572E+04  0.7818608E-02  0.8750280E-01
         -2   -1    0    0    0  501 -0.00000000000E+00  0.00000000000E+00  0.13711765952E+04  0.13711765952E+04  0.00000000000E+00 0.  1.
          1   -1    0    0  501    0  0.00000000000E+00 -0.00000000000E+00 -0.53912221081E+03  0.53912221081E+03  0.00000000000E+00 0. -1.
        -24    2    1    2    0    0 -0.36902133749E+03 -0.29026218433E+03  0.76234759922E+03  0.89882450408E+03  0.79263761763E+02 0.  0.
        254    2    1    2    0    0  0.36902133749E+03  0.29026218433E+03  0.69706785181E+02  0.10114743019E+04  0.89319222142E+03 0.  0.
         23    2    4    4    0    0 -0.27114347407E+03  0.63098021825E+02 -0.93721790742E+02  0.30676318100E+03  0.88429244432E+02 0.  0.
         23    2    4    4    0    0  0.64016481157E+03  0.22716416250E+03  0.16342857592E+03  0.70471112093E+03  0.92164645320E+02 0.  0.
          3    1    3    3  502    0 -0.50257775331E+02 -0.71497420529E+02  0.10962697694E+03  0.14019914121E+03  0.00000000000E+00 0. -1.
         -4    1    3    3    0  502 -0.31876356216E+03 -0.21876476380E+03  0.65272062228E+03  0.75862536287E+03  0.00000000000E+00 0.  1.
         11    1    5    5    0    0 -0.13645968163E+03 -0.15092763708E+01 -0.76361443350E+02  0.15637964271E+03  0.00000000000E+00 0. -1.
        -11    1    5    5    0    0 -0.13468379244E+03  0.64607298195E+02 -0.17360347392E+02  0.15038353829E+03  0.00000000000E+00 0.  1.
          1    1    6    6  503    0  0.40506011621E+03  0.18642271079E+03  0.12443244380E+03  0.46293688329E+03  0.00000000000E+00 0. -1.
         -1    1    6    6    0  503  0.23510469536E+03  0.40741451709E+02  0.38996132122E+02  0.24177423764E+03  0.00000000000E+00 0.  1.
<mgrwt>
<rscale>  0 0.17195718E+04</rscale>
<asrwt>0</asrwt>
<pdfrwt beam="1">  1        1 0.82941879E-01 0.17195718E+04</pdfrwt>
<pdfrwt beam="2">  1       -2 0.21095024E+00 0.17195718E+04</pdfrwt>
<totfact> 0.37424494E+00</totfact>
</mgrwt>
</event>
<event>
12    4  0.4183215E-008  0.1535171E+04  0.7818608E-02  0.8861396E-01
         -4   -1    0    0    0  501 -0.00000000000E+00  0.00000000000E+00  0.81154192450E+03  0.81154192450E+03  0.00000000000E+00 0.  1.
          3   -1    0    0  501    0  0.00000000000E+00 -0.00000000000E+00 -0.72600979362E+03  0.72600979362E+03  0.00000000000E+00 0. -1.
        -24    2    1    2    0    0 -0.17660079061E+03  0.14875756844E+03  0.47163002065E+03  0.52847051058E+03  0.59410022431E+02 0.  0.
        254    2    1    2    0    0  0.17660079061E+03 -0.14875756844E+03 -0.38609788977E+03  0.10090812075E+04  0.90324783394E+03 0.  0.
         23    2    4    4    0    0 -0.18422216811E+03 -0.34672122104E+03 -0.42521433468E+03  0.58584476519E+03  0.90848478978E+02 0.  0.
         23    2    4    4    0    0  0.36082295872E+03  0.19796365260E+03  0.39116444917E+02  0.42323644236E+03  0.90643116564E+02 0.  0.
          3    1    3    3  502    0 -0.83802554679E+02  0.40311974487E+02  0.14840045756E+03  0.17513029224E+03  0.00000000000E+00 0. -1.
         -2    1    3    3    0  502 -0.92798235932E+02  0.10844559395E+03  0.32322956309E+03  0.35334021834E+03  0.00000000000E+00 0.  1.
         11    1    5    5    0    0 -0.15707101122E+02 -0.11222936764E+02 -0.56167949847E+02  0.59392810384E+02  0.00000000000E+00 0.  1.
        -11    1    5    5    0    0 -0.16851506699E+03 -0.33549828428E+03 -0.36904638484E+03  0.52645195480E+03  0.00000000000E+00 0. -1.
          3    1    6    6  503    0  0.12735646038E+03  0.83606785404E+02 -0.27635917873E+02  0.15483380290E+03  0.00000000000E+00 0. -1.
         -3    1    6    6    0  503  0.23346649835E+03  0.11435686720E+03  0.66752362790E+02  0.26840263945E+03  0.00000000000E+00 0.  1.
<mgrwt>
<rscale>  0 0.15351709E+04</rscale>
<asrwt>0</asrwt>
<pdfrwt beam="1">  1        3 0.11169381E+00 0.15351709E+04</pdfrwt>
<pdfrwt beam="2">  1       -4 0.12485260E+00 0.15351709E+04</pdfrwt>
<totfact> 0.71187583E-01</totfact>
</mgrwt>
</event>
<event>
12    4  0.4183215E-008  0.1985775E+04  0.7818608E-02  0.8613300E-01
         -2   -1    0    0    0  501 -0.00000000000E+00  0.00000000000E+00  0.33435531583E+04  0.33435531583E+04  0.00000000000E+00 0.  1.
          1   -1    0    0  501    0  0.00000000000E+00 -0.00000000000E+00 -0.29484375287E+03  0.29484375287E+03  0.00000000000E+00 0. -1.
        -24    2    1    2    0    0  0.34789963934E+03 -0.58839433247E+03  0.19486941872E+04  0.20665735964E+04  0.77944497892E+02 0.  0.
        254    2    1    2    0    0 -0.34789963934E+03  0.58839433247E+03  0.11000152183E+04  0.15718233148E+04  0.89070365604E+03 0.  0.
         23    2    4    4    0    0 -0.18818029509E+03  0.80820354213E+03  0.85313758168E+03  0.11936181102E+04  0.90970713601E+02 0.  0.
         23    2    4    4    0    0 -0.15971934425E+03 -0.21980920965E+03  0.24687763663E+03  0.37820520461E+03  0.90907930055E+02 0.  0.
          3    1    3    3  502    0  0.13470310664E+03 -0.15837574082E+03  0.60530945036E+03  0.64002135348E+03  0.00000000000E+00 0. -1.
         -4    1    3    3    0  502  0.21319653270E+03 -0.43001859165E+03  0.13433847368E+04  0.14265522429E+04  0.00000000000E+00 0.  1.
         11    1    5    5    0    0 -0.15017242226E+03  0.64159734774E+03  0.62171956455E+03  0.90594377860E+03  0.00000000000E+00 0. -1.
        -11    1    5    5    0    0 -0.38007872829E+02  0.16660619439E+03  0.23141801713E+03  0.28767433160E+03  0.00000000000E+00 0.  1.
          3    1    6    6  503    0 -0.99060667628E+02 -0.19842100358E+03  0.18261252016E+03  0.28728251435E+03  0.00000000000E+00 0. -1.
         -3    1    6    6    0  503 -0.60658676621E+02 -0.21388206076E+02  0.64265116468E+02  0.90922690255E+02  0.00000000000E+00 0.  1.
<mgrwt>
<rscale>  0 0.19857752E+04</rscale>
<asrwt>0</asrwt>
<pdfrwt beam="1">  1        1 0.45360580E-01 0.19857752E+04</pdfrwt>
<pdfrwt beam="2">  1       -2 0.51439277E+00 0.19857752E+04</pdfrwt>
<totfact> 0.97646758E-02</totfact>
</mgrwt>
</event>
<event>
12    4  0.4183215E-008  0.2593939E+04  0.7818608E-02  0.8370263E-01
          1   -1    0    0  501    0  0.00000000000E+00  0.00000000000E+00  0.11929303621E+04  0.11929303621E+04  0.00000000000E+00 0. -1.
         -2   -1    0    0    0  501 -0.00000000000E+00 -0.00000000000E+00 -0.14100820425E+04  0.14100820425E+04  0.00000000000E+00 0.  1.
        -24    2    1    2    0    0 -0.99787170064E+03 -0.21286258843E+03  0.42014581718E+03  0.11065500423E+04  0.82897984486E+02 0.  0.
        254    2    1    2    0    0  0.99787170064E+03  0.21286258843E+03 -0.63729749756E+03  0.14964623624E+04  0.89005229575E+03 0.  0.
         23    2    4    4    0    0 -0.23335403340E+02 -0.20180351221E+03 -0.22391401551E+03  0.31571284845E+03  0.90928091070E+02 0.  0.
         23    2    4    4    0    0  0.10212071040E+04  0.41466610064E+03 -0.41338348205E+03  0.11807495139E+04  0.92041225558E+02 0.  0.
          1    1    3    3  502    0 -0.31722315811E+03 -0.68678553438E+02  0.17589366675E+03  0.36916914517E+03  0.00000000000E+00 0. -1.
         -2    1    3    3    0  502 -0.68064854253E+03 -0.14418403499E+03  0.24425215042E+03  0.73738089708E+03  0.00000000000E+00 0.  1.
         11    1    5    5    0    0  0.13576845783E+02 -0.58873083084E+02 -0.12257462167E+03  0.13665616902E+03  0.00000000000E+00 0.  1.
        -11    1    5    5    0    0 -0.36912249123E+02 -0.14293042913E+03 -0.10133939384E+03  0.17905667943E+03  0.00000000000E+00 0. -1.
          4    1    6    6  503    0  0.36934706944E+03  0.11765857130E+03 -0.17970217790E+03  0.42726299845E+03  0.00000000000E+00 0. -1.
         -4    1    6    6    0  503  0.65186003454E+03  0.29700752934E+03 -0.23368130415E+03  0.75348651549E+03  0.00000000000E+00 0.  1.
<mgrwt>
<rscale>  0 0.25939388E+04</rscale>
<asrwt>0</asrwt>
<pdfrwt beam="1">  1        1 0.18352775E+00 0.25939388E+04</pdfrwt>
<pdfrwt beam="2">  1       -2 0.21693570E+00 0.25939388E+04</pdfrwt>
<totfact> 0.86433025E-01</totfact>
</mgrwt>
</event>
<event>
12    4  0.4183215E-008  0.3343590E+04  0.7818608E-02  0.8151892E-01
          1   -1    0    0  501    0  0.00000000000E+00  0.00000000000E+00  0.38202232113E+04  0.38202232113E+04  0.00000000000E+00 0. -1.
         -2   -1    0    0    0  501 -0.00000000000E+00 -0.00000000000E+00 -0.73160591463E+03  0.73160591463E+03  0.00000000000E+00 0.  1.
        -24    2    1    2    0    0  0.89980750015E+02  0.14545751316E+04  0.71892434874E+03  0.16268962750E+04  0.77806950769E+02 0.  0.
        254    2    1    2    0    0 -0.89980750015E+02 -0.14545751316E+04  0.23696929479E+04  0.29249328509E+04  0.90327302958E+03 0.  0.
         23    2    4    4    0    0  0.29724017918E+02 -0.40203192905E+03  0.14861719706E+04  0.15428156889E+04  0.95183688121E+02 0.  0.
         23    2    4    4    0    0 -0.11970476793E+03 -0.10525432026E+04  0.88352097735E+03  0.13821171620E+04  0.86383490521E+02 0.  0.
          3    1    3    3  502    0  0.42869241607E+01  0.32249553953E+03  0.19100346070E+03  0.37483872897E+03  0.00000000000E+00 0. -1.
         -4    1    3    3    0  502  0.85693825854E+02  0.11320795921E+04  0.52792088805E+03  0.12520575461E+04  0.00000000000E+00 0.  1.
         11    1    5    5    0    0  0.43100748831E+00 -0.21387926452E+03  0.95166701916E+03  0.97540486000E+03  0.00000000000E+00 0. -1.
        -11    1    5    5    0    0  0.29293010430E+02 -0.18815266453E+03  0.53450495143E+03  0.56741082889E+03  0.00000000000E+00 0.  1.
          1    1    6    6  503    0 -0.57519621451E+02 -0.75550608214E+03  0.66531987513E+03  0.10083394683E+04  0.00000000000E+00 0. -1.
         -1    1    6    6    0  503 -0.62185146482E+02 -0.29703712042E+03  0.21820110221E+03  0.37377769377E+03  0.00000000000E+00 0.  1.
<mgrwt>
<rscale>  0 0.33435896E+04</rscale>
<asrwt>0</asrwt>
<pdfrwt beam="1">  1        1 0.58772663E+00 0.33435896E+04</pdfrwt>
<pdfrwt beam="2">  1       -2 0.11255476E+00 0.33435896E+04</pdfrwt>
<totfact> 0.61891495E-02</totfact>
</mgrwt>
</event>
<event>
12    4  0.4183215E-008  0.1734311E+04  0.7818608E-02  0.8742034E-01
         -2   -1    0    0    0  501 -0.00000000000E+00  0.00000000000E+00  0.83658931830E+03  0.83658931830E+03  0.00000000000E+00 0.  1.
          1   -1    0    0  501    0  0.00000000000E+00 -0.00000000000E+00 -0.89883894232E+03  0.89883894232E+03  0.00000000000E+00 0. -1.
        -24    2    1    2    0    0 -0.45247922717E+03  0.10748083159E+03 -0.45246881229E+03  0.65414695732E+03  0.83009851793E+02 0.  0.
        254    2    1    2    0    0  0.45247922717E+03 -0.10748083159E+03  0.39021918827E+03  0.10812813033E+04  0.89476737860E+03 0.  0.
         23    2    4    4    0    0 -0.20746883539E+03 -0.20297137810E+03  0.24969243734E+03  0.39379167612E+03  0.92113369986E+02 0.  0.
         23    2    4    4    0    0  0.65994806256E+03  0.95490546502E+02  0.14052675093E+03  0.68748962719E+03  0.90798292989E+02 0.  0.
          1    1    3    3  502    0 -0.13491863809E+03  0.27223974002E+02 -0.84466328809E+02  0.16148914628E+03  0.00000000000E+00 0. -1.
         -2    1    3    3    0  502 -0.31756058908E+03  0.80256857593E+02 -0.36800248348E+03  0.49265781103E+03  0.00000000000E+00 0.  1.
         11    1    5    5    0    0 -0.84884536169E+01 -0.48770675780E+02  0.64333533717E+02  0.81175342447E+02  0.00000000000E+00 0. -1.
        -11    1    5    5    0    0 -0.19898038177E+03 -0.15420070232E+03  0.18535890363E+03  0.31261633367E+03  0.00000000000E+00 0.  1.
          2    1    6    6  503    0  0.17115346022E+03  0.59205323483E+02  0.16197933185E+02  0.18182725404E+03  0.00000000000E+00 0. -1.
         -2    1    6    6    0  503  0.48879460235E+03  0.36285223019E+02  0.12432881774E+03  0.50566237314E+03  0.00000000000E+00 0.  1.
<mgrwt>
<rscale>  0 0.17343115E+04</rscale>
<asrwt>0</asrwt>
<pdfrwt beam="1">  1        1 0.13828291E+00 0.17343115E+04</pdfrwt>
<pdfrwt beam="2">  1       -2 0.12870605E+00 0.17343115E+04</pdfrwt>
<totfact> 0.67538417E+00</totfact>
</mgrwt>
</event>
<event>
12    4  0.4183215E-008  0.1156070E+04  0.7818608E-02  0.9152202E-01
          1   -1    0    0  501    0  0.00000000000E+00  0.00000000000E+00  0.26703112668E+04  0.26703112668E+04  0.00000000000E+00 0. -1.
         -2   -1    0    0    0  501 -0.00000000000E+00 -0.00000000000E+00 -0.12512565791E+03  0.12512565791E+03  0.00000000000E+00 0.  1.
        -24    2    1    2    0    0 -0.17409842730E+03 -0.66688127071E+02  0.70004386402E+03  0.72873955212E+03  0.79008572884E+02 0.  0.
        254    2    1    2    0    0  0.17409842730E+03  0.66688127071E+02  0.18451417449E+04  0.20666973726E+04  0.91210328501E+03 0.  0.
         23    2    4    4    0    0  0.49506827054E+03  0.18070006568E+03  0.78940117031E+03  0.95332408313E+03  0.89036473211E+02 0.  0.
         23    2    4    4    0    0 -0.32096984324E+03 -0.11401193861E+03  0.10557405746E+04  0.11133732895E+04  0.94823828674E+02 0.  0.
          1    1    3    3  502    0 -0.10667474223E+02 -0.10083338417E+02  0.18190566166E+03  0.18249695467E+03  0.00000000000E+00 0. -1.
         -4    1    3    3    0  502 -0.16343095308E+03 -0.56604788653E+02  0.51813820236E+03  0.54624259745E+03  0.00000000000E+00 0.  1.
         11    1    5    5    0    0  0.51997337623E+02 -0.77089748982E+01  0.89925654365E+02  0.10416225193E+03  0.00000000000E+00 0.  1.
        -11    1    5    5    0    0  0.44307093292E+03  0.18840904058E+03  0.69947551594E+03  0.84916183120E+03  0.00000000000E+00 0. -1.
          2    1    6    6  503    0 -0.23953482332E+03 -0.71622839726E+02  0.88349673314E+03  0.91819019829E+03  0.00000000000E+00 0. -1.
         -2    1    6    6    0  503 -0.81435019917E+02 -0.42389098883E+02  0.17224384146E+03  0.19518309121E+03  0.00000000000E+00 0.  1.
<mgrwt>
<rscale>  0 0.11560700E+04</rscale>
<asrwt>0</asrwt>
<pdfrwt beam="1">  1        1 0.41081708E+00 0.11560700E+04</pdfrwt>
<pdfrwt beam="2">  1       -2 0.19250103E-01 0.11560700E+04</pdfrwt>
<totfact> 0.20715701E+01</totfact>
</mgrwt>
</event>
<event>
12    4  0.4183215E-008  0.3275432E+04  0.7818608E-02  0.8169175E-01
         -2   -1    0    0    0  501 -0.00000000000E+00  0.00000000000E+00  0.20802961139E+04  0.20802961139E+04  0.00000000000E+00 0.  1.
          1   -1    0    0  501    0  0.00000000000E+00 -0.00000000000E+00 -0.12892941184E+04  0.12892941184E+04  0.00000000000E+00 0. -1.
        -24    2    1    2    0    0 -0.80814244413E+03  0.31153585064E+03 -0.90478731887E+03  0.12549114242E+04  0.77548656199E+02 0.  0.
        254    2    1    2    0    0  0.80814244413E+03 -0.31153585064E+03  0.16957893144E+04  0.21146788080E+04  0.91979142530E+03 0.  0.
         23    2    4    4    0    0  0.34253322633E+03 -0.15655770067E+03  0.44381762388E+02  0.38972291753E+03  0.89860374119E+02 0.  0.
         23    2    4    4    0    0  0.46560921781E+03 -0.15497814997E+03  0.16514075520E+04  0.17249558905E+04  0.86693429110E+02 0.  0.
          3    1    3    3  502    0 -0.66127872771E+03  0.24127130071E+03 -0.77272093665E+03  0.10452746253E+04  0.00000000000E+00 0. -1.
         -4    1    3    3    0  502 -0.14686371643E+03  0.70264549929E+02 -0.13206638221E+03  0.20963679899E+03  0.00000000000E+00 0.  1.
         11    1    5    5    0    0  0.33073617531E+03 -0.16767643800E+03  0.44784076113E+02  0.37350691960E+03  0.00000000000E+00 0. -1.
        -11    1    5    5    0    0  0.11797051019E+02  0.11118737325E+02 -0.40231372539E+00  0.16215997927E+02  0.00000000000E+00 0.  1.
          4    1    6    6  503    0  0.29883240130E+03 -0.60591917934E+02  0.94187832540E+03  0.99000351739E+03  0.00000000000E+00 0.  1.
         -4    1    6    6    0  503  0.16677681650E+03 -0.94386232037E+02  0.70952922663E+03  0.73495237313E+03  0.00000000000E+00 0. -1.
<mgrwt>
<rscale>  0 0.32754319E+04</rscale>
<asrwt>0</asrwt>
<pdfrwt beam="1">  1        1 0.19835294E+00 0.32754319E+04</pdfrwt>
<pdfrwt beam="2">  1       -2 0.32004556E+00 0.32754319E+04</pdfrwt>
<totfact> 0.16076461E-01</totfact>
</mgrwt>
</event>
<event>
12    4  0.4183215E-008  0.1498474E+04  0.7818608E-02  0.8885468E-01
         -2   -1    0    0    0  501 -0.00000000000E+00  0.00000000000E+00  0.32140036561E+03  0.32140036561E+03  0.00000000000E+00 0.  1.
          1   -1    0    0  501    0  0.00000000000E+00 -0.00000000000E+00 -0.17465943610E+04  0.17465943610E+04  0.00000000000E+00 0. -1.
        -24    2    1    2    0    0 -0.17906529996E+03 -0.51195380953E+01  0.11411290604E+03  0.22644321880E+03  0.78512321929E+02 0.  0.
        254    2    1    2    0    0  0.17906529996E+03  0.51195380953E+01 -0.15393069014E+04  0.18415515078E+04  0.99486462788E+03 0.  0.
         23    2    4    4    0    0  0.18992044136E+02  0.41211715003E+03 -0.12232663713E+04  0.12941780801E+04  0.91186867187E+02 0.  0.
         23    2    4    4    0    0  0.16007325583E+03 -0.40699761194E+03 -0.31604053012E+03  0.54737342771E+03  0.92008419905E+02 0.  0.
          1    1    3    3  502    0 -0.34177793210E+01 -0.13922365948E+02 -0.36444890062E+01  0.14791747334E+02  0.00000000000E+00 0. -1.
         -2    1    3    3    0  502 -0.17564752064E+03  0.88028278524E+01  0.11775739505E+03  0.21165147147E+03  0.00000000000E+00 0.  1.
         11    1    5    5    0    0  0.19125801806E+02  0.41143592005E+03 -0.12249579812E+04  0.12923495535E+04  0.00000000000E+00 0. -1.
        -11    1    5    5    0    0 -0.13375767011E+00  0.68122997864E+00  0.16916099320E+01  0.18285266091E+01  0.00000000000E+00 0.  1.
          2    1    6    6  503    0  0.16522618384E+03 -0.32350224067E+03 -0.25832593286E+03  0.44574171797E+03  0.00000000000E+00 0. -1.
         -2    1    6    6    0  503 -0.51529280075E+01 -0.83495371262E+02 -0.57714597262E+02  0.10163170975E+03  0.00000000000E+00 0.  1.
<mgrwt>
<rscale>  0 0.14984740E+04</rscale>
<asrwt>0</asrwt>
<pdfrwt beam="1">  1        1 0.26870682E+00 0.14984740E+04</pdfrwt>
<pdfrwt beam="2">  1       -2 0.49446211E-01 0.14984740E+04</pdfrwt>
<totfact> 0.14564085E+01</totfact>
</mgrwt>
</event>
<event>
12    4  0.4183215E-008  0.2477788E+04  0.7818608E-02  0.8410942E-01
         -2   -1    0    0    0  501 -0.00000000000E+00  0.00000000000E+00  0.25918923480E+04  0.25918923480E+04  0.00000000000E+00 0.  1.
          1   -1    0    0  501    0  0.00000000000E+00 -0.00000000000E+00 -0.59217670875E+03  0.59217670875E+03  0.00000000000E+00 0. -1.
        -24    2    1    2    0    0 -0.10056041369E+04 -0.18568304401E+03  0.44743902224E+03  0.11191155639E+04  0.80623159592E+02 0.  0.
        254    2    1    2    0    0  0.10056041369E+04  0.18568304401E+03  0.15522766170E+04  0.20649534928E+04  0.89930659884E+03 0.  0.
         23    2    4    4    0    0  0.11118645180E+03  0.40521030010E+03  0.40133765958E+03  0.58804997818E+03  0.90404897348E+02 0.  0.
         23    2    4    4    0    0  0.89441768511E+03 -0.21952725609E+03  0.11509389574E+04  0.14769035146E+04  0.91696762063E+02 0.  0.
          1    1    3    3  502    0 -0.79896946671E+03 -0.15153193895E+03  0.39029280243E+03  0.90202140157E+03  0.00000000000E+00 0. -1.
         -2    1    3    3    0  502 -0.20663467019E+03 -0.34151105057E+02  0.57146219817E+02  0.21709416238E+03  0.00000000000E+00 0.  1.
         11    1    5    5    0    0 -0.14641647798E+02  0.50867025062E+02  0.62309580403E+02  0.81757665689E+02  0.00000000000E+00 0.  1.
        -11    1    5    5    0    0  0.12582809959E+03  0.35434327504E+03  0.33902807918E+03  0.50629231249E+03  0.00000000000E+00 0. -1.
          3    1    6    6  503    0  0.49032480840E+03 -0.16580380303E+03  0.62610746940E+03  0.81235452979E+03  0.00000000000E+00 0. -1.
         -3    1    6    6    0  503  0.40409287671E+03 -0.53723453066E+02  0.52483148800E+03  0.66454898481E+03  0.00000000000E+00 0.  1.
<mgrwt>
<rscale>  0 0.24777879E+04</rscale>
<asrwt>0</asrwt>
<pdfrwt beam="1">  1        1 0.91104111E-01 0.24777879E+04</pdfrwt>
<pdfrwt beam="2">  1       -2 0.39875266E+00 0.24777879E+04</pdfrwt>
<totfact> 0.20600933E-01</totfact>
</mgrwt>
</event>
<event>
12    4  0.4183215E-008  0.1138180E+04  0.7818608E-02  0.9168758E-01
         -2   -1    0    0    0  501 -0.00000000000E+00  0.00000000000E+00  0.39565959733E+03  0.39565959733E+03  0.00000000000E+00 0.  1.
          1   -1    0    0  501    0  0.00000000000E+00 -0.00000000000E+00 -0.81854019258E+03  0.81854019258E+03  0.00000000000E+00 0. -1.
        -24    2    1    2    0    0 -0.34702499370E+02  0.17270444355E+03  0.26398572611E+02  0.19272198725E+03  0.73578471382E+02 0.  0.
        254    2    1    2    0    0  0.34702499370E+02 -0.17270444355E+03 -0.44927916787E+03  0.10214778027E+04  0.90029664131E+03 0.  0.
         23    2    4    4    0    0  0.34033765059E+03  0.11890108260E+03 -0.45431550474E+03  0.58871066956E+03  0.10104697300E+03 0.  0.
         23    2    4    4    0    0 -0.30563515122E+03 -0.29160552615E+03  0.50363368742E+01  0.43276713309E+03  0.93890352288E+02 0.  0.
          1    1    3    3  502    0  0.16871993068E+01  0.58564272562E+02 -0.23260330019E+02  0.63037001950E+02  0.00000000000E+00 0. -1.
         -2    1    3    3    0  502 -0.36389698677E+02  0.11414017099E+03  0.49658902631E+02  0.12968498530E+03  0.00000000000E+00 0.  1.
         11    1    5    5    0    0  0.17388909780E+03  0.23627122901E+02 -0.27457118439E+03  0.32586039122E+03  0.00000000000E+00 0.  1.
        -11    1    5    5    0    0  0.16644855279E+03  0.95273959703E+02 -0.17974432035E+03  0.26285027834E+03  0.00000000000E+00 0. -1.
          3    1    6    6  503    0 -0.13800206260E+03 -0.13980516294E+03 -0.44116559162E+02  0.20133634460E+03  0.00000000000E+00 0. -1.
         -3    1    6    6    0  503 -0.16763308862E+03 -0.15180036322E+03  0.49152896036E+02  0.23143078849E+03  0.00000000000E+00 0.  1.
<mgrwt>
<rscale>  0 0.11381797E+04</rscale>
<asrwt>0</asrwt>
<pdfrwt beam="1">  1        1 0.12592926E+00 0.11381797E+04</pdfrwt>
<pdfrwt beam="2">  1       -2 0.60870708E-01 0.11381797E+04</pdfrwt>
<totfact> 0.46619489E+01</totfact>
</mgrwt>
</event>
<event>
12    4  0.4183215E-008  0.1972745E+04  0.7818608E-02  0.8619470E-01
          1   -1    0    0  501    0  0.00000000000E+00  0.00000000000E+00  0.12457924063E+04  0.12457924063E+04  0.00000000000E+00 0. -1.
         -2   -1    0    0    0  501 -0.00000000000E+00 -0.00000000000E+00 -0.78097313378E+03  0.78097313378E+03  0.00000000000E+00 0.  1.
        -24    2    1    2    0    0 -0.43727944629E+03 -0.61741920314E+03  0.39997291143E+03  0.85999231332E+03  0.84785980783E+02 0.  0.
        254    2    1    2    0    0  0.43727944629E+03  0.61741920314E+03  0.64846361144E+02  0.11667732268E+04  0.88585265462E+03 0.  0.
         23    2    4    4    0    0  0.63690366801E+03  0.33959240090E+03 -0.16252825405E+03  0.74564507902E+03  0.92746263673E+02 0.  0.
         23    2    4    4    0    0 -0.19962422172E+03  0.27782680225E+03  0.22737461519E+03  0.42112814779E+03  0.92801612528E+02 0.  0.
          1    1    3    3  502    0 -0.25051372686E+03 -0.30103029444E+03  0.17304936292E+03  0.42816170722E+03  0.00000000000E+00 0. -1.
         -2    1    3    3    0  502 -0.18676571942E+03 -0.31638890870E+03  0.22692354850E+03  0.43183060610E+03  0.00000000000E+00 0.  1.
         11    1    5    5    0    0  0.53793004902E+03  0.32014413038E+03 -0.12727541006E+03  0.63879576694E+03  0.00000000000E+00 0. -1.
        -11    1    5    5    0    0  0.98973618986E+02  0.19448270521E+02 -0.35252843987E+02  0.10684931207E+03  0.00000000000E+00 0.  1.
          3    1    6    6  503    0 -0.16439842665E+03  0.15271146542E+03  0.14897900230E+03  0.26933692187E+03  0.00000000000E+00 0. -1.
         -3    1    6    6    0  503 -0.35225795074E+02  0.12511533683E+03  0.78395612886E+02  0.15179122592E+03  0.00000000000E+00 0.  1.
<mgrwt>
<rscale>  0 0.19727447E+04</rscale>
<asrwt>0</asrwt>
<pdfrwt beam="1">  1        1 0.19166037E+00 0.19727447E+04</pdfrwt>
<pdfrwt beam="2">  1       -2 0.12014971E+00 0.19727447E+04</pdfrwt>
<totfact> 0.42732264E+00</totfact>
</mgrwt>
</event>
<event>
12    4  0.4183215E-008  0.1094941E+04  0.7818608E-02  0.9210137E-01
          1   -1    0    0  501    0  0.00000000000E+00  0.00000000000E+00  0.36078668055E+03  0.36078668055E+03  0.00000000000E+00 0. -1.
         -2   -1    0    0    0  501 -0.00000000000E+00 -0.00000000000E+00 -0.83075070672E+03  0.83075070672E+03  0.00000000000E+00 0.  1.
        -24    2    1    2    0    0  0.70193654723E+02 -0.19150247008E+02 -0.72962150126E+02  0.13045851311E+03  0.80012918750E+02 0.  0.
        254    2    1    2    0    0 -0.70193654723E+02  0.19150247008E+02 -0.39700187605E+03  0.10610788742E+04  0.98131748506E+03 0.  0.
         23    2    4    4    0    0 -0.47904904249E+03  0.19422454427E+03 -0.27540802914E+03  0.59136074835E+03  0.81527869269E+02 0.  0.
         23    2    4    4    0    0  0.40885538777E+03 -0.17507429726E+03 -0.12159384691E+03  0.46971812581E+03  0.89645504290E+02 0.  0.
          3    1    3    3  502    0  0.16966487028E+02 -0.35114882637E+02 -0.32186423999E+00  0.39000259759E+02  0.00000000000E+00 0. -1.
         -4    1    3    3    0  502  0.53227167695E+02  0.15964635629E+02 -0.72640285886E+02  0.91458253346E+02  0.00000000000E+00 0.  1.
         11    1    5    5    0    0 -0.20313261197E+02 -0.48431300318E+01 -0.89590931917E+00  0.20901845433E+02  0.00000000000E+00 0.  1.
        -11    1    5    5    0    0 -0.45873578130E+03  0.19906767430E+03 -0.27451211982E+03  0.57045890292E+03  0.00000000000E+00 0. -1.
          3    1    6    6  503    0  0.30053303154E+03 -0.12771946940E+03 -0.12937563073E+03  0.35124125575E+03  0.00000000000E+00 0. -1.
         -3    1    6    6    0  503  0.10832235623E+03 -0.47354827864E+02  0.77817838238E+01  0.11847687006E+03  0.00000000000E+00 0.  1.
<mgrwt>
<rscale>  0 0.10949407E+04</rscale>
<asrwt>0</asrwt>
<pdfrwt beam="1">  1        1 0.55505644E-01 0.10949407E+04</pdfrwt>
<pdfrwt beam="2">  1       -2 0.12780780E+00 0.10949407E+04</pdfrwt>
<totfact> 0.27138640E+01</totfact>
</mgrwt>
</event>
<event>
12    4  0.4183215E-008  0.1534172E+04  0.7818608E-02  0.8862042E-01
          1   -1    0    0  501    0  0.00000000000E+00  0.00000000000E+00  0.93032477391E+03  0.93032477391E+03  0.00000000000E+00 0. -1.
         -2   -1    0    0    0  501 -0.00000000000E+00 -0.00000000000E+00 -0.63248960015E+03  0.63248960015E+03  0.00000000000E+00 0.  1.
        -24    2    1    2    0    0 -0.13769216776E+03 -0.33474674627E+03 -0.24914276608E+03  0.44834882618E+03  0.89050743114E+02 0.  0.
        254    2    1    2    0    0  0.13769216776E+03  0.33474674627E+03  0.54697793983E+03  0.11144655479E+04  0.90101835360E+03 0.  0.
         23    2    4    4    0    0 -0.13294006066E+03  0.19086054314E+03 -0.18805595961E+03  0.31233497025E+03  0.89929322475E+02 0.  0.
         23    2    4    4    0    0  0.27063222842E+03  0.14388620313E+03  0.73503389944E+03  0.80213057762E+03  0.95883198293E+02 0.  0.
          1    1    3    3  502    0 -0.23501337877E+02 -0.69177535431E+01 -0.25708902901E+02  0.35512193461E+02  0.00000000000E+00 0. -1.
         -2    1    3    3    0  502 -0.11419082988E+03 -0.32782899273E+03 -0.22343386318E+03  0.41283663272E+03  0.00000000000E+00 0.  1.
         11    1    5    5    0    0 -0.21038838020E+02  0.66654007954E+02 -0.10375794164E+03  0.12510435618E+03  0.00000000000E+00 0. -1.
        -11    1    5    5    0    0 -0.11190122264E+03  0.12420653519E+03 -0.84298017964E+02  0.18723061407E+03  0.00000000000E+00 0.  1.
          1    1    6    6  503    0  0.76836493932E+02  0.24312508500E+02  0.30570094768E+03  0.31614555869E+03  0.00000000000E+00 0. -1.
         -1    1    6    6    0  503  0.19379573449E+03  0.11957369463E+03  0.42933295176E+03  0.48598501893E+03  0.00000000000E+00 0.  1.
<mgrwt>
<rscale>  0 0.15341718E+04</rscale>
<asrwt>0</asrwt>
<pdfrwt beam="1">  1        1 0.14312689E+00 0.15341718E+04</pdfrwt>
<pdfrwt beam="2">  1       -2 0.97306092E-01 0.15341718E+04</pdfrwt>
<totfact> 0.12805385E+01</totfact>
</mgrwt>
</event>
<event>
12    4  0.4183215E-008  0.2330028E+04  0.7818608E-02  0.8466175E-01
         -2   -1    0    0    0  501 -0.00000000000E+00  0.00000000000E+00  0.15340044685E+04  0.15340044685E+04  0.00000000000E+00 0.  1.
          1   -1    0    0  501    0  0.00000000000E+00 -0.00000000000E+00 -0.88478082589E+03  0.88478082589E+03  0.00000000000E+00 0. -1.
        -24    2    1    2    0    0  0.52198922749E+03 -0.42412302786E+02 -0.60553156837E+03  0.80469923036E+03  0.81245393771E+02 0.  0.
        254    2    1    2    0    0 -0.52198922749E+03  0.42412302786E+02  0.12547552110E+04  0.16140860640E+04  0.86982275526E+03 0.  0.
         23    2    4    4    0    0 -0.48469023513E+03  0.83369383459E+02  0.13694190296E+04  0.14575836498E+04  0.85828546624E+02 0.  0.
         23    2    4    4    0    0 -0.37298992366E+02 -0.40957080673E+02 -0.11466381864E+03  0.15650241421E+03  0.90975365137E+02 0.  0.
          3    1    3    3  502    0  0.52155110774E+03 -0.38411539309E+02 -0.60621489592E+03  0.80061695234E+03  0.00000000000E+00 0. -1.
         -4    1    3    3    0  502  0.43811974716E+00 -0.40007634773E+01  0.68332754836E+00  0.40822780225E+01  0.00000000000E+00 0.  1.
         11    1    5    5    0    0 -0.20660562004E+03  0.75241272311E+02  0.65417097636E+03  0.69013534731E+03  0.00000000000E+00 0. -1.
        -11    1    5    5    0    0 -0.27808461509E+03  0.81281111487E+01  0.71524805323E+03  0.76744830248E+03  0.00000000000E+00 0.  1.
          1    1    6    6  503    0 -0.10461239992E+02 -0.39093331077E+02 -0.18347013306E+01  0.40510396269E+02  0.00000000000E+00 0. -1.
         -1    1    6    6    0  503 -0.26837752374E+02 -0.18637495959E+01 -0.11282911731E+03  0.11599201795E+03  0.00000000000E+00 0.  1.
<mgrwt>
<rscale>  0 0.23300281E+04</rscale>
<asrwt>0</asrwt>
<pdfrwt beam="1">  1        1 0.13612013E+00 0.23300281E+04</pdfrwt>
<pdfrwt beam="2">  1       -2 0.23600069E+00 0.23300281E+04</pdfrwt>
<totfact> 0.11609365E+00</totfact>
</mgrwt>
</event>
<event>
12    4  0.4183215E-008  0.1573256E+04  0.7818608E-02  0.8837148E-01
          1   -1    0    0  501    0  0.00000000000E+00  0.00000000000E+00  0.20468302375E+04  0.20468302375E+04  0.00000000000E+00 0. -1.
         -2   -1    0    0    0  501 -0.00000000000E+00 -0.00000000000E+00 -0.30231310757E+03  0.30231310757E+03  0.00000000000E+00 0.  1.
        -24    2    1    2    0    0 -0.24566496991E+03 -0.22691547030E+03 -0.16225961091E+02  0.34382396198E+03  0.78164742141E+02 0.  0.
        254    2    1    2    0    0  0.24566496991E+03  0.22691547030E+03  0.17607430910E+04  0.20053193831E+04  0.89958195155E+03 0.  0.
         23    2    4    4    0    0  0.42764028909E+03  0.31579221610E+03  0.53491416660E+03  0.75963679337E+03  0.91180873034E+02 0.  0.
         23    2    4    4    0    0 -0.18197531918E+03 -0.88876745807E+02  0.12258289244E+04  0.12456825898E+04  0.89746697223E+02 0.  0.
          1    1    3    3  502    0 -0.42845899935E+02 -0.30245929299E+02  0.25376282021E+02  0.58262707366E+02  0.00000000000E+00 0. -1.
         -2    1    3    3    0  502 -0.20281906998E+03 -0.19666954100E+03 -0.41602243113E+02  0.28556125461E+03  0.00000000000E+00 0.  1.
         11    1    5    5    0    0  0.32502050801E+03  0.21077715803E+03  0.33872296974E+03  0.51458584435E+03  0.00000000000E+00 0. -1.
        -11    1    5    5    0    0  0.10261978108E+03  0.10501505807E+03  0.19619119686E+03  0.24505094902E+03  0.00000000000E+00 0.  1.
          4    1    6    6  503    0 -0.18267888209E+03 -0.73704612937E+02  0.99249554192E+03  0.10118553971E+04  0.00000000000E+00 0. -1.
         -4    1    6    6    0  503  0.70356291325E+00 -0.15172132870E+02  0.23333338253E+03  0.23382719264E+03  0.00000000000E+00 0.  1.
<mgrwt>
<rscale>  0 0.15732560E+04</rscale>
<asrwt>0</asrwt>
<pdfrwt beam="1">  1        1 0.31489695E+00 0.15732560E+04</pdfrwt>
<pdfrwt beam="2">  1       -2 0.46509710E-01 0.15732560E+04</pdfrwt>
<totfact> 0.10253992E+01</totfact>
</mgrwt>
</event>
<event>
12    4  0.4183215E-008  0.1697000E+04  0.7818608E-02  0.8763077E-01
          1   -1    0    0  501    0  0.00000000000E+00  0.00000000000E+00  0.70431098738E+03  0.70431098738E+03  0.00000000000E+00 0. -1.
         -2   -1    0    0    0  501 -0.00000000000E+00 -0.00000000000E+00 -0.10222075451E+04  0.10222075451E+04  0.00000000000E+00 0.  1.
        -24    2    1    2    0    0 -0.82848549963E+02  0.10255989463E+03  0.48838804536E+03  0.51283537986E+03  0.84230812466E+02 0.  0.
        254    2    1    2    0    0  0.82848549963E+02 -0.10255989463E+03 -0.80628460305E+03  0.12136831526E+04  0.89752410527E+03 0.  0.
         23    2    4    4    0    0  0.13356024503E+03 -0.37519656717E+03 -0.82550964167E+03  0.92070999154E+03  0.87349395864E+02 0.  0.
         23    2    4    4    0    0 -0.50711695066E+02  0.27263667254E+03  0.19225038626E+02  0.29297316104E+03  0.92526967692E+02 0.  0.
          3    1    3    3  502    0  0.85957219801E+01 -0.14384258086E+01  0.10215590509E+03  0.10252699376E+03  0.00000000000E+00 0. -1.
         -4    1    3    3    0  502 -0.91444271943E+02  0.10399832044E+03  0.38623214027E+03  0.41030838610E+03  0.00000000000E+00 0.  1.
         11    1    5    5    0    0  0.22347310683E+02 -0.12147871933E+02 -0.30753965425E+02  0.39909641399E+02  0.00000000000E+00 0.  1.
        -11    1    5    5    0    0  0.11121293435E+03 -0.36304869524E+03 -0.79475567625E+03  0.88080035014E+03  0.00000000000E+00 0. -1.
          2    1    6    6  503    0 -0.77561000603E+02  0.19041165970E+03  0.18965223855E+02  0.20647515270E+03  0.00000000000E+00 0. -1.
         -2    1    6    6    0  503  0.26849305537E+02  0.82225012839E+02  0.25981477017E+00  0.86498008347E+02  0.00000000000E+00 0.  1.
<mgrwt>
<rscale>  0 0.16969997E+04</rscale>
<asrwt>0</asrwt>
<pdfrwt beam="1">  1        1 0.10835554E+00 0.16969997E+04</pdfrwt>
<pdfrwt beam="2">  1       -2 0.15726270E+00 0.16969997E+04</pdfrwt>
<totfact> 0.59352083E+00</totfact>
</mgrwt>
</event>
<event>
12    4  0.4183215E-008  0.1690423E+04  0.7818608E-02  0.8766845E-01
          1   -1    0    0  501    0  0.00000000000E+00  0.00000000000E+00  0.82153676852E+03  0.82153676852E+03  0.00000000000E+00 0. -1.
         -2   -1    0    0    0  501 -0.00000000000E+00 -0.00000000000E+00 -0.86956888681E+03  0.86956888681E+03  0.00000000000E+00 0.  1.
        -24    2    1    2    0    0 -0.62929973063E+02  0.59638726896E+03  0.31839149113E+02  0.60604296894E+03  0.81464057753E+02 0.  0.
        254    2    1    2    0    0  0.62929973063E+02 -0.59638726896E+03 -0.79871267395E+02  0.10850626864E+04  0.90074616732E+03 0.  0.
         23    2    4    4    0    0  0.47118144604E+03 -0.33402133401E+03  0.87517513977E+01  0.58459611434E+03  0.89965643914E+02 0.  0.
         23    2    4    4    0    0 -0.40825147298E+03 -0.26236593494E+03 -0.88623018792E+02  0.50046657204E+03  0.84306590890E+02 0.  0.
          3    1    3    3  502    0 -0.46037878655E+01  0.16336672086E+03  0.42913005221E+02  0.16897161408E+03  0.00000000000E+00 0. -1.
         -4    1    3    3    0  502 -0.58326185198E+02  0.43302054810E+03 -0.11073856108E+02  0.43707135486E+03  0.00000000000E+00 0.  1.
         11    1    5    5    0    0  0.64473242354E+02 -0.14295752128E+02  0.12681345021E+02  0.67245698897E+02  0.00000000000E+00 0.  1.
        -11    1    5    5    0    0  0.40670820369E+03 -0.31972558189E+03 -0.39295936232E+01  0.51735041545E+03  0.00000000000E+00 0. -1.
          2    1    6    6  503    0 -0.37218122281E+03 -0.26367701306E+03 -0.86958385173E+02  0.46433413678E+03  0.00000000000E+00 0. -1.
         -2    1    6    6    0  503 -0.36070250170E+02  0.13110781162E+01 -0.16646336196E+01  0.36132435266E+02  0.00000000000E+00 0.  1.
<mgrwt>
<rscale>  0 0.16904234E+04</rscale>
<asrwt>0</asrwt>
<pdfrwt beam="1">  1        1 0.12639027E+00 0.16904234E+04</pdfrwt>
<pdfrwt beam="2">  1       -2 0.13377983E+00 0.16904234E+04</pdfrwt>
<totfact> 0.71331887E+00</totfact>
</mgrwt>
</event>
<event>
12    4  0.4183215E-008  0.2355303E+04  0.7818608E-02  0.8456429E-01
          1   -1    0    0  501    0  0.00000000000E+00  0.00000000000E+00  0.10373979321E+04  0.10373979321E+04  0.00000000000E+00 0. -1.
         -2   -1    0    0    0  501 -0.00000000000E+00 -0.00000000000E+00 -0.13368673986E+04  0.13368673986E+04  0.00000000000E+00 0.  1.
        -24    2    1    2    0    0  0.30380476987E+03 -0.61932053356E+03  0.61132847670E+03  0.92525322232E+03  0.80720242270E+02 0.  0.
        254    2    1    2    0    0 -0.30380476987E+03  0.61932053356E+03 -0.91079794328E+03  0.14490121084E+04  0.89119466741E+03 0.  0.
         23    2    4    4    0    0 -0.45579659946E+03  0.21931590154E+03 -0.86915461762E+03  0.10097596469E+04  0.91295073385E+02 0.  0.
         23    2    4    4    0    0  0.15199182959E+03  0.40000463202E+03 -0.41643325663E+02  0.43925246147E+03  0.90018533850E+02 0.  0.
          1    1    3    3  502    0  0.27402295169E+03 -0.56620057340E+03  0.58463612036E+03  0.85876135253E+03  0.00000000000E+00 0. -1.
         -2    1    3    3    0  502  0.29781818180E+02 -0.53119960164E+02  0.26692356339E+02  0.66491869795E+02  0.00000000000E+00 0.  1.
         11    1    5    5    0    0 -0.99458153695E+02  0.17818288399E+02 -0.12808790461E+03  0.16314388449E+03  0.00000000000E+00 0. -1.
        -11    1    5    5    0    0 -0.35633844576E+03  0.20149761314E+03 -0.74106671300E+03  0.84661576240E+03  0.00000000000E+00 0.  1.
          3    1    6    6  503    0  0.33677902975E+02  0.21175492571E+02 -0.10574177160E+02  0.41163282875E+02  0.00000000000E+00 0. -1.
         -3    1    6    6    0  503  0.11831392661E+03  0.37882913945E+03 -0.31069148503E+02  0.39808917860E+03  0.00000000000E+00 0.  1.
<mgrwt>
<rscale>  0 0.23553034E+04</rscale>
<asrwt>0</asrwt>
<pdfrwt beam="1">  1        1 0.15959968E+00 0.23553034E+04</pdfrwt>
<pdfrwt beam="2">  1       -2 0.20567191E+00 0.23553034E+04</pdfrwt>
<totfact> 0.13633464E+00</totfact>
</mgrwt>
</event>
<event>
12    4  0.4183215E-008  0.1287264E+04  0.7818608E-02  0.9039726E-01
          1   -1    0    0  501    0  0.00000000000E+00  0.00000000000E+00  0.31107558624E+03  0.31107558624E+03  0.00000000000E+00 0. -1.
         -2   -1    0    0    0  501 -0.00000000000E+00 -0.00000000000E+00 -0.13317098425E+04  0.13317098425E+04  0.00000000000E+00 0.  1.
        -24    2    1    2    0    0 -0.66963866314E+02  0.29786124827E+02  0.12971405721E+03  0.16866514697E+03  0.79062143537E+02 0.  0.
        254    2    1    2    0    0  0.66963866314E+02 -0.29786124827E+02 -0.11503483135E+04  0.14741202818E+04  0.91888954188E+03 0.  0.
         23    2    4    4    0    0  0.39891158921E+03 -0.22706875433E+03 -0.36298505188E+03  0.59214983170E+03  0.90512983035E+02 0.  0.
         23    2    4    4    0    0 -0.33194772290E+03  0.19728262950E+03 -0.78736326161E+03  0.88197045007E+03  0.93921469446E+02 0.  0.
          1    1    3    3  502    0 -0.64582249512E+02  0.10968300410E+02  0.13405727735E+03  0.14920631413E+03  0.00000000000E+00 0. -1.
         -2    1    3    3    0  502 -0.23816168020E+01  0.18817824417E+02 -0.43432201377E+01  0.19458832841E+02  0.00000000000E+00 0.  1.
         11    1    5    5    0    0  0.16401785129E+03 -0.14319324357E+03 -0.18537501894E+03  0.28595464360E+03  0.00000000000E+00 0. -1.
        -11    1    5    5    0    0  0.23489373792E+03 -0.83875510758E+02 -0.17761003294E+03  0.30619518811E+03  0.00000000000E+00 0.  1.
          4    1    6    6  503    0 -0.91417185080E+02  0.88331379766E+01 -0.18244398210E+03  0.20425702597E+03  0.00000000000E+00 0. -1.
         -4    1    6    6    0  503 -0.24053053782E+03  0.18844949153E+03 -0.60491927951E+03  0.67771342410E+03  0.00000000000E+00 0.  1.
<mgrwt>
<rscale>  0 0.12872644E+04</rscale>
<asrwt>0</asrwt>
<pdfrwt beam="1">  1        1 0.47857782E-01 0.12872644E+04</pdfrwt>
<pdfrwt beam="2">  1       -2 0.20487844E+00 0.12872644E+04</pdfrwt>
<totfact> 0.88661385E+00</totfact>
</mgrwt>
</event>
<event>
12    4  0.4183215E-008  0.1302449E+04  0.7818608E-02  0.9027625E-01
          1   -1    0    0  501    0  0.00000000000E+00  0.00000000000E+00  0.14658440083E+04  0.14658440083E+04  0.00000000000E+00 0. -1.
         -2   -1    0    0    0  501 -0.00000000000E+00 -0.00000000000E+00 -0.28931700212E+03  0.28931700212E+03  0.00000000000E+00 0.  1.
        -24    2    1    2    0    0 -0.23931725725E+03 -0.10731381166E+03  0.31537983412E+02  0.27622762875E+03  0.80734470301E+02 0.  0.
        254    2    1    2    0    0  0.23931725725E+03  0.10731381166E+03  0.11449890227E+04  0.14789333816E+04  0.89858504403E+03 0.  0.
         23    2    4    4    0    0 -0.19365010632E+03  0.29416632641E+03  0.82622877901E+03  0.90239066357E+03  0.87296753520E+02 0.  0.
         23    2    4    4    0    0  0.43296736357E+03 -0.18685251475E+03  0.31876024373E+03  0.57654271806E+03  0.91754087604E+02 0.  0.
          1    1    3    3  502    0 -0.48532229045E+02 -0.49976132931E+02  0.32822956115E+02  0.77008685010E+02  0.00000000000E+00 0. -1.
         -2    1    3    3    0  502 -0.19078502820E+03 -0.57337678733E+02 -0.12849727034E+01  0.19921894374E+03  0.00000000000E+00 0.  1.
         11    1    5    5    0    0 -0.35564125600E+02  0.13063416689E+03  0.31012487061E+03  0.33838960971E+03  0.00000000000E+00 0. -1.
        -11    1    5    5    0    0 -0.15808598072E+03  0.16353215952E+03  0.51610390840E+03  0.56400105387E+03  0.00000000000E+00 0.  1.
          3    1    6    6  503    0  0.30779708354E+03 -0.89810019841E+02  0.19238418214E+03  0.37392052342E+03  0.00000000000E+00 0.  1.
         -3    1    6    6    0  503  0.12517028003E+03 -0.97042494904E+02  0.12637606159E+03  0.20262219465E+03  0.00000000000E+00 0. -1.
<mgrwt>
<rscale>  0 0.13024494E+04</rscale>
<asrwt>0</asrwt>
<pdfrwt beam="1">  1        1 0.22551446E+00 0.13024494E+04</pdfrwt>
<pdfrwt beam="2">  1       -2 0.44510309E-01 0.13024494E+04</pdfrwt>
<totfact> 0.28504934E+01</totfact>
</mgrwt>
</event>
<event>
12    4  0.4183215E-008  0.2181125E+04  0.7818608E-02  0.8526326E-01
         -2   -1    0    0    0  501 -0.00000000000E+00  0.00000000000E+00  0.88382795097E+03  0.88382795097E+03  0.00000000000E+00 0.  1.
          1   -1    0    0  501    0  0.00000000000E+00 -0.00000000000E+00 -0.13456539911E+04  0.13456539911E+04  0.00000000000E+00 0. -1.
        -24    2    1    2    0    0  0.52318580917E+03 -0.19352487235E+03 -0.91800005877E+03  0.10768701415E+04  0.75828270205E+02 0.  0.
        254    2    1    2    0    0 -0.52318580917E+03  0.19352487235E+03  0.45617401867E+03  0.11526118006E+04  0.89957987992E+03 0.  0.
         23    2    4    4    0    0 -0.22108249310E+03  0.50219147939E+03  0.59789526162E+02  0.55938711736E+03  0.90914294267E+02 0.  0.
         23    2    4    4    0    0 -0.30210331608E+03 -0.30866660704E+03  0.39638449251E+03  0.59322468321E+03  0.90848065366E+02 0.  0.
          1    1    3    3  502    0  0.42023213910E+03 -0.14622369812E+03 -0.78333347059E+03  0.90088164970E+03  0.00000000000E+00 0. -1.
         -4    1    3    3    0  502  0.10295367007E+03 -0.47301174226E+02 -0.13466658819E+03  0.17598849178E+03  0.00000000000E+00 0.  1.
         11    1    5    5    0    0 -0.18920853664E+03  0.34576641683E+03  0.18943739540E+02  0.39460505649E+03  0.00000000000E+00 0.  1.
        -11    1    5    5    0    0 -0.31873956457E+02  0.15642506256E+03  0.40845786622E+02  0.16478206086E+03  0.00000000000E+00 0. -1.
          4    1    6    6  503    0 -0.11993352210E+03 -0.11206599911E+03  0.94000232805E+02  0.18915306407E+03  0.00000000000E+00 0. -1.
         -4    1    6    6    0  503 -0.18216979397E+03 -0.19660060793E+03  0.30238425971E+03  0.40407161914E+03  0.00000000000E+00 0.  1.
<mgrwt>
<rscale>  0 0.21811250E+04</rscale>
<asrwt>0</asrwt>
<pdfrwt beam="1">  1        1 0.20702369E+00 0.21811250E+04</pdfrwt>
<pdfrwt beam="2">  1       -2 0.13597353E+00 0.21811250E+04</pdfrwt>
<totfact> 0.26053607E+00</totfact>
</mgrwt>
</event>
<event>
12    4  0.4183215E-008  0.2635279E+04  0.7818608E-02  0.8356316E-01
          1   -1    0    0  501    0  0.00000000000E+00  0.00000000000E+00  0.18425028150E+04  0.18425028150E+04  0.00000000000E+00 0. -1.
         -2   -1    0    0    0  501 -0.00000000000E+00 -0.00000000000E+00 -0.94229107161E+03  0.94229107161E+03  0.00000000000E+00 0.  1.
        -24    2    1    2    0    0 -0.92198851667E+03 -0.25922661522E+03  0.11034723725E+04  0.14632422930E+04  0.78520496597E+02 0.  0.
        254    2    1    2    0    0  0.92198851667E+03  0.25922661522E+03 -0.20326062909E+03  0.13215515936E+04  0.88764996944E+03 0.  0.
         23    2    4    4    0    0  0.49628043252E+03  0.39333848651E+03  0.24133204899E+03  0.68468008276E+03  0.97653597918E+02 0.  0.
         23    2    4    4    0    0  0.42570808415E+03 -0.13411187129E+03 -0.44459267809E+03  0.63687151082E+03  0.93430749521E+02 0.  0.
          1    1    3    3  502    0 -0.75595060296E+03 -0.19573475601E+03  0.85773769850E+03  0.11599514508E+04  0.00000000000E+00 0. -1.
         -2    1    3    3    0  502 -0.16603791371E+03 -0.63491859215E+02  0.24573467400E+03  0.30329084223E+03  0.00000000000E+00 0.  1.
         11    1    5    5    0    0  0.26028672902E+03  0.25838002927E+03  0.16602919235E+03  0.40258553568E+03  0.00000000000E+00 0. -1.
        -11    1    5    5    0    0  0.23599370350E+03  0.13495845724E+03  0.75302856646E+02  0.28209454708E+03  0.00000000000E+00 0.  1.
          4    1    6    6  503    0  0.24897693921E+03 -0.41287771686E+02 -0.20595758645E+03  0.32574948007E+03  0.00000000000E+00 0. -1.
         -4    1    6    6    0  503  0.17673114494E+03 -0.92824099603E+02 -0.23863509163E+03  0.31112203075E+03  0.00000000000E+00 0.  1.
<mgrwt>
<rscale>  0 0.26352791E+04</rscale>
<asrwt>0</asrwt>
<pdfrwt beam="1">  1        1 0.28346197E+00 0.26352791E+04</pdfrwt>
<pdfrwt beam="2">  1       -2 0.14496786E+00 0.26352791E+04</pdfrwt>
<totfact> 0.96427907E-01</totfact>
</mgrwt>
</event>
<event>
12    4  0.4183215E-008  0.2761689E+04  0.7818608E-02  0.8315262E-01
          1   -1    0    0  501    0  0.00000000000E+00  0.00000000000E+00  0.14233832784E+04  0.14233832784E+04  0.00000000000E+00 0. -1.
         -2   -1    0    0    0  501 -0.00000000000E+00 -0.00000000000E+00 -0.13395769331E+04  0.13395769331E+04  0.00000000000E+00 0.  1.
        -24    2    1    2    0    0  0.47722501542E+03  0.22150412281E+03  0.11535710561E+04  0.12704769218E+04  0.81102624545E+02 0.  0.
        254    2    1    2    0    0 -0.47722501542E+03 -0.22150412281E+03 -0.10697647107E+04  0.14924832897E+04  0.89794322863E+03 0.  0.
         23    2    4    4    0    0  0.68556684242E+01  0.30019896747E+03 -0.23383176820E+03  0.39128516542E+03  0.90886547955E+02 0.  0.
         23    2    4    4    0    0 -0.48408068385E+03 -0.52170309028E+03 -0.83593294253E+03  0.11011981242E+04  0.85704151276E+02 0.  0.
          3    1    3    3  502    0  0.79457009648E+02  0.11689568545E+02  0.22089083655E+03  0.23503792048E+03  0.00000000000E+00 0. -1.
         -4    1    3    3    0  502  0.39776800577E+03  0.20981455426E+03  0.93268021955E+03  0.10354390014E+04  0.00000000000E+00 0.  1.
         11    1    5    5    0    0  0.40324923723E+02  0.74488725014E+02 -0.50803204081E+02  0.98770618974E+02  0.00000000000E+00 0.  1.
        -11    1    5    5    0    0 -0.33469255299E+02  0.22571024246E+03 -0.18302856411E+03  0.29251454645E+03  0.00000000000E+00 0. -1.
          4    1    6    6  503    0 -0.38119359983E+03 -0.44850743257E+03 -0.65576860485E+03  0.88119234037E+03  0.00000000000E+00 0. -1.
         -4    1    6    6    0  503 -0.10288708401E+03 -0.73195657710E+02 -0.18016433768E+03  0.22000578387E+03  0.00000000000E+00 0.  1.
<mgrwt>
<rscale>  0 0.27616889E+04</rscale>
<asrwt>0</asrwt>
<pdfrwt beam="1">  1        1 0.21898204E+00 0.27616889E+04</pdfrwt>
<pdfrwt beam="2">  1       -2 0.20608876E+00 0.27616889E+04</pdfrwt>
<totfact> 0.68477166E-01</totfact>
</mgrwt>
</event>
<event>
12    4  0.4183215E-008  0.2005289E+04  0.7818608E-02  0.8604152E-01
          1   -1    0    0  501    0  0.00000000000E+00  0.00000000000E+00  0.21719543427E+04  0.21719543427E+04  0.00000000000E+00 0. -1.
         -2   -1    0    0    0  501 -0.00000000000E+00 -0.00000000000E+00 -0.46285313981E+03  0.46285313981E+03  0.00000000000E+00 0.  1.
        -24    2    1    2    0    0 -0.27141447344E+03 -0.45253626052E+03 -0.76580321679E+02  0.53930911453E+03  0.80838678031E+02 0.  0.
        254    2    1    2    0    0  0.27141447344E+03  0.45253626052E+03  0.17856815246E+04  0.20954983680E+04  0.96124919742E+03 0.  0.
         23    2    4    4    0    0 -0.31195052185E+03  0.28364193294E+03  0.44011283361E+03  0.61636888287E+03  0.91898962216E+02 0.  0.
         23    2    4    4    0    0  0.58336499529E+03  0.16889432759E+03  0.13455686910E+04  0.14791294851E+04  0.91809149966E+02 0.  0.
          1    1    3    3  502    0  0.43217009642E+01 -0.71655356772E+01  0.40925973879E+01  0.93151142851E+01  0.00000000000E+00 0. -1.
         -2    1    3    3    0  502 -0.27573617440E+03 -0.44537072485E+03 -0.80672919067E+02  0.52999400024E+03  0.00000000000E+00 0.  1.
         11    1    5    5    0    0 -0.31417498568E+03  0.28643751765E+03  0.42616554145E+03  0.60197129655E+03  0.00000000000E+00 0.  1.
        -11    1    5    5    0    0  0.22244638318E+01 -0.27955847148E+01  0.13947292164E+02  0.14397586324E+02  0.00000000000E+00 0. -1.
          1    1    6    6  503    0  0.15730052552E+02  0.21548112756E+02  0.42559189121E+02  0.50229874530E+02  0.00000000000E+00 0. -1.
         -1    1    6    6    0  503  0.56763494274E+03  0.14734621483E+03  0.13030095018E+04  0.14288996106E+04  0.00000000000E+00 0.  1.
<mgrwt>
<rscale>  0 0.20052889E+04</rscale>
<asrwt>0</asrwt>
<pdfrwt beam="1">  1        1 0.33414682E+00 0.20052889E+04</pdfrwt>
<pdfrwt beam="2">  1       -2 0.71208177E-01 0.20052889E+04</pdfrwt>
<totfact> 0.33200927E+00</totfact>
</mgrwt>
</event>
<event>
12    4  0.4183215E-008  0.1240053E+04  0.7818608E-02  0.9078503E-01
          1   -1    0    0  501    0  0.00000000000E+00  0.00000000000E+00  0.89753876321E+03  0.89753876321E+03  0.00000000000E+00 0. -1.
         -2   -1    0    0    0  501 -0.00000000000E+00 -0.00000000000E+00 -0.42831860470E+03  0.42831860470E+03  0.00000000000E+00 0.  1.
        -24    2    1    2    0    0 -0.12949094057E+02 -0.15966336164E+02 -0.19302334410E+03  0.20594433120E+03  0.68792828523E+02 0.  0.
        254    2    1    2    0    0  0.12949094057E+02  0.15966336164E+02  0.66224350261E+03  0.11199130367E+04  0.90289321081E+03 0.  0.
         23    2    4    4    0    0  0.43038296301E+03  0.23926117550E+02  0.18030867090E+03  0.47603409033E+03  0.91078451885E+02 0.  0.
         23    2    4    4    0    0 -0.41743386896E+03 -0.79597813858E+01  0.48193483170E+03  0.64387894638E+03  0.89467997136E+02 0.  0.
          1    1    3    3  502    0 -0.28096316549E+02 -0.29907809171E+02 -0.69443387222E+02  0.80661416315E+02  0.00000000000E+00 0. -1.
         -2    1    3    3    0  502  0.15147222492E+02  0.13941473006E+02 -0.12357995688E+03  0.12528291488E+03  0.00000000000E+00 0.  1.
         11    1    5    5    0    0  0.47337631874E+02  0.26734430205E+02  0.44732802361E+01  0.54548981530E+02  0.00000000000E+00 0.  1.
        -11    1    5    5    0    0  0.38304533114E+03 -0.28083126543E+01  0.17583539067E+03  0.42148510880E+03  0.00000000000E+00 0. -1.
          1    1    6    6  503    0 -0.18553113916E+03 -0.41510950069E+02  0.25113480187E+03  0.31498198565E+03  0.00000000000E+00 0. -1.
         -1    1    6    6    0  503 -0.23190272980E+03  0.33551168683E+02  0.23080002984E+03  0.32889696073E+03  0.00000000000E+00 0.  1.
<mgrwt>
<rscale>  0 0.12400525E+04</rscale>
<asrwt>0</asrwt>
<pdfrwt beam="1">  1        1 0.13808289E+00 0.12400525E+04</pdfrwt>
<pdfrwt beam="2">  1       -2 0.65895170E-01 0.12400525E+04</pdfrwt>
<totfact> 0.33521937E+01</totfact>
</mgrwt>
</event>
<event>
12    4  0.4183215E-008  0.1495752E+04  0.7818608E-02  0.8887282E-01
         -2   -1    0    0    0  501 -0.00000000000E+00  0.00000000000E+00  0.27434694032E+03  0.27434694032E+03  0.00000000000E+00 0.  1.
          1   -1    0    0  501    0  0.00000000000E+00 -0.00000000000E+00 -0.20387282736E+04  0.20387282736E+04  0.00000000000E+00 0. -1.
        -24    2    1    2    0    0  0.11432908255E+03 -0.22634545124E+03  0.50162101283E+02  0.27052202558E+03  0.79765453083E+02 0.  0.
        254    2    1    2    0    0 -0.11432908255E+03  0.22634545124E+03 -0.18145434346E+04  0.20425531883E+04  0.90285782318E+03 0.  0.
         23    2    4    4    0    0 -0.40867783815E+03  0.19554515822E+03 -0.45548833917E+03  0.64855291185E+03  0.88858134403E+02 0.  0.
         23    2    4    4    0    0  0.29434875560E+03  0.30800293027E+02 -0.13590550954E+04  0.13940002765E+04  0.92823329903E+02 0.  0.
          3    1    3    3  502    0 -0.56670964287E+01 -0.60657955187E+02  0.17233193590E+02  0.63312609097E+02  0.00000000000E+00 0. -1.
         -4    1    3    3    0  502  0.11999617898E+03 -0.16568749606E+03  0.32928907693E+02  0.20720941649E+03  0.00000000000E+00 0.  1.
         11    1    5    5    0    0 -0.37640704372E+03  0.20269295756E+03 -0.41013721304E+03  0.59243500161E+03  0.00000000000E+00 0. -1.
        -11    1    5    5    0    0 -0.32270794434E+02 -0.71477993476E+01 -0.45351126129E+02  0.56117910244E+02  0.00000000000E+00 0.  1.
          1    1    6    6  503    0  0.29558340689E+03  0.22013313585E+02 -0.13457704364E+04  0.13780247472E+04  0.00000000000E+00 0. -1.
         -1    1    6    6    0  503 -0.12346512898E+01  0.87869794422E+01 -0.13284658963E+02  0.15975529264E+02  0.00000000000E+00 0.  1.
<mgrwt>
<rscale>  0 0.14957525E+04</rscale>
<asrwt>0</asrwt>
<pdfrwt beam="1">  1        1 0.31365050E+00 0.14957525E+04</pdfrwt>
<pdfrwt beam="2">  1       -2 0.42207223E-01 0.14957525E+04</pdfrwt>
<totfact> 0.12687445E+01</totfact>
</mgrwt>
</event>
<event>
12    4  0.4183215E-008  0.1676738E+04  0.7818608E-02  0.8774744E-01
          1   -1    0    0  501    0  0.00000000000E+00  0.00000000000E+00  0.93144287608E+03  0.93144287608E+03  0.00000000000E+00 0. -1.
         -2   -1    0    0    0  501 -0.00000000000E+00 -0.00000000000E+00 -0.75459505822E+03  0.75459505822E+03  0.00000000000E+00 0.  1.
        -24    2    1    2    0    0 -0.76505854838E+02 -0.56861114880E+03  0.18340293833E+03  0.60745634372E+03  0.78706971561E+02 0.  0.
        254    2    1    2    0    0  0.76505854838E+02  0.56861114880E+03 -0.65551204639E+01  0.10785815906E+04  0.91330361521E+03 0.  0.
         23    2    4    4    0    0  0.21493332573E+03 -0.15749008767E+03  0.14843707428E+03  0.31735707863E+03  0.87649803825E+02 0.  0.
         23    2    4    4    0    0 -0.13842747090E+03  0.72610123647E+03 -0.15499219475E+03  0.76122451194E+03  0.95157799706E+02 0.  0.
          1    1    3    3  502    0 -0.11021831210E+02 -0.30232264631E+03  0.12354135274E+03  0.32677657363E+03  0.00000000000E+00 0. -1.
         -2    1    3    3    0  502 -0.65484023629E+02 -0.26628850249E+03  0.59861585586E+02  0.28067977009E+03  0.00000000000E+00 0.  1.
         11    1    5    5    0    0  0.18223959417E+03 -0.96040675526E+02  0.13547965661E+03  0.24655591332E+03  0.00000000000E+00 0. -1.
        -11    1    5    5    0    0  0.32693731560E+02 -0.61449412145E+02  0.12957417675E+02  0.70801165309E+02  0.00000000000E+00 0.  1.
          1    1    6    6  503    0 -0.12191702188E+03  0.71188868105E+03 -0.15770837689E+03  0.73927071264E+03  0.00000000000E+00 0. -1.
         -1    1    6    6    0  503 -0.16510449012E+02  0.14212555425E+02  0.27161821453E+01  0.21953799301E+02  0.00000000000E+00 0.  1.
<mgrwt>
<rscale>  0 0.16767375E+04</rscale>
<asrwt>0</asrwt>
<pdfrwt beam="1">  1        1 0.14329890E+00 0.16767375E+04</pdfrwt>
<pdfrwt beam="2">  1       -2 0.11609155E+00 0.16767375E+04</pdfrwt>
<totfact> 0.82590706E+00</totfact>
</mgrwt>
</event>
<event>
12    4  0.4183215E-008  0.1332695E+04  0.7818608E-02  0.9004032E-01
          1   -1    0    0  501    0  0.00000000000E+00  0.00000000000E+00  0.20746110217E+04  0.20746110217E+04  0.00000000000E+00 0. -1.
         -2   -1    0    0    0  501 -0.00000000000E+00 -0.00000000000E+00 -0.21402522975E+03  0.21402522975E+03  0.00000000000E+00 0.  1.
        -24    2    1    2    0    0  0.19258818901E+03  0.23367027292E+03  0.19179988702E+03  0.36708638391E+03  0.79203595868E+02 0.  0.
        254    2    1    2    0    0 -0.19258818901E+03 -0.23367027292E+03  0.16687859049E+04  0.19215498675E+04  0.90322504944E+03 0.  0.
         23    2    4    4    0    0 -0.29141350872E+01 -0.52368160395E+03  0.13131634189E+04  0.14167360991E+04  0.92152565300E+02 0.  0.
         23    2    4    4    0    0 -0.18967405393E+03  0.29001133103E+03  0.35562248599E+03  0.50481376839E+03  0.91031694213E+02 0.  0.
          1    1    3    3  502    0  0.35249380813E+02  0.86377382143E+02  0.31436689386E+02  0.98447125063E+02  0.00000000000E+00 0. -1.
         -2    1    3    3    0  502  0.15733880820E+03  0.14729289078E+03  0.16036319764E+03  0.26863925885E+03  0.00000000000E+00 0.  1.
         11    1    5    5    0    0 -0.17925633548E+02 -0.48654545763E+03  0.12548327222E+04  0.13459765865E+04  0.00000000000E+00 0. -1.
        -11    1    5    5    0    0  0.15011498461E+02 -0.37136146326E+02  0.58330696757E+02  0.70759512676E+02  0.00000000000E+00 0.  1.
          1    1    6    6  503    0 -0.73878746133E+02  0.14273906929E+03  0.10529192981E+03  0.19214291950E+03  0.00000000000E+00 0. -1.
         -1    1    6    6    0  503 -0.11579530779E+03  0.14727226175E+03  0.25033055618E+03  0.31267084889E+03  0.00000000000E+00 0.  1.
<mgrwt>
<rscale>  0 0.13326952E+04</rscale>
<asrwt>0</asrwt>
<pdfrwt beam="1">  1        1 0.31917091E+00 0.13326952E+04</pdfrwt>
<pdfrwt beam="2">  1       -2 0.32926960E-01 0.13326952E+04</pdfrwt>
<totfact> 0.19666371E+01</totfact>
</mgrwt>
</event>
<event>
12    4  0.4183215E-008  0.2422588E+04  0.7818608E-02  0.8431095E-01
          1   -1    0    0  501    0  0.00000000000E+00  0.00000000000E+00  0.65652630354E+03  0.65652630354E+03  0.00000000000E+00 0. -1.
         -2   -1    0    0    0  501 -0.00000000000E+00 -0.00000000000E+00 -0.22348436911E+04  0.22348436911E+04  0.00000000000E+00 0.  1.
        -24    2    1    2    0    0  0.82478189080E+03  0.37000001153E+03 -0.54821978255E+02  0.90918781744E+03  0.80323484400E+02 0.  0.
        254    2    1    2    0    0 -0.82478189080E+03 -0.37000001153E+03 -0.15234954093E+04  0.19821821772E+04  0.88929339675E+03 0.  0.
         23    2    4    4    0    0 -0.55614693820E+03 -0.30951432621E+03 -0.15617474600E+04  0.16893413236E+04  0.98592311626E+02 0.  0.
         23    2    4    4    0    0 -0.26863495260E+03 -0.60485685320E+02  0.38252050696E+02  0.29284085357E+03  0.92028746861E+02 0.  0.
          1    1    3    3  502    0  0.43774325471E+03  0.19361863551E+03 -0.69101541722E+02  0.48361385022E+03  0.00000000000E+00 0. -1.
         -2    1    3    3    0  502  0.38703863609E+03  0.17638137602E+03  0.14279563467E+02  0.42557396721E+03  0.00000000000E+00 0.  1.
         11    1    5    5    0    0 -0.32228047677E+03 -0.21577133220E+03 -0.10394161086E+04  0.11094177844E+04  0.00000000000E+00 0.  1.
        -11    1    5    5    0    0 -0.23386646143E+03 -0.93742994010E+02 -0.52233135137E+03  0.57992353921E+03  0.00000000000E+00 0. -1.
          1    1    6    6  503    0 -0.11618262797E+02  0.40000015995E+01  0.24609899646E+02  0.27506930105E+02  0.00000000000E+00 0. -1.
         -1    1    6    6    0  503 -0.25701668981E+03 -0.64485686920E+02  0.13642151050E+02  0.26533392347E+03  0.00000000000E+00 0.  1.
<mgrwt>
<rscale>  0 0.24225884E+04</rscale>
<asrwt>0</asrwt>
<pdfrwt beam="1">  1        1 0.10100405E+00 0.24225884E+04</pdfrwt>
<pdfrwt beam="2">  1       -2 0.34382211E+00 0.24225884E+04</pdfrwt>
<totfact> 0.40047726E-01</totfact>
</mgrwt>
</event>
<event>
12    4  0.4183215E-008  0.1860373E+04  0.7818608E-02  0.8674837E-01
         -2   -1    0    0    0  501 -0.00000000000E+00  0.00000000000E+00  0.53997659633E+03  0.53997659633E+03  0.00000000000E+00 0.  1.
          1   -1    0    0  501    0  0.00000000000E+00 -0.00000000000E+00 -0.16023782959E+04  0.16023782959E+04  0.00000000000E+00 0. -1.
        -24    2    1    2    0    0  0.45211755594E+02  0.68212651812E+03 -0.61769883643E+03  0.92480074697E+03  0.79773927478E+02 0.  0.
        254    2    1    2    0    0 -0.45211755594E+02 -0.68212651812E+03 -0.44470286315E+03  0.12175541453E+04  0.90406679542E+03 0.  0.
         23    2    4    4    0    0  0.31131167006E+03 -0.44339027009E+03  0.55448651484E+02  0.55231771440E+03  0.92034869249E+02 0.  0.
         23    2    4    4    0    0 -0.35652342565E+03 -0.23873624803E+03 -0.50015151463E+03  0.66523643086E+03  0.91016603964E+02 0.  0.
          1    1    3    3  502    0  0.42697455389E+02  0.31426381934E+03 -0.33088620264E+03  0.45833448479E+03  0.00000000000E+00 0. -1.
         -2    1    3    3    0  502  0.25143002054E+01  0.36786269878E+03 -0.28681263379E+03  0.46646626218E+03  0.00000000000E+00 0.  1.
         11    1    5    5    0    0  0.26800065993E+03 -0.31270976297E+03  0.39667168221E+02  0.41374537316E+03  0.00000000000E+00 0. -1.
        -11    1    5    5    0    0  0.43311010123E+02 -0.13068050713E+03  0.15781483263E+02  0.13857234123E+03  0.00000000000E+00 0.  1.
          1    1    6    6  503    0 -0.30916320571E+02 -0.36367943672E+02 -0.10146805711E+03  0.11213479754E+03  0.00000000000E+00 0. -1.
         -1    1    6    6    0  503 -0.32560710508E+03 -0.20236830435E+03 -0.39868345752E+03  0.55310163332E+03  0.00000000000E+00 0.  1.
<mgrwt>
<rscale>  0 0.18603728E+04</rscale>
<asrwt>0</asrwt>
<pdfrwt beam="1">  1        1 0.24651973E+00 0.18603728E+04</pdfrwt>
<pdfrwt beam="2">  1       -2 0.83073324E-01 0.18603728E+04</pdfrwt>
<totfact> 0.58145782E+00</totfact>
</mgrwt>
</event>
<event>
12    4  0.4183215E-008  0.2422331E+04  0.7818608E-02  0.8431190E-01
          1   -1    0    0  501    0  0.00000000000E+00  0.00000000000E+00  0.13135019015E+04  0.13135019015E+04  0.00000000000E+00 0. -1.
         -2   -1    0    0    0  501 -0.00000000000E+00 -0.00000000000E+00 -0.11168018645E+04  0.11168018645E+04  0.00000000000E+00 0.  1.
        -24    2    1    2    0    0  0.72170820899E+03 -0.47678515653E+03  0.67339137135E+03  0.10990749059E+04  0.79516573052E+02 0.  0.
        254    2    1    2    0    0 -0.72170820899E+03  0.47678515653E+03 -0.47669133433E+03  0.13312288601E+04  0.89260787889E+03 0.  0.
         23    2    4    4    0    0  0.98131904772E+02 -0.14463173118E+03 -0.84136979926E+01  0.19740732494E+03  0.91381908655E+02 0.  0.
         23    2    4    4    0    0 -0.81984011376E+03  0.62141688770E+03 -0.46827763634E+03  0.11338215352E+04  0.89278040633E+02 0.  0.
          1    1    3    3  502    0  0.59638931089E+03 -0.36918916218E+03  0.51445410012E+03  0.86985278568E+03  0.00000000000E+00 0. -1.
         -2    1    3    3    0  502  0.12531889810E+03 -0.10759599435E+03  0.15893727123E+03  0.22922212024E+03  0.00000000000E+00 0.  1.
         11    1    5    5    0    0  0.98693300431E+02 -0.15516178843E+03 -0.15747061546E+02  0.18456304638E+03  0.00000000000E+00 0.  1.
        -11    1    5    5    0    0 -0.56139565919E+00  0.10530057256E+02  0.73333635536E+01  0.12844278567E+02  0.00000000000E+00 0. -1.
          3    1    6    6  503    0 -0.42844829040E+03  0.26934092232E+03 -0.22242179994E+03  0.55279646080E+03  0.00000000000E+00 0. -1.
         -3    1    6    6    0  503 -0.39139182336E+03  0.35207596539E+03 -0.24585583639E+03  0.58102507440E+03  0.00000000000E+00 0.  1.
<mgrwt>
<rscale>  0 0.24223306E+04</rscale>
<asrwt>0</asrwt>
<pdfrwt beam="1">  1        1 0.20207722E+00 0.24223306E+04</pdfrwt>
<pdfrwt beam="2">  1       -2 0.17181567E+00 0.24223306E+04</pdfrwt>
<totfact> 0.14368512E+00</totfact>
</mgrwt>
</event>
<event>
12    4  0.4183215E-008  0.1796695E+04  0.7818608E-02  0.8708059E-01
         -2   -1    0    0    0  501 -0.00000000000E+00  0.00000000000E+00  0.28865702864E+03  0.28865702864E+03  0.00000000000E+00 0.  1.
          1   -1    0    0  501    0  0.00000000000E+00 -0.00000000000E+00 -0.27958021688E+04  0.27958021688E+04  0.00000000000E+00 0. -1.
        -24    2    1    2    0    0  0.42074294290E+03  0.22889792754E+03 -0.13710071831E+03  0.50450919535E+03  0.79460908629E+02 0.  0.
        254    2    1    2    0    0 -0.42074294290E+03 -0.22889792754E+03 -0.23700444218E+04  0.25799500021E+04  0.89978473341E+03 0.  0.
         23    2    4    4    0    0 -0.32242266847E+03 -0.50444183496E+03 -0.20477917964E+04  0.21354938716E+04  0.92004849201E+02 0.  0.
         23    2    4    4    0    0 -0.98320274432E+02  0.27554390742E+03 -0.32225262541E+03  0.44445613044E+03  0.90017642824E+02 0.  0.
          1    1    3    3  502    0  0.18109649744E+03  0.91510877359E+02 -0.98638303034E+02  0.22560961168E+03  0.00000000000E+00 0. -1.
         -2    1    3    3    0  502  0.23964644547E+03  0.13738705018E+03 -0.38462415277E+02  0.27889958367E+03  0.00000000000E+00 0.  1.
         11    1    5    5    0    0 -0.29737252664E+03 -0.40447546624E+03 -0.16611460538E+04  0.17353492543E+04  0.00000000000E+00 0.  1.
        -11    1    5    5    0    0 -0.25050141834E+02 -0.99966368717E+02 -0.38664574258E+03  0.40014461728E+03  0.00000000000E+00 0. -1.
          1    1    6    6  503    0 -0.49041078826E+02  0.52680963680E+02 -0.11770306821E+03  0.13796493617E+03  0.00000000000E+00 0. -1.
         -1    1    6    6    0  503 -0.49279195606E+02  0.22286294374E+03 -0.20454955720E+03  0.30649119427E+03  0.00000000000E+00 0.  1.
<mgrwt>
<rscale>  0 0.17966947E+04</rscale>
<asrwt>0</asrwt>
<pdfrwt beam="1">  1        1 0.43012339E+00 0.17966947E+04</pdfrwt>
<pdfrwt beam="2">  1       -2 0.44408776E-01 0.17966947E+04</pdfrwt>
<totfact> 0.33527193E+00</totfact>
</mgrwt>
</event>
<event>
12    4  0.4183215E-008  0.2433658E+04  0.7818608E-02  0.8427009E-01
         -4   -1    0    0    0  501 -0.00000000000E+00  0.00000000000E+00  0.18647571738E+04  0.18647571738E+04  0.00000000000E+00 0.  1.
          1   -1    0    0  501    0  0.00000000000E+00 -0.00000000000E+00 -0.79402994349E+03  0.79402994349E+03  0.00000000000E+00 0. -1.
        -24    2    1    2    0    0 -0.37973459548E+03 -0.95851794962E+03  0.29162004901E+03  0.10745359141E+04  0.81425763539E+02 0.  0.
        254    2    1    2    0    0  0.37973459548E+03  0.95851794962E+03  0.77910718132E+03  0.15842512032E+04  0.91645450086E+03 0.  0.
         23    2    4    4    0    0  0.53853122019E+03  0.68136008054E+03  0.87680569046E+03  0.12375295573E+04  0.91780999333E+02 0.  0.
         23    2    4    4    0    0 -0.15879662471E+03  0.27715786908E+03 -0.97698509137E+02  0.34672164593E+03  0.92941103169E+02 0.  0.
          3    1    3    3  502    0 -0.18544711169E+03 -0.54150636273E+03  0.13032968095E+03  0.58703117280E+03  0.00000000000E+00 0. -1.
         -4    1    3    3    0  502 -0.19428748379E+03 -0.41701158689E+03  0.16129036807E+03  0.48750474130E+03  0.00000000000E+00 0.  1.
         11    1    5    5    0    0  0.26701215027E+03  0.40660766831E+03  0.51145785144E+03  0.70584305488E+03  0.00000000000E+00 0.  1.
        -11    1    5    5    0    0  0.27151906992E+03  0.27475241223E+03  0.36534783902E+03  0.53168650239E+03  0.00000000000E+00 0. -1.
          1    1    6    6  503    0 -0.14602792478E+02  0.89553133158E+02 -0.18939946622E-01  0.90735911112E+02  0.00000000000E+00 0. -1.
         -1    1    6    6    0  503 -0.14419383224E+03  0.18760473592E+03 -0.97679569190E+02  0.25598573482E+03  0.00000000000E+00 0.  1.
<mgrwt>
<rscale>  0 0.24336582E+04</rscale>
<asrwt>0</asrwt>
<pdfrwt beam="1">  1        1 0.12215845E+00 0.24336582E+04</pdfrwt>
<pdfrwt beam="2">  1       -4 0.28688572E+00 0.24336582E+04</pdfrwt>
<totfact> 0.35722570E-01</totfact>
</mgrwt>
</event>
<event>
12    4  0.4183215E-008  0.1276821E+04  0.7818608E-02  0.9048151E-01
          1   -1    0    0  501    0  0.00000000000E+00  0.00000000000E+00  0.44571430694E+03  0.44571430694E+03  0.00000000000E+00 0. -1.
         -2   -1    0    0    0  501 -0.00000000000E+00 -0.00000000000E+00 -0.91441505548E+03  0.91441505548E+03  0.00000000000E+00 0.  1.
        -24    2    1    2    0    0  0.22542195118E+03  0.55982526623E+02  0.10787529989E+03  0.26920073440E+03  0.82962977965E+02 0.  0.
        254    2    1    2    0    0 -0.22542195118E+03 -0.55982526623E+02 -0.57657604843E+03  0.10909286280E+04  0.89651337550E+03 0.  0.
         23    2    4    4    0    0  0.26401814796E+03 -0.38817266602E+02 -0.51792350681E+03  0.58980057496E+03  0.91692947784E+02 0.  0.
         23    2    4    4    0    0 -0.48944009914E+03 -0.17165260020E+02 -0.58652541619E+02  0.50112805306E+03  0.88560420800E+02 0.  0.
          3    1    3    3  502    0  0.18921432290E+03  0.41425766994E+02  0.51128128032E+02  0.20033032631E+03  0.00000000000E+00 0. -1.
         -4    1    3    3    0  502  0.36207628276E+02  0.14556759628E+02  0.56747171860E+02  0.68870408089E+02  0.00000000000E+00 0.  1.
         11    1    5    5    0    0  0.17420943336E+03 -0.38358551241E+02 -0.24918993570E+03  0.30645705927E+03  0.00000000000E+00 0.  1.
        -11    1    5    5    0    0  0.89808714604E+02 -0.45871536097E+00 -0.26873357111E+03  0.28334351569E+03  0.00000000000E+00 0. -1.
          1    1    6    6  503    0 -0.81148065514E+02  0.29268187942E+02 -0.18682808272E+02  0.88264844004E+02  0.00000000000E+00 0. -1.
         -1    1    6    6    0  503 -0.40829203363E+03 -0.46433447963E+02 -0.39969733347E+02  0.41286320906E+03  0.00000000000E+00 0.  1.
<mgrwt>
<rscale>  0 0.12768209E+04</rscale>
<asrwt>0</asrwt>
<pdfrwt beam="1">  1        1 0.68571432E-01 0.12768209E+04</pdfrwt>
<pdfrwt beam="2">  1       -2 0.14067924E+00 0.12768209E+04</pdfrwt>
<totfact> 0.15814582E+01</totfact>
</mgrwt>
</event>
<event>
12    4  0.4183215E-008  0.1127317E+04  0.7818608E-02  0.9178968E-01
          1   -1    0    0  501    0  0.00000000000E+00  0.00000000000E+00  0.13688775547E+04  0.13688775547E+04  0.00000000000E+00 0. -1.
         -2   -1    0    0    0  501 -0.00000000000E+00 -0.00000000000E+00 -0.23209608676E+03  0.23209608676E+03  0.00000000000E+00 0.  1.
        -24    2    1    2    0    0 -0.17558990899E+03 -0.52191934004E+02  0.14360706482E+03  0.24684866325E+03  0.82191601576E+02 0.  0.
        254    2    1    2    0    0  0.17558990899E+03  0.52191934004E+02  0.99317440311E+03  0.13541249782E+04  0.90205501354E+03 0.  0.
         23    2    4    4    0    0  0.14715585191E+03  0.30786831440E+03  0.10207945164E+04  0.10799058803E+04  0.87963184813E+02 0.  0.
         23    2    4    4    0    0  0.28434057086E+02 -0.25567638040E+03 -0.27620113321E+02  0.27421909784E+03  0.90853375625E+02 0.  0.
          3    1    3    3  502    0 -0.79080753187E+02 -0.54636134689E+02  0.10639947076E+03  0.14338661066E+03  0.00000000000E+00 0. -1.
         -4    1    3    3    0  502 -0.96509155808E+02  0.24442006856E+01  0.37207594057E+02  0.10346205260E+03  0.00000000000E+00 0.  1.
         11    1    5    5    0    0  0.69357354980E+02  0.11892739259E+03  0.54443231581E+03  0.56156986556E+03  0.00000000000E+00 0. -1.
        -11    1    5    5    0    0  0.77798496928E+02  0.18894092181E+03  0.47636220061E+03  0.51833601479E+03  0.00000000000E+00 0.  1.
          3    1    6    6  503    0 -0.20869927692E+02 -0.54733173064E+02 -0.33024542442E+02  0.67245033415E+02  0.00000000000E+00 0. -1.
         -3    1    6    6    0  503  0.49303984778E+02 -0.20094320734E+03  0.54044291206E+01  0.20697406442E+03  0.00000000000E+00 0.  1.
<mgrwt>
<rscale>  0 0.11273174E+04</rscale>
<asrwt>0</asrwt>
<pdfrwt beam="1">  1        1 0.21059654E+00 0.11273174E+04</pdfrwt>
<pdfrwt beam="2">  1       -2 0.35707091E-01 0.11273174E+04</pdfrwt>
<totfact> 0.51971279E+01</totfact>
</mgrwt>
</event>
<event>
12    4  0.4183215E-008  0.1867836E+04  0.7818608E-02  0.8671034E-01
          1   -1    0    0  501    0  0.00000000000E+00  0.00000000000E+00  0.75075524541E+03  0.75075524541E+03  0.00000000000E+00 0. -1.
         -2   -1    0    0    0  501 -0.00000000000E+00 -0.00000000000E+00 -0.11617673155E+04  0.11617673155E+04  0.00000000000E+00 0.  1.
        -24    2    1    2    0    0  0.66282148987E+03 -0.27465805870E+03 -0.14280244469E+03  0.73611328240E+03  0.81858717770E+02 0.  0.
        254    2    1    2    0    0 -0.66282148987E+03  0.27465805870E+03 -0.26820962538E+03  0.11764092785E+04  0.89287905716E+03 0.  0.
         23    2    4    4    0    0 -0.91508740959E+01  0.37529421706E+03  0.11937797816E+03  0.40539770521E+03  0.95742936361E+02 0.  0.
         23    2    4    4    0    0 -0.65367061577E+03 -0.10063615836E+03 -0.38758760355E+03  0.77101157328E+03  0.82594100345E+02 0.  0.
          3    1    3    3  502    0  0.78092615104E+02 -0.25211669275E+02 -0.42898312466E+02  0.92597786225E+02  0.00000000000E+00 0. -1.
         -4    1    3    3    0  502  0.58472887477E+03 -0.24944638942E+03 -0.99904132220E+02  0.64351549617E+03  0.00000000000E+00 0.  1.
         11    1    5    5    0    0 -0.21148903277E+02  0.37961859939E+02 -0.87944073621E+01  0.44336446866E+02  0.00000000000E+00 0. -1.
        -11    1    5    5    0    0  0.11998029181E+02  0.33733235712E+03  0.12817238552E+03  0.36106125834E+03  0.00000000000E+00 0.  1.
          4    1    6    6  503    0 -0.11326469184E+03 -0.42532411570E+02 -0.48218809591E+02  0.13024189054E+03  0.00000000000E+00 0. -1.
         -4    1    6    6    0  503 -0.54040592393E+03 -0.58103746789E+02 -0.33936879396E+03  0.64076968274E+03  0.00000000000E+00 0.  1.
<mgrwt>
<rscale>  0 0.18678361E+04</rscale>
<asrwt>0</asrwt>
<pdfrwt beam="1">  1        1 0.11550081E+00 0.18678361E+04</pdfrwt>
<pdfrwt beam="2">  1       -2 0.17873343E+00 0.18678361E+04</pdfrwt>
<totfact> 0.37162295E+00</totfact>
</mgrwt>
</event>
<event>
12    4  0.4183215E-008  0.2118087E+04  0.7818608E-02  0.8553317E-01
         -2   -1    0    0    0  501 -0.00000000000E+00  0.00000000000E+00  0.11088006583E+04  0.11088006583E+04  0.00000000000E+00 0.  1.
          1   -1    0    0  501    0  0.00000000000E+00 -0.00000000000E+00 -0.10115192024E+04  0.10115192024E+04  0.00000000000E+00 0. -1.
        -24    2    1    2    0    0  0.51025113977E+03 -0.67078112147E+03  0.20580864554E+03  0.87131082998E+03  0.80757818927E+02 0.  0.
        254    2    1    2    0    0 -0.51025113977E+03  0.67078112147E+03 -0.10852718966E+03  0.12490090308E+04  0.91539164812E+03 0.  0.
         23    2    4    4    0    0 -0.48099159189E+03  0.88116451033E+03 -0.14475348728E+03  0.10184216375E+04  0.91789182090E+02 0.  0.
         23    2    4    4    0    0 -0.29259547872E+02 -0.21038338887E+03  0.36226297620E+02  0.23058739323E+03  0.82103043942E+02 0.  0.
          1    1    3    3  502    0  0.42279036691E+02 -0.67240891717E+02  0.43427378219E+02  0.90525088464E+02  0.00000000000E+00 0. -1.
         -2    1    3    3    0  502  0.46797210308E+03 -0.60354022975E+03  0.16238126732E+03  0.78078574152E+03  0.00000000000E+00 0.  1.
         11    1    5    5    0    0 -0.43166210496E+03  0.72048699747E+03 -0.11521789199E+03  0.84776697802E+03  0.00000000000E+00 0. -1.
        -11    1    5    5    0    0 -0.49329486932E+02  0.16067751287E+03 -0.29535595299E+02  0.17065465951E+03  0.00000000000E+00 0.  1.
          2    1    6    6  503    0  0.20380485720E+02 -0.12557578287E+03  0.36385854118E+02  0.13231996003E+03  0.00000000000E+00 0. -1.
         -2    1    6    6    0  503 -0.49640033592E+02 -0.84807605991E+02 -0.15955649884E+00  0.98267433198E+02  0.00000000000E+00 0.  1.
<mgrwt>
<rscale>  0 0.21180870E+04</rscale>
<asrwt>0</asrwt>
<pdfrwt beam="1">  1        1 0.15561834E+00 0.21180870E+04</pdfrwt>
<pdfrwt beam="2">  1       -2 0.17058472E+00 0.21180870E+04</pdfrwt>
<totfact> 0.25184974E+00</totfact>
</mgrwt>
</event>
<event>
12    4  0.4183215E-008  0.1019949E+04  0.7818608E-02  0.9286931E-01
         -2   -1    0    0    0  501 -0.00000000000E+00  0.00000000000E+00  0.38739921804E+03  0.38739921804E+03  0.00000000000E+00 0.  1.
          1   -1    0    0  501    0  0.00000000000E+00 -0.00000000000E+00 -0.67133388969E+03  0.67133388969E+03  0.00000000000E+00 0. -1.
        -24    2    1    2    0    0 -0.61713659721E+02 -0.32728514224E+01  0.33195419524E+02  0.10637693560E+03  0.79967675959E+02 0.  0.
        254    2    1    2    0    0  0.61713659721E+02  0.32728514224E+01 -0.31713009117E+03  0.95235617213E+03  0.89587471028E+03 0.  0.
         23    2    4    4    0    0 -0.27253966861E+03 -0.28255757446E+03 -0.30116261823E+03  0.50298723602E+03  0.90446576142E+02 0.  0.
         23    2    4    4    0    0  0.33425332833E+03  0.28583042588E+03 -0.15967472943E+02  0.44936893611E+03  0.90846907997E+02 0.  0.
          1    1    3    3  502    0  0.13305931526E+02 -0.15271865401E+02 -0.56780048993E+01  0.21036098170E+02  0.00000000000E+00 0. -1.
         -2    1    3    3    0  502 -0.75019591247E+02  0.11999013979E+02  0.38873424423E+02  0.85340837433E+02  0.00000000000E+00 0.  1.
         11    1    5    5    0    0 -0.24836688522E+03 -0.22266771917E+03 -0.27849151959E+03  0.43453946808E+03  0.00000000000E+00 0. -1.
        -11    1    5    5    0    0 -0.24172783386E+02 -0.59889855284E+02 -0.22671098633E+02  0.68447767938E+02  0.00000000000E+00 0.  1.
          4    1    6    6  503    0  0.32453033676E+03  0.28316330588E+03 -0.25366823047E+00  0.43069880615E+03  0.00000000000E+00 0. -1.
         -4    1    6    6    0  503  0.97229915647E+01  0.26671200024E+01 -0.15713804712E+02  0.18670129957E+02  0.00000000000E+00 0.  1.
<mgrwt>
<rscale>  0 0.10199495E+04</rscale>
<asrwt>0</asrwt>
<pdfrwt beam="1">  1        1 0.10328214E+00 0.10199495E+04</pdfrwt>
<pdfrwt beam="2">  1       -2 0.59599880E-01 0.10199495E+04</pdfrwt>
<totfact> 0.66882877E+01</totfact>
</mgrwt>
</event>
<event>
12    4  0.4183215E-008  0.1614537E+04  0.7818608E-02  0.8811667E-01
         -2   -1    0    0    0  501 -0.00000000000E+00  0.00000000000E+00  0.38780715430E+03  0.38780715430E+03  0.00000000000E+00 0.  1.
          1   -1    0    0  501    0  0.00000000000E+00 -0.00000000000E+00 -0.16804298919E+04  0.16804298919E+04  0.00000000000E+00 0. -1.
        -24    2    1    2    0    0 -0.43343174829E+03 -0.56393168346E+02 -0.87636681667E+03  0.98256335586E+03  0.79804016486E+02 0.  0.
        254    2    1    2    0    0  0.43343174829E+03  0.56393168346E+02 -0.41625592093E+03  0.10856736903E+04  0.90242733798E+03 0.  0.
         23    2    4    4    0    0  0.66632893164E+03  0.11514668681E+03 -0.11952219663E+03  0.69292845417E+03  0.92796996063E+02 0.  0.
         23    2    4    4    0    0 -0.23289718335E+03 -0.58753518459E+02 -0.29673372430E+03  0.39274523618E+03  0.92221708205E+02 0.  0.
          3    1    3    3  502    0 -0.29740331175E+03 -0.62975404534E+02 -0.54029853565E+03  0.61994930360E+03  0.00000000000E+00 0. -1.
         -4    1    3    3    0  502 -0.13602843654E+03  0.65822361873E+01 -0.33606828103E+03  0.36261405226E+03  0.00000000000E+00 0.  1.
         11    1    5    5    0    0  0.45532262597E+03  0.55495966792E+02 -0.11808424801E+03  0.47364795543E+03  0.00000000000E+00 0.  1.
        -11    1    5    5    0    0  0.21100630567E+03  0.59650720014E+02 -0.14379486234E+01  0.21928049874E+03  0.00000000000E+00 0. -1.
          1    1    6    6  503    0  0.80521885869E+00  0.85058642455E-01 -0.42253728741E+02  0.42261486071E+02  0.00000000000E+00 0. -1.
         -1    1    6    6    0  503 -0.23370240221E+03 -0.58838577101E+02 -0.25447999556E+03  0.35048375011E+03  0.00000000000E+00 0.  1.
<mgrwt>
<rscale>  0 0.16145374E+04</rscale>
<asrwt>0</asrwt>
<pdfrwt beam="1">  1        1 0.25852767E+00 0.16145374E+04</pdfrwt>
<pdfrwt beam="2">  1       -2 0.59662641E-01 0.16145374E+04</pdfrwt>
<totfact> 0.10836510E+01</totfact>
</mgrwt>
</event>
<event>
12    4  0.4183215E-008  0.1851209E+04  0.7818608E-02  0.8679531E-01
         -2   -1    0    0    0  501 -0.00000000000E+00  0.00000000000E+00  0.41069267005E+03  0.41069267005E+03  0.00000000000E+00 0.  1.
          1   -1    0    0  501    0  0.00000000000E+00 -0.00000000000E+00 -0.20860936629E+04  0.20860936629E+04  0.00000000000E+00 0. -1.
        -24    2    1    2    0    0  0.13735291908E+03  0.79736854578E+02  0.28403264361E+03  0.33487498434E+03  0.79012164520E+02 0.  0.
        254    2    1    2    0    0 -0.13735291908E+03 -0.79736854578E+02 -0.19594336365E+04  0.21619113486E+04  0.89958696810E+03 0.  0.
         23    2    4    4    0    0 -0.98209685125E+02  0.23844512445E+03 -0.17396720290E+04  0.17610445289E+04  0.91202218592E+02 0.  0.
         23    2    4    4    0    0 -0.39143233958E+02 -0.31818197903E+03 -0.21976160750E+03  0.40086681974E+03  0.98117676774E+02 0.  0.
          1    1    3    3  502    0  0.41082621439E+02 -0.47764134864E+01  0.11884228765E+03  0.12583356168E+03  0.00000000000E+00 0. -1.
         -2    1    3    3    0  502  0.96270297645E+02  0.84513268065E+02  0.16519035596E+03  0.20904142267E+03  0.00000000000E+00 0.  1.
         11    1    5    5    0    0 -0.93313266657E+02  0.23191957978E+03 -0.17316545237E+04  0.17496060832E+04  0.00000000000E+00 0. -1.
        -11    1    5    5    0    0 -0.48964184686E+01  0.65255446675E+01 -0.80175053113E+01  0.11438445631E+02  0.00000000000E+00 0.  1.
          4    1    6    6  503    0 -0.43651047152E+01 -0.28314108838E+03 -0.20413424490E+03  0.34908268363E+03  0.00000000000E+00 0. -1.
         -4    1    6    6    0  503 -0.34778129243E+02 -0.35040890643E+02 -0.15627362600E+02  0.51784136109E+02  0.00000000000E+00 0.  1.
<mgrwt>
<rscale>  0 0.18512087E+04</rscale>
<asrwt>0</asrwt>
<pdfrwt beam="1">  1        1 0.32093749E+00 0.18512087E+04</pdfrwt>
<pdfrwt beam="2">  1       -2 0.63183488E-01 0.18512087E+04</pdfrwt>
<totfact> 0.49861467E+00</totfact>
</mgrwt>
</event>
<event>
12    4  0.4183215E-008  0.1053206E+04  0.7818608E-02  0.9252040E-01
         -2   -1    0    0    0  501 -0.00000000000E+00  0.00000000000E+00  0.33242598022E+03  0.33242598022E+03  0.00000000000E+00 0.  1.
          1   -1    0    0  501    0  0.00000000000E+00 -0.00000000000E+00 -0.83420295448E+03  0.83420295448E+03  0.00000000000E+00 0. -1.
        -24    2    1    2    0    0  0.85481562561E+02  0.10417663954E+02  0.40714513786E+02  0.12299908959E+03  0.77816959247E+02 0.  0.
        254    2    1    2    0    0 -0.85481562561E+02 -0.10417663954E+02 -0.54249148804E+03  0.10436298451E+04  0.88738414103E+03 0.  0.
         23    2    4    4    0    0  0.32738205028E+03 -0.17029806846E+03 -0.43755607855E+03  0.57959139113E+03  0.91051742596E+02 0.  0.
         23    2    4    4    0    0 -0.41286361284E+03  0.15988040451E+03 -0.10493540949E+03  0.46403845398E+03  0.91116080153E+02 0.  0.
          3    1    3    3  502    0  0.60901180891E+02 -0.30479155786E+02  0.19973967953E+02  0.70971065704E+02  0.00000000000E+00 0. -1.
         -4    1    3    3    0  502  0.24580381670E+02  0.40896819740E+02  0.20740545833E+02  0.52028023884E+02  0.00000000000E+00 0.  1.
         11    1    5    5    0    0  0.22415646222E+03 -0.76742981999E+02 -0.31416263585E+03  0.39348922044E+03  0.00000000000E+00 0.  1.
        -11    1    5    5    0    0  0.10322558806E+03 -0.93555086461E+02 -0.12339344270E+03  0.18610217069E+03  0.00000000000E+00 0. -1.
          1    1    6    6  503    0 -0.61157563619E+02  0.21526091783E+01 -0.40114826688E+02  0.73171583516E+02  0.00000000000E+00 0. -1.
         -1    1    6    6    0  503 -0.35170604922E+03  0.15772779533E+03 -0.64820582800E+02  0.39086687047E+03  0.00000000000E+00 0.  1.
<mgrwt>
<rscale>  0 0.10532060E+04</rscale>
<asrwt>0</asrwt>
<pdfrwt beam="1">  1        1 0.12833891E+00 0.10532060E+04</pdfrwt>
<pdfrwt beam="2">  1       -2 0.51142459E-01 0.10532060E+04</pdfrwt>
<totfact> 0.65364256E+01</totfact>
</mgrwt>
</event>
<event>
12    4  0.4183215E-008  0.1099366E+04  0.7818608E-02  0.9205810E-01
         -2   -1    0    0    0  501 -0.00000000000E+00  0.00000000000E+00  0.14440189224E+03  0.14440189224E+03  0.00000000000E+00 0.  1.
          1   -1    0    0  501    0  0.00000000000E+00 -0.00000000000E+00 -0.20924356467E+04  0.20924356467E+04  0.00000000000E+00 0. -1.
        -24    2    1    2    0    0 -0.23585059087E+02 -0.26734581786E+02 -0.68273523700E+01  0.90492162546E+02  0.82892857753E+02 0.  0.
        254    2    1    2    0    0  0.23585059087E+02  0.26734581786E+02 -0.19412064021E+04  0.21463453764E+04  0.91501103073E+03 0.  0.
         23    2    4    4    0    0 -0.88541119931E+02  0.21747908005E+03 -0.18829117744E+04  0.18998515934E+04  0.94565568333E+02 0.  0.
         23    2    4    4    0    0  0.11212617902E+03 -0.19074449827E+03 -0.58294627739E+02  0.24649378300E+03  0.91679756734E+02 0.  0.
          3    1    3    3  502    0  0.95413054886E+01  0.22044610391E+02 -0.18580205567E+02  0.30368164195E+02  0.00000000000E+00 0. -1.
         -4    1    3    3    0  502 -0.33126364576E+02 -0.48779192176E+02  0.11752853197E+02  0.60123998351E+02  0.00000000000E+00 0.  1.
         11    1    5    5    0    0 -0.19314214392E+02  0.34644384316E+02 -0.12599259007E+03  0.13208862553E+03  0.00000000000E+00 0. -1.
        -11    1    5    5    0    0 -0.69226905539E+02  0.18283469574E+03 -0.17569191843E+04  0.17677629679E+04  0.00000000000E+00 0.  1.
          3    1    6    6  503    0  0.47146190456E+01  0.71822857702E+01 -0.14837210068E+02  0.17145135293E+02  0.00000000000E+00 0. -1.
         -3    1    6    6    0  503  0.10741155997E+03 -0.19792678404E+03 -0.43457417671E+02  0.22934864771E+03  0.00000000000E+00 0.  1.
<mgrwt>
<rscale>  0 0.10993665E+04</rscale>
<asrwt>0</asrwt>
<pdfrwt beam="1">  1        1 0.32191318E+00 0.10993665E+04</pdfrwt>
<pdfrwt beam="2">  1       -2 0.22215676E-01 0.10993665E+04</pdfrwt>
<totfact> 0.40183870E+01</totfact>
</mgrwt>
</event>
<event>
12    4  0.4183215E-008  0.2291423E+04  0.7818608E-02  0.8481311E-01
          1   -1    0    0  501    0  0.00000000000E+00  0.00000000000E+00  0.22060778117E+04  0.22060778117E+04  0.00000000000E+00 0. -1.
         -2   -1    0    0    0  501 -0.00000000000E+00 -0.00000000000E+00 -0.59501749815E+03  0.59501749815E+03  0.00000000000E+00 0.  1.
        -24    2    1    2    0    0  0.23167579414E+03 -0.68631600172E+03  0.12595138343E+04  0.14552736240E+04  0.82115126644E+02 0.  0.
        254    2    1    2    0    0 -0.23167579414E+03  0.68631600172E+03  0.35154647925E+03  0.13458216859E+04  0.10784005542E+04 0.  0.
         23    2    4    4    0    0 -0.62634851338E+01  0.84205427253E+03  0.53722758935E+03  0.10028592530E+04  0.89546465226E+02 0.  0.
         23    2    4    4    0    0 -0.22541230901E+03 -0.15573827081E+03 -0.18568111009E+03  0.34296243289E+03  0.89892367205E+02 0.  0.
          1    1    3    3  502    0  0.22426468456E+03 -0.58332965351E+03  0.10561917748E+04  0.12272364069E+04  0.00000000000E+00 0. -1.
         -2    1    3    3    0  502  0.74111095786E+01 -0.10298634821E+03  0.20332205958E+03  0.22803721708E+03  0.00000000000E+00 0.  1.
         11    1    5    5    0    0 -0.41920139234E+02  0.26808695584E+03  0.18682566103E+03  0.32944156019E+03  0.00000000000E+00 0.  1.
        -11    1    5    5    0    0  0.35656654100E+02  0.57396731669E+03  0.35040192832E+03  0.67341769280E+03  0.00000000000E+00 0. -1.
          1    1    6    6  503    0 -0.15870041101E+03 -0.15405611823E+03 -0.15049064338E+03  0.26751923625E+03  0.00000000000E+00 0. -1.
         -1    1    6    6    0  503 -0.66711897998E+02 -0.16821525787E+01 -0.35190466712E+02  0.75443196640E+02  0.00000000000E+00 0.  1.
<mgrwt>
<rscale>  0 0.22914231E+04</rscale>
<asrwt>0</asrwt>
<pdfrwt beam="1">  1        1 0.33939658E+00 0.22914231E+04</pdfrwt>
<pdfrwt beam="2">  1       -2 0.91541155E-01 0.22914231E+04</pdfrwt>
<totfact> 0.17425145E+00</totfact>
</mgrwt>
</event>
<event>
12    4  0.4183215E-008  0.1227573E+04  0.7818608E-02  0.9089058E-01
          1   -1    0    0  501    0  0.00000000000E+00  0.00000000000E+00  0.98876553059E+03  0.98876553059E+03  0.00000000000E+00 0. -1.
         -2   -1    0    0    0  501 -0.00000000000E+00 -0.00000000000E+00 -0.38101464956E+03  0.38101464956E+03  0.00000000000E+00 0.  1.
        -24    2    1    2    0    0  0.10374576739E+03  0.10510706419E+03 -0.74627000936E+02  0.19012718407E+03  0.93640149832E+02 0.  0.
        254    2    1    2    0    0 -0.10374576739E+03 -0.10510706419E+03  0.68237788197E+03  0.11796529961E+04  0.95085800106E+03 0.  0.
         23    2    4    4    0    0 -0.85563257025E+02 -0.37597704948E+03  0.77978722200E+03  0.87514026904E+03  0.95512126006E+02 0.  0.
         23    2    4    4    0    0 -0.18182510360E+02  0.27086998529E+03 -0.97409340025E+02  0.30451272705E+03  0.97664060908E+02 0.  0.
          3    1    3    3  502    0 -0.75712049976E+00 -0.11196503284E+02  0.75160689482E+01  0.13506524708E+02  0.00000000000E+00 0. -1.
         -4    1    3    3    0  502  0.10450288788E+03  0.11630356747E+03 -0.82143069884E+02  0.17662065936E+03  0.00000000000E+00 0.  1.
         11    1    5    5    0    0 -0.96019501174E+02 -0.21563826773E+03  0.48562428256E+03  0.53995421188E+03  0.00000000000E+00 0. -1.
        -11    1    5    5    0    0  0.10456244149E+02 -0.16033878175E+03  0.29416293943E+03  0.33518605716E+03  0.00000000000E+00 0.  1.
          3    1    6    6  503    0  0.16821232819E+02  0.31180060103E+02  0.13737043738E+02  0.37998110378E+02  0.00000000000E+00 0. -1.
         -3    1    6    6    0  503 -0.35003743179E+02  0.23968992519E+03 -0.11114638376E+03  0.26651461667E+03  0.00000000000E+00 0.  1.
<mgrwt>
<rscale>  0 0.12275735E+04</rscale>
<asrwt>0</asrwt>
<pdfrwt beam="1">  1        1 0.15211777E+00 0.12275735E+04</pdfrwt>
<pdfrwt beam="2">  1       -2 0.58617639E-01 0.12275735E+04</pdfrwt>
<totfact> 0.36379159E+01</totfact>
</mgrwt>
</event>
<event>
12    4  0.4183215E-008  0.1392767E+04  0.7818608E-02  0.8959071E-01
          1   -1    0    0  501    0  0.00000000000E+00  0.00000000000E+00  0.80980714341E+03  0.80980714341E+03  0.00000000000E+00 0. -1.
         -2   -1    0    0    0  501 -0.00000000000E+00 -0.00000000000E+00 -0.59884627579E+03  0.59884627579E+03  0.00000000000E+00 0.  1.
        -24    2    1    2    0    0  0.27376431694E+03 -0.27874058858E+03 -0.52452930843E+02  0.40215511232E+03  0.79587734351E+02 0.  0.
        254    2    1    2    0    0 -0.27376431694E+03  0.27874058858E+03  0.26341379846E+03  0.10064983069E+04  0.88938675253E+03 0.  0.
         23    2    4    4    0    0 -0.26324264182E+03  0.30959212820E+03 -0.24849218909E+03  0.48523258790E+03  0.92511199358E+02 0.  0.
         23    2    4    4    0    0 -0.10521675119E+02 -0.30851539616E+02  0.51190598755E+03  0.52126571897E+03  0.92777618759E+02 0.  0.
          1    1    3    3  502    0  0.90034743606E+01  0.26500920671E+01 -0.95899500609E+01  0.13418371015E+02  0.00000000000E+00 0. -1.
         -2    1    3    3    0  502  0.26476084258E+03 -0.28139068065E+03 -0.42862980782E+02  0.38873674131E+03  0.00000000000E+00 0.  1.
         11    1    5    5    0    0 -0.30623194421E+02  0.48342503948E+02 -0.76211540841E+02  0.95304651942E+02  0.00000000000E+00 0. -1.
        -11    1    5    5    0    0 -0.23261944740E+03  0.26124962425E+03 -0.17228064825E+03  0.38992793596E+03  0.00000000000E+00 0.  1.
          1    1    6    6  503    0  0.31727600985E+01  0.28624278453E+02  0.79139972558E+02  0.84217284331E+02  0.00000000000E+00 0. -1.
         -1    1    6    6    0  503 -0.13694435218E+02 -0.59475818069E+02  0.43276601499E+03  0.43704843464E+03  0.00000000000E+00 0.  1.
<mgrwt>
<rscale>  0 0.13927670E+04</rscale>
<asrwt>0</asrwt>
<pdfrwt beam="1">  1        1 0.12458571E+00 0.13927670E+04</pdfrwt>
<pdfrwt beam="2">  1       -2 0.92130196E-01 0.13927670E+04</pdfrwt>
<totfact> 0.18551410E+01</totfact>
</mgrwt>
</event>
<event>
12    4  0.4489527E-008  0.3307933E+04  0.7818608E-02  0.8160880E-01
         -2   -1    0    0    0  501 -0.00000000000E+00  0.00000000000E+00  0.16796221384E+04  0.16796221384E+04  0.00000000000E+00 0.  1.
          1   -1    0    0  501    0  0.00000000000E+00 -0.00000000000E+00 -0.16287023082E+04  0.16287023082E+04  0.00000000000E+00 0. -1.
        -24    2    1    2    0    0  0.13052073089E+03 -0.40438645519E+03 -0.14504159562E+04  0.15135385056E+04  0.80797867427E+02 0.  0.
        254    2    1    2    0    0 -0.13052073089E+03  0.40438645519E+03  0.15013357864E+04  0.17947859411E+04  0.88695172608E+03 0.  0.
         23    2    4    4    0    0 -0.25789906775E+03  0.86740182078E+02  0.40562681799E+02  0.29164330997E+03  0.96823038387E+02 0.  0.
         23    2    4    4    0    0  0.12737833686E+03  0.31764627311E+03  0.14607731046E+04  0.15031426311E+04  0.91952763778E+02 0.  0.
          3    1    3    3  502    0  0.13678617345E+03 -0.37335780383E+03 -0.13836144121E+04  0.14396163893E+04  0.00000000000E+00 0. -1.
         -4    1    3    3    0  502 -0.62654425627E+01 -0.31028651367E+02 -0.66801544147E+02  0.73922116288E+02  0.00000000000E+00 0.  1.
         11    1    5    5    0    0 -0.64660258959E+02 -0.14923141439E+02  0.30575602549E+02  0.73065153872E+02  0.00000000000E+00 0.  1.
        -11    1    5    5    0    0 -0.19323880879E+03  0.10166332352E+03  0.99870792500E+01  0.21857815610E+03  0.00000000000E+00 0. -1.
          2    1    6    6  503    0  0.82120049226E+02  0.19200182496E+03  0.10697806486E+04  0.10899720361E+04  0.00000000000E+00 0. -1.
         -2    1    6    6    0  503  0.45258287638E+02  0.12564444816E+03  0.39099245597E+03  0.41317059501E+03  0.00000000000E+00 0.  1.
<mgrwt>
<rscale>  0 0.33079326E+04</rscale>
<asrwt>0</asrwt>
<pdfrwt beam="1">  1        1 0.25056959E+00 0.33079326E+04</pdfrwt>
<pdfrwt beam="2">  1       -2 0.25840340E+00 0.33079326E+04</pdfrwt>
<totfact> 0.22164593E-01</totfact>
</mgrwt>
</event>
<event>
12    4  0.4183215E-008  0.1350526E+04  0.7818608E-02  0.8990430E-01
          1   -1    0    0  501    0  0.00000000000E+00  0.00000000000E+00  0.11773535469E+04  0.11773535469E+04  0.00000000000E+00 0. -1.
         -2   -1    0    0    0  501 -0.00000000000E+00 -0.00000000000E+00 -0.38729255523E+03  0.38729255523E+03  0.00000000000E+00 0.  1.
        -24    2    1    2    0    0 -0.29556641656E+03 -0.14530987631E+03  0.37707309499E+03  0.50688302964E+03  0.79194823184E+02 0.  0.
        254    2    1    2    0    0  0.29556641656E+03  0.14530987631E+03  0.41298789664E+03  0.10577630725E+04  0.91642198136E+03 0.  0.
         23    2    4    4    0    0 -0.26284187888E+03  0.16136354194E+03  0.36729868097E+03  0.48815410079E+03  0.90895869631E+02 0.  0.
         23    2    4    4    0    0  0.55840829544E+03 -0.16053665623E+02  0.45689215661E+02  0.56960897166E+03  0.10143634247E+03 0.  0.
          3    1    3    3  502    0 -0.19478545506E+03 -0.13072467172E+03  0.23464034216E+03  0.33179271159E+03  0.00000000000E+00 0. -1.
         -4    1    3    3    0  502 -0.10078096150E+03 -0.14585204593E+02  0.14243275283E+03  0.17509031804E+03  0.00000000000E+00 0.  1.
         11    1    5    5    0    0 -0.20095820041E+03  0.16239423960E+03  0.31260088772E+03  0.40555567111E+03  0.00000000000E+00 0. -1.
        -11    1    5    5    0    0 -0.61883678474E+02 -0.10306976655E+01  0.54697793254E+02  0.82598429683E+02  0.00000000000E+00 0.  1.
          2    1    6    6  503    0  0.38803023745E+03  0.35156681999E+02  0.39140558186E+02  0.39158069508E+03  0.00000000000E+00 0. -1.
         -2    1    6    6    0  503  0.17037805799E+03 -0.51210347622E+02  0.65486574745E+01  0.17802827658E+03  0.00000000000E+00 0.  1.
<mgrwt>
<rscale>  0 0.13505262E+04</rscale>
<asrwt>0</asrwt>
<pdfrwt beam="1">  1        1 0.18113131E+00 0.13505262E+04</pdfrwt>
<pdfrwt beam="2">  1       -2 0.59583471E-01 0.13505262E+04</pdfrwt>
<totfact> 0.25050230E+01</totfact>
</mgrwt>
</event>
<event>
12    4  0.4183215E-008  0.1027123E+04  0.7818608E-02  0.9279287E-01
          1   -1    0    0  501    0  0.00000000000E+00  0.00000000000E+00  0.13444033254E+04  0.13444033254E+04  0.00000000000E+00 0. -1.
         -2   -1    0    0    0  501 -0.00000000000E+00 -0.00000000000E+00 -0.19618040879E+03  0.19618040879E+03  0.00000000000E+00 0.  1.
        -24    2    1    2    0    0  0.40147575603E+02  0.51297824085E+02  0.23659360833E+03  0.26097727305E+03  0.88821770751E+02 0.  0.
        254    2    1    2    0    0 -0.40147575603E+02 -0.51297824085E+02  0.91162930828E+03  0.12796064612E+04  0.89558997600E+03 0.  0.
         23    2    4    4    0    0 -0.32692131178E+02  0.55315061651E+02 -0.16202034477E+03  0.19693345639E+03  0.91671493059E+02 0.  0.
         23    2    4    4    0    0 -0.74554444257E+01 -0.10661288574E+03  0.10736496530E+04  0.10826730048E+04  0.89640206950E+02 0.  0.
          3    1    3    3  502    0  0.24825528358E+02 -0.11845109518E+01  0.18208707577E+03  0.18377544201E+03  0.00000000000E+00 0. -1.
         -4    1    3    3    0  502  0.15322047245E+02  0.52482335037E+02  0.54506532563E+02  0.77201831032E+02  0.00000000000E+00 0.  1.
         11    1    5    5    0    0 -0.27975092695E+02  0.18555754076E+02 -0.30586495266E+01  0.33708710410E+02  0.00000000000E+00 0.  1.
        -11    1    5    5    0    0 -0.47170384826E+01  0.36759307575E+02 -0.15896169524E+03  0.16322474598E+03  0.00000000000E+00 0. -1.
          3    1    6    6  503    0 -0.33920950813E+02 -0.22042494803E+02  0.55800189242E+03  0.55946636576E+03  0.00000000000E+00 0. -1.
         -3    1    6    6    0  503  0.26465506388E+02 -0.84570390932E+02  0.51564776063E+03  0.52320663900E+03  0.00000000000E+00 0.  1.
<mgrwt>
<rscale>  0 0.10271233E+04</rscale>
<asrwt>0</asrwt>
<pdfrwt beam="1">  1        1 0.20683128E+00 0.10271233E+04</pdfrwt>
<pdfrwt beam="2">  1       -2 0.30181602E-01 0.10271233E+04</pdfrwt>
<totfact> 0.74850973E+01</totfact>
</mgrwt>
</event>
<event>
12    4  0.4890559E-008  0.1821915E+04  0.7818608E-02  0.8694732E-01
          1   -1    0    0  501    0  0.00000000000E+00  0.00000000000E+00  0.12049691931E+04  0.12049691931E+04  0.00000000000E+00 0. -1.
         -2   -1    0    0    0  501 -0.00000000000E+00 -0.00000000000E+00 -0.68868410499E+03  0.68868410499E+03  0.00000000000E+00 0.  1.
        -24    2    1    2    0    0 -0.37908635212E+03 -0.42255324305E+02  0.79070584562E+03  0.88138961768E+03  0.78357827064E+02 0.  0.
        254    2    1    2    0    0  0.37908635212E+03  0.42255324305E+02 -0.27442075755E+03  0.10122636804E+04  0.89659301335E+03 0.  0.
         23    2    4    4    0    0 -0.94237000556E+02  0.34268355643E+03 -0.24888919911E+03  0.44297604716E+03  0.89271007642E+02 0.  0.
         23    2    4    4    0    0  0.47332335268E+03 -0.30042823212E+03 -0.25531558447E+02  0.56928763320E+03  0.95626513005E+02 0.  0.
          3    1    3    3  502    0 -0.33148329166E+03 -0.28925407159E+02  0.61969825078E+03  0.70338024841E+03  0.00000000000E+00 0. -1.
         -4    1    3    3    0  502 -0.47603060458E+02 -0.13329917146E+02  0.17100759484E+03  0.17800936927E+03  0.00000000000E+00 0.  1.
         11    1    5    5    0    0 -0.10312224526E+03  0.30420322730E+03 -0.24359875596E+03  0.40313044399E+03  0.00000000000E+00 0. -1.
        -11    1    5    5    0    0  0.88852447051E+01  0.38480329125E+02 -0.52904431479E+01  0.39845603167E+02  0.00000000000E+00 0.  1.
          3    1    6    6  503    0  0.43812119089E+03 -0.30059970587E+03 -0.11677987495E+02  0.53145718216E+03  0.00000000000E+00 0. -1.
         -3    1    6    6    0  503  0.35202161783E+02  0.17147374779E+00 -0.13853570952E+02  0.37830451036E+02  0.00000000000E+00 0.  1.
<mgrwt>
<rscale>  0 0.18219145E+04</rscale>
<asrwt>0</asrwt>
<pdfrwt beam="1">  1        1 0.18537988E+00 0.18219145E+04</pdfrwt>
<pdfrwt beam="2">  1       -2 0.10595140E+00 0.18219145E+04</pdfrwt>
<totfact> 0.62971619E+00</totfact>
</mgrwt>
</event>
<event>
12    4  0.4183215E-008  0.1943877E+04  0.7818608E-02  0.8633319E-01
          1   -1    0    0  501    0  0.00000000000E+00  0.00000000000E+00  0.25943437930E+04  0.25943437930E+04  0.00000000000E+00 0. -1.
         -2   -1    0    0    0  501 -0.00000000000E+00 -0.00000000000E+00 -0.36412452895E+03  0.36412452895E+03  0.00000000000E+00 0.  1.
        -24    2    1    2    0    0 -0.10973695215E+03 -0.81640155136E+02  0.20083946847E+04  0.20146832858E+04  0.81192481347E+02 0.  0.
        254    2    1    2    0    0  0.10973695215E+03  0.81640155136E+02  0.22182457930E+03  0.94378503607E+03  0.90709246317E+03 0.  0.
         23    2    4    4    0    0  0.72757908593E+02 -0.10308630792E+03  0.54005209709E+03  0.56214964420E+03  0.91844731851E+02 0.  0.
         23    2    4    4    0    0  0.36979043556E+02  0.18472646305E+03 -0.31822751779E+03  0.38163539187E+03  0.94262948366E+02 0.  0.
          3    1    3    3  502    0 -0.74644963654E+02 -0.86011353741E+02  0.17722559647E+04  0.17759113233E+04  0.00000000000E+00 0. -1.
         -4    1    3    3    0  502 -0.35091988495E+02  0.43711986050E+01  0.23613871999E+03  0.23877196258E+03  0.00000000000E+00 0.  1.
         11    1    5    5    0    0  0.27936054555E+02  0.13280115922E+02  0.91532275438E+02  0.96617503952E+02  0.00000000000E+00 0.  1.
        -11    1    5    5    0    0  0.44821854038E+02 -0.11636642384E+03  0.44851982165E+03  0.46553214025E+03  0.00000000000E+00 0. -1.
          2    1    6    6  503    0  0.31603198998E+02  0.15477563149E+03 -0.31321467558E+03  0.35079579714E+03  0.00000000000E+00 0. -1.
         -2    1    6    6    0  503  0.53758445578E+01  0.29950831565E+02 -0.50128422048E+01  0.30839594730E+02  0.00000000000E+00 0.  1.
<mgrwt>
<rscale>  0 0.19438768E+04</rscale>
<asrwt>0</asrwt>
<pdfrwt beam="1">  1        1 0.39912980E+00 0.19438768E+04</pdfrwt>
<pdfrwt beam="2">  1       -2 0.56019160E-01 0.19438768E+04</pdfrwt>
<totfact> 0.28552876E+00</totfact>
</mgrwt>
</event>
<event>
12    4  0.4183215E-008  0.1844548E+04  0.7818608E-02  0.8682962E-01
         -4   -1    0    0    0  501 -0.00000000000E+00  0.00000000000E+00  0.11601878407E+04  0.11601878407E+04  0.00000000000E+00 0.  1.
          3   -1    0    0  501    0  0.00000000000E+00 -0.00000000000E+00 -0.73314772858E+03  0.73314772858E+03  0.00000000000E+00 0. -1.
        -24    2    1    2    0    0 -0.17272008805E+02  0.15842387711E+03 -0.54017078940E+03  0.56865323025E+03  0.78648378418E+02 0.  0.
        254    2    1    2    0    0  0.17272008805E+02 -0.15842387711E+03  0.96721090148E+03  0.13246823390E+04  0.89100500794E+03 0.  0.
         23    2    4    4    0    0 -0.37069995094E+02  0.26123070560E+03  0.82394540715E+03  0.86909093004E+03  0.82567212855E+02 0.  0.
         23    2    4    4    0    0  0.54342003899E+02 -0.41965458270E+03  0.14326549434E+03  0.45559140895E+03  0.89305698989E+02 0.  0.
          3    1    3    3  502    0 -0.47370586237E+02  0.77840415754E+02 -0.30057450836E+03  0.31408301106E+03  0.00000000000E+00 0. -1.
         -4    1    3    3    0  502  0.30098577432E+02  0.80583461352E+02 -0.23959628104E+03  0.25457021918E+03  0.00000000000E+00 0.  1.
         11    1    5    5    0    0 -0.17288711469E+02  0.13387981283E+03  0.55030508323E+03  0.56662014477E+03  0.00000000000E+00 0. -1.
        -11    1    5    5    0    0 -0.19781283625E+02  0.12735089277E+03  0.27364032392E+03  0.30247078527E+03  0.00000000000E+00 0.  1.
          2    1    6    6  503    0  0.76307544534E+01 -0.10632648226E+03 -0.30497719535E+01  0.10664356686E+03  0.00000000000E+00 0. -1.
         -2    1    6    6    0  503  0.46711249445E+02 -0.31332810044E+03  0.14631526629E+03  0.34894784209E+03  0.00000000000E+00 0.  1.
<mgrwt>
<rscale>  0 0.18445477E+04</rscale>
<asrwt>0</asrwt>
<pdfrwt beam="1">  1        3 0.11279196E+00 0.18445477E+04</pdfrwt>
<pdfrwt beam="2">  1       -4 0.17849044E+00 0.18445477E+04</pdfrwt>
<totfact> 0.26060627E-01</totfact>
</mgrwt>
</event>
<event>
12    4  0.4183215E-008  0.1601573E+04  0.7818608E-02  0.8819582E-01
         -2   -1    0    0    0  501 -0.00000000000E+00  0.00000000000E+00  0.40705675047E+03  0.40705675047E+03  0.00000000000E+00 0.  1.
          1   -1    0    0  501    0  0.00000000000E+00 -0.00000000000E+00 -0.15753554777E+04  0.15753554777E+04  0.00000000000E+00 0. -1.
        -24    2    1    2    0    0  0.35973250961E+03 -0.88875628519E+02 -0.89093297706E+03  0.96831479005E+03  0.81028434589E+02 0.  0.
        254    2    1    2    0    0 -0.35973250961E+03  0.88875628519E+02 -0.27736575015E+03  0.10140974381E+04  0.90230565707E+03 0.  0.
         23    2    4    4    0    0 -0.19517515846E+03  0.47645961059E+03 -0.44981929634E+02  0.52487076252E+03  0.91426693823E+02 0.  0.
         23    2    4    4    0    0 -0.16455735114E+03 -0.38758398208E+03 -0.23238382052E+03  0.48922667558E+03  0.89666242706E+02 0.  0.
          3    1    3    3  502    0  0.17484488415E+03 -0.82124482463E+02 -0.41781205516E+03  0.46030650394E+03  0.00000000000E+00 0. -1.
         -4    1    3    3    0  502  0.18488762546E+03 -0.67511460560E+01 -0.47312092190E+03  0.50800828612E+03  0.00000000000E+00 0.  1.
         11    1    5    5    0    0 -0.98435859212E+02  0.30571194037E+03 -0.64746162172E+02  0.32763008772E+03  0.00000000000E+00 0. -1.
        -11    1    5    5    0    0 -0.96739299252E+02  0.17074767023E+03  0.19764232538E+02  0.19724067480E+03  0.00000000000E+00 0.  1.
          3    1    6    6  503    0 -0.11949043407E+03 -0.23034681226E+03 -0.97466597565E+02  0.27719551835E+03  0.00000000000E+00 0. -1.
         -3    1    6    6    0  503 -0.45066917077E+02 -0.15723716982E+03 -0.13491722295E+03  0.21203115723E+03  0.00000000000E+00 0.  1.
<mgrwt>
<rscale>  0 0.16015731E+04</rscale>
<asrwt>0</asrwt>
<pdfrwt beam="1">  1        1 0.24236238E+00 0.16015731E+04</pdfrwt>
<pdfrwt beam="2">  1       -2 0.62624116E-01 0.16015731E+04</pdfrwt>
<totfact> 0.11551587E+01</totfact>
</mgrwt>
</event>
<event>
12    4  0.4183215E-008  0.1646934E+04  0.7818608E-02  0.8792222E-01
         -2   -1    0    0    0  501 -0.00000000000E+00  0.00000000000E+00  0.45218811936E+03  0.45218811936E+03  0.00000000000E+00 0.  1.
          1   -1    0    0  501    0  0.00000000000E+00 -0.00000000000E+00 -0.14995928660E+04  0.14995928660E+04  0.00000000000E+00 0. -1.
        -24    2    1    2    0    0  0.26522112867E+03 -0.29632134817E+03  0.12389698488E+03  0.42414281583E+03  0.79987979593E+02 0.  0.
        254    2    1    2    0    0 -0.26522112867E+03  0.29632134817E+03 -0.11713017315E+04  0.15276381695E+04  0.89642737701E+03 0.  0.
         23    2    4    4    0    0  0.17257045663E+02  0.35566632190E+03 -0.56795783449E+02  0.37219189241E+03  0.92220960732E+02 0.  0.
         23    2    4    4    0    0 -0.28247817433E+03 -0.59344973723E+02 -0.11145059480E+04  0.11554462771E+04  0.98065519722E+02 0.  0.
          3    1    3    3  502    0 -0.47586435914E+00 -0.27413070664E+02  0.51108693730E+01  0.27889494006E+02  0.00000000000E+00 0. -1.
         -4    1    3    3    0  502  0.26569699303E+03 -0.26890827751E+03  0.11878611551E+03  0.39625332182E+03  0.00000000000E+00 0.  1.
         11    1    5    5    0    0  0.40111068189E+02  0.22155044166E+03 -0.69283002295E+02  0.23557086067E+03  0.00000000000E+00 0.  1.
        -11    1    5    5    0    0 -0.22854022526E+02  0.13411588024E+03  0.12487218846E+02  0.13662103174E+03  0.00000000000E+00 0. -1.
          4    1    6    6  503    0 -0.26225907274E+03 -0.38936821637E+02 -0.10708617859E+04  0.11031957495E+04  0.00000000000E+00 0. -1.
         -4    1    6    6    0  503 -0.20219101592E+02 -0.20408152086E+02 -0.43644162162E+02  0.52250527573E+02  0.00000000000E+00 0.  1.
<mgrwt>
<rscale>  0 0.16469342E+04</rscale>
<asrwt>0</asrwt>
<pdfrwt beam="1">  1        1 0.23070659E+00 0.16469342E+04</pdfrwt>
<pdfrwt beam="2">  1       -2 0.69567403E-01 0.16469342E+04</pdfrwt>
<totfact> 0.10345104E+01</totfact>
</mgrwt>
</event>
<event>
12    4  0.4183215E-008  0.2068235E+04  0.7818608E-02  0.8575367E-01
         -2   -1    0    0    0  501 -0.00000000000E+00  0.00000000000E+00  0.99059845776E+03  0.99059845776E+03  0.00000000000E+00 0.  1.
          1   -1    0    0  501    0  0.00000000000E+00 -0.00000000000E+00 -0.10795486038E+04  0.10795486038E+04  0.00000000000E+00 0. -1.
        -24    2    1    2    0    0 -0.19196444885E+03  0.74073084341E+03 -0.37618503104E+03  0.85691583750E+03  0.85188279542E+02 0.  0.
        254    2    1    2    0    0  0.19196444885E+03 -0.74073084341E+03  0.28723488496E+03  0.12132312241E+04  0.89660113316E+03 0.  0.
         23    2    4    4    0    0  0.10056719479E+03 -0.31168696658E+02  0.45202914375E+03  0.47326962392E+03  0.92566418340E+02 0.  0.
         23    2    4    4    0    0  0.91397254058E+02 -0.70956214675E+03 -0.16479425879E+03  0.73996160018E+03  0.92488506655E+02 0.  0.
          1    1    3    3  502    0 -0.17519700789E+03  0.63975449828E+03 -0.35520198464E+03  0.75242824211E+03  0.00000000000E+00 0. -1.
         -2    1    3    3    0  502 -0.16767440964E+02  0.10097634513E+03 -0.20983046407E+02  0.10448759539E+03  0.00000000000E+00 0.  1.
         11    1    5    5    0    0  0.11229560314E+03 -0.41476328342E+02  0.34660672536E+03  0.36669716438E+03  0.00000000000E+00 0.  1.
        -11    1    5    5    0    0 -0.11728408349E+02  0.10307631684E+02  0.10542241839E+03  0.10657245954E+03  0.00000000000E+00 0. -1.
          4    1    6    6  503    0  0.86367189561E+02 -0.65815385330E+03 -0.17678506428E+03  0.68693430909E+03  0.00000000000E+00 0.  1.
         -4    1    6    6    0  503  0.50300644971E+01 -0.51408293447E+02  0.11990805498E+02  0.53027291091E+02  0.00000000000E+00 0. -1.
<mgrwt>
<rscale>  0 0.20682352E+04</rscale>
<asrwt>0</asrwt>
<pdfrwt beam="1">  1        1 0.16608440E+00 0.20682352E+04</pdfrwt>
<pdfrwt beam="2">  1       -2 0.15239976E+00 0.20682352E+04</pdfrwt>
<totfact> 0.30517090E+00</totfact>
</mgrwt>
</event>
<event>
12    4  0.4183215E-008  0.2596484E+04  0.7818608E-02  0.8369397E-01
         -4   -1    0    0    0  501 -0.00000000000E+00  0.00000000000E+00  0.19788848100E+04  0.19788848100E+04  0.00000000000E+00 0.  1.
          3   -1    0    0  501    0  0.00000000000E+00 -0.00000000000E+00 -0.85170794635E+03  0.85170794635E+03  0.00000000000E+00 0. -1.
        -24    2    1    2    0    0 -0.44447437416E+03  0.73337196629E+03 -0.32599638807E+03  0.92097254783E+03  0.80776720659E+02 0.  0.
        254    2    1    2    0    0  0.44447437416E+03 -0.73337196629E+03  0.14531732517E+04  0.19096202085E+04  0.89417276356E+03 0.  0.
         23    2    4    4    0    0 -0.12812822649E+03  0.11046971599E+03  0.11535296864E+03  0.22471899545E+03  0.92584658385E+02 0.  0.
         23    2    4    4    0    0  0.57260260065E+03 -0.84384168227E+03  0.13378202831E+04  0.16849012131E+04  0.95846048419E+02 0.  0.
          3    1    3    3  502    0 -0.38700955124E+02  0.48588969850E+02 -0.37236673394E+01  0.62229555816E+02  0.00000000000E+00 0. -1.
         -4    1    3    3    0  502 -0.40577341903E+03  0.68478299644E+03 -0.32227272073E+03  0.85874299201E+03  0.00000000000E+00 0.  1.
         11    1    5    5    0    0  0.11907334155E+02  0.98922739820E+01  0.26668203318E+02  0.30835608627E+02  0.00000000000E+00 0. -1.
        -11    1    5    5    0    0 -0.14003556065E+03  0.10057744200E+03  0.88684765325E+02  0.19388338683E+03  0.00000000000E+00 0.  1.
          2    1    6    6  503    0  0.43971376043E+03 -0.66763506970E+03  0.98287255026E+03  0.12669345790E+04  0.00000000000E+00 0. -1.
         -2    1    6    6    0  503  0.13288884023E+03 -0.17620661257E+03  0.35494773284E+03  0.41796663409E+03  0.00000000000E+00 0.  1.
<mgrwt>
<rscale>  0 0.25964837E+04</rscale>
<asrwt>0</asrwt>
<pdfrwt beam="1">  1        3 0.13103199E+00 0.25964837E+04</pdfrwt>
<pdfrwt beam="2">  1       -4 0.30444382E+00 0.25964837E+04</pdfrwt>
<totfact> 0.26584430E-02</totfact>
</mgrwt>
</event>
<event>
12    4  0.4183215E-008  0.1792614E+04  0.7818608E-02  0.8710237E-01
         -2   -1    0    0    0  501 -0.00000000000E+00  0.00000000000E+00  0.93921079086E+03  0.93921079086E+03  0.00000000000E+00 0.  1.
          1   -1    0    0  501    0  0.00000000000E+00 -0.00000000000E+00 -0.85536278477E+03  0.85536278477E+03  0.00000000000E+00 0. -1.
        -24    2    1    2    0    0 -0.10199925930E+03 -0.53271071942E+03 -0.35434482158E+03  0.65264230425E+03  0.78722075871E+02 0.  0.
        254    2    1    2    0    0  0.10199925930E+03  0.53271071942E+03  0.43819282767E+03  0.11419312714E+04  0.90432821190E+03 0.  0.
         23    2    4    4    0    0 -0.26679804452E+03 -0.42244180086E+02 -0.60322426332E+02  0.29160389098E+03  0.91805592453E+02 0.  0.
         23    2    4    4    0    0  0.36879730383E+03  0.57495489951E+03  0.49851525400E+03  0.85032738039E+03  0.89188606881E+02 0.  0.
          3    1    3    3  502    0 -0.70448473415E+02 -0.46325441844E+03 -0.27864176912E+03  0.54516867033E+03  0.00000000000E+00 0. -1.
         -4    1    3    3    0  502 -0.31550785890E+02 -0.69456300986E+02 -0.75703052459E+02  0.10747363392E+03  0.00000000000E+00 0.  1.
         11    1    5    5    0    0 -0.18184466421E+03 -0.46460961506E+02 -0.80442467358E+02  0.20419866160E+03  0.00000000000E+00 0. -1.
        -11    1    5    5    0    0 -0.84953380316E+02  0.42167814202E+01  0.20120041026E+02  0.87405229383E+02  0.00000000000E+00 0.  1.
          3    1    6    6  503    0  0.24829987531E+03  0.38589449194E+03  0.38520664202E+03  0.59912564963E+03  0.00000000000E+00 0. -1.
         -3    1    6    6    0  503  0.12049742851E+03  0.18906040757E+03  0.11330861197E+03  0.25120173076E+03  0.00000000000E+00 0.  1.
<mgrwt>
<rscale>  0 0.17926137E+04</rscale>
<asrwt>0</asrwt>
<pdfrwt beam="1">  1        1 0.13159427E+00 0.17926137E+04</pdfrwt>
<pdfrwt beam="2">  1       -2 0.14449397E+00 0.17926137E+04</pdfrwt>
<totfact> 0.54212126E+00</totfact>
</mgrwt>
</event>
<event>
12    4  0.4183215E-008  0.1172349E+04  0.7818608E-02  0.9137410E-01
          1   -1    0    0  501    0  0.00000000000E+00  0.00000000000E+00  0.12403384206E+04  0.12403384206E+04  0.00000000000E+00 0. -1.
         -2   -1    0    0    0  501 -0.00000000000E+00 -0.00000000000E+00 -0.27702156637E+03  0.27702156637E+03  0.00000000000E+00 0.  1.
        -24    2    1    2    0    0 -0.13886895270E+03  0.15833525086E+03  0.65852297717E+02  0.23469703296E+03  0.79947072996E+02 0.  0.
        254    2    1    2    0    0  0.13886895270E+03 -0.15833525086E+03  0.89746455651E+03  0.12826629540E+04  0.89186713454E+03 0.  0.
         23    2    4    4    0    0  0.22106480257E+03  0.29861261680E+02  0.10048699282E+04  0.10332431030E+04  0.89813113707E+02 0.  0.
         23    2    4    4    0    0 -0.82195849868E+02 -0.18819651254E+03 -0.10740537166E+03  0.24941985103E+03  0.92196871760E+02 0.  0.
          3    1    3    3  502    0 -0.74163913561E+02  0.90806816160E+02  0.77361611653E+02  0.14046701710E+03  0.00000000000E+00 0. -1.
         -4    1    3    3    0  502 -0.64705039139E+02  0.67528434696E+02 -0.11509313936E+02  0.94230015864E+02  0.00000000000E+00 0.  1.
         11    1    5    5    0    0  0.77003131133E+02  0.41780199607E+02  0.25673746098E+03  0.27127327762E+03  0.00000000000E+00 0.  1.
        -11    1    5    5    0    0  0.14406167143E+03 -0.11918937927E+02  0.74813246719E+03  0.76196982534E+03  0.00000000000E+00 0. -1.
          1    1    6    6  503    0  0.76416266181E+01 -0.24265346426E+02  0.11452591538E+02  0.27899163921E+02  0.00000000000E+00 0.  1.
         -1    1    6    6    0  503 -0.89837476487E+02 -0.16393116611E+03 -0.11885796320E+03  0.22152068711E+03  0.00000000000E+00 0. -1.
<mgrwt>
<rscale>  0 0.11723489E+04</rscale>
<asrwt>0</asrwt>
<pdfrwt beam="1">  1        1 0.19082129E+00 0.11723489E+04</pdfrwt>
<pdfrwt beam="2">  1       -2 0.42618703E-01 0.11723489E+04</pdfrwt>
<totfact> 0.45320523E+01</totfact>
</mgrwt>
</event>
<event>
12    4  0.4183215E-008  0.1519007E+04  0.7818608E-02  0.8871911E-01
          1   -1    0    0  501    0  0.00000000000E+00  0.00000000000E+00  0.69633074621E+03  0.69633074621E+03  0.00000000000E+00 0. -1.
         -2   -1    0    0    0  501 -0.00000000000E+00 -0.00000000000E+00 -0.82840778764E+03  0.82840778764E+03  0.00000000000E+00 0.  1.
        -24    2    1    2    0    0  0.39796274306E+03  0.29910248725E+03 -0.26274573590E+02  0.50447903666E+03  0.77279379274E+02 0.  0.
        254    2    1    2    0    0 -0.39796274306E+03 -0.29910248725E+03 -0.10580246784E+03  0.10202594972E+04  0.88425032466E+03 0.  0.
         23    2    4    4    0    0 -0.14612751557E+03  0.29434046618E+03  0.63757699266E+02  0.34654826372E+03  0.89672147471E+02 0.  0.
         23    2    4    4    0    0 -0.25183522749E+03 -0.59344295343E+03 -0.16956016711E+03  0.67371123348E+03  0.97676276868E+02 0.  0.
          3    1    3    3  502    0  0.33218679510E+03  0.22587879521E+03  0.32385377896E+01  0.40172102893E+03  0.00000000000E+00 0. -1.
         -4    1    3    3    0  502  0.65775947967E+02  0.73223692046E+02 -0.29513111380E+02  0.10275800772E+03  0.00000000000E+00 0.  1.
         11    1    5    5    0    0 -0.12563495871E+02  0.10642738019E+03  0.41540879739E+02  0.11493595335E+03  0.00000000000E+00 0.  1.
        -11    1    5    5    0    0 -0.13356401970E+03  0.18791308599E+03  0.22216819527E+02  0.23161231037E+03  0.00000000000E+00 0. -1.
          3    1    6    6  503    0 -0.20506559930E+03 -0.54671804264E+03 -0.13586808706E+03  0.59951034624E+03  0.00000000000E+00 0. -1.
         -3    1    6    6    0  503 -0.46769628192E+02 -0.46724910793E+02 -0.33692080044E+02  0.74200887242E+02  0.00000000000E+00 0.  1.
<mgrwt>
<rscale>  0 0.15190073E+04</rscale>
<asrwt>0</asrwt>
<pdfrwt beam="1">  1        1 0.10712781E+00 0.15190073E+04</pdfrwt>
<pdfrwt beam="2">  1       -2 0.12744735E+00 0.15190073E+04</pdfrwt>
<totfact> 0.10602280E+01</totfact>
</mgrwt>
</event>
<event>
12    4  0.4183215E-008  0.1477657E+04  0.7818608E-02  0.8899448E-01
          1   -1    0    0  501    0  0.00000000000E+00  0.00000000000E+00  0.10930602007E+04  0.10930602007E+04  0.00000000000E+00 0. -1.
         -2   -1    0    0    0  501 -0.00000000000E+00 -0.00000000000E+00 -0.49939403666E+03  0.49939403666E+03  0.00000000000E+00 0.  1.
        -24    2    1    2    0    0  0.26905891734E+03  0.29629579960E+03 -0.39815826310E+02  0.41024456686E+03  0.80817094476E+02 0.  0.
        254    2    1    2    0    0 -0.26905891734E+03 -0.29629579960E+03  0.63348199037E+03  0.11822096705E+04  0.91440492731E+03 0.  0.
         23    2    4    4    0    0  0.31366065491E+03  0.20850013676E+02  0.18336705798E+03  0.37518000333E+03  0.91207606255E+02 0.  0.
         23    2    4    4    0    0 -0.58271957224E+03 -0.31714581327E+03  0.45011493238E+03  0.80702966719E+03  0.92465477981E+02 0.  0.
          3    1    3    3  502    0  0.47853438201E+02  0.51007104697E+02 -0.38718069421E+02  0.79942261520E+02  0.00000000000E+00 0. -1.
         -4    1    3    3    0  502  0.22120547913E+03  0.24528869490E+03 -0.10977568885E+01  0.33030230534E+03  0.00000000000E+00 0.  1.
         11    1    5    5    0    0  0.15115497391E+03  0.19676334140E+02  0.37893180871E+02  0.15706965786E+03  0.00000000000E+00 0.  1.
        -11    1    5    5    0    0  0.16250568099E+03  0.11736795357E+01  0.14547387711E+03  0.21811034547E+03  0.00000000000E+00 0. -1.
          1    1    6    6  503    0 -0.53101231631E+03 -0.30342930126E+03  0.43778991965E+03  0.75213259116E+03  0.00000000000E+00 0.  1.
         -1    1    6    6    0  503 -0.51707255929E+02 -0.13716512014E+02  0.12325012731E+02  0.54897076027E+02  0.00000000000E+00 0. -1.
<mgrwt>
<rscale>  0 0.14776573E+04</rscale>
<asrwt>0</asrwt>
<pdfrwt beam="1">  1        1 0.16816311E+00 0.14776573E+04</pdfrwt>
<pdfrwt beam="2">  1       -2 0.76829852E-01 0.14776573E+04</pdfrwt>
<totfact> 0.16503814E+01</totfact>
</mgrwt>
</event>
<event>
12    4  0.4183215E-008  0.1524493E+04  0.7818608E-02  0.8868327E-01
         -2   -1    0    0    0  501 -0.00000000000E+00  0.00000000000E+00  0.31221441674E+03  0.31221441674E+03  0.00000000000E+00 0.  1.
          1   -1    0    0  501    0  0.00000000000E+00 -0.00000000000E+00 -0.18609646641E+04  0.18609646641E+04  0.00000000000E+00 0. -1.
        -24    2    1    2    0    0  0.31644488652E+03  0.32847741318E+03 -0.75176447433E+03  0.88305910246E+03  0.81294381110E+02 0.  0.
        254    2    1    2    0    0 -0.31644488652E+03 -0.32847741318E+03 -0.79698577305E+03  0.12901199784E+04  0.90619449295E+03 0.  0.
         23    2    4    4    0    0 -0.15506192149E+03  0.10932892553E+03 -0.78806128006E+03  0.81562861620E+03  0.90622541226E+02 0.  0.
         23    2    4    4    0    0 -0.16138296503E+03 -0.43780633871E+03 -0.89244929916E+01  0.47449136220E+03  0.85694542531E+02 0.  0.
          1    1    3    3  502    0  0.28614748850E+03  0.31236156607E+03 -0.65175161982E+03  0.77732252448E+03  0.00000000000E+00 0. -1.
         -2    1    3    3    0  502  0.30297398022E+02  0.16115847107E+02 -0.10001285451E+03  0.10573657798E+03  0.00000000000E+00 0.  1.
         11    1    5    5    0    0 -0.13096781073E+03  0.40178629844E+02 -0.52113035920E+03  0.53883554172E+03  0.00000000000E+00 0. -1.
        -11    1    5    5    0    0 -0.24094110760E+02  0.69150295683E+02 -0.26693092086E+03  0.27679307448E+03  0.00000000000E+00 0.  1.
          2    1    6    6  503    0 -0.14578947822E+02 -0.10901456340E+03 -0.29355270532E+02  0.11383519957E+03  0.00000000000E+00 0. -1.
         -2    1    6    6    0  503 -0.14680401720E+03 -0.32879177530E+03  0.20430777540E+02  0.36065616263E+03  0.00000000000E+00 0.  1.
<mgrwt>
<rscale>  0 0.15244934E+04</rscale>
<asrwt>0</asrwt>
<pdfrwt beam="1">  1        1 0.28630226E+00 0.15244934E+04</pdfrwt>
<pdfrwt beam="2">  1       -2 0.48032987E-01 0.15244934E+04</pdfrwt>
<totfact> 0.12891358E+01</totfact>
</mgrwt>
</event>
<event>
12    4  0.4183215E-008  0.2128795E+04  0.7818608E-02  0.8548664E-01
         -2   -1    0    0    0  501 -0.00000000000E+00  0.00000000000E+00  0.16319677137E+04  0.16319677137E+04  0.00000000000E+00 0.  1.
          1   -1    0    0  501    0  0.00000000000E+00 -0.00000000000E+00 -0.69421868004E+03  0.69421868004E+03  0.00000000000E+00 0. -1.
        -24    2    1    2    0    0 -0.83803912020E+03 -0.15493753255E+03  0.59885602080E+03  0.10447484621E+04  0.80966717520E+02 0.  0.
        254    2    1    2    0    0  0.83803912020E+03  0.15493753255E+03  0.33889301287E+03  0.12814379317E+04  0.89494105539E+03 0.  0.
         23    2    4    4    0    0  0.11134582667E+03 -0.28031959918E+03 -0.91234073866E+02  0.32730598367E+03  0.88479262592E+02 0.  0.
         23    2    4    4    0    0  0.72669329353E+03  0.43525713173E+03  0.43012708673E+03  0.95413194801E+03  0.88467790168E+02 0.  0.
          1    1    3    3  502    0 -0.71091358609E+02 -0.36642019142E+02  0.60226887762E+02  0.10011941293E+03  0.00000000000E+00 0. -1.
         -2    1    3    3    0  502 -0.76694776159E+03 -0.11829551340E+03  0.53862913304E+03  0.94462904913E+03  0.00000000000E+00 0.  1.
         11    1    5    5    0    0  0.12323381317E+03 -0.23556147886E+03 -0.91009166058E+02  0.28099546498E+03  0.00000000000E+00 0. -1.
        -11    1    5    5    0    0 -0.11887986502E+02 -0.44758120327E+02 -0.22490780849E+00  0.46310518695E+02  0.00000000000E+00 0.  1.
          1    1    6    6  503    0  0.13572975815E+03  0.92862257319E+02  0.12247376841E+03  0.20505070112E+03  0.00000000000E+00 0. -1.
         -1    1    6    6    0  503  0.59096353538E+03  0.34239487441E+03  0.30765331832E+03  0.74908124689E+03  0.00000000000E+00 0.  1.
<mgrwt>
<rscale>  0 0.21287954E+04</rscale>
<asrwt>0</asrwt>
<pdfrwt beam="1">  1        1 0.10680287E+00 0.21287954E+04</pdfrwt>
<pdfrwt beam="2">  1       -2 0.25107196E+00 0.21287954E+04</pdfrwt>
<totfact> 0.14032639E+00</totfact>
</mgrwt>
</event>
<event>
12    4  0.4183215E-008  0.1238036E+04  0.7818608E-02  0.9080200E-01
         -2   -1    0    0    0  501 -0.00000000000E+00  0.00000000000E+00  0.13327499947E+03  0.13327499947E+03  0.00000000000E+00 0.  1.
          1   -1    0    0  501    0  0.00000000000E+00 -0.00000000000E+00 -0.28751343066E+04  0.28751343066E+04  0.00000000000E+00 0. -1.
        -24    2    1    2    0    0  0.27709977707E+03  0.49140093936E+02 -0.61980530855E+03  0.68546987360E+03  0.80692576045E+02 0.  0.
        254    2    1    2    0    0 -0.27709977707E+03 -0.49140093936E+02 -0.21220539986E+04  0.23229394325E+04  0.90207283450E+03 0.  0.
         23    2    4    4    0    0 -0.32157058069E+03 -0.32508908227E+03 -0.18946455709E+04  0.19512161924E+04  0.92044773976E+02 0.  0.
         23    2    4    4    0    0  0.44470803625E+02  0.27594898834E+03 -0.22740842770E+03  0.37172324008E+03  0.91313075114E+02 0.  0.
          3    1    3    3  502    0  0.67284816847E+01  0.71209187071E+00 -0.75341424969E+02  0.75644628738E+02  0.00000000000E+00 0. -1.
         -4    1    3    3    0  502  0.27037129538E+03  0.48428002065E+02 -0.54446388358E+03  0.60982524486E+03  0.00000000000E+00 0.  1.
         11    1    5    5    0    0 -0.31681865103E+03 -0.29123433386E+03 -0.17951731039E+04  0.18460330354E+04  0.00000000000E+00 0. -1.
        -11    1    5    5    0    0 -0.47519296654E+01 -0.33854748415E+02 -0.99472466994E+02  0.10518315700E+03  0.00000000000E+00 0.  1.
          1    1    6    6  503    0  0.54003607318E+02  0.23438745898E+03 -0.22444044303E+03  0.32897930482E+03  0.00000000000E+00 0. -1.
         -1    1    6    6    0  503 -0.95328036931E+01  0.41561529358E+02 -0.29679846718E+01  0.42743935264E+02  0.00000000000E+00 0.  1.
<mgrwt>
<rscale>  0 0.12380364E+04</rscale>
<asrwt>0</asrwt>
<pdfrwt beam="1">  1        1 0.44232834E+00 0.12380364E+04</pdfrwt>
<pdfrwt beam="2">  1       -2 0.20503847E-01 0.12380364E+04</pdfrwt>
<totfact> 0.13185044E+01</totfact>
</mgrwt>
</event>
<event>
12    4  0.4183215E-008  0.1956767E+04  0.7818608E-02  0.8627105E-01
          1   -1    0    0  501    0  0.00000000000E+00  0.00000000000E+00  0.95627604064E+03  0.95627604064E+03  0.00000000000E+00 0. -1.
         -2   -1    0    0    0  501 -0.00000000000E+00 -0.00000000000E+00 -0.10010016344E+04  0.10010016344E+04  0.00000000000E+00 0.  1.
        -24    2    1    2    0    0 -0.47357866953E+03 -0.29485408511E+03  0.51085997178E+03  0.76068826591E+03  0.80330812159E+02 0.  0.
        254    2    1    2    0    0  0.47357866953E+03  0.29485408511E+03 -0.55558556558E+03  0.11965894092E+04  0.90107447291E+03 0.  0.
         23    2    4    4    0    0 -0.12543173959E+03 -0.18065985790E+03 -0.30149593523E+03  0.38405047945E+03  0.90685534963E+02 0.  0.
         23    2    4    4    0    0  0.59901040912E+03  0.47551394302E+03 -0.25408963035E+03  0.81253892973E+03  0.10359050071E+03 0.  0.
          1    1    3    3  502    0 -0.26064911362E+03 -0.14269850183E+03  0.32058823025E+03  0.43712428007E+03  0.00000000000E+00 0. -1.
         -2    1    3    3    0  502 -0.21292955592E+03 -0.15215558328E+03  0.19027174153E+03  0.32356398584E+03  0.00000000000E+00 0.  1.
         11    1    5    5    0    0 -0.10527123031E+03 -0.14441095942E+03 -0.17184355152E+03  0.24792491471E+03  0.00000000000E+00 0. -1.
        -11    1    5    5    0    0 -0.20160509276E+02 -0.36248898477E+02 -0.12965238370E+03  0.13612556474E+03  0.00000000000E+00 0.  1.
          1    1    6    6  503    0  0.39137313319E+03  0.25203812769E+03 -0.17587718200E+03  0.49762328155E+03  0.00000000000E+00 0. -1.
         -1    1    6    6    0  503  0.20763727593E+03  0.22347581533E+03 -0.78212448347E+02  0.31491564818E+03  0.00000000000E+00 0.  1.
<mgrwt>
<rscale>  0 0.19567666E+04</rscale>
<asrwt>0</asrwt>
<pdfrwt beam="1">  1        1 0.14711939E+00 0.19567666E+04</pdfrwt>
<pdfrwt beam="2">  1       -2 0.15400025E+00 0.19567666E+04</pdfrwt>
<totfact> 0.37344680E+00</totfact>
</mgrwt>
</event>
<event>
12    4  0.4403913E-008  0.1959388E+04  0.7818608E-02  0.8625847E-01
         -2   -1    0    0    0  501 -0.00000000000E+00  0.00000000000E+00  0.10614300755E+04  0.10614300755E+04  0.00000000000E+00 0.  1.
          1   -1    0    0  501    0  0.00000000000E+00 -0.00000000000E+00 -0.90425235796E+03  0.90425235796E+03  0.00000000000E+00 0. -1.
        -24    2    1    2    0    0 -0.43537571558E+03 -0.33177567096E+03 -0.48902547441E+03  0.73832285591E+03  0.79671923454E+02 0.  0.
        254    2    1    2    0    0  0.43537571558E+03  0.33177567096E+03  0.64620319194E+03  0.12273595775E+04  0.88837258948E+03 0.  0.
         23    2    4    4    0    0 -0.94749578749E+02  0.30882427454E+03  0.59940514391E+03  0.68682120988E+03  0.89927373883E+02 0.  0.
         23    2    4    4    0    0  0.53012529433E+03  0.22951396415E+02  0.46798048025E+02  0.54053836765E+03  0.91826332416E+02 0.  0.
          1    1    3    3  502    0 -0.43026981401E+03 -0.32445458738E+03 -0.46186674838E+03  0.70973501068E+03  0.00000000000E+00 0. -1.
         -2    1    3    3    0  502 -0.51059015635E+01 -0.73210835749E+01 -0.27158726030E+02  0.28587845233E+02  0.00000000000E+00 0.  1.
         11    1    5    5    0    0 -0.84521676879E+02  0.19899966445E+03  0.46607520031E+03  0.51378095786E+03  0.00000000000E+00 0. -1.
        -11    1    5    5    0    0 -0.10227901870E+02  0.10982461010E+03  0.13332994361E+03  0.17304025203E+03  0.00000000000E+00 0.  1.
          1    1    6    6  503    0  0.15249170279E+03  0.47715705669E+02  0.21885532039E+02  0.16127456247E+03  0.00000000000E+00 0. -1.
         -1    1    6    6    0  503  0.37763359154E+03 -0.24764309254E+02  0.24912515986E+02  0.37926380519E+03  0.00000000000E+00 0.  1.
<mgrwt>
<rscale>  0 0.19593883E+04</rscale>
<asrwt>0</asrwt>
<pdfrwt beam="1">  1        1 0.13911575E+00 0.19593883E+04</pdfrwt>
<pdfrwt beam="2">  1       -2 0.16329693E+00 0.19593883E+04</pdfrwt>
<totfact> 0.35072546E+00</totfact>
</mgrwt>
</event>
<event>
12    4  0.4183215E-008  0.2139749E+04  0.7818608E-02  0.8543933E-01
          1   -1    0    0  501    0  0.00000000000E+00  0.00000000000E+00  0.17509517205E+04  0.17509517205E+04  0.00000000000E+00 0. -1.
         -2   -1    0    0    0  501 -0.00000000000E+00 -0.00000000000E+00 -0.65371940297E+03  0.65371940297E+03  0.00000000000E+00 0.  1.
        -24    2    1    2    0    0  0.58627349151E+03 -0.20015151466E+02 -0.28443910704E+03  0.65684938713E+03  0.80176671328E+02 0.  0.
        254    2    1    2    0    0 -0.58627349151E+03  0.20015151466E+02  0.13816714246E+04  0.17478217364E+04  0.89540364272E+03 0.  0.
         23    2    4    4    0    0 -0.37113162138E+03 -0.87015591646E+02  0.14333138071E+04  0.14859539111E+04  0.91433926039E+02 0.  0.
         23    2    4    4    0    0 -0.21514187013E+03  0.10703074311E+03 -0.51642382485E+02  0.26186782523E+03  0.90367128820E+02 0.  0.
          1    1    3    3  502    0  0.22738006057E+03 -0.26200039325E+02 -0.72935923851E+02  0.24022444296E+03  0.00000000000E+00 0. -1.
         -2    1    3    3    0  502  0.35889343094E+03  0.61848878593E+01 -0.21150318319E+03  0.41662494418E+03  0.00000000000E+00 0.  1.
         11    1    5    5    0    0 -0.19972653659E+03 -0.71244041373E+02  0.93514060490E+03  0.95888182472E+03  0.00000000000E+00 0. -1.
        -11    1    5    5    0    0 -0.17140508480E+03 -0.15771550273E+02  0.49817320218E+03  0.52707208640E+03  0.00000000000E+00 0.  1.
          4    1    6    6  503    0 -0.10516616227E+03  0.99794674927E+02 -0.43451551207E+02  0.15135037540E+03  0.00000000000E+00 0. -1.
         -4    1    6    6    0  503 -0.10997570786E+03  0.72360681848E+01 -0.81908312788E+01  0.11051744984E+03  0.00000000000E+00 0.  1.
<mgrwt>
<rscale>  0 0.21397487E+04</rscale>
<asrwt>0</asrwt>
<pdfrwt beam="1">  1        1 0.26937719E+00 0.21397487E+04</pdfrwt>
<pdfrwt beam="2">  1       -2 0.10057222E+00 0.21397487E+04</pdfrwt>
<totfact> 0.28853446E+00</totfact>
</mgrwt>
</event>
<event>
12    4  0.4183215E-008  0.1691692E+04  0.7818608E-02  0.8766117E-01
          1   -1    0    0  501    0  0.00000000000E+00  0.00000000000E+00  0.20501432927E+04  0.20501432927E+04  0.00000000000E+00 0. -1.
         -2   -1    0    0    0  501 -0.00000000000E+00 -0.00000000000E+00 -0.34897837886E+03  0.34897837886E+03  0.00000000000E+00 0.  1.
        -24    2    1    2    0    0 -0.26496695270E+03  0.14738650661E+03  0.12828460721E+04  0.13206669045E+04  0.80850228752E+02 0.  0.
        254    2    1    2    0    0  0.26496695270E+03 -0.14738650661E+03  0.41831884176E+03  0.10784547671E+04  0.94664870093E+03 0.  0.
         23    2    4    4    0    0 -0.34937268334E+02 -0.32820362538E+03 -0.17543224608E+03  0.38317952944E+03  0.84331763826E+02 0.  0.
         23    2    4    4    0    0  0.29990422103E+03  0.18081711876E+03  0.59375108784E+03  0.69527523767E+03  0.90718959319E+02 0.  0.
          1    1    3    3  502    0 -0.17398996990E+03  0.12111841586E+03  0.10053671167E+04  0.10274751674E+04  0.00000000000E+00 0. -1.
         -2    1    3    3    0  502 -0.90976982795E+02  0.26268090751E+02  0.27747895537E+03  0.29319173703E+03  0.00000000000E+00 0.  1.
         11    1    5    5    0    0  0.11154857777E+02 -0.15431795013E+03 -0.45501644829E+02  0.16127262714E+03  0.00000000000E+00 0. -1.
        -11    1    5    5    0    0 -0.46092126111E+02 -0.17388567525E+03 -0.12993060125E+03  0.22190690230E+03  0.00000000000E+00 0.  1.
          3    1    6    6  503    0  0.21163496877E+03  0.16479747439E+03  0.48562454273E+03  0.55477812148E+03  0.00000000000E+00 0. -1.
         -3    1    6    6    0  503  0.88269252266E+02  0.16019644373E+02  0.10812654510E+03  0.14049711619E+03  0.00000000000E+00 0.  1.
<mgrwt>
<rscale>  0 0.16916923E+04</rscale>
<asrwt>0</asrwt>
<pdfrwt beam="1">  1        1 0.31540665E+00 0.16916923E+04</pdfrwt>
<pdfrwt beam="2">  1       -2 0.53688983E-01 0.16916923E+04</pdfrwt>
<totfact> 0.75328911E+00</totfact>
</mgrwt>
</event>
<event>
12    4  0.4183215E-008  0.1797304E+04  0.7818608E-02  0.8707734E-01
         -2   -1    0    0    0  501 -0.00000000000E+00  0.00000000000E+00  0.93398455687E+03  0.93398455687E+03  0.00000000000E+00 0.  1.
          1   -1    0    0  501    0  0.00000000000E+00 -0.00000000000E+00 -0.86465637887E+03  0.86465637887E+03  0.00000000000E+00 0. -1.
        -24    2    1    2    0    0  0.30340497760E+03  0.26706394117E+03 -0.53074878621E+03  0.67197679836E+03  0.80503505375E+02 0.  0.
        254    2    1    2    0    0 -0.30340497760E+03 -0.26706394117E+03  0.60007696420E+03  0.11266641374E+04  0.86365617370E+03 0.  0.
         23    2    4    4    0    0 -0.33104419381E+03  0.25109434152E+03  0.29085163083E+03  0.51564973334E+03  0.93066372768E+02 0.  0.
         23    2    4    4    0    0  0.27639216210E+02 -0.51815828268E+03  0.30922533337E+03  0.61101440403E+03  0.92012841228E+02 0.  0.
          3    1    3    3  502    0  0.27546910308E+03  0.25453312143E+03 -0.51622321815E+03  0.63808835408E+03  0.00000000000E+00 0. -1.
         -4    1    3    3    0  502  0.27935874521E+02  0.12530819735E+02 -0.14525568051E+02  0.33888444280E+02  0.00000000000E+00 0.  1.
         11    1    5    5    0    0 -0.71856349037E+02  0.85519223099E+02  0.11950606861E+03  0.16358047821E+03  0.00000000000E+00 0.  1.
        -11    1    5    5    0    0 -0.25918784477E+03  0.16557511842E+03  0.17134556222E+03  0.35206925513E+03  0.00000000000E+00 0. -1.
          3    1    6    6  503    0  0.35341881345E+02 -0.40335331362E+03  0.19698140054E+03  0.45027171391E+03  0.00000000000E+00 0. -1.
         -3    1    6    6    0  503 -0.77026651354E+01 -0.11480496906E+03  0.11224393283E+03  0.16074269012E+03  0.00000000000E+00 0.  1.
<mgrwt>
<rscale>  0 0.17973043E+04</rscale>
<asrwt>0</asrwt>
<pdfrwt beam="1">  1        1 0.13302406E+00 0.17973043E+04</pdfrwt>
<pdfrwt beam="2">  1       -2 0.14368993E+00 0.17973043E+04</pdfrwt>
<totfact> 0.54012538E+00</totfact>
</mgrwt>
</event>
<event>
12    4  0.4183215E-008  0.1678955E+04  0.7818608E-02  0.8773459E-01
          1   -1    0    0  501    0  0.00000000000E+00  0.00000000000E+00  0.63515190920E+03  0.63515190920E+03  0.00000000000E+00 0. -1.
         -2   -1    0    0    0  501 -0.00000000000E+00 -0.00000000000E+00 -0.11095337196E+04  0.11095337196E+04  0.00000000000E+00 0.  1.
        -24    2    1    2    0    0 -0.28053836755E+03 -0.57533273202E+02  0.37795890697E+03  0.48078694294E+03  0.79317690003E+02 0.  0.
        254    2    1    2    0    0  0.28053836755E+03  0.57533273202E+02 -0.85234071739E+03  0.12638986859E+04  0.88822482316E+03 0.  0.
         23    2    4    4    0    0  0.37643413987E+03  0.39829844785E+03 -0.40850374920E+03  0.68929184886E+03  0.88902331582E+02 0.  0.
         23    2    4    4    0    0 -0.95895772326E+02 -0.34076517465E+03 -0.44383696818E+03  0.57460683703E+03  0.88684042693E+02 0.  0.
          1    1    3    3  502    0 -0.25841936866E+03 -0.74376013224E+02  0.34978939274E+03  0.44120854561E+03  0.00000000000E+00 0. -1.
         -2    1    3    3    0  502 -0.22118998883E+02  0.16842740022E+02  0.28169514228E+02  0.39578397326E+02  0.00000000000E+00 0.  1.
         11    1    5    5    0    0  0.11556350132E+03  0.13445233435E+03 -0.18451823549E+03  0.25588929692E+03  0.00000000000E+00 0.  1.
        -11    1    5    5    0    0  0.26087063856E+03  0.26384611351E+03 -0.22398551371E+03  0.43340255194E+03  0.00000000000E+00 0. -1.
          3    1    6    6  503    0 -0.73449313478E+02 -0.20179160560E+03 -0.32925635848E+03  0.39309592130E+03  0.00000000000E+00 0. -1.
         -3    1    6    6    0  503 -0.22446458848E+02 -0.13897356905E+03 -0.11458060970E+03  0.18151091573E+03  0.00000000000E+00 0.  1.
<mgrwt>
<rscale>  0 0.16789550E+04</rscale>
<asrwt>0</asrwt>
<pdfrwt beam="1">  1        1 0.97715679E-01 0.16789550E+04</pdfrwt>
<pdfrwt beam="2">  1       -2 0.17069749E+00 0.16789550E+04</pdfrwt>
<totfact> 0.55373649E+00</totfact>
</mgrwt>
</event>
<event>
12    4  0.4183215E-008  0.1304365E+04  0.7818608E-02  0.9026111E-01
         -2   -1    0    0    0  501 -0.00000000000E+00  0.00000000000E+00  0.45602470442E+03  0.45602470442E+03  0.00000000000E+00 0.  1.
          1   -1    0    0  501    0  0.00000000000E+00 -0.00000000000E+00 -0.93271694932E+03  0.93271694932E+03  0.00000000000E+00 0. -1.
        -24    2    1    2    0    0  0.31705304399E+03 -0.10329434390E+02 -0.32396781255E+02  0.32890348890E+03  0.80614041334E+02 0.  0.
        254    2    1    2    0    0 -0.31705304399E+03  0.10329434390E+02 -0.44429546364E+03  0.10598381648E+04  0.90842123859E+03 0.  0.
         23    2    4    4    0    0 -0.12703220910E+03  0.41803684607E+03 -0.39445000089E+02  0.44789283507E+03  0.90333254426E+02 0.  0.
         23    2    4    4    0    0 -0.19002083489E+03 -0.40770741168E+03 -0.40485046355E+03  0.61194532977E+03  0.90774101781E+02 0.  0.
          1    1    3    3  502    0  0.20626750333E+01  0.68607673533E+01  0.81478867955E+01  0.10849553733E+02  0.00000000000E+00 0. -1.
         -2    1    3    3    0  502  0.31499036895E+03 -0.17190201743E+02 -0.40544668050E+02  0.31805393517E+03  0.00000000000E+00 0.  1.
         11    1    5    5    0    0 -0.91378613093E+02  0.28008657101E+03 -0.68506925599E+02  0.30247601070E+03  0.00000000000E+00 0. -1.
        -11    1    5    5    0    0 -0.35653596007E+02  0.13795027506E+03  0.29061925510E+02  0.14541682437E+03  0.00000000000E+00 0.  1.
          3    1    6    6  503    0 -0.13972225168E+03 -0.25188636444E+03 -0.20479665192E+03  0.35342710258E+03  0.00000000000E+00 0. -1.
         -3    1    6    6    0  503 -0.50298583210E+02 -0.15582104724E+03 -0.20005381163E+03  0.25851822718E+03  0.00000000000E+00 0.  1.
<mgrwt>
<rscale>  0 0.13043649E+04</rscale>
<asrwt>0</asrwt>
<pdfrwt beam="1">  1        1 0.14349491E+00 0.13043649E+04</pdfrwt>
<pdfrwt beam="2">  1       -2 0.70157648E-01 0.13043649E+04</pdfrwt>
<totfact> 0.27257093E+01</totfact>
</mgrwt>
</event>
<event>
12    4  0.4183215E-008  0.2016724E+04  0.7818608E-02  0.8598841E-01
          1   -1    0    0  501    0  0.00000000000E+00  0.00000000000E+00  0.13474899400E+04  0.13474899400E+04  0.00000000000E+00 0. -1.
         -2   -1    0    0    0  501 -0.00000000000E+00 -0.00000000000E+00 -0.75458370508E+03  0.75458370508E+03  0.00000000000E+00 0.  1.
        -24    2    1    2    0    0  0.33759517932E+03 -0.35350768259E+03  0.90316114635E+03  0.10298407710E+04  0.77030972012E+02 0.  0.
        254    2    1    2    0    0 -0.33759517932E+03  0.35350768259E+03 -0.31025491146E+03  0.10722328740E+04  0.90248935688E+03 0.  0.
         23    2    4    4    0    0 -0.89659715102E+02  0.50718404685E+03  0.12763489971E+03  0.53828543997E+03  0.90476656475E+02 0.  0.
         23    2    4    4    0    0 -0.24793546422E+03 -0.15367636426E+03 -0.43788981117E+03  0.53394743405E+03  0.90906304758E+02 0.  0.
          1    1    3    3  502    0  0.15950659264E+03 -0.12311829137E+03  0.41728011796E+03  0.46338230826E+03  0.00000000000E+00 0. -1.
         -2    1    3    3    0  502  0.17808858669E+03 -0.23038939122E+03  0.48588102839E+03  0.56645846277E+03  0.00000000000E+00 0.  1.
         11    1    5    5    0    0 -0.63017718496E+02  0.27368411740E+03  0.25384654122E+02  0.28199044244E+03  0.00000000000E+00 0. -1.
        -11    1    5    5    0    0 -0.26641996606E+02  0.23349992945E+03  0.10225024559E+03  0.25629499753E+03  0.00000000000E+00 0.  1.
          2    1    6    6  503    0 -0.16581931217E+02 -0.48754647529E+02 -0.72627596687E+02  0.89032263249E+02  0.00000000000E+00 0. -1.
         -2    1    6    6    0  503 -0.23135353301E+03 -0.10492171674E+03 -0.36526221449E+03  0.44491517080E+03  0.00000000000E+00 0.  1.
<mgrwt>
<rscale>  0 0.20167240E+04</rscale>
<asrwt>0</asrwt>
<pdfrwt beam="1">  1        1 0.20730615E+00 0.20167240E+04</pdfrwt>
<pdfrwt beam="2">  1       -2 0.11608980E+00 0.20167240E+04</pdfrwt>
<totfact> 0.39191965E+00</totfact>
</mgrwt>
</event>
<event>
12    4  0.4183215E-008  0.2334037E+04  0.7818608E-02  0.8464620E-01
         -2   -1    0    0    0  501 -0.00000000000E+00  0.00000000000E+00  0.54538687544E+03  0.54538687544E+03  0.00000000000E+00 0.  1.
          1   -1    0    0  501    0  0.00000000000E+00 -0.00000000000E+00 -0.24971863829E+04  0.24971863829E+04  0.00000000000E+00 0. -1.
        -24    2    1    2    0    0  0.26940037214E+03  0.79235965016E+03 -0.15448124856E+04  0.17588347139E+04  0.81508032464E+02 0.  0.
        254    2    1    2    0    0 -0.26940037214E+03 -0.79235965016E+03 -0.40698702183E+03  0.12837385444E+04  0.88427136041E+03 0.  0.
         23    2    4    4    0    0  0.21924236788E+03 -0.27950360663E+03  0.13002449403E+03  0.38907280534E+03  0.91004378022E+02 0.  0.
         23    2    4    4    0    0 -0.48864274002E+03 -0.51285604353E+03 -0.53701151586E+03  0.89466573910E+03  0.10125397666E+03 0.  0.
          3    1    3    3  502    0  0.16343842543E+03  0.57978356097E+03 -0.11451002335E+04  0.12938762079E+04  0.00000000000E+00 0. -1.
         -4    1    3    3    0  502  0.10596194671E+03  0.21257608919E+03 -0.39971225210E+03  0.46495850602E+03  0.00000000000E+00 0.  1.
         11    1    5    5    0    0  0.96423961636E+02 -0.12792178466E+03  0.10696460753E+03  0.19262136598E+03  0.00000000000E+00 0.  1.
        -11    1    5    5    0    0  0.12281840624E+03 -0.15158182196E+03  0.23059886504E+02  0.19645143936E+03  0.00000000000E+00 0. -1.
          3    1    6    6  503    0 -0.36884112914E+03 -0.39730498026E+03 -0.46123651615E+03  0.71178237525E+03  0.00000000000E+00 0. -1.
         -3    1    6    6    0  503 -0.11980161088E+03 -0.11555106327E+03 -0.75774999717E+02  0.18288336385E+03  0.00000000000E+00 0.  1.
<mgrwt>
<rscale>  0 0.23340374E+04</rscale>
<asrwt>0</asrwt>
<pdfrwt beam="1">  1        1 0.38418253E+00 0.23340374E+04</pdfrwt>
<pdfrwt beam="2">  1       -2 0.83905671E-01 0.23340374E+04</pdfrwt>
<totfact> 0.13375691E+00</totfact>
</mgrwt>
</event>
<event>
12    4  0.4183215E-008  0.1586874E+04  0.7818608E-02  0.8828653E-01
          1   -1    0    0  501    0  0.00000000000E+00  0.00000000000E+00  0.12184082163E+04  0.12184082163E+04  0.00000000000E+00 0. -1.
         -2   -1    0    0    0  501 -0.00000000000E+00 -0.00000000000E+00 -0.51669231062E+03  0.51669231062E+03  0.00000000000E+00 0.  1.
        -24    2    1    2    0    0  0.32970880061E+03  0.41188733599E+03  0.15295974730E+03  0.55502157518E+03  0.79329653177E+02 0.  0.
        254    2    1    2    0    0 -0.32970880061E+03 -0.41188733599E+03  0.54875615837E+03  0.11800789517E+04  0.90171721743E+03 0.  0.
         23    2    4    4    0    0 -0.54391715559E+03 -0.44758441498E+03  0.16571472917E+03  0.73017000292E+03  0.97515029725E+02 0.  0.
         23    2    4    4    0    0  0.21420835498E+03  0.35697078991E+02  0.38304142920E+03  0.44990894881E+03  0.92400351419E+02 0.  0.
          3    1    3    3  502    0  0.71149618886E+01 -0.13953386409E+01  0.85631423915E+01  0.11220385921E+02  0.00000000000E+00 0. -1.
         -4    1    3    3    0  502  0.32259383872E+03  0.41328267463E+03  0.14439660491E+03  0.54380118926E+03  0.00000000000E+00 0.  1.
         11    1    5    5    0    0 -0.76713869238E+02 -0.43810075479E+02  0.51292808745E+02  0.10215328030E+03  0.00000000000E+00 0. -1.
        -11    1    5    5    0    0 -0.46720328635E+03 -0.40377433950E+03  0.11442192043E+03  0.62801672262E+03  0.00000000000E+00 0.  1.
          3    1    6    6  503    0  0.49939078544E+02 -0.13159944958E+02  0.16309338928E+03  0.17107468938E+03  0.00000000000E+00 0. -1.
         -3    1    6    6    0  503  0.16426927644E+03  0.48857023949E+02  0.21994803992E+03  0.27883425943E+03  0.00000000000E+00 0.  1.
<mgrwt>
<rscale>  0 0.15868739E+04</rscale>
<asrwt>0</asrwt>
<pdfrwt beam="1">  1        1 0.18744742E+00 0.15868739E+04</pdfrwt>
<pdfrwt beam="2">  1       -2 0.79491125E-01 0.15868739E+04</pdfrwt>
<totfact> 0.12239633E+01</totfact>
</mgrwt>
</event>
<event>
12    4  0.4183215E-008  0.1386568E+04  0.7818608E-02  0.8963599E-01
          1   -1    0    0  501    0  0.00000000000E+00  0.00000000000E+00  0.63753810887E+03  0.63753810887E+03  0.00000000000E+00 0. -1.
         -2   -1    0    0    0  501 -0.00000000000E+00 -0.00000000000E+00 -0.75390434366E+03  0.75390434366E+03  0.00000000000E+00 0.  1.
        -24    2    1    2    0    0  0.83120566249E+02  0.23362680806E+03  0.27374299757E+03  0.37802257346E+03  0.80469393860E+02 0.  0.
        254    2    1    2    0    0 -0.83120566249E+02 -0.23362680806E+03 -0.39010923236E+03  0.10134198791E+04  0.90185593315E+03 0.  0.
         23    2    4    4    0    0 -0.42044127755E+02 -0.37675780879E+03 -0.61546052067E+03  0.72833725931E+03  0.89271247506E+02 0.  0.
         23    2    4    4    0    0 -0.41076438495E+02  0.14313100073E+03  0.22535128831E+03  0.28508261976E+03  0.91187388272E+02 0.  0.
          1    1    3    3  502    0  0.50923466493E+02  0.21756316020E+03  0.22182145555E+03  0.31485184811E+03  0.00000000000E+00 0. -1.
         -2    1    3    3    0  502  0.32197099757E+02  0.16063647858E+02  0.51921542021E+02  0.63170725349E+02  0.00000000000E+00 0.  1.
         11    1    5    5    0    0 -0.13261450513E+02 -0.15304373277E+03 -0.17066083107E+03  0.22961569953E+03  0.00000000000E+00 0. -1.
        -11    1    5    5    0    0 -0.28782677242E+02 -0.22371407602E+03 -0.44479968960E+03  0.49872155978E+03  0.00000000000E+00 0.  1.
          3    1    6    6  503    0 -0.62320894133E+01  0.12816079211E+03  0.13088968430E+03  0.18329249038E+03  0.00000000000E+00 0. -1.
         -3    1    6    6    0  503 -0.34844349081E+02  0.14970208624E+02  0.94461604007E+02  0.10179012939E+03  0.00000000000E+00 0.  1.
<mgrwt>
<rscale>  0 0.13865681E+04</rscale>
<asrwt>0</asrwt>
<pdfrwt beam="1">  1        1 0.98082786E-01 0.13865681E+04</pdfrwt>
<pdfrwt beam="2">  1       -2 0.11598528E+00 0.13865681E+04</pdfrwt>
<totfact> 0.15460343E+01</totfact>
</mgrwt>
</event>
<event>
12    4  0.4183215E-008  0.1679361E+04  0.7818608E-02  0.8773224E-01
          1   -1    0    0  501    0  0.00000000000E+00  0.00000000000E+00  0.39031031954E+04  0.39031031954E+04  0.00000000000E+00 0. -1.
         -2   -1    0    0    0  501 -0.00000000000E+00 -0.00000000000E+00 -0.18064183137E+03  0.18064183137E+03  0.00000000000E+00 0.  1.
        -24    2    1    2    0    0 -0.37782035726E+01 -0.13039198973E+03  0.27238990664E+04  0.27281123037E+04  0.77163928095E+02 0.  0.
        254    2    1    2    0    0  0.37782035726E+01  0.13039198973E+03  0.99856229766E+03  0.13556327231E+04  0.90752249111E+03 0.  0.
         23    2    4    4    0    0  0.60655596177E+02 -0.22953579941E+03  0.94053916156E+03  0.97530240167E+03  0.10116855094E+03 0.  0.
         23    2    4    4    0    0 -0.56877392604E+02  0.35992778915E+03  0.58023136095E+02  0.38033032145E+03  0.92203133918E+02 0.  0.
          1    1    3    3  502    0  0.44893323442E+01 -0.13930619794E+03  0.24917560268E+04  0.24956511111E+04  0.00000000000E+00 0. -1.
         -2    1    3    3    0  502 -0.82675359169E+01  0.89142082085E+01  0.23214303955E+03  0.23246119261E+03  0.00000000000E+00 0.  1.
         11    1    5    5    0    0  0.38419260944E+02 -0.68670026345E+02  0.49237548303E+03  0.49862333321E+03  0.00000000000E+00 0.  1.
        -11    1    5    5    0    0  0.22236335233E+02 -0.16086577307E+03  0.44816367853E+03  0.47667906846E+03  0.00000000000E+00 0. -1.
          2    1    6    6  503    0 -0.65020259082E+02  0.36015851725E+03  0.62114891595E+02  0.37121429310E+03  0.00000000000E+00 0. -1.
         -2    1    6    6    0  503  0.81428664775E+01 -0.23072810583E+00 -0.40917554999E+01  0.91160283568E+01  0.00000000000E+00 0.  1.
<mgrwt>
<rscale>  0 0.16793614E+04</rscale>
<asrwt>0</asrwt>
<pdfrwt beam="1">  1        1 0.60047735E+00 0.16793614E+04</pdfrwt>
<pdfrwt beam="2">  1       -2 0.27791054E-01 0.16793614E+04</pdfrwt>
<totfact> 0.11680272E+00</totfact>
</mgrwt>
</event>
<event>
12    4  0.4183215E-008  0.2156804E+04  0.7818608E-02  0.8536625E-01
          1   -1    0    0  501    0  0.00000000000E+00  0.00000000000E+00  0.24872700483E+04  0.24872700483E+04  0.00000000000E+00 0. -1.
         -2   -1    0    0    0  501 -0.00000000000E+00 -0.00000000000E+00 -0.46756134842E+03  0.46756134842E+03  0.00000000000E+00 0.  1.
        -24    2    1    2    0    0  0.26583586957E+03 -0.41818566658E+03  0.18562400877E+04  0.19229003466E+04  0.79815527430E+02 0.  0.
        254    2    1    2    0    0 -0.26583586957E+03  0.41818566658E+03  0.16346861209E+03  0.10319310501E+04  0.89028745000E+03 0.  0.
         23    2    4    4    0    0 -0.24305713401E+03 -0.19400072687E+03  0.24679700258E+03  0.40721861800E+03  0.90582503522E+02 0.  0.
         23    2    4    4    0    0 -0.22778735567E+02  0.61218639345E+03 -0.83328390485E+02  0.62471243206E+03  0.89615573314E+02 0.  0.
          3    1    3    3  502    0  0.22208879224E+03 -0.31953357341E+03  0.15536970661E+04  0.16016865203E+04  0.00000000000E+00 0. -1.
         -4    1    3    3    0  502  0.43747077333E+02 -0.98652093174E+02  0.30254302163E+03  0.32121382629E+03  0.00000000000E+00 0.  1.
         11    1    5    5    0    0 -0.24659551595E+03 -0.18442730089E+03  0.24987240010E+03  0.39655894156E+03  0.00000000000E+00 0. -1.
        -11    1    5    5    0    0  0.35383819408E+01 -0.95734259781E+01 -0.30753975272E+01  0.10659676434E+02  0.00000000000E+00 0.  1.
          4    1    6    6  503    0  0.28918483163E+02  0.34236914294E+03 -0.62229421138E+02  0.34917819171E+03  0.00000000000E+00 0. -1.
         -4    1    6    6    0  503 -0.51697218731E+02  0.26981725051E+03 -0.21098969348E+02  0.27553424035E+03  0.00000000000E+00 0.  1.
<mgrwt>
<rscale>  0 0.21568044E+04</rscale>
<asrwt>0</asrwt>
<pdfrwt beam="1">  1        1 0.38265692E+00 0.21568044E+04</pdfrwt>
<pdfrwt beam="2">  1       -2 0.71932516E-01 0.21568044E+04</pdfrwt>
<totfact> 0.19471071E+00</totfact>
</mgrwt>
</event>
<event>
12    4  0.4183215E-008  0.2438788E+04  0.7818608E-02  0.8425123E-01
         -2   -1    0    0    0  501 -0.00000000000E+00  0.00000000000E+00  0.19103637391E+04  0.19103637391E+04  0.00000000000E+00 0.  1.
          1   -1    0    0  501    0  0.00000000000E+00 -0.00000000000E+00 -0.77834458733E+03  0.77834458733E+03  0.00000000000E+00 0. -1.
        -24    2    1    2    0    0  0.69753189741E+03 -0.13646169023E+02  0.13897683369E+04  0.15571905702E+04  0.81544319269E+02 0.  0.
        254    2    1    2    0    0 -0.69753189741E+03  0.13646169023E+02 -0.25774918505E+03  0.11315177563E+04  0.85273725409E+03 0.  0.
         23    2    4    4    0    0 -0.72236762051E+03  0.93546657202E+02  0.11258592888E+03  0.74194776174E+03  0.85117175304E+02 0.  0.
         23    2    4    4    0    0  0.24835723104E+02 -0.79900488179E+02 -0.37033511393E+03  0.38956999452E+03  0.87268452879E+02 0.  0.
          3    1    3    3  502    0  0.15602690225E+03 -0.76915203858E+01  0.24135580675E+03  0.28749987681E+03  0.00000000000E+00 0. -1.
         -4    1    3    3    0  502  0.54150499516E+03 -0.59546486372E+01  0.11484125301E+04  0.12696906934E+04  0.00000000000E+00 0.  1.
         11    1    5    5    0    0 -0.45622542061E+03  0.20163051581E+02  0.55467813746E+02  0.46002702249E+03  0.00000000000E+00 0. -1.
        -11    1    5    5    0    0 -0.26614219990E+03  0.73383605621E+02  0.57118115134E+02  0.28192073925E+03  0.00000000000E+00 0.  1.
          3    1    6    6  503    0  0.21802069116E+02 -0.25587679688E+02 -0.29355133323E+03  0.29546987124E+03  0.00000000000E+00 0. -1.
         -3    1    6    6    0  503  0.30336539880E+01 -0.54312808491E+02 -0.76783780696E+02  0.94100123277E+02  0.00000000000E+00 0.  1.
<mgrwt>
<rscale>  0 0.24387876E+04</rscale>
<asrwt>0</asrwt>
<pdfrwt beam="1">  1        1 0.11974532E+00 0.24387876E+04</pdfrwt>
<pdfrwt beam="2">  1       -2 0.29390211E+00 0.24387876E+04</pdfrwt>
<totfact> 0.62656985E-01</totfact>
</mgrwt>
</event>
<event>
12    4  0.4183215E-008  0.1747645E+04  0.7818608E-02  0.8734648E-01
          3   -1    0    0  501    0  0.00000000000E+00  0.00000000000E+00  0.14339734444E+04  0.14339734444E+04  0.00000000000E+00 0. -1.
         -2   -1    0    0    0  501 -0.00000000000E+00 -0.00000000000E+00 -0.53248246012E+03  0.53248246012E+03  0.00000000000E+00 0.  1.
        -24    2    1    2    0    0 -0.40833236755E+02 -0.48703175784E+03  0.79558024794E+03  0.93719766643E+03  0.80772821467E+02 0.  0.
        254    2    1    2    0    0  0.40833236755E+02  0.48703175784E+03  0.10591073635E+03  0.10292582381E+04  0.89960444099E+03 0.  0.
         23    2    4    4    0    0 -0.27636466279E+03  0.32013259355E+03 -0.26389581861E+03  0.50639920513E+03  0.89088986916E+02 0.  0.
         23    2    4    4    0    0  0.31719789954E+03  0.16689916429E+03  0.36980655496E+03  0.52285903296E+03  0.90304162416E+02 0.  0.
          3    1    3    3  502    0 -0.66925013790E+01 -0.33249827082E+03  0.47719748525E+03  0.58165052188E+03  0.00000000000E+00 0. -1.
         -4    1    3    3    0  502 -0.34140735376E+02 -0.15453348701E+03  0.31838276268E+03  0.35554714455E+03  0.00000000000E+00 0.  1.
         11    1    5    5    0    0 -0.10305669144E+03  0.71884711632E+02 -0.10888712274E+03  0.16626634932E+03  0.00000000000E+00 0. -1.
        -11    1    5    5    0    0 -0.17330797134E+03  0.24824788192E+03 -0.15500869586E+03  0.34013285581E+03  0.00000000000E+00 0.  1.
          4    1    6    6  503    0  0.18473551202E+03  0.14539014679E+03  0.24617746210E+03  0.34039513368E+03  0.00000000000E+00 0. -1.
         -4    1    6    6    0  503  0.13246238753E+03  0.21509017493E+02  0.12362909286E+03  0.18246389929E+03  0.00000000000E+00 0.  1.
<mgrwt>
<rscale>  0 0.17476449E+04</rscale>
<asrwt>0</asrwt>
<pdfrwt beam="1">  1        3 0.22061130E+00 0.17476449E+04</pdfrwt>
<pdfrwt beam="2">  1       -2 0.81920379E-01 0.17476449E+04</pdfrwt>
<totfact> 0.56112508E-01</totfact>
</mgrwt>
</event>
<event>
12    4  0.4183215E-008  0.2281285E+04  0.7818608E-02  0.8485337E-01
         -2   -1    0    0    0  501 -0.00000000000E+00  0.00000000000E+00  0.78984562309E+03  0.78984562309E+03  0.00000000000E+00 0.  1.
          1   -1    0    0  501    0  0.00000000000E+00 -0.00000000000E+00 -0.16472403226E+04  0.16472403226E+04  0.00000000000E+00 0. -1.
        -24    2    1    2    0    0 -0.44215229732E+03 -0.68270357896E+03 -0.99575147208E+03  0.12882365132E+04  0.80308711138E+02 0.  0.
        254    2    1    2    0    0  0.44215229732E+03  0.68270357896E+03  0.13835677259E+03  0.11488494325E+04  0.79945580941E+03 0.  0.
         23    2    4    4    0    0  0.43767332082E+03  0.66974167637E+03 -0.17505644534E+03  0.82363346366E+03  0.87266686556E+02 0.  0.
         23    2    4    4    0    0  0.44789764971E+01  0.12961902588E+02  0.31341321793E+03  0.32521596880E+03  0.85729277608E+02 0.  0.
          3    1    3    3  502    0 -0.31569419587E+03 -0.47211911263E+03 -0.74996202473E+03  0.94074561937E+03  0.00000000000E+00 0. -1.
         -4    1    3    3    0  502 -0.12645810144E+03 -0.21058446633E+03 -0.24578944735E+03  0.34749089385E+03  0.00000000000E+00 0.  1.
         11    1    5    5    0    0  0.42610392330E+03  0.61566166496E+03 -0.15368962379E+03  0.76434569379E+03  0.00000000000E+00 0.  1.
        -11    1    5    5    0    0  0.11569397516E+02  0.54080011412E+02 -0.21366821550E+02  0.59287769872E+02  0.00000000000E+00 0. -1.
          1    1    6    6  503    0 -0.35877059587E+01  0.22574984728E+02  0.16875280141E+02  0.28412614265E+02  0.00000000000E+00 0. -1.
         -1    1    6    6    0  503  0.80666824559E+01 -0.96130821406E+01  0.29653793779E+03  0.29680335453E+03  0.00000000000E+00 0.  1.
<mgrwt>
<rscale>  0 0.22812852E+04</rscale>
<asrwt>0</asrwt>
<pdfrwt beam="1">  1        1 0.25342159E+00 0.22812852E+04</pdfrwt>
<pdfrwt beam="2">  1       -2 0.12151471E+00 0.22812852E+04</pdfrwt>
<totfact> 0.21190976E+00</totfact>
</mgrwt>
</event>
<event>
12    4  0.4183215E-008  0.1799241E+04  0.7818608E-02  0.8706703E-01
          1   -1    0    0  501    0  0.00000000000E+00  0.00000000000E+00  0.21333256916E+04  0.21333256916E+04  0.00000000000E+00 0. -1.
         -2   -1    0    0    0  501 -0.00000000000E+00 -0.00000000000E+00 -0.37936869248E+03  0.37936869248E+03  0.00000000000E+00 0.  1.
        -24    2    1    2    0    0  0.40498833162E+03 -0.14701272767E+03 -0.60663955654E+02  0.44227676746E+03  0.79374634964E+02 0.  0.
        254    2    1    2    0    0 -0.40498833162E+03  0.14701272767E+03  0.18146209548E+04  0.20704176167E+04  0.89897252844E+03 0.  0.
         23    2    4    4    0    0  0.13072237433E+03 -0.26914903004E+03  0.58226697738E+03  0.66102196987E+03  0.91573315813E+02 0.  0.
         23    2    4    4    0    0 -0.53571070595E+03  0.41616175771E+03  0.12323539774E+04  0.14093956468E+04  0.86736350341E+02 0.  0.
          1    1    3    3  502    0 -0.32681913804E+01 -0.30259877523E+01  0.19615303701E+01  0.48667523226E+01  0.00000000000E+00 0. -1.
         -2    1    3    3    0  502  0.40825652300E+03 -0.14398673992E+03 -0.62625486024E+02  0.43741001514E+03  0.00000000000E+00 0.  1.
         11    1    5    5    0    0 -0.36121052264E+01 -0.81639407185E+02  0.16972428474E+03  0.18837296233E+03  0.00000000000E+00 0. -1.
        -11    1    5    5    0    0  0.13433447956E+03 -0.18750962286E+03  0.41254269265E+03  0.47264900753E+03  0.00000000000E+00 0.  1.
          3    1    6    6  503    0 -0.71158148971E+02  0.48079517441E+02  0.22190597718E+03  0.23794407929E+03  0.00000000000E+00 0. -1.
         -3    1    6    6    0  503 -0.46455255698E+03  0.36808224027E+03  0.10104480003E+04  0.11714515675E+04  0.00000000000E+00 0.  1.
<mgrwt>
<rscale>  0 0.17992409E+04</rscale>
<asrwt>0</asrwt>
<pdfrwt beam="1">  1        1 0.32820395E+00 0.17992409E+04</pdfrwt>
<pdfrwt beam="2">  1       -2 0.58364416E-01 0.17992409E+04</pdfrwt>
<totfact> 0.55048358E+00</totfact>
</mgrwt>
</event>
<event>
12    4  0.4183215E-008  0.1868981E+04  0.7818608E-02  0.8670453E-01
         -2   -1    0    0    0  501 -0.00000000000E+00  0.00000000000E+00  0.65232398537E+03  0.65232398537E+03  0.00000000000E+00 0.  1.
          1   -1    0    0  501    0  0.00000000000E+00 -0.00000000000E+00 -0.13387091708E+04  0.13387091708E+04  0.00000000000E+00 0. -1.
        -24    2    1    2    0    0 -0.13609198569E+03 -0.17986304806E+03  0.45908766226E+03  0.51775268829E+03  0.80216082977E+02 0.  0.
        254    2    1    2    0    0  0.13609198569E+03  0.17986304806E+03 -0.11454728477E+04  0.14732804679E+04  0.89865207262E+03 0.  0.
         23    2    4    4    0    0 -0.30258022704E+03  0.28565437526E+03 -0.76703458971E+03  0.87744804613E+03  0.91759446053E+02 0.  0.
         23    2    4    4    0    0  0.43867221273E+03 -0.10579132721E+03 -0.37843825799E+03  0.59583242176E+03  0.90419271078E+02 0.  0.
          3    1    3    3  502    0 -0.20491394841E+02  0.45620623273E+01  0.53089463799E+02  0.57089410942E+02  0.00000000000E+00 0. -1.
         -4    1    3    3    0  502 -0.11560059084E+03 -0.18442511038E+03  0.40599819846E+03  0.46066327735E+03  0.00000000000E+00 0.  1.
         11    1    5    5    0    0 -0.11145960692E+03  0.16552058836E+03 -0.33280201191E+03  0.38804315260E+03  0.00000000000E+00 0.  1.
        -11    1    5    5    0    0 -0.19112062011E+03  0.12013378691E+03 -0.43423257780E+03  0.48940489353E+03  0.00000000000E+00 0. -1.
          2    1    6    6  503    0  0.32018346756E+03 -0.43484941895E+02 -0.29856971840E+03  0.43994575781E+03  0.00000000000E+00 0. -1.
         -2    1    6    6    0  503  0.11848874517E+03 -0.62306385310E+02 -0.79868539588E+02  0.15588666395E+03  0.00000000000E+00 0.  1.
<mgrwt>
<rscale>  0 0.18689806E+04</rscale>
<asrwt>0</asrwt>
<pdfrwt beam="1">  1        1 0.20595526E+00 0.18689806E+04</pdfrwt>
<pdfrwt beam="2">  1       -2 0.10035754E+00 0.18689806E+04</pdfrwt>
<totfact> 0.57225922E+00</totfact>
</mgrwt>
</event>
<event>
12    4  0.4183215E-008  0.1930568E+04  0.7818608E-02  0.8639789E-01
          1   -1    0    0  501    0  0.00000000000E+00  0.00000000000E+00  0.52505682498E+03  0.52505682498E+03  0.00000000000E+00 0. -1.
         -2   -1    0    0    0  501 -0.00000000000E+00 -0.00000000000E+00 -0.17746139418E+04  0.17746139418E+04  0.00000000000E+00 0.  1.
        -24    2    1    2    0    0  0.26883239467E+03  0.56259739113E+03  0.39370076142E+02  0.62980024863E+03  0.79446015312E+02 0.  0.
        254    2    1    2    0    0 -0.26883239467E+03 -0.56259739113E+03 -0.12889271929E+04  0.16698705181E+04  0.85927152734E+03 0.  0.
         23    2    4    4    0    0  0.14613753809E+03 -0.21005648913E+03 -0.39916963547E+01  0.27134106633E+03  0.90167244467E+02 0.  0.
         23    2    4    4    0    0 -0.41496993276E+03 -0.35254090200E+03 -0.12849354966E+04  0.13985294518E+04  0.91325048537E+02 0.  0.
          1    1    3    3  502    0  0.25087617786E+03  0.51226342998E+03  0.13816835589E+02  0.57056426742E+03  0.00000000000E+00 0. -1.
         -2    1    3    3    0  502  0.17956216819E+02  0.50333961155E+02  0.25553240553E+02  0.59235981217E+02  0.00000000000E+00 0.  1.
         11    1    5    5    0    0  0.80980191810E+02 -0.52979071633E+02 -0.25120950382E+02  0.99978175843E+02  0.00000000000E+00 0.  1.
        -11    1    5    5    0    0  0.65157346278E+02 -0.15707741750E+03  0.21129254027E+02  0.17136289049E+03  0.00000000000E+00 0. -1.
          1    1    6    6  503    0 -0.29126653315E+03 -0.25048585929E+03 -0.79373611655E+03  0.88181425582E+03  0.00000000000E+00 0. -1.
         -1    1    6    6    0  503 -0.12370339961E+03 -0.10205504271E+03 -0.49119938003E+03  0.51671519598E+03  0.00000000000E+00 0.  1.
<mgrwt>
<rscale>  0 0.19305680E+04</rscale>
<asrwt>0</asrwt>
<pdfrwt beam="1">  1        1 0.80777972E-01 0.19305680E+04</pdfrwt>
<pdfrwt beam="2">  1       -2 0.27301753E+00 0.19305680E+04</pdfrwt>
<totfact> 0.15719071E+00</totfact>
</mgrwt>
</event>
<event>
12    4  0.4183215E-008  0.1517814E+04  0.7818608E-02  0.8872693E-01
         -2   -1    0    0    0  501 -0.00000000000E+00  0.00000000000E+00  0.68507370915E+03  0.68507370915E+03  0.00000000000E+00 0.  1.
          1   -1    0    0  501    0  0.00000000000E+00 -0.00000000000E+00 -0.84069725760E+03  0.84069725760E+03  0.00000000000E+00 0. -1.
        -24    2    1    2    0    0 -0.98449297771E+02 -0.18719866617E+03  0.38132272738E+03  0.44344750269E+03  0.80641554940E+02 0.  0.
        254    2    1    2    0    0  0.98449297771E+02  0.18719866617E+03 -0.53694627583E+03  0.10823234641E+04  0.91562938620E+03 0.  0.
         23    2    4    4    0    0 -0.13258866802E+03  0.38972035951E+03 -0.62057473427E+03  0.75037902453E+03  0.92162715561E+02 0.  0.
         23    2    4    4    0    0  0.23103796579E+03 -0.20252169333E+03  0.83628458436E+02  0.33194443953E+03  0.93807323628E+02 0.  0.
          3    1    3    3  502    0 -0.39637924147E+01 -0.25134119025E+02  0.11440164743E+03  0.11719715238E+03  0.00000000000E+00 0. -1.
         -4    1    3    3    0  502 -0.94485505357E+02 -0.16206454715E+03  0.26692107994E+03  0.32625035032E+03  0.00000000000E+00 0.  1.
         11    1    5    5    0    0 -0.13203473536E+02  0.14875076426E+03 -0.26991548167E+03  0.30847283321E+03  0.00000000000E+00 0.  1.
        -11    1    5    5    0    0 -0.11938519449E+03  0.24096959525E+03 -0.35065925259E+03  0.44190619132E+03  0.00000000000E+00 0. -1.
          2    1    6    6  503    0  0.17572344272E+03 -0.16269943980E+03  0.22749308061E+02  0.24055636979E+03  0.00000000000E+00 0. -1.
         -2    1    6    6    0  503  0.55314523079E+02 -0.39822253533E+02  0.60879150375E+02  0.91388069737E+02  0.00000000000E+00 0.  1.
<mgrwt>
<rscale>  0 0.15178137E+04</rscale>
<asrwt>0</asrwt>
<pdfrwt beam="1">  1        1 0.12933804E+00 0.15178137E+04</pdfrwt>
<pdfrwt beam="2">  1       -2 0.10539596E+00 0.15178137E+04</pdfrwt>
<totfact> 0.12573884E+01</totfact>
</mgrwt>
</event>
<event>
12    4  0.4183215E-008  0.2068552E+04  0.7818608E-02  0.8575224E-01
          1   -1    0    0  501    0  0.00000000000E+00  0.00000000000E+00  0.12159885164E+04  0.12159885164E+04  0.00000000000E+00 0. -1.
         -2   -1    0    0    0  501 -0.00000000000E+00 -0.00000000000E+00 -0.87971781642E+03  0.87971781642E+03  0.00000000000E+00 0.  1.
        -24    2    1    2    0    0  0.13632369279E+02 -0.72037752922E+02  0.98580891340E+03  0.99177976334E+03  0.80203527957E+02 0.  0.
        254    2    1    2    0    0 -0.13632369279E+02  0.72037752922E+02 -0.64953821346E+03  0.11039265694E+04  0.88959468333E+03 0.  0.
         23    2    4    4    0    0  0.25931717461E+02 -0.11765445107E+02 -0.85565237562E+03  0.86091321624E+03  0.90662551971E+02 0.  0.
         23    2    4    4    0    0 -0.39564086740E+02  0.83803198029E+02  0.20611416216E+03  0.24301335319E+03  0.89354065521E+02 0.  0.
          3    1    3    3  502    0 -0.27591772381E+02 -0.36985560265E+02  0.65031473902E+03  0.65194976598E+03  0.00000000000E+00 0. -1.
         -4    1    3    3    0  502  0.41224141660E+02 -0.35052192657E+02  0.33549417438E+03  0.33982999737E+03  0.00000000000E+00 0.  1.
         11    1    5    5    0    0  0.42836068092E+02 -0.29190910952E+02 -0.77385111085E+03  0.77558531431E+03  0.00000000000E+00 0.  1.
        -11    1    5    5    0    0 -0.16904350631E+02  0.17425465845E+02 -0.81801264767E+02  0.85327901929E+02  0.00000000000E+00 0. -1.
          1    1    6    6  503    0 -0.51258358935E+02  0.89741095169E+02  0.13148208907E+03  0.16723762516E+03  0.00000000000E+00 0. -1.
         -1    1    6    6    0  503  0.11694272195E+02 -0.59378971393E+01  0.74632073087E+02  0.75775728026E+02  0.00000000000E+00 0.  1.
<mgrwt>
<rscale>  0 0.20685519E+04</rscale>
<asrwt>0</asrwt>
<pdfrwt beam="1">  1        1 0.18707516E+00 0.20685519E+04</pdfrwt>
<pdfrwt beam="2">  1       -2 0.13534120E+00 0.20685519E+04</pdfrwt>
<totfact> 0.32985591E+00</totfact>
</mgrwt>
</event>
<event>
12    4  0.4183215E-008  0.1575049E+04  0.7818608E-02  0.8836024E-01
         -4   -1    0    0    0  501 -0.00000000000E+00  0.00000000000E+00  0.20749082126E+04  0.20749082126E+04  0.00000000000E+00 0.  1.
          3   -1    0    0  501    0  0.00000000000E+00 -0.00000000000E+00 -0.29890248045E+03  0.29890248045E+03  0.00000000000E+00 0. -1.
        -24    2    1    2    0    0  0.27397686564E+03  0.25639892104E+03  0.48332574353E+02  0.38676525345E+03  0.80296910981E+02 0.  0.
        254    2    1    2    0    0 -0.27397686564E+03 -0.25639892104E+03  0.17276731578E+04  0.19870454396E+04  0.90702332343E+03 0.  0.
         23    2    4    4    0    0 -0.53471823067E+03 -0.28408947126E+03  0.15247836888E+04  0.16431367520E+04  0.91119011495E+02 0.  0.
         23    2    4    4    0    0  0.26074136502E+03  0.27690550217E+02  0.20288946898E+03  0.34390868759E+03  0.91412377554E+02 0.  0.
          1    1    3    3  502    0  0.21301319278E+03  0.19366756539E+03  0.22631853148E+01  0.28790079575E+03  0.00000000000E+00 0. -1.
         -2    1    3    3    0  502  0.60963672859E+02  0.62731355652E+02  0.46069389038E+02  0.98864457703E+02  0.00000000000E+00 0.  1.
         11    1    5    5    0    0 -0.48413656133E+03 -0.25331474738E+03  0.14358049305E+04  0.15362592130E+04  0.00000000000E+00 0. -1.
        -11    1    5    5    0    0 -0.50581669341E+02 -0.30774723880E+02  0.88978758350E+02  0.10687753899E+03  0.00000000000E+00 0.  1.
          3    1    6    6  503    0  0.23791960124E+03  0.41926782532E+00  0.15383807894E+03  0.28332325526E+03  0.00000000000E+00 0. -1.
         -3    1    6    6    0  503  0.22821763786E+02  0.27271282392E+02  0.49051390043E+02  0.60585432332E+02  0.00000000000E+00 0.  1.
<mgrwt>
<rscale>  0 0.15750495E+04</rscale>
<asrwt>0</asrwt>
<pdfrwt beam="1">  1        3 0.45984998E-01 0.15750495E+04</pdfrwt>
<pdfrwt beam="2">  1       -4 0.31921664E+00 0.15750495E+04</pdfrwt>
<totfact> 0.24317280E-01</totfact>
</mgrwt>
</event>
<event>
12    4  0.4183215E-008  0.1172573E+04  0.7818608E-02  0.9137208E-01
          1   -1    0    0  501    0  0.00000000000E+00  0.00000000000E+00  0.62537429815E+03  0.62537429815E+03  0.00000000000E+00 0. -1.
         -2   -1    0    0    0  501 -0.00000000000E+00 -0.00000000000E+00 -0.54964209681E+03  0.54964209681E+03  0.00000000000E+00 0.  1.
        -24    2    1    2    0    0  0.77363506658E+01 -0.15793616698E+01 -0.21528431617E+03  0.22977676580E+03  0.79922961722E+02 0.  0.
        254    2    1    2    0    0 -0.77363506658E+01  0.15793616698E+01  0.29101651750E+03  0.94523962916E+03  0.89929138635E+03 0.  0.
         23    2    4    4    0    0 -0.23409365483E+03 -0.35572847174E+03  0.22318962683E+02  0.43580740394E+03  0.89929819275E+02 0.  0.
         23    2    4    4    0    0  0.22635730416E+03  0.35730783341E+03  0.26869755482E+03  0.50943222522E+03  0.91740390039E+02 0.  0.
          1    1    3    3  502    0  0.29696091342E+02  0.12273900116E+02 -0.34533528670E+02  0.47170658968E+02  0.00000000000E+00 0. -1.
         -2    1    3    3    0  502 -0.21959740676E+02 -0.13853261786E+02 -0.18075078750E+03  0.18260610684E+03  0.00000000000E+00 0.  1.
         11    1    5    5    0    0 -0.15928651612E+02  0.20119860592E+01 -0.14326850100E+01  0.16119014126E+02  0.00000000000E+00 0.  1.
        -11    1    5    5    0    0 -0.21816500322E+03 -0.35774045780E+03  0.23751647693E+02  0.41968838981E+03  0.00000000000E+00 0. -1.
          4    1    6    6  503    0  0.14450871053E+03  0.14961639789E+03  0.10803505898E+03  0.23439156961E+03  0.00000000000E+00 0.  1.
         -4    1    6    6    0  503  0.81848593628E+02  0.20769143552E+03  0.16066249583E+03  0.27504065561E+03  0.00000000000E+00 0. -1.
<mgrwt>
<rscale>  0 0.11725733E+04</rscale>
<asrwt>0</asrwt>
<pdfrwt beam="1">  1        1 0.96211431E-01 0.11725733E+04</pdfrwt>
<pdfrwt beam="2">  1       -2 0.84560323E-01 0.11725733E+04</pdfrwt>
<totfact> 0.34132561E+01</totfact>
</mgrwt>
</event>
<event>
12    4  0.4183215E-008  0.1300183E+04  0.7818608E-02  0.9029420E-01
          1   -1    0    0  501    0  0.00000000000E+00  0.00000000000E+00  0.11397739530E+04  0.11397739530E+04  0.00000000000E+00 0. -1.
         -2   -1    0    0    0  501 -0.00000000000E+00 -0.00000000000E+00 -0.37079188861E+03  0.37079188861E+03  0.00000000000E+00 0.  1.
        -24    2    1    2    0    0 -0.14471218169E+03  0.25637356116E+03  0.23307086254E+02  0.30558280199E+03  0.78540500442E+02 0.  0.
        254    2    1    2    0    0  0.14471218169E+03 -0.25637356116E+03  0.74567497817E+03  0.12049830397E+04  0.89960209782E+03 0.  0.
         23    2    4    4    0    0  0.33099315821E+03  0.23063146164E+03  0.27094612267E+03  0.49369814505E+03  0.87055816343E+02 0.  0.
         23    2    4    4    0    0 -0.18628097652E+03 -0.48700502280E+03  0.47472885550E+03  0.71128489460E+03  0.93189165646E+02 0.  0.
          1    1    3    3  502    0 -0.17137966001E+02  0.36628140490E+02 -0.24142133053E+02  0.47097485525E+02  0.00000000000E+00 0. -1.
         -2    1    3    3    0  502 -0.12757421569E+03  0.21974542067E+03  0.47449219307E+02  0.25848531646E+03  0.00000000000E+00 0.  1.
         11    1    5    5    0    0  0.16668602142E+03  0.15711754412E+03  0.18391177162E+03  0.29375788014E+03  0.00000000000E+00 0. -1.
        -11    1    5    5    0    0  0.16430713679E+03  0.73513917523E+02  0.87034351052E+02  0.19994026491E+03  0.00000000000E+00 0.  1.
          4    1    6    6  503    0 -0.46220837503E+02 -0.21643947400E+03  0.15888813740E+03  0.27244788847E+03  0.00000000000E+00 0. -1.
         -4    1    6    6    0  503 -0.14006013902E+03 -0.27056554880E+03  0.31584071810E+03  0.43883700613E+03  0.00000000000E+00 0.  1.
<mgrwt>
<rscale>  0 0.13001830E+04</rscale>
<asrwt>0</asrwt>
<pdfrwt beam="1">  1        1 0.17534984E+00 0.13001830E+04</pdfrwt>
<pdfrwt beam="2">  1       -2 0.57044906E-01 0.13001830E+04</pdfrwt>
<totfact> 0.29380696E+01</totfact>
</mgrwt>
</event>
<event>
12    4  0.4183215E-008  0.1778435E+04  0.7818608E-02  0.8717852E-01
         -2   -1    0    0    0  501 -0.00000000000E+00  0.00000000000E+00  0.14880759373E+04  0.14880759373E+04  0.00000000000E+00 0.  1.
          1   -1    0    0  501    0  0.00000000000E+00 -0.00000000000E+00 -0.53136255684E+03  0.53136255684E+03  0.00000000000E+00 0. -1.
        -24    2    1    2    0    0  0.17522205641E+03  0.15208925653E+03  0.10586234956E+04  0.10866943238E+04  0.79918314490E+02 0.  0.
        254    2    1    2    0    0 -0.17522205641E+03 -0.15208925653E+03 -0.10191011506E+03  0.93274417039E+03  0.89765923648E+03 0.  0.
         23    2    4    4    0    0 -0.28179619451E+03  0.20265206058E+03 -0.33035762910E+03  0.48783646725E+03  0.91494823780E+02 0.  0.
         23    2    4    4    0    0  0.10657413810E+03 -0.35474131711E+03  0.22844751404E+03  0.44490770313E+03  0.92494046628E+02 0.  0.
          3    1    3    3  502    0  0.26055083100E+01  0.37162230671E+02  0.13251962213E+03  0.13765634861E+03  0.00000000000E+00 0. -1.
         -4    1    3    3    0  502  0.17261654810E+03  0.11492702586E+03  0.92610387344E+03  0.94903797519E+03  0.00000000000E+00 0.  1.
         11    1    5    5    0    0 -0.13758766837E+03  0.92754853626E+02 -0.22007270685E+03  0.27561898639E+03  0.00000000000E+00 0.  1.
        -11    1    5    5    0    0 -0.14420852614E+03  0.10989720695E+03 -0.11028492225E+03  0.21221748086E+03  0.00000000000E+00 0. -1.
          2    1    6    6  503    0  0.24687583884E+02 -0.91820374317E+02  0.14486916849E+02  0.96178629111E+02  0.00000000000E+00 0. -1.
         -2    1    6    6    0  503  0.81886554218E+02 -0.26292094279E+03  0.21396059719E+03  0.34872907402E+03  0.00000000000E+00 0.  1.
<mgrwt>
<rscale>  0 0.17784351E+04</rscale>
<asrwt>0</asrwt>
<pdfrwt beam="1">  1        1 0.81748086E-01 0.17784351E+04</pdfrwt>
<pdfrwt beam="2">  1       -2 0.22893476E+00 0.17784351E+04</pdfrwt>
<totfact> 0.29234885E+00</totfact>
</mgrwt>
</event>
<event>
12    4  0.4183215E-008  0.2862998E+04  0.7818608E-02  0.8283972E-01
          3   -1    0    0  501    0  0.00000000000E+00  0.00000000000E+00  0.16429398463E+04  0.16429398463E+04  0.00000000000E+00 0. -1.
         -4   -1    0    0    0  501 -0.00000000000E+00 -0.00000000000E+00 -0.12472702749E+04  0.12472702749E+04  0.00000000000E+00 0.  1.
        -24    2    1    2    0    0 -0.58913950376E+03 -0.60081837160E+03 -0.79917882408E+03  0.11632624674E+04  0.80154255230E+02 0.  0.
        254    2    1    2    0    0  0.58913950376E+03  0.60081837160E+03  0.11948483955E+04  0.17269476539E+04  0.92011816659E+03 0.  0.
         23    2    4    4    0    0  0.81950257832E+03  0.49268806694E+03  0.80869764506E+03  0.12556398413E+04  0.91178521861E+02 0.  0.
         23    2    4    4    0    0 -0.23036307456E+03  0.10813030466E+03  0.38615075044E+03  0.47130781255E+03  0.90880928682E+02 0.  0.
          3    1    3    3  502    0 -0.12336603068E+03 -0.83710569933E+02 -0.13054355873E+03  0.19816220066E+03  0.00000000000E+00 0. -1.
         -4    1    3    3    0  502 -0.46577347309E+03 -0.51710780167E+03 -0.66863526535E+03  0.96510026673E+03  0.00000000000E+00 0.  1.
         11    1    5    5    0    0  0.56332730325E+03  0.28881199246E+03  0.52474788594E+03  0.82225930301E+03  0.00000000000E+00 0. -1.
        -11    1    5    5    0    0  0.25617527507E+03  0.20387607448E+03  0.28394975912E+03  0.43338053833E+03  0.00000000000E+00 0.  1.
          3    1    6    6  503    0 -0.14982071733E+03  0.10173598158E+03  0.20863478139E+03  0.27626966771E+03  0.00000000000E+00 0. -1.
         -3    1    6    6    0  503 -0.80542357232E+02  0.63943230806E+01  0.17751596905E+03  0.19503814485E+03  0.00000000000E+00 0.  1.
<mgrwt>
<rscale>  0 0.28629985E+04</rscale>
<asrwt>0</asrwt>
<pdfrwt beam="1">  1        3 0.25275998E+00 0.28629985E+04</pdfrwt>
<pdfrwt beam="2">  1       -4 0.19188773E+00 0.28629985E+04</pdfrwt>
<totfact> 0.20913904E-02</totfact>
</mgrwt>
</event>
<event>
12    4  0.4183215E-008  0.2749351E+04  0.7818608E-02  0.8319168E-01
         -2   -1    0    0    0  501 -0.00000000000E+00  0.00000000000E+00  0.58218615356E+03  0.58218615356E+03  0.00000000000E+00 0.  1.
          1   -1    0    0  501    0  0.00000000000E+00 -0.00000000000E+00 -0.32459247393E+04  0.32459247393E+04  0.00000000000E+00 0. -1.
        -24    2    1    2    0    0  0.79457904306E+03  0.82953756487E+03 -0.59416610664E+03  0.12958231646E+04  0.81460938263E+02 0.  0.
        254    2    1    2    0    0 -0.79457904306E+03 -0.82953756487E+03 -0.20695724790E+04  0.25322877282E+04  0.89992358851E+03 0.  0.
         23    2    4    4    0    0 -0.67473595419E+03 -0.94492441336E+03 -0.20255029010E+04  0.23363888604E+04  0.88882788712E+02 0.  0.
         23    2    4    4    0    0 -0.11984308887E+03  0.11538684849E+03 -0.44069578055E+02  0.19589886782E+03  0.93582840041E+02 0.  0.
          3    1    3    3  502    0  0.41950767967E+02  0.40326039585E+02 -0.11286024006E+02  0.59274199611E+02  0.00000000000E+00 0. -1.
         -4    1    3    3    0  502  0.75262827509E+03  0.78921152528E+03 -0.58288008264E+03  0.12365489650E+04  0.00000000000E+00 0.  1.
         11    1    5    5    0    0 -0.40338282148E+03 -0.48985836440E+03 -0.11189456001E+04  0.12863584935E+04  0.00000000000E+00 0. -1.
        -11    1    5    5    0    0 -0.27135313271E+03 -0.45506604896E+03 -0.90655730091E+03  0.10500303669E+04  0.00000000000E+00 0.  1.
          1    1    6    6  503    0 -0.41572902550E+02 -0.10234539492E+02 -0.11827766545E+02  0.44417880256E+02  0.00000000000E+00 0. -1.
         -1    1    6    6    0  503 -0.78270186323E+02  0.12562138798E+03 -0.32241811510E+02  0.15148098757E+03  0.00000000000E+00 0.  1.
<mgrwt>
<rscale>  0 0.27493508E+04</rscale>
<asrwt>0</asrwt>
<pdfrwt beam="1">  1        1 0.49937304E+00 0.27493508E+04</pdfrwt>
<pdfrwt beam="2">  1       -2 0.89567100E-01 0.27493508E+04</pdfrwt>
<totfact> 0.32074791E-01</totfact>
</mgrwt>
</event>
<event>
12    4  0.4183215E-008  0.1545956E+04  0.7818608E-02  0.8854455E-01
         -2   -1    0    0    0  501 -0.00000000000E+00  0.00000000000E+00  0.63814032437E+03  0.63814032437E+03  0.00000000000E+00 0.  1.
          1   -1    0    0  501    0  0.00000000000E+00 -0.00000000000E+00 -0.93630654392E+03  0.93630654392E+03  0.00000000000E+00 0. -1.
        -24    2    1    2    0    0  0.15456936953E+03  0.41233794959E+03 -0.20724425226E+03  0.49305915323E+03  0.79011858732E+02 0.  0.
        254    2    1    2    0    0 -0.15456936953E+03 -0.41233794959E+03 -0.90921967281E+02  0.10813877151E+04  0.98347257790E+03 0.  0.
         23    2    4    4    0    0 -0.46781700999E+03  0.84546067004E+02 -0.29394522982E+02  0.48464140174E+03  0.89512334466E+02 0.  0.
         23    2    4    4    0    0  0.31324764046E+03 -0.49688401659E+03 -0.61527444299E+02  0.59674631332E+03  0.85455987884E+02 0.  0.
          3    1    3    3  502    0  0.86606374190E+02  0.31332894747E+03 -0.12905861962E+03  0.34975966130E+03  0.00000000000E+00 0. -1.
         -4    1    3    3    0  502  0.67962995338E+02  0.99009002111E+02 -0.78185632640E+02  0.14329949192E+03  0.00000000000E+00 0.  1.
         11    1    5    5    0    0 -0.29663706738E+03  0.52658385904E+02 -0.61745587819E+02  0.30753694569E+03  0.00000000000E+00 0. -1.
        -11    1    5    5    0    0 -0.17117994261E+03  0.31887681100E+02  0.32351064836E+02  0.17710445605E+03  0.00000000000E+00 0.  1.
          3    1    6    6  503    0  0.19474487093E+03 -0.26309209790E+03  0.79935726335E+00  0.32732805518E+03  0.00000000000E+00 0. -1.
         -3    1    6    6    0  503  0.11850276952E+03 -0.23379191869E+03 -0.62326801562E+02  0.26941825814E+03  0.00000000000E+00 0.  1.
<mgrwt>
<rscale>  0 0.15459560E+04</rscale>
<asrwt>0</asrwt>
<pdfrwt beam="1">  1        1 0.14404716E+00 0.15459560E+04</pdfrwt>
<pdfrwt beam="2">  1       -2 0.98175434E-01 0.15459560E+04</pdfrwt>
<totfact> 0.12389620E+01</totfact>
</mgrwt>
</event>
<event>
12    4  0.4183215E-008  0.1732516E+04  0.7818608E-02  0.8743034E-01
         -2   -1    0    0    0  501 -0.00000000000E+00  0.00000000000E+00  0.31575054950E+03  0.31575054950E+03  0.00000000000E+00 0.  1.
          1   -1    0    0  501    0  0.00000000000E+00 -0.00000000000E+00 -0.23765679026E+04  0.23765679026E+04  0.00000000000E+00 0. -1.
        -24    2    1    2    0    0 -0.50597070839E+03  0.62576698199E+02 -0.14702455289E+03  0.53650197272E+03  0.79347001651E+02 0.  0.
        254    2    1    2    0    0  0.50597070839E+03 -0.62576698199E+02 -0.19137928002E+04  0.21558164793E+04  0.85148083343E+03 0.  0.
         23    2    4    4    0    0  0.27574342579E+03 -0.18263268874E+02 -0.18797092057E+04  0.19021674998E+04  0.92555473362E+02 0.  0.
         23    2    4    4    0    0  0.23022728260E+03 -0.44313429326E+02 -0.34083594508E+02  0.25364897952E+03  0.90597084536E+02 0.  0.
          1    1    3    3  502    0 -0.28309691807E+02  0.23230625867E+02 -0.82900526330E+01  0.37547644414E+02  0.00000000000E+00 0. -1.
         -2    1    3    3    0  502 -0.47766101659E+03  0.39346072332E+02 -0.13873450026E+03  0.49895432831E+03  0.00000000000E+00 0.  1.
         11    1    5    5    0    0  0.48799091379E+02  0.33378338943E+01 -0.15708512027E+03  0.16452424582E+03  0.00000000000E+00 0.  1.
        -11    1    5    5    0    0  0.22694433441E+03 -0.21601102768E+02 -0.17226240854E+04  0.17376432540E+04  0.00000000000E+00 0. -1.
          3    1    6    6  503    0  0.15282952227E+03  0.68903181950E+01  0.47280758481E+01  0.15305781281E+03  0.00000000000E+00 0. -1.
         -3    1    6    6    0  503  0.77397760335E+02 -0.51203747521E+02 -0.38811670356E+02  0.10059116671E+03  0.00000000000E+00 0.  1.
<mgrwt>
<rscale>  0 0.17325157E+04</rscale>
<asrwt>0</asrwt>
<pdfrwt beam="1">  1        1 0.36562583E+00 0.17325157E+04</pdfrwt>
<pdfrwt beam="2">  1       -2 0.48577008E-01 0.17325157E+04</pdfrwt>
<totfact> 0.55208521E+00</totfact>
</mgrwt>
</event>
<event>
12    4  0.4183215E-008  0.1968225E+04  0.7818608E-02  0.8621622E-01
         -2   -1    0    0    0  501 -0.00000000000E+00  0.00000000000E+00  0.13420123872E+04  0.13420123872E+04  0.00000000000E+00 0.  1.
          1   -1    0    0  501    0  0.00000000000E+00 -0.00000000000E+00 -0.72166050209E+03  0.72166050209E+03  0.00000000000E+00 0. -1.
        -24    2    1    2    0    0 -0.51268028150E+03  0.43248655927E+03  0.65086420216E+03  0.93826312116E+03  0.82630381133E+02 0.  0.
        254    2    1    2    0    0  0.51268028150E+03 -0.43248655927E+03 -0.30512317065E+02  0.11254097681E+04  0.90317797233E+03 0.  0.
         23    2    4    4    0    0  0.67141686535E+03 -0.98612584719E+02  0.15521890363E+03  0.70214947874E+03  0.91629326664E+02 0.  0.
         23    2    4    4    0    0 -0.15873658385E+03 -0.33387397455E+03 -0.18573122070E+03  0.42326028939E+03  0.89353524252E+02 0.  0.
          1    1    3    3  502    0 -0.46074305255E+02  0.23126069865E+02  0.78600732499E+02  0.93998573720E+02  0.00000000000E+00 0. -1.
         -2    1    3    3    0  502 -0.46660597625E+03  0.40936048941E+03  0.57226346966E+03  0.84426454744E+03  0.00000000000E+00 0.  1.
         11    1    5    5    0    0  0.50390639323E+03 -0.37328427407E+02  0.13225132238E+03  0.52230783730E+03  0.00000000000E+00 0.  1.
        -11    1    5    5    0    0  0.16751047212E+03 -0.61284157312E+02  0.22967581253E+02  0.17984164144E+03  0.00000000000E+00 0. -1.
          3    1    6    6  503    0  0.11681015783E+02 -0.20034730162E+02 -0.12322912654E+02  0.26261963343E+02  0.00000000000E+00 0. -1.
         -3    1    6    6    0  503 -0.17041759963E+03 -0.31383924439E+03 -0.17340830804E+03  0.39699832605E+03  0.00000000000E+00 0.  1.
<mgrwt>
<rscale>  0 0.19682249E+04</rscale>
<asrwt>0</asrwt>
<pdfrwt beam="1">  1        1 0.11102469E+00 0.19682249E+04</pdfrwt>
<pdfrwt beam="2">  1       -2 0.20646344E+00 0.19682249E+04</pdfrwt>
<totfact> 0.25555200E+00</totfact>
</mgrwt>
</event>
<event>
12    4  0.4183215E-008  0.1092691E+04  0.7818608E-02  0.9212345E-01
          3   -1    0    0  501    0  0.00000000000E+00  0.00000000000E+00  0.42888108220E+03  0.42888108220E+03  0.00000000000E+00 0. -1.
         -4   -1    0    0    0  501 -0.00000000000E+00 -0.00000000000E+00 -0.69598181945E+03  0.69598181945E+03  0.00000000000E+00 0.  1.
        -24    2    1    2    0    0  0.53490728321E+02 -0.14842103832E+03 -0.27486364585E+02  0.18074917147E+03  0.83813484093E+02 0.  0.
        254    2    1    2    0    0 -0.53490728321E+02  0.14842103832E+03 -0.23961437266E+03  0.94411373018E+03  0.89946963557E+03 0.  0.
         23    2    4    4    0    0  0.24882340812E+03 -0.27614259940E+03 -0.12813334535E+03  0.40338650023E+03  0.90192520412E+02 0.  0.
         23    2    4    4    0    0 -0.30231413645E+03  0.42456363772E+03 -0.11148102730E+03  0.54072722996E+03  0.91158094556E+02 0.  0.
          1    1    3    3  502    0  0.37690477067E+01 -0.81532873310E+02  0.21065081097E+02  0.84294441053E+02  0.00000000000E+00 0. -1.
         -2    1    3    3    0  502  0.49721680614E+02 -0.66888165008E+02 -0.48551445681E+02  0.96454730412E+02  0.00000000000E+00 0.  1.
         11    1    5    5    0    0  0.77299696486E+02 -0.36305431004E+02 -0.47402908033E+02  0.97674782248E+02  0.00000000000E+00 0. -1.
        -11    1    5    5    0    0  0.17152371164E+03 -0.23983716840E+03 -0.80730437322E+02  0.30571171798E+03  0.00000000000E+00 0.  1.
          1    1    6    6  503    0  0.63431280140E+01  0.70158178399E+01 -0.49169057379E+01  0.10659874999E+02  0.00000000000E+00 0. -1.
         -1    1    6    6    0  503 -0.30865726446E+03  0.41754781988E+03 -0.10656412156E+03  0.53006735496E+03  0.00000000000E+00 0.  1.
<mgrwt>
<rscale>  0 0.10926911E+04</rscale>
<asrwt>0</asrwt>
<pdfrwt beam="1">  1        3 0.65981705E-01 0.10926911E+04</pdfrwt>
<pdfrwt beam="2">  1       -4 0.10707413E+00 0.10926911E+04</pdfrwt>
<totfact> 0.35239174E+00</totfact>
</mgrwt>
</event>
<event>
12    4  0.4183215E-008  0.1360524E+04  0.7818608E-02  0.8982899E-01
         -2   -1    0    0    0  501 -0.00000000000E+00  0.00000000000E+00  0.59104510158E+03  0.59104510158E+03  0.00000000000E+00 0.  1.
          1   -1    0    0  501    0  0.00000000000E+00 -0.00000000000E+00 -0.78294631597E+03  0.78294631597E+03  0.00000000000E+00 0. -1.
        -24    2    1    2    0    0  0.13690058902E+02  0.33759834874E+03 -0.21181508717E+03  0.40718815395E+03  0.82319492069E+02 0.  0.
        254    2    1    2    0    0 -0.13690058902E+02 -0.33759834874E+03  0.19913872786E+02  0.96680326360E+03  0.90562239669E+03 0.  0.
         23    2    4    4    0    0  0.46861157812E+02 -0.37147166568E+03 -0.38579149062E+03  0.54503545651E+03  0.89673898718E+02 0.  0.
         23    2    4    4    0    0 -0.60551216714E+02  0.33873316935E+02  0.40570536340E+03  0.42176780709E+03  0.92072741660E+02 0.  0.
          1    1    3    3  502    0  0.22308140770E+02  0.43979433016E+02 -0.56203350916E+02  0.74770718381E+02  0.00000000000E+00 0. -1.
         -2    1    3    3    0  502 -0.86180818677E+01  0.29361891573E+03 -0.15561173626E+03  0.33241743557E+03  0.00000000000E+00 0.  1.
         11    1    5    5    0    0  0.26359449800E+02 -0.14659671039E+03 -0.94207802512E+02  0.17623996750E+03  0.00000000000E+00 0. -1.
        -11    1    5    5    0    0  0.20501708011E+02 -0.22487495529E+03 -0.29158368810E+03  0.36879548902E+03  0.00000000000E+00 0.  1.
          3    1    6    6  503    0 -0.42179411217E+02  0.61289824948E+02  0.34224495668E+03  0.35023871251E+03  0.00000000000E+00 0. -1.
         -3    1    6    6    0  503 -0.18371805497E+02 -0.27416508013E+02  0.63460406726E+02  0.71529094575E+02  0.00000000000E+00 0.  1.
<mgrwt>
<rscale>  0 0.13605243E+04</rscale>
<asrwt>0</asrwt>
<pdfrwt beam="1">  1        1 0.12045328E+00 0.13605243E+04</pdfrwt>
<pdfrwt beam="2">  1       -2 0.90930016E-01 0.13605243E+04</pdfrwt>
<totfact> 0.20237114E+01</totfact>
</mgrwt>
</event>
<event>
12    4  0.4183215E-008  0.1935258E+04  0.7818608E-02  0.8637503E-01
          1   -1    0    0  501    0  0.00000000000E+00  0.00000000000E+00  0.52303279920E+03  0.52303279920E+03  0.00000000000E+00 0. -1.
         -2   -1    0    0    0  501 -0.00000000000E+00 -0.00000000000E+00 -0.17901473629E+04  0.17901473629E+04  0.00000000000E+00 0.  1.
        -24    2    1    2    0    0 -0.65839045707E+03 -0.34137681329E+03 -0.65639073836E+03  0.99371641735E+03  0.81285878765E+02 0.  0.
        254    2    1    2    0    0  0.65839045707E+03  0.34137681329E+03 -0.61072382530E+03  0.13194637447E+04  0.90442515456E+03 0.  0.
         23    2    4    4    0    0  0.47670582705E+03  0.43724778643E+03  0.16248615560E+02  0.65334751663E+03  0.90359768097E+02 0.  0.
         23    2    4    4    0    0  0.18168463002E+03 -0.95870973143E+02 -0.62697244086E+03  0.66611622808E+03  0.91737884451E+02 0.  0.
          3    1    3    3  502    0  0.15508355693E+01 -0.25783700116E+01  0.24798035359E+00  0.30190357956E+01  0.00000000000E+00 0. -1.
         -4    1    3    3    0  502 -0.65994129264E+03 -0.33879844328E+03 -0.65663871871E+03  0.99069738155E+03  0.00000000000E+00 0.  1.
         11    1    5    5    0    0  0.10063634661E+03  0.12818706478E+03  0.33038169609E+02  0.16628625466E+03  0.00000000000E+00 0. -1.
        -11    1    5    5    0    0  0.37606948045E+03  0.30906072165E+03 -0.16789554049E+02  0.48706126198E+03  0.00000000000E+00 0.  1.
          4    1    6    6  503    0  0.93646116785E+02 -0.56809316524E+01 -0.19964994344E+03  0.22059457856E+03  0.00000000000E+00 0. -1.
         -4    1    6    6    0  503  0.88038513234E+02 -0.90190041490E+02 -0.42732249742E+03  0.44552164952E+03  0.00000000000E+00 0.  1.
<mgrwt>
<rscale>  0 0.19352579E+04</rscale>
<asrwt>0</asrwt>
<pdfrwt beam="1">  1        1 0.80466584E-01 0.19352579E+04</pdfrwt>
<pdfrwt beam="2">  1       -2 0.27540729E+00 0.19352579E+04</pdfrwt>
<totfact> 0.15276962E+00</totfact>
</mgrwt>
</event>
<event>
12    4  0.4183215E-008  0.1471541E+04  0.7818608E-02  0.8903602E-01
          1   -1    0    0  501    0  0.00000000000E+00  0.00000000000E+00  0.94841360200E+03  0.94841360200E+03  0.00000000000E+00 0. -1.
         -2   -1    0    0    0  501 -0.00000000000E+00 -0.00000000000E+00 -0.57080374843E+03  0.57080374843E+03  0.00000000000E+00 0.  1.
        -24    2    1    2    0    0 -0.76531614453E+02  0.44438701568E+03  0.26461788498E+03  0.52906870499E+03  0.80957778072E+02 0.  0.
        254    2    1    2    0    0  0.76531614453E+02 -0.44438701568E+03  0.11299196858E+03  0.99014864543E+03  0.87423695150E+03 0.  0.
         23    2    4    4    0    0  0.17904905095E+02 -0.69734578145E+03  0.12447535225E+03  0.71456455848E+03  0.92177385439E+02 0.  0.
         23    2    4    4    0    0  0.58626709358E+02  0.25295876577E+03 -0.11483383663E+02  0.27558408695E+03  0.91594173667E+02 0.  0.
          1    1    3    3  502    0 -0.10530882921E+00  0.24947905881E+01  0.16232804722E+02  0.16423733411E+02  0.00000000000E+00 0. -1.
         -2    1    3    3    0  502 -0.76426305623E+02  0.44189222509E+03  0.24838508026E+03  0.51264497158E+03  0.00000000000E+00 0.  1.
         11    1    5    5    0    0  0.30013728811E+02 -0.58684589804E+03  0.13495254551E+03  0.60291054187E+03  0.00000000000E+00 0.  1.
        -11    1    5    5    0    0 -0.12108823716E+02 -0.11049988342E+03 -0.10477193265E+02  0.11165401661E+03  0.00000000000E+00 0. -1.
          1    1    6    6  503    0 -0.23918304933E+02  0.53446249083E+02  0.65438639529E+01  0.58918664338E+02  0.00000000000E+00 0. -1.
         -1    1    6    6    0  503  0.82545014291E+02  0.19951251669E+03 -0.18027247616E+02  0.21666542261E+03  0.00000000000E+00 0.  1.
<mgrwt>
<rscale>  0 0.14715407E+04</rscale>
<asrwt>0</asrwt>
<pdfrwt beam="1">  1        1 0.14590979E+00 0.14715407E+04</pdfrwt>
<pdfrwt beam="2">  1       -2 0.87815961E-01 0.14715407E+04</pdfrwt>
<totfact> 0.15799920E+01</totfact>
</mgrwt>
</event>
<event>
12    4  0.4183215E-008  0.1170588E+04  0.7818608E-02  0.9138997E-01
          3   -1    0    0  501    0  0.00000000000E+00  0.00000000000E+00  0.42111063732E+03  0.42111063732E+03  0.00000000000E+00 0. -1.
         -4   -1    0    0    0  501 -0.00000000000E+00 -0.00000000000E+00 -0.81348959444E+03  0.81348959444E+03  0.00000000000E+00 0.  1.
        -24    2    1    2    0    0 -0.24734974494E+01 -0.12910362142E+03  0.10449846471E+03  0.18230069525E+03  0.75098276320E+02 0.  0.
        254    2    1    2    0    0  0.24734974494E+01  0.12910362142E+03 -0.49687742184E+03  0.10522995365E+04  0.91857132492E+03 0.  0.
         23    2    4    4    0    0 -0.18754784216E+03  0.45090628525E+03 -0.11096730326E+03  0.50748332718E+03  0.82066520517E+02 0.  0.
         23    2    4    4    0    0  0.19002133961E+03 -0.32180266383E+03 -0.38591011857E+03  0.54481620934E+03  0.90735981780E+02 0.  0.
          3    1    3    3  502    0 -0.11806257053E+02 -0.10603681140E+03  0.11356131524E+03  0.15581837310E+03  0.00000000000E+00 0. -1.
         -4    1    3    3    0  502  0.93327596041E+01 -0.23066810027E+02 -0.90628505275E+01  0.26482322148E+02  0.00000000000E+00 0.  1.
         11    1    5    5    0    0  0.68451395054E+01  0.19907566790E+02  0.26410129789E+01  0.21216552498E+02  0.00000000000E+00 0. -1.
        -11    1    5    5    0    0 -0.19439298167E+03  0.43099871846E+03 -0.11360831624E+03  0.48626677468E+03  0.00000000000E+00 0.  1.
          1    1    6    6  503    0  0.33965851644E+02 -0.31663899142E+02 -0.15171075391E+02  0.48851234532E+02  0.00000000000E+00 0. -1.
         -1    1    6    6    0  503  0.15605548797E+03 -0.29013876469E+03 -0.37073904318E+03  0.49596497481E+03  0.00000000000E+00 0.  1.
<mgrwt>
<rscale>  0 0.11705881E+04</rscale>
<asrwt>0</asrwt>
<pdfrwt beam="1">  1        3 0.64786252E-01 0.11705881E+04</pdfrwt>
<pdfrwt beam="2">  1       -4 0.12515225E+00 0.11705881E+04</pdfrwt>
<totfact> 0.24822777E+00</totfact>
</mgrwt>
</event>
<event>
12    4  0.4183215E-008  0.1433130E+04  0.7818608E-02  0.8930180E-01
          1   -1    0    0  501    0  0.00000000000E+00  0.00000000000E+00  0.67406147514E+03  0.67406147514E+03  0.00000000000E+00 0. -1.
         -2   -1    0    0    0  501 -0.00000000000E+00 -0.00000000000E+00 -0.76174864930E+03  0.76174864930E+03  0.00000000000E+00 0.  1.
        -24    2    1    2    0    0  0.19303774563E+02 -0.37328471005E+03 -0.20877956511E+03  0.43587599385E+03  0.81761022104E+02 0.  0.
        254    2    1    2    0    0 -0.19303774563E+02  0.37328471005E+03  0.12109239095E+03  0.99993413058E+03  0.91950573021E+03 0.  0.
         23    2    4    4    0    0  0.38255593834E+03  0.11567652633E+03  0.27087341707E+03  0.49136344342E+03  0.91299073117E+02 0.  0.
         23    2    4    4    0    0 -0.40185971291E+03  0.25760818372E+03 -0.14978102611E+03  0.50857068716E+03  0.91414347236E+02 0.  0.
          1    1    3    3  502    0  0.16298807914E+02 -0.30025453370E+02 -0.12580481946E+00  0.34164232998E+02  0.00000000000E+00 0. -1.
         -2    1    3    3    0  502  0.30049666481E+01 -0.34325925668E+03 -0.20865376029E+03  0.40171176085E+03  0.00000000000E+00 0.  1.
         11    1    5    5    0    0  0.36327541657E+03  0.84134055401E+02  0.24329597952E+03  0.44524207035E+03  0.00000000000E+00 0. -1.
        -11    1    5    5    0    0  0.19280521778E+02  0.31542470929E+02  0.27577437548E+02  0.46121373072E+02  0.00000000000E+00 0.  1.
          4    1    6    6  503    0 -0.38133772573E+03  0.26309060619E+03 -0.15105394834E+03  0.48729090228E+03  0.00000000000E+00 0. -1.
         -4    1    6    6    0  503 -0.20521987176E+02 -0.54824224715E+01  0.12729222287E+01  0.21279784886E+02  0.00000000000E+00 0.  1.
<mgrwt>
<rscale>  0 0.14331300E+04</rscale>
<asrwt>0</asrwt>
<pdfrwt beam="1">  1        1 0.10370177E+00 0.14331300E+04</pdfrwt>
<pdfrwt beam="2">  1       -2 0.11719210E+00 0.14331300E+04</pdfrwt>
<totfact> 0.13825294E+01</totfact>
</mgrwt>
</event>
<event>
12    4  0.4183215E-008  0.2099468E+04  0.7818608E-02  0.8561478E-01
          1   -1    0    0  501    0  0.00000000000E+00  0.00000000000E+00  0.10436040890E+04  0.10436040890E+04  0.00000000000E+00 0. -1.
         -2   -1    0    0    0  501 -0.00000000000E+00 -0.00000000000E+00 -0.10559003374E+04  0.10559003374E+04  0.00000000000E+00 0.  1.
        -24    2    1    2    0    0  0.81878536462E+03  0.19941774350E+03 -0.21847781465E+03  0.87475661836E+03  0.85379600206E+02 0.  0.
        254    2    1    2    0    0 -0.81878536462E+03 -0.19941774350E+03  0.20618156621E+03  0.12247478080E+04  0.86447639949E+03 0.  0.
         23    2    4    4    0    0 -0.96339102391E+03 -0.12555454681E+03  0.42338241803E+02  0.97651287891E+03  0.88874443886E+02 0.  0.
         23    2    4    4    0    0  0.14460565929E+03 -0.73863196691E+02  0.16384332441E+03  0.24823492912E+03  0.91702652948E+02 0.  0.
          3    1    3    3  502    0  0.54939292592E+03  0.11217134305E+03 -0.10936170394E+03  0.57129237658E+03  0.00000000000E+00 0. -1.
         -4    1    3    3    0  502  0.26939243870E+03  0.87246400457E+02 -0.10911611071E+03  0.30346424178E+03  0.00000000000E+00 0.  1.
         11    1    5    5    0    0 -0.25702989189E+03  0.49613870833E+01  0.24720319115E+01  0.25708965679E+03  0.00000000000E+00 0. -1.
        -11    1    5    5    0    0 -0.70636113202E+03 -0.13051593390E+03  0.39866209891E+02  0.71942322212E+03  0.00000000000E+00 0.  1.
          3    1    6    6  503    0 -0.44845222367E+01  0.12276916916E+02  0.50698078374E+01  0.14019150479E+02  0.00000000000E+00 0. -1.
         -3    1    6    6    0  503  0.14909018153E+03 -0.86140113607E+02  0.15877351657E+03  0.23421577864E+03  0.00000000000E+00 0.  1.
<mgrwt>
<rscale>  0 0.20994684E+04</rscale>
<asrwt>0</asrwt>
<pdfrwt beam="1">  1        1 0.16055448E+00 0.20994684E+04</pdfrwt>
<pdfrwt beam="2">  1       -2 0.16244621E+00 0.20994684E+04</pdfrwt>
<totfact> 0.27274819E+00</totfact>
</mgrwt>
</event>
<event>
12    4  0.4183215E-008  0.3068328E+04  0.7818608E-02  0.8224484E-01
          1   -1    0    0  501    0  0.00000000000E+00  0.00000000000E+00  0.22345042726E+04  0.22345042726E+04  0.00000000000E+00 0. -1.
         -2   -1    0    0    0  501 -0.00000000000E+00 -0.00000000000E+00 -0.10533252541E+04  0.10533252541E+04  0.00000000000E+00 0.  1.
        -24    2    1    2    0    0  0.12792732773E+03  0.10601713289E+04  0.15090977205E+04  0.18504714396E+04  0.80870085710E+02 0.  0.
        254    2    1    2    0    0 -0.12792732773E+03 -0.10601713289E+04 -0.32791870205E+03  0.14373580871E+04  0.90451033578E+03 0.  0.
         23    2    4    4    0    0 -0.15392438191E+03 -0.43077193900E+03 -0.58748064118E+03  0.75012347193E+03  0.91074368457E+02 0.  0.
         23    2    4    4    0    0  0.25997054175E+02 -0.62939938993E+03  0.25956193914E+03  0.68723461518E+03  0.89997650978E+02 0.  0.
          3    1    3    3  502    0  0.11542978403E+03  0.72863687511E+03  0.10843677527E+04  0.13115216940E+04  0.00000000000E+00 0. -1.
         -4    1    3    3    0  502  0.12497543700E+02  0.33153445382E+03  0.42472996785E+03  0.53894974558E+03  0.00000000000E+00 0.  1.
         11    1    5    5    0    0 -0.10429088039E+03 -0.33429157201E+03 -0.38520766487E+03  0.52058850153E+03  0.00000000000E+00 0. -1.
        -11    1    5    5    0    0 -0.49633501520E+02 -0.96480366989E+02 -0.20227297631E+03  0.22953497039E+03  0.00000000000E+00 0.  1.
          2    1    6    6  503    0  0.73581180297E+00 -0.27600584788E+03  0.16080098309E+03  0.31943187951E+03  0.00000000000E+00 0. -1.
         -2    1    6    6    0  503  0.25261242372E+02 -0.35339354205E+03  0.98760956049E+02  0.36780273567E+03  0.00000000000E+00 0.  1.
<mgrwt>
<rscale>  0 0.30683284E+04</rscale>
<asrwt>0</asrwt>
<pdfrwt beam="1">  1        1 0.34376989E+00 0.30683284E+04</pdfrwt>
<pdfrwt beam="2">  1       -2 0.16205004E+00 0.30683284E+04</pdfrwt>
<totfact> 0.37353440E-01</totfact>
</mgrwt>
</event>
<event>
12    4  0.4183215E-008  0.3509619E+04  0.7818608E-02  0.8111514E-01
          1   -1    0    0  501    0  0.00000000000E+00  0.00000000000E+00  0.73789871747E+03  0.73789871747E+03  0.00000000000E+00 0. -1.
         -2   -1    0    0    0  501 -0.00000000000E+00 -0.00000000000E+00 -0.41731412843E+04  0.41731412843E+04  0.00000000000E+00 0.  1.
        -24    2    1    2    0    0 -0.14216974902E+04  0.31592058245E+03 -0.26615378145E+04  0.30349741108E+04  0.79086959991E+02 0.  0.
        254    2    1    2    0    0  0.14216974902E+04 -0.31592058245E+03 -0.77370475232E+03  0.18760658910E+04  0.89441300053E+03 0.  0.
         23    2    4    4    0    0  0.62026036658E+01 -0.12545985674E+03  0.11303664385E+03  0.19237360321E+03  0.91932977835E+02 0.  0.
         23    2    4    4    0    0  0.14154948865E+04 -0.19046072571E+03 -0.88674139617E+03  0.16836922878E+04  0.92781217979E+02 0.  0.
          3    1    3    3  502    0 -0.36731941970E+02  0.93260295903E+01 -0.99363228322E+02  0.10634501178E+03  0.00000000000E+00 0. -1.
         -4    1    3    3    0  502 -0.13849655482E+04  0.30659455286E+03 -0.25621745862E+04  0.29286290990E+04  0.00000000000E+00 0.  1.
         11    1    5    5    0    0  0.12804220058E+02  0.56718480351E+01 -0.59180004280E+01  0.15203310182E+02  0.00000000000E+00 0. -1.
        -11    1    5    5    0    0 -0.66016163920E+01 -0.13113170478E+03  0.11895464428E+03  0.17717029303E+03  0.00000000000E+00 0.  1.
          4    1    6    6  503    0  0.11539373402E+03 -0.35942897611E+02 -0.56741443279E+02  0.13351852727E+03  0.00000000000E+00 0. -1.
         -4    1    6    6    0  503  0.13001011525E+04 -0.15451782810E+03 -0.82999995289E+03  0.15501737605E+04  0.00000000000E+00 0.  1.
<mgrwt>
<rscale>  0 0.35096186E+04</rscale>
<asrwt>0</asrwt>
<pdfrwt beam="1">  1        1 0.11352288E+00 0.35096186E+04</pdfrwt>
<pdfrwt beam="2">  1       -2 0.64202172E+00 0.35096186E+04</pdfrwt>
<totfact> 0.63766713E-03</totfact>
</mgrwt>
</event>
<event>
12    4  0.4183215E-008  0.2212115E+04  0.7818608E-02  0.8513402E-01
          1   -1    0    0  501    0  0.00000000000E+00  0.00000000000E+00  0.11414861504E+04  0.11414861504E+04  0.00000000000E+00 0. -1.
         -2   -1    0    0    0  501 -0.00000000000E+00 -0.00000000000E+00 -0.10717287988E+04  0.10717287988E+04  0.00000000000E+00 0.  1.
        -24    2    1    2    0    0  0.79001511914E+03  0.58773273589E+02  0.49464735167E+03  0.93704182432E+03  0.76113020293E+02 0.  0.
        254    2    1    2    0    0 -0.79001511914E+03 -0.58773273589E+02 -0.42489000010E+03  0.12761731249E+04  0.90581904733E+03 0.  0.
         23    2    4    4    0    0 -0.76966984860E+03 -0.37142751628E+03 -0.40008298336E+03  0.94849863776E+03  0.96089523714E+02 0.  0.
         23    2    4    4    0    0 -0.20345270536E+02  0.31265424269E+03 -0.24807016733E+02  0.32767448718E+03  0.92674570220E+02 0.  0.
          3    1    3    3  502    0  0.71002138106E+03  0.61936833266E+02  0.41822414450E+03  0.82636430702E+03  0.00000000000E+00 0. -1.
         -4    1    3    3    0  502  0.79993738082E+02 -0.31635596768E+01  0.76423207170E+02  0.11067751730E+03  0.00000000000E+00 0.  1.
         11    1    5    5    0    0 -0.23338328819E+03 -0.13473475495E+03 -0.82651377945E+02  0.28187313400E+03  0.00000000000E+00 0.  1.
        -11    1    5    5    0    0 -0.53628656042E+03 -0.23669276133E+03 -0.31743160542E+03  0.66662550376E+03  0.00000000000E+00 0. -1.
          3    1    6    6  503    0 -0.24150807657E+02  0.30681708014E+03 -0.62251406486E+01  0.30782906710E+03  0.00000000000E+00 0. -1.
         -3    1    6    6    0  503  0.38055371211E+01  0.58371625513E+01 -0.18581876084E+02  0.19845420082E+02  0.00000000000E+00 0.  1.
<mgrwt>
<rscale>  0 0.22121154E+04</rscale>
<asrwt>0</asrwt>
<pdfrwt beam="1">  1        1 0.17561325E+00 0.22121154E+04</pdfrwt>
<pdfrwt beam="2">  1       -2 0.16488135E+00 0.22121154E+04</pdfrwt>
<totfact> 0.21872856E+00</totfact>
</mgrwt>
</event>
<event>
12    4  0.4183215E-008  0.2153968E+04  0.7818608E-02  0.8537836E-01
         -2   -1    0    0    0  501 -0.00000000000E+00  0.00000000000E+00  0.14909733263E+04  0.14909733263E+04  0.00000000000E+00 0.  1.
          1   -1    0    0  501    0  0.00000000000E+00 -0.00000000000E+00 -0.77794426213E+03  0.77794426213E+03  0.00000000000E+00 0. -1.
        -24    2    1    2    0    0  0.22205784511E+03 -0.72640335232E+02  0.11862702925E+04  0.12117078158E+04  0.80076958302E+02 0.  0.
        254    2    1    2    0    0 -0.22205784511E+03  0.72640335232E+02 -0.47324122825E+03  0.10572097727E+04  0.91605072918E+03 0.  0.
         23    2    4    4    0    0  0.94524698674E+02 -0.23163179515E+03  0.13711294913E+03  0.29960011245E+03  0.91498958347E+02 0.  0.
         23    2    4    4    0    0 -0.31658254378E+03  0.30427213039E+03 -0.61035417737E+03  0.75760966021E+03  0.92920068088E+02 0.  0.
          3    1    3    3  502    0  0.10977021766E+03 -0.83709325177E+01  0.40039678920E+03  0.41525553819E+03  0.00000000000E+00 0. -1.
         -4    1    3    3    0  502  0.11228762745E+03 -0.64269402714E+02  0.78587350325E+03  0.79645227761E+03  0.00000000000E+00 0.  1.
         11    1    5    5    0    0  0.86240265442E+02 -0.23871189093E+03  0.13756098436E+03  0.28869321896E+03  0.00000000000E+00 0.  1.
        -11    1    5    5    0    0  0.82844332314E+01  0.70800957762E+01 -0.44803523041E+00  0.10906893496E+02  0.00000000000E+00 0. -1.
          2    1    6    6  503    0 -0.62797649928E+02  0.40423247494E+02 -0.56277561509E+02  0.93513355752E+02  0.00000000000E+00 0. -1.
         -2    1    6    6    0  503 -0.25378489385E+03  0.26384888289E+03 -0.55407661586E+03  0.66409630446E+03  0.00000000000E+00 0.  1.
<mgrwt>
<rscale>  0 0.21539676E+04</rscale>
<asrwt>0</asrwt>
<pdfrwt beam="1">  1        1 0.11968373E+00 0.21539676E+04</pdfrwt>
<pdfrwt beam="2">  1       -2 0.22938051E+00 0.21539676E+04</pdfrwt>
<totfact> 0.15993788E+00</totfact>
</mgrwt>
</event>
<event>
12    4  0.4183215E-008  0.1513420E+04  0.7818608E-02  0.8875578E-01
         -2   -1    0    0    0  501 -0.00000000000E+00  0.00000000000E+00  0.42163422335E+03  0.42163422335E+03  0.00000000000E+00 0.  1.
          1   -1    0    0  501    0  0.00000000000E+00 -0.00000000000E+00 -0.13580727019E+04  0.13580727019E+04  0.00000000000E+00 0. -1.
        -24    2    1    2    0    0 -0.33204678912E+02  0.13614600164E+03  0.25215661181E+03  0.29907180978E+03  0.78884130607E+02 0.  0.
        254    2    1    2    0    0  0.33204678912E+02 -0.13614600164E+03 -0.11885950903E+04  0.14806351154E+04  0.87171312475E+03 0.  0.
         23    2    4    4    0    0  0.42611301893E+03 -0.17363128215E+03 -0.53793837863E+03  0.71403983436E+03  0.93568471225E+02 0.  0.
         23    2    4    4    0    0 -0.39290834002E+03  0.37485280510E+02 -0.65065671169E+03  0.76659528107E+03  0.92369143057E+02 0.  0.
          3    1    3    3  502    0  0.16271181293E+02  0.63075263206E+01  0.56245518920E+02  0.58890530882E+02  0.00000000000E+00 0. -1.
         -4    1    3    3    0  502 -0.49475860205E+02  0.12983847531E+03  0.19591109289E+03  0.24018127890E+03  0.00000000000E+00 0.  1.
         11    1    5    5    0    0  0.10335961039E+03 -0.75766707098E+02 -0.19253388905E+03  0.23128575701E+03  0.00000000000E+00 0.  1.
        -11    1    5    5    0    0  0.32275340854E+03 -0.97864575048E+02 -0.34540448959E+03  0.48275407735E+03  0.00000000000E+00 0. -1.
          1    1    6    6  503    0 -0.18483054176E+03 -0.99745368337E+01 -0.37290443923E+03  0.41631663593E+03  0.00000000000E+00 0. -1.
         -1    1    6    6    0  503 -0.20807779826E+03  0.47459817344E+02 -0.27775227246E+03  0.35027864515E+03  0.00000000000E+00 0.  1.
<mgrwt>
<rscale>  0 0.15134199E+04</rscale>
<asrwt>0</asrwt>
<pdfrwt beam="1">  1        1 0.20893426E+00 0.15134199E+04</pdfrwt>
<pdfrwt beam="2">  1       -2 0.64866803E-01 0.15134199E+04</pdfrwt>
<totfact> 0.15288053E+01</totfact>
</mgrwt>
</event>
<event>
12    4  0.4183215E-008  0.1712065E+04  0.7818608E-02  0.8754513E-01
          1   -1    0    0  501    0  0.00000000000E+00  0.00000000000E+00  0.12588476039E+04  0.12588476039E+04  0.00000000000E+00 0. -1.
         -2   -1    0    0    0  501 -0.00000000000E+00 -0.00000000000E+00 -0.58211334247E+03  0.58211334247E+03  0.00000000000E+00 0.  1.
        -24    2    1    2    0    0 -0.26627553285E+03  0.19258836393E+02  0.84518792484E+03  0.88984789508E+03  0.78823130565E+02 0.  0.
        254    2    1    2    0    0  0.26627553285E+03 -0.19258836393E+02 -0.16845366344E+03  0.95111305127E+03  0.89719888397E+03 0.  0.
         23    2    4    4    0    0  0.55122044510E+03  0.35151031541E+02 -0.28123922363E+03  0.62638618449E+03  0.90468652586E+02 0.  0.
         23    2    4    4    0    0 -0.28494491225E+03 -0.54409867934E+02  0.11278556019E+03  0.32472686678E+03  0.92590057106E+02 0.  0.
          3    1    3    3  502    0 -0.25985933209E+03  0.29494549378E+02  0.75847253147E+03  0.80229507160E+03  0.00000000000E+00 0. -1.
         -4    1    3    3    0  502 -0.64162007594E+01 -0.10235712986E+02  0.86715393365E+02  0.87552823478E+02  0.00000000000E+00 0.  1.
         11    1    5    5    0    0  0.53321417097E+03  0.26701762415E+02 -0.28638145492E+03  0.60584211966E+03  0.00000000000E+00 0.  1.
        -11    1    5    5    0    0  0.18006274134E+02  0.84492691265E+01  0.51422312953E+01  0.20544064828E+02  0.00000000000E+00 0. -1.
          3    1    6    6  503    0 -0.10318066389E+02  0.17426444583E+02  0.11760157314E+02  0.23418897601E+02  0.00000000000E+00 0. -1.
         -3    1    6    6    0  503 -0.27462684587E+03 -0.71836312517E+02  0.10102540288E+03  0.30130796918E+03  0.00000000000E+00 0.  1.
<mgrwt>
<rscale>  0 0.17120654E+04</rscale>
<asrwt>0</asrwt>
<pdfrwt beam="1">  1        1 0.19366886E+00 0.17120654E+04</pdfrwt>
<pdfrwt beam="2">  1       -2 0.89555899E-01 0.17120654E+04</pdfrwt>
<totfact> 0.86318115E+00</totfact>
</mgrwt>
</event>
<event>
12    4  0.4183215E-008  0.1231619E+04  0.7818608E-02  0.9085622E-01
          3   -1    0    0  501    0  0.00000000000E+00  0.00000000000E+00  0.18347250029E+04  0.18347250029E+04  0.00000000000E+00 0. -1.
         -4   -1    0    0    0  501 -0.00000000000E+00 -0.00000000000E+00 -0.20669103022E+03  0.20669103022E+03  0.00000000000E+00 0.  1.
        -24    2    1    2    0    0 -0.20427768457E+03  0.13197771737E+03  0.59799416113E+03  0.65064287622E+03  0.81188948351E+02 0.  0.
        254    2    1    2    0    0  0.20427768457E+03 -0.13197771737E+03  0.10300398115E+04  0.13907731569E+04  0.90228624630E+03 0.  0.
         23    2    4    4    0    0  0.55297357025E+03 -0.11157800164E+03  0.59545525430E+03  0.82593644908E+03  0.96822715329E+02 0.  0.
         23    2    4    4    0    0 -0.34869588568E+03 -0.20399715728E+02  0.43458455724E+03  0.56483670781E+03  0.90398008830E+02 0.  0.
          1    1    3    3  502    0 -0.14157940046E+02  0.40302576308E+02  0.13960155790E+03  0.14599088975E+03  0.00000000000E+00 0. -1.
         -2    1    3    3    0  502 -0.19011974452E+03  0.91675141060E+02  0.45839260323E+03  0.50465198647E+03  0.00000000000E+00 0.  1.
         11    1    5    5    0    0  0.28921275550E+02 -0.26403734884E+02  0.24113592302E+02  0.45989811143E+02  0.00000000000E+00 0.  1.
        -11    1    5    5    0    0  0.52405229470E+03 -0.85174266756E+02  0.57134166200E+03  0.77994663794E+03  0.00000000000E+00 0. -1.
          3    1    6    6  503    0 -0.17172358360E+03 -0.38572854204E+02  0.27111665299E+03  0.32323535354E+03  0.00000000000E+00 0. -1.
         -3    1    6    6    0  503 -0.17697230208E+03  0.18173138476E+02  0.16346790425E+03  0.24160135427E+03  0.00000000000E+00 0.  1.
<mgrwt>
<rscale>  0 0.12316188E+04</rscale>
<asrwt>0</asrwt>
<pdfrwt beam="1">  1        3 0.28226537E+00 0.12316188E+04</pdfrwt>
<pdfrwt beam="2">  1       -4 0.31798621E-01 0.12316188E+04</pdfrwt>
<totfact> 0.10599412E+00</totfact>
</mgrwt>
</event>
<event>
12    4  0.4183215E-008  0.1166280E+04  0.7818608E-02  0.9142895E-01
          1   -1    0    0  501    0  0.00000000000E+00  0.00000000000E+00  0.18133684783E+04  0.18133684783E+04  0.00000000000E+00 0. -1.
         -4   -1    0    0    0  501 -0.00000000000E+00 -0.00000000000E+00 -0.18752512033E+03  0.18752512033E+03  0.00000000000E+00 0.  1.
        -24    2    1    2    0    0  0.65134396619E+02  0.12712106750E+03  0.28262421805E+02  0.16612505577E+03  0.79978211061E+02 0.  0.
        254    2    1    2    0    0 -0.65134396619E+02 -0.12712106750E+03  0.15975809362E+04  0.18347685428E+04  0.89090319497E+03 0.  0.
         23    2    4    4    0    0 -0.24176252567E+03  0.24387348757E+03  0.28340381352E+03  0.45504353856E+03  0.93933506857E+02 0.  0.
         23    2    4    4    0    0  0.17662812906E+03 -0.37099455507E+03  0.13141771226E+04  0.13797250043E+04  0.88006374245E+02 0.  0.
          1    1    3    3  502    0  0.13892218753E+02  0.17987790458E+02  0.38941123669E+02  0.45088418247E+02  0.00000000000E+00 0. -1.
         -2    1    3    3    0  502  0.51242177866E+02  0.10913327704E+03 -0.10678701864E+02  0.12103663752E+03  0.00000000000E+00 0.  1.
         11    1    5    5    0    0 -0.15657784402E+03  0.10719067152E+03  0.19160183324E+03  0.26966224022E+03  0.00000000000E+00 0. -1.
        -11    1    5    5    0    0 -0.85184681650E+02  0.13668281605E+03  0.91801980277E+02  0.18538129834E+03  0.00000000000E+00 0.  1.
          2    1    6    6  503    0  0.17893037362E+03 -0.34747639321E+03  0.11681857314E+04  0.12318335218E+04  0.00000000000E+00 0. -1.
         -2    1    6    6    0  503 -0.23022445616E+01 -0.23518161853E+02  0.14599139127E+03  0.14789148249E+03  0.00000000000E+00 0.  1.
<mgrwt>
<rscale>  0 0.11662798E+04</rscale>
<asrwt>0</asrwt>
<pdfrwt beam="1">  1        1 0.27897975E+00 0.11662798E+04</pdfrwt>
<pdfrwt beam="2">  1       -4 0.28850020E-01 0.11662798E+04</pdfrwt>
<totfact> 0.22784225E+01</totfact>
</mgrwt>
</event>
<event>
12    4  0.4183215E-008  0.1396122E+04  0.7818608E-02  0.8956630E-01
          1   -1    0    0  501    0  0.00000000000E+00  0.00000000000E+00  0.14871362066E+04  0.14871362066E+04  0.00000000000E+00 0. -1.
         -2   -1    0    0    0  501 -0.00000000000E+00 -0.00000000000E+00 -0.32766964179E+03  0.32766964179E+03  0.00000000000E+00 0.  1.
        -24    2    1    2    0    0 -0.11812570962E+03 -0.24456346268E+03 -0.50209322404E+02  0.28755266494E+03  0.80003678094E+02 0.  0.
        254    2    1    2    0    0  0.11812570962E+03  0.24456346268E+03  0.12096758872E+04  0.15272531835E+04  0.89186409486E+03 0.  0.
         23    2    4    4    0    0 -0.11137323504E+03 -0.27507248519E+03  0.66962825760E+03  0.73812249275E+03  0.91399897894E+02 0.  0.
         23    2    4    4    0    0  0.22949894466E+03  0.51963594787E+03  0.54004762962E+03  0.78913069071E+03  0.91567029187E+02 0.  0.
          1    1    3    3  502    0 -0.32848057420E+02 -0.20647905742E+02 -0.26050859251E+02  0.46733052067E+02  0.00000000000E+00 0. -1.
         -2    1    3    3    0  502 -0.85277652195E+02 -0.22391555694E+03 -0.24158463153E+02  0.24081961288E+03  0.00000000000E+00 0.  1.
         11    1    5    5    0    0 -0.11886971880E+03 -0.23847851026E+03  0.52502717679E+03  0.58877461415E+03  0.00000000000E+00 0. -1.
        -11    1    5    5    0    0  0.74964837596E+01 -0.36593974932E+02  0.14460108081E+03  0.14934787860E+03  0.00000000000E+00 0.  1.
          4    1    6    6  503    0  0.17819965741E+03  0.39503243386E+03  0.35492196481E+03  0.56015653420E+03  0.00000000000E+00 0.  1.
         -4    1    6    6    0  503  0.51299287251E+02  0.12460351402E+03  0.18512566481E+03  0.22897415651E+03  0.00000000000E+00 0. -1.
<mgrwt>
<rscale>  0 0.13961223E+04</rscale>
<asrwt>0</asrwt>
<pdfrwt beam="1">  1        1 0.22879018E+00 0.13961223E+04</pdfrwt>
<pdfrwt beam="2">  1       -2 0.50410715E-01 0.13961223E+04</pdfrwt>
<totfact> 0.21266850E+01</totfact>
</mgrwt>
</event>
<event>
12    4  0.4183215E-008  0.2922112E+04  0.7818608E-02  0.8266329E-01
         -2   -1    0    0    0  501 -0.00000000000E+00  0.00000000000E+00  0.11714817682E+04  0.11714817682E+04  0.00000000000E+00 0.  1.
          1   -1    0    0  501    0  0.00000000000E+00 -0.00000000000E+00 -0.18222084495E+04  0.18222084495E+04  0.00000000000E+00 0. -1.
        -24    2    1    2    0    0 -0.43613579230E+03  0.74634004726E+03 -0.13223440211E+04  0.15817972695E+04  0.79063242117E+02 0.  0.
        254    2    1    2    0    0  0.43613579230E+03 -0.74634004726E+03  0.67161733989E+03  0.14118929482E+04  0.89170283749E+03 0.  0.
         23    2    4    4    0    0 -0.12043466002E+03  0.12339801757E+03  0.40581013245E+02  0.19844635207E+03  0.89457017280E+02 0.  0.
         23    2    4    4    0    0  0.55657045232E+03 -0.86973806483E+03  0.63103632665E+03  0.12134465961E+04  0.89614877234E+02 0.  0.
          3    1    3    3  502    0 -0.30926303653E+03  0.56207901920E+03 -0.10338356037E+04  0.12167138140E+04  0.00000000000E+00 0. -1.
         -4    1    3    3    0  502 -0.12687275577E+03  0.18426102806E+03 -0.28850841742E+03  0.36508345558E+03  0.00000000000E+00 0.  1.
         11    1    5    5    0    0 -0.74481115471E+02  0.84274979174E+02  0.68776699130E+02  0.13183301187E+03  0.00000000000E+00 0. -1.
        -11    1    5    5    0    0 -0.45953544547E+02  0.39123038397E+02 -0.28195685885E+02  0.66613340198E+02  0.00000000000E+00 0.  1.
          4    1    6    6  503    0  0.41470190804E+03 -0.59883230751E+03  0.40743865532E+03  0.83461611709E+03  0.00000000000E+00 0. -1.
         -4    1    6    6    0  503  0.14186854428E+03 -0.27090575732E+03  0.22359767133E+03  0.37883047901E+03  0.00000000000E+00 0.  1.
<mgrwt>
<rscale>  0 0.29221115E+04</rscale>
<asrwt>0</asrwt>
<pdfrwt beam="1">  1        1 0.28033976E+00 0.29221115E+04</pdfrwt>
<pdfrwt beam="2">  1       -2 0.18022796E+00 0.29221115E+04</pdfrwt>
<totfact> 0.53528758E-01</totfact>
</mgrwt>
</event>
<event>
12    4  0.4183215E-008  0.1841931E+04  0.7818608E-02  0.8684313E-01
          1   -1    0    0  501    0  0.00000000000E+00  0.00000000000E+00  0.15226469309E+04  0.15226469309E+04  0.00000000000E+00 0. -1.
         -2   -1    0    0    0  501 -0.00000000000E+00 -0.00000000000E+00 -0.55704174170E+03  0.55704174170E+03  0.00000000000E+00 0.  1.
        -24    2    1    2    0    0 -0.37328902600E+03 -0.13588017282E+03  0.10216968962E+04  0.10992916503E+04  0.82276767479E+02 0.  0.
        254    2    1    2    0    0  0.37328902600E+03  0.13588017282E+03 -0.56091707008E+02  0.98039702227E+03  0.89455235922E+03 0.  0.
         23    2    4    4    0    0  0.41415839903E+03 -0.29818153635E+01 -0.40850043687E+03  0.58871153755E+03  0.90402415983E+02 0.  0.
         23    2    4    4    0    0 -0.40869373027E+02  0.13886198818E+03  0.35240872986E+03  0.39168548472E+03  0.90954101868E+02 0.  0.
          3    1    3    3  502    0 -0.35355835141E+03 -0.12385172133E+03  0.89075956549E+03  0.96633087514E+03  0.00000000000E+00 0. -1.
         -4    1    3    3    0  502 -0.19730674591E+02 -0.12028451485E+02  0.13093733070E+03  0.13296077518E+03  0.00000000000E+00 0.  1.
         11    1    5    5    0    0  0.86650243461E+02 -0.26679308676E+02 -0.12796432631E+03  0.15682767298E+03  0.00000000000E+00 0. -1.
        -11    1    5    5    0    0  0.32750815557E+03  0.23697493312E+02 -0.28053611056E+03  0.43188386457E+03  0.00000000000E+00 0.  1.
          2    1    6    6  503    0 -0.58057408873E+02  0.13970107340E+03  0.29186192603E+03  0.32874068275E+03  0.00000000000E+00 0.  1.
         -2    1    6    6    0  503  0.17188035846E+02 -0.83908521738E+00  0.60546803832E+02  0.62944801966E+02  0.00000000000E+00 0. -1.
<mgrwt>
<rscale>  0 0.18419315E+04</rscale>
<asrwt>0</asrwt>
<pdfrwt beam="1">  1        1 0.23425337E+00 0.18419315E+04</pdfrwt>
<pdfrwt beam="2">  1       -2 0.85698730E-01 0.18419315E+04</pdfrwt>
<totfact> 0.61571560E+00</totfact>
</mgrwt>
</event>
<event>
12    4  0.4183215E-008  0.1485117E+04  0.7818608E-02  0.8894411E-01
          1   -1    0    0  501    0  0.00000000000E+00  0.00000000000E+00  0.10592659994E+04  0.10592659994E+04  0.00000000000E+00 0. -1.
         -2   -1    0    0    0  501 -0.00000000000E+00 -0.00000000000E+00 -0.52054258113E+03  0.52054258113E+03  0.00000000000E+00 0.  1.
        -24    2    1    2    0    0 -0.17695786121E+03 -0.26526602341E+03 -0.20001777707E+03  0.38468535732E+03  0.79344597651E+02 0.  0.
        254    2    1    2    0    0  0.17695786121E+03  0.26526602341E+03  0.73874119532E+03  0.11951232232E+04  0.88368592676E+03 0.  0.
         23    2    4    4    0    0 -0.15164952349E+03  0.13769357938E+03  0.79515058690E+03  0.82644416487E+03  0.93746477409E+02 0.  0.
         23    2    4    4    0    0  0.32860738470E+03  0.12757244403E+03 -0.56409391577E+02  0.36867905833E+03  0.92112359843E+02 0.  0.
          3    1    3    3  502    0 -0.79206721802E+00 -0.58006137825E+01 -0.24712092634E+02  0.25396102321E+02  0.00000000000E+00 0. -1.
         -4    1    3    3    0  502 -0.17616579399E+03 -0.25946540962E+03 -0.17530568443E+03  0.35928925500E+03  0.00000000000E+00 0.  1.
         11    1    5    5    0    0 -0.74405669515E+02  0.10330843132E+03  0.33070547085E+03  0.35436555150E+03  0.00000000000E+00 0. -1.
        -11    1    5    5    0    0 -0.77243853974E+02  0.34385148063E+02  0.46444511605E+03  0.47207861337E+03  0.00000000000E+00 0.  1.
          4    1    6    6  503    0  0.22097189439E+02  0.39700083179E+02 -0.89593320786E+01  0.46310387785E+02  0.00000000000E+00 0.  1.
         -4    1    6    6    0  503  0.30651019526E+03  0.87872360847E+02 -0.47450059499E+02  0.32236867054E+03  0.00000000000E+00 0. -1.
<mgrwt>
<rscale>  0 0.14851169E+04</rscale>
<asrwt>0</asrwt>
<pdfrwt beam="1">  1        1 0.16296400E+00 0.14851169E+04</pdfrwt>
<pdfrwt beam="2">  1       -2 0.80083474E-01 0.14851169E+04</pdfrwt>
<totfact> 0.15944633E+01</totfact>
</mgrwt>
</event>
<event>
12    4  0.4183215E-008  0.2180431E+04  0.7818608E-02  0.8526618E-01
          1   -1    0    0  501    0  0.00000000000E+00  0.00000000000E+00  0.80379137695E+03  0.80379137695E+03  0.00000000000E+00 0. -1.
         -2   -1    0    0    0  501 -0.00000000000E+00 -0.00000000000E+00 -0.14787042077E+04  0.14787042077E+04  0.00000000000E+00 0.  1.
        -24    2    1    2    0    0  0.23630086245E+03 -0.43330171873E+03  0.52286466039E+03  0.72350481132E+03  0.80518829281E+02 0.  0.
        254    2    1    2    0    0 -0.23630086245E+03  0.43330171873E+03 -0.11977774912E+04  0.15589907734E+04  0.86729051421E+03 0.  0.
         23    2    4    4    0    0  0.16684841402E+03 -0.12549436164E+02 -0.82296989880E+03  0.84477759337E+03  0.91508722660E+02 0.  0.
         23    2    4    4    0    0 -0.40314927647E+03  0.44585115489E+03 -0.37480759239E+03  0.71421318001E+03  0.91143533764E+02 0.  0.
          3    1    3    3  502    0  0.15870799706E+03 -0.25961382595E+03  0.37276079707E+03  0.48118414228E+03  0.00000000000E+00 0. -1.
         -4    1    3    3    0  502  0.77592865397E+02 -0.17368789278E+03  0.15010386332E+03  0.24232066903E+03  0.00000000000E+00 0.  1.
         11    1    5    5    0    0  0.81537810329E+02  0.49642640491E+01 -0.20459647561E+03  0.22030155756E+03  0.00000000000E+00 0. -1.
        -11    1    5    5    0    0  0.85310603693E+02 -0.17513700213E+02 -0.61837342318E+03  0.62447603581E+03  0.00000000000E+00 0.  1.
          4    1    6    6  503    0 -0.31083182846E+03  0.28104324599E+03 -0.25622627678E+03  0.49117576957E+03  0.00000000000E+00 0. -1.
         -4    1    6    6    0  503 -0.92317448016E+02  0.16480790890E+03 -0.11858131561E+03  0.22303741044E+03  0.00000000000E+00 0.  1.
<mgrwt>
<rscale>  0 0.21804309E+04</rscale>
<asrwt>0</asrwt>
<pdfrwt beam="1">  1        1 0.12366021E+00 0.21804309E+04</pdfrwt>
<pdfrwt beam="2">  1       -2 0.22749295E+00 0.21804309E+04</pdfrwt>
<totfact> 0.15563573E+00</totfact>
</mgrwt>
</event>
<event>
12    4  0.4183215E-008  0.1909065E+04  0.7818608E-02  0.8650357E-01
          1   -1    0    0  501    0  0.00000000000E+00  0.00000000000E+00  0.11998674259E+04  0.11998674259E+04  0.00000000000E+00 0. -1.
         -2   -1    0    0    0  501 -0.00000000000E+00 -0.00000000000E+00 -0.75936048027E+03  0.75936048027E+03  0.00000000000E+00 0.  1.
        -24    2    1    2    0    0 -0.30664668196E+03  0.78126052729E+02 -0.48669893082E+03  0.58592545293E+03  0.79353131373E+02 0.  0.
        254    2    1    2    0    0  0.30664668196E+03 -0.78126052729E+02  0.92720587643E+03  0.13733024532E+04  0.96234766228E+03 0.  0.
         23    2    4    4    0    0  0.43620710297E+03 -0.42456496981E+03  0.44931702296E+03  0.76205744049E+03  0.91179521910E+02 0.  0.
         23    2    4    4    0    0 -0.12956042101E+03  0.34643891708E+03  0.47788885347E+03  0.61124501274E+03  0.91852508814E+02 0.  0.
          3    1    3    3  502    0 -0.85311352764E+02  0.52598990398E+02 -0.11479618232E+03  0.15239043335E+03  0.00000000000E+00 0. -1.
         -4    1    3    3    0  502 -0.22133532919E+03  0.25527062331E+02 -0.37190274849E+03  0.43353501958E+03  0.00000000000E+00 0.  1.
         11    1    5    5    0    0  0.32837939631E+03 -0.26406539167E+03  0.29014952382E+03  0.51161538793E+03  0.00000000000E+00 0. -1.
        -11    1    5    5    0    0  0.10782770666E+03 -0.16049957814E+03  0.15916749914E+03  0.25044205256E+03  0.00000000000E+00 0.  1.
          3    1    6    6  503    0 -0.72672123684E+02  0.80474892595E+02  0.11992215795E+03  0.16167488941E+03  0.00000000000E+00 0. -1.
         -3    1    6    6    0  503 -0.56888297326E+02  0.26596402448E+03  0.35796669552E+03  0.44957012333E+03  0.00000000000E+00 0.  1.
<mgrwt>
<rscale>  0 0.19090646E+04</rscale>
<asrwt>0</asrwt>
<pdfrwt beam="1">  1        1 0.18459499E+00 0.19090646E+04</pdfrwt>
<pdfrwt beam="2">  1       -2 0.11682469E+00 0.19090646E+04</pdfrwt>
<totfact> 0.49728872E+00</totfact>
</mgrwt>
</event>
<event>
12    4  0.4183215E-008  0.1808432E+04  0.7818608E-02  0.8701828E-01
         -2   -1    0    0    0  501 -0.00000000000E+00  0.00000000000E+00  0.57469226729E+03  0.57469226729E+03  0.00000000000E+00 0.  1.
          1   -1    0    0  501    0  0.00000000000E+00 -0.00000000000E+00 -0.14226859192E+04  0.14226859192E+04  0.00000000000E+00 0. -1.
        -24    2    1    2    0    0  0.94628642804E+02  0.45463371842E+03 -0.86514490211E+03  0.98530444991E+03  0.81870381713E+02 0.  0.
        254    2    1    2    0    0 -0.94628642804E+02 -0.45463371842E+03  0.17151250193E+02  0.10120737366E+04  0.89908435919E+03 0.  0.
         23    2    4    4    0    0 -0.22332134096E+03  0.20868138705E+03 -0.58381079113E+02  0.32576805817E+03  0.96416464844E+02 0.  0.
         23    2    4    4    0    0  0.12869269816E+03 -0.66331510547E+03  0.75532329306E+02  0.68630567841E+03  0.93603481497E+02 0.  0.
          1    1    3    3  502    0  0.61954790535E+02  0.36274262228E+03 -0.74178420693E+03  0.82804855880E+03  0.00000000000E+00 0. -1.
         -2    1    3    3    0  502  0.32673852270E+02  0.91891096142E+02 -0.12336069519E+03  0.15725589111E+03  0.00000000000E+00 0.  1.
         11    1    5    5    0    0 -0.30480437197E+02 -0.30409970316E+01  0.82801654153E+01  0.31731149585E+02  0.00000000000E+00 0. -1.
        -11    1    5    5    0    0 -0.19284090377E+03  0.21172238408E+03 -0.66661244529E+02  0.29403690858E+03  0.00000000000E+00 0.  1.
          1    1    6    6  503    0  0.48434229251E+02 -0.29979966373E+03  0.79855946897E+02  0.31401064502E+03  0.00000000000E+00 0. -1.
         -1    1    6    6    0  503  0.80258468908E+02 -0.36351544174E+03 -0.43236175909E+01  0.37229503339E+03  0.00000000000E+00 0.  1.
<mgrwt>
<rscale>  0 0.18084320E+04</rscale>
<asrwt>0</asrwt>
<pdfrwt beam="1">  1        1 0.21887475E+00 0.18084320E+04</pdfrwt>
<pdfrwt beam="2">  1       -2 0.88414197E-01 0.18084320E+04</pdfrwt>
<totfact> 0.67470147E+00</totfact>
</mgrwt>
</event>
<event>
12    4  0.4183215E-008  0.1121087E+04  0.7818608E-02  0.9184880E-01
         -2   -1    0    0    0  501 -0.00000000000E+00  0.00000000000E+00  0.21341525639E+03  0.21341525639E+03  0.00000000000E+00 0.  1.
          1   -1    0    0  501    0  0.00000000000E+00 -0.00000000000E+00 -0.14722883910E+04  0.14722883910E+04  0.00000000000E+00 0. -1.
        -24    2    1    2    0    0 -0.70353083611E+02 -0.15242259964E+03 -0.91066234950E+02  0.20583671076E+03  0.76769050374E+02 0.  0.
        254    2    1    2    0    0  0.70353083611E+02  0.15242259964E+03 -0.11678068997E+04  0.14798669366E+04  0.89333699687E+03 0.  0.
         23    2    4    4    0    0  0.36507723697E+03  0.29048397142E+03 -0.33856760276E+03  0.58430995827E+03  0.95539411194E+02 0.  0.
         23    2    4    4    0    0 -0.29472415336E+03 -0.13806137178E+03 -0.82923929692E+03  0.89555697837E+03  0.91984895462E+02 0.  0.
          1    1    3    3  502    0 -0.12603623295E+02  0.59984574272E+01 -0.16088932849E+02  0.21299919528E+02  0.00000000000E+00 0. -1.
         -2    1    3    3    0  502 -0.57749460316E+02 -0.15842105707E+03 -0.74977302101E+02  0.18453679124E+03  0.00000000000E+00 0.  1.
         11    1    5    5    0    0  0.19472216238E+02  0.41652867152E+02 -0.59333864600E+02  0.75064212749E+02  0.00000000000E+00 0. -1.
        -11    1    5    5    0    0  0.34560502073E+03  0.24883110427E+03 -0.27923373816E+03  0.50924574552E+03  0.00000000000E+00 0.  1.
          1    1    6    6  503    0 -0.23547143880E+03 -0.79579970318E+02 -0.68907248095E+03  0.73253030938E+03  0.00000000000E+00 0. -1.
         -1    1    6    6    0  503 -0.59252714567E+02 -0.58481401462E+02 -0.14016681597E+03  0.16302666898E+03  0.00000000000E+00 0.  1.
<mgrwt>
<rscale>  0 0.11210866E+04</rscale>
<asrwt>0</asrwt>
<pdfrwt beam="1">  1        1 0.22650592E+00 0.11210866E+04</pdfrwt>
<pdfrwt beam="2">  1       -2 0.32833115E-01 0.11210866E+04</pdfrwt>
<totfact> 0.51656962E+01</totfact>
</mgrwt>
</event>
<event>
12    4  0.4183215E-008  0.1474768E+04  0.7818608E-02  0.8901407E-01
          1   -1    0    0  501    0  0.00000000000E+00  0.00000000000E+00  0.10657616657E+04  0.10657616657E+04  0.00000000000E+00 0. -1.
         -2   -1    0    0    0  501 -0.00000000000E+00 -0.00000000000E+00 -0.51018475264E+03  0.51018475264E+03  0.00000000000E+00 0.  1.
        -24    2    1    2    0    0 -0.29603383809E+03 -0.11261514079E+03 -0.17884916613E+03  0.37283456053E+03  0.81855861565E+02 0.  0.
        254    2    1    2    0    0  0.29603383809E+03  0.11261514079E+03  0.73442607920E+03  0.12031118578E+04  0.89876485988E+03 0.  0.
         23    2    4    4    0    0  0.77342955217E+02  0.45150100375E+03  0.15746161183E+03  0.49320683366E+03  0.92864053631E+02 0.  0.
         23    2    4    4    0    0  0.21869088287E+03 -0.33888586296E+03  0.57696446737E+03  0.70990502415E+03  0.91694145573E+02 0.  0.
          3    1    3    3  502    0 -0.72829139638E+01  0.36133299989E+01  0.66353428325E+01  0.10494034686E+02  0.00000000000E+00 0. -1.
         -4    1    3    3    0  502 -0.28875092413E+03 -0.11622847079E+03 -0.18548450897E+03  0.36234052585E+03  0.00000000000E+00 0.  1.
         11    1    5    5    0    0 -0.66967142740E+01  0.40423940050E+01 -0.55832714661E+01  0.96104033018E+01  0.00000000000E+00 0. -1.
        -11    1    5    5    0    0  0.84039669491E+02  0.44745860975E+03  0.16304488330E+03  0.48359643036E+03  0.00000000000E+00 0.  1.
          3    1    6    6  503    0 -0.84472473725E+01 -0.60590446525E+01  0.10808418559E+02  0.14996330285E+02  0.00000000000E+00 0. -1.
         -3    1    6    6    0  503  0.22713813025E+03 -0.33282681831E+03  0.56615604881E+03  0.69490869386E+03  0.00000000000E+00 0.  1.
<mgrwt>
<rscale>  0 0.14747683E+04</rscale>
<asrwt>0</asrwt>
<pdfrwt beam="1">  1        1 0.16396333E+00 0.14747683E+04</pdfrwt>
<pdfrwt beam="2">  1       -2 0.78489962E-01 0.14747683E+04</pdfrwt>
<totfact> 0.16505525E+01</totfact>
</mgrwt>
</event>
<event>
12    4  0.4183215E-008  0.2675791E+04  0.7818608E-02  0.8342903E-01
         -2   -1    0    0    0  501 -0.00000000000E+00  0.00000000000E+00  0.56260207055E+03  0.56260207055E+03  0.00000000000E+00 0.  1.
          1   -1    0    0  501    0  0.00000000000E+00 -0.00000000000E+00 -0.31815807371E+04  0.31815807371E+04  0.00000000000E+00 0. -1.
        -24    2    1    2    0    0 -0.43784225610E+03 -0.87715456256E+03 -0.20984861128E+04  0.23179016548E+04  0.88983974479E+02 0.  0.
        254    2    1    2    0    0  0.43784225610E+03  0.87715456256E+03 -0.52049255370E+03  0.14262811528E+04  0.89568937731E+03 0.  0.
         23    2    4    4    0    0  0.28772830914E+03  0.99960562242E+03 -0.23747781700E+03  0.10709736606E+04  0.92681647450E+02 0.  0.
         23    2    4    4    0    0  0.15011394696E+03 -0.12245105986E+03 -0.28301473671E+03  0.35530749228E+03  0.92831103337E+02 0.  0.
          3    1    3    3  502    0 -0.96174639442E+02 -0.26653466466E+03 -0.55158044563E+03  0.62010585930E+03  0.00000000000E+00 0. -1.
         -4    1    3    3    0  502 -0.34166761666E+03 -0.61061989790E+03 -0.15469056672E+04  0.16977957955E+04  0.00000000000E+00 0.  1.
         11    1    5    5    0    0  0.71406676765E+02  0.25405784826E+03 -0.10208419799E+03  0.28295845495E+03  0.00000000000E+00 0. -1.
        -11    1    5    5    0    0  0.21632163237E+03  0.74554777417E+03 -0.13539361901E+03  0.78801520560E+03  0.00000000000E+00 0.  1.
          1    1    6    6  503    0  0.14823320688E+03 -0.84470193585E+02 -0.19305379192E+03  0.25763940654E+03  0.00000000000E+00 0.  1.
         -1    1    6    6    0  503  0.18807400791E+01 -0.37980866277E+02 -0.89960944786E+02  0.97668085745E+02  0.00000000000E+00 0. -1.
<mgrwt>
<rscale>  0 0.26757907E+04</rscale>
<asrwt>0</asrwt>
<pdfrwt beam="1">  1        1 0.48947396E+00 0.26757907E+04</pdfrwt>
<pdfrwt beam="2">  1       -2 0.86554165E-01 0.26757907E+04</pdfrwt>
<totfact> 0.39033026E-01</totfact>
</mgrwt>
</event>
<event>
12    4  0.4183215E-008  0.2104906E+04  0.7818608E-02  0.8559085E-01
         -2   -1    0    0    0  501 -0.00000000000E+00  0.00000000000E+00  0.54327000779E+03  0.54327000779E+03  0.00000000000E+00 0.  1.
          1   -1    0    0  501    0  0.00000000000E+00 -0.00000000000E+00 -0.20388713591E+04  0.20388713591E+04  0.00000000000E+00 0. -1.
        -24    2    1    2    0    0 -0.20311149881E+03  0.95366009170E+02 -0.16278469602E+04  0.16451471450E+04  0.79211402126E+02 0.  0.
        254    2    1    2    0    0  0.20311149881E+03 -0.95366009170E+02  0.13224560890E+03  0.93699422188E+03  0.90006683869E+03 0.  0.
         23    2    4    4    0    0  0.31042752513E+03  0.27887070939E+03  0.28203433533E+03  0.51023131582E+03  0.81599683983E+02 0.  0.
         23    2    4    4    0    0 -0.10731602632E+03 -0.37423671856E+03 -0.14978872643E+03  0.42676290606E+03  0.90111399925E+02 0.  0.
          1    1    3    3  502    0 -0.16574277291E+03  0.44606610141E+02 -0.10590936802E+04  0.10729118509E+04  0.00000000000E+00 0. -1.
         -2    1    3    3    0  502 -0.37368725904E+02  0.50759399029E+02 -0.56875328006E+03  0.57223529413E+03  0.00000000000E+00 0.  1.
         11    1    5    5    0    0  0.46459671815E+02  0.10979860737E+02  0.19484396286E+02  0.51562584745E+02  0.00000000000E+00 0. -1.
        -11    1    5    5    0    0  0.26396785332E+03  0.26789084865E+03  0.26254993904E+03  0.45866873108E+03  0.00000000000E+00 0.  1.
          1    1    6    6  503    0 -0.11578172108E+03 -0.25487520493E+03 -0.10632853749E+03  0.29945372749E+03  0.00000000000E+00 0. -1.
         -1    1    6    6    0  503  0.84656947603E+01 -0.11936151363E+03 -0.43460188945E+02  0.12730917857E+03  0.00000000000E+00 0.  1.
<mgrwt>
<rscale>  0 0.21049063E+04</rscale>
<asrwt>0</asrwt>
<pdfrwt beam="1">  1        1 0.31367252E+00 0.21049063E+04</pdfrwt>
<pdfrwt beam="2">  1       -2 0.83580001E-01 0.21049063E+04</pdfrwt>
<totfact> 0.28348253E+00</totfact>
</mgrwt>
</event>
<event>
12    4  0.4183215E-008  0.2836740E+04  0.7818608E-02  0.8291952E-01
         -2   -1    0    0    0  501 -0.00000000000E+00  0.00000000000E+00  0.10084897456E+04  0.10084897456E+04  0.00000000000E+00 0.  1.
          1   -1    0    0  501    0  0.00000000000E+00 -0.00000000000E+00 -0.19948372641E+04  0.19948372641E+04  0.00000000000E+00 0. -1.
        -24    2    1    2    0    0  0.11886999434E+04 -0.69054981796E+02  0.36006547470E+02  0.11938420213E+04  0.78652109874E+02 0.  0.
        254    2    1    2    0    0 -0.11886999434E+04  0.69054981796E+02 -0.10223540660E+04  0.18094849885E+04  0.90069525446E+03 0.  0.
         23    2    4    4    0    0 -0.49405060446E+02  0.56026268356E+02 -0.56692652421E+03  0.57918685368E+03  0.92043059897E+02 0.  0.
         23    2    4    4    0    0 -0.11392948829E+04  0.13028713440E+02 -0.45542754177E+03  0.12302981348E+04  0.89758994249E+02 0.  0.
          1    1    3    3  502    0  0.76163428458E+02  0.11876589618E+02  0.12694328492E+02  0.78122129972E+02  0.00000000000E+00 0. -1.
         -2    1    3    3    0  502  0.11125365149E+04 -0.80931571414E+02  0.23312218978E+02  0.11157198913E+04  0.00000000000E+00 0.  1.
         11    1    5    5    0    0 -0.92860545742E+01 -0.22028127112E+02 -0.57746539273E+02  0.62499055926E+02  0.00000000000E+00 0. -1.
        -11    1    5    5    0    0 -0.40119005872E+02  0.78054395467E+02 -0.50917998494E+03  0.51668779775E+03  0.00000000000E+00 0.  1.
          3    1    6    6  503    0 -0.53666153031E+03  0.45472158651E+02 -0.23789054689E+03  0.58878283571E+03  0.00000000000E+00 0. -1.
         -3    1    6    6    0  503 -0.60263335261E+03 -0.32443445211E+02 -0.21753699488E+03  0.64151529908E+03  0.00000000000E+00 0.  1.
<mgrwt>
<rscale>  0 0.28367396E+04</rscale>
<asrwt>0</asrwt>
<pdfrwt beam="1">  1        1 0.30689804E+00 0.28367396E+04</pdfrwt>
<pdfrwt beam="2">  1       -2 0.15515227E+00 0.28367396E+04</pdfrwt>
<totfact> 0.62399203E-01</totfact>
</mgrwt>
</event>
<event>
12    4  0.4183215E-008  0.1883897E+04  0.7818608E-02  0.8662914E-01
         -2   -1    0    0    0  501 -0.00000000000E+00  0.00000000000E+00  0.37099796082E+03  0.37099796082E+03  0.00000000000E+00 0.  1.
          1   -1    0    0  501    0  0.00000000000E+00 -0.00000000000E+00 -0.23915672803E+04  0.23915672803E+04  0.00000000000E+00 0. -1.
        -24    2    1    2    0    0  0.29739466943E+03  0.15977333930E+03  0.15719861515E+03  0.38006674797E+03  0.75948791608E+02 0.  0.
        254    2    1    2    0    0 -0.29739466943E+03 -0.15977333930E+03 -0.21777679346E+04  0.23824984931E+04  0.90534787976E+03 0.  0.
         23    2    4    4    0    0 -0.21758521794E+03  0.11647274879E+03 -0.20277566582E+04  0.20446968515E+04  0.89882820079E+02 0.  0.
         23    2    4    4    0    0 -0.79809451492E+02 -0.27624608809E+03 -0.15001127644E+03  0.33780164167E+03  0.94472833780E+02 0.  0.
          3    1    3    3  502    0  0.34416985547E+02  0.15913138792E+02  0.47708015238E+02  0.60941050190E+02  0.00000000000E+00 0. -1.
         -4    1    3    3    0  502  0.26297768389E+03  0.14386020051E+03  0.10949059992E+03  0.31912569778E+03  0.00000000000E+00 0.  1.
         11    1    5    5    0    0 -0.16964503141E+03  0.12294821869E+03 -0.14714710279E+04  0.14863117732E+04  0.00000000000E+00 0.  1.
        -11    1    5    5    0    0 -0.47940186530E+02 -0.64754699078E+01 -0.55628563028E+03  0.55838507828E+03  0.00000000000E+00 0. -1.
          4    1    6    6  503    0 -0.78865168539E+02 -0.27936248565E+03 -0.15705291631E+03  0.33004353004E+03  0.00000000000E+00 0.  1.
         -4    1    6    6    0  503 -0.94428295345E+00  0.31163975621E+01  0.70416398679E+01  0.77581116317E+01  0.00000000000E+00 0. -1.
<mgrwt>
<rscale>  0 0.18838966E+04</rscale>
<asrwt>0</asrwt>
<pdfrwt beam="1">  1        1 0.36793345E+00 0.18838966E+04</pdfrwt>
<pdfrwt beam="2">  1       -2 0.57076606E-01 0.18838966E+04</pdfrwt>
<totfact> 0.38144461E+00</totfact>
</mgrwt>
</event>
<event>
12    4  0.4183215E-008  0.3345600E+04  0.7818608E-02  0.8151388E-01
          3   -1    0    0  501    0  0.00000000000E+00  0.00000000000E+00  0.10970685517E+04  0.10970685517E+04  0.00000000000E+00 0. -1.
         -4   -1    0    0    0  501 -0.00000000000E+00 -0.00000000000E+00 -0.25506698123E+04  0.25506698123E+04  0.00000000000E+00 0.  1.
        -24    2    1    2    0    0 -0.80905169154E+03 -0.20175461390E+03 -0.21013748825E+04  0.22620831881E+04  0.77294173669E+02 0.  0.
        254    2    1    2    0    0  0.80905169154E+03  0.20175461390E+03  0.64777362199E+03  0.13856551759E+04  0.89730710310E+03 0.  0.
         23    2    4    4    0    0  0.15522685666E+03  0.47163648446E+03  0.19532114238E+03  0.54114792720E+03  0.90301605449E+02 0.  0.
         23    2    4    4    0    0  0.65382483488E+03 -0.26988187057E+03  0.45245247961E+03  0.84450724868E+03  0.90311173154E+02 0.  0.
          3    1    3    3  502    0 -0.15698585395E+03 -0.21260264434E+02 -0.46960811895E+03  0.49560906223E+03  0.00000000000E+00 0. -1.
         -4    1    3    3    0  502 -0.65206583759E+03 -0.18049434946E+03 -0.16317667636E+04  0.17664741259E+04  0.00000000000E+00 0.  1.
         11    1    5    5    0    0  0.13667767073E+03  0.29113935474E+03  0.10404718804E+03  0.33803657627E+03  0.00000000000E+00 0. -1.
        -11    1    5    5    0    0  0.18549185927E+02  0.18049712972E+03  0.91273954336E+02  0.20311135093E+03  0.00000000000E+00 0.  1.
          1    1    6    6  503    0  0.10572747441E+03 -0.24109950163E+02  0.10307061761E+03  0.14960996209E+03  0.00000000000E+00 0. -1.
         -1    1    6    6    0  503  0.54809736047E+03 -0.24577192040E+03  0.34938186201E+03  0.69489728659E+03  0.00000000000E+00 0.  1.
<mgrwt>
<rscale>  0 0.33455999E+04</rscale>
<asrwt>0</asrwt>
<pdfrwt beam="1">  1        3 0.16877978E+00 0.33455999E+04</pdfrwt>
<pdfrwt beam="2">  1       -4 0.39241073E+00 0.33455999E+04</pdfrwt>
<totfact> 0.34155900E-03</totfact>
</mgrwt>
</event>
<event>
12    4  0.4183215E-008  0.3456454E+04  0.7818608E-02  0.8124188E-01
          1   -1    0    0  501    0  0.00000000000E+00  0.00000000000E+00  0.29930133928E+04  0.29930133928E+04  0.00000000000E+00 0. -1.
         -2   -1    0    0    0  501 -0.00000000000E+00 -0.00000000000E+00 -0.99791345308E+03  0.99791345308E+03  0.00000000000E+00 0.  1.
        -24    2    1    2    0    0  0.15497031849E+04 -0.27678175102E+03  0.86575686480E+03  0.17983643731E+04  0.79946048126E+02 0.  0.
        254    2    1    2    0    0 -0.15497031849E+04  0.27678175102E+03  0.11293430750E+04  0.21925624728E+04  0.10265117230E+04 0.  0.
         23    2    4    4    0    0 -0.96112303091E+03 -0.33666322271E+03  0.58648393969E+03  0.11786600338E+04  0.90423766936E+02 0.  0.
         23    2    4    4    0    0 -0.58858015395E+03  0.61344497373E+03  0.54285913526E+03  0.10139024390E+04  0.10276566415E+03 0.  0.
          1    1    3    3  502    0  0.15316884179E+04 -0.28197251815E+03  0.85344360092E+03  0.17759346527E+04  0.00000000000E+00 0. -1.
         -2    1    3    3    0  502  0.18014766938E+02  0.51907671299E+01  0.12313263875E+02  0.22429720428E+02  0.00000000000E+00 0.  1.
         11    1    5    5    0    0 -0.23403852552E+03 -0.10019989440E+03  0.10685042058E+03  0.27609973314E+03  0.00000000000E+00 0.  1.
        -11    1    5    5    0    0 -0.72708450539E+03 -0.23646332832E+03  0.47963351911E+03  0.90256030063E+03  0.00000000000E+00 0. -1.
          3    1    6    6  503    0 -0.23126125721E+03  0.28246329904E+03  0.18322791367E+03  0.40846022173E+03  0.00000000000E+00 0. -1.
         -3    1    6    6    0  503 -0.35731889674E+03  0.33098167469E+03  0.35963122160E+03  0.60544221730E+03  0.00000000000E+00 0.  1.
<mgrwt>
<rscale>  0 0.34564539E+04</rscale>
<asrwt>0</asrwt>
<pdfrwt beam="1">  1        1 0.46046359E+00 0.34564539E+04</pdfrwt>
<pdfrwt beam="2">  1       -2 0.15352515E+00 0.34564539E+04</pdfrwt>
<totfact> 0.12272103E-01</totfact>
</mgrwt>
</event>
<event>
12    4  0.4183215E-008  0.1474974E+04  0.7818608E-02  0.8901268E-01
          1   -1    0    0  501    0  0.00000000000E+00  0.00000000000E+00  0.59090482617E+03  0.59090482617E+03  0.00000000000E+00 0. -1.
         -2   -1    0    0    0  501 -0.00000000000E+00 -0.00000000000E+00 -0.92043033535E+03  0.92043033535E+03  0.00000000000E+00 0.  1.
        -24    2    1    2    0    0 -0.30694862800E+03  0.28966739107E+03  0.69859419360E+02  0.43512632433E+03  0.79560806728E+02 0.  0.
        254    2    1    2    0    0  0.30694862800E+03 -0.28966739107E+03 -0.39938492854E+03  0.10762088372E+04  0.90586559844E+03 0.  0.
         23    2    4    4    0    0 -0.24858967330E+02  0.29438514760E+03 -0.20576674243E+03  0.37116692795E+03  0.90246067635E+02 0.  0.
         23    2    4    4    0    0  0.33180759533E+03 -0.58405253867E+03 -0.19361818610E+03  0.70504190925E+03  0.91555685548E+02 0.  0.
          3    1    3    3  502    0 -0.29350565562E+03  0.29258758009E+03  0.73495435544E+02  0.42089742331E+03  0.00000000000E+00 0. -1.
         -4    1    3    3    0  502 -0.13442972381E+02 -0.29201890230E+01 -0.36360161830E+01  0.14228901013E+02  0.00000000000E+00 0.  1.
         11    1    5    5    0    0 -0.44024117644E+02  0.15863150155E+03 -0.15146632203E+03  0.22370543786E+03  0.00000000000E+00 0.  1.
        -11    1    5    5    0    0  0.19165150314E+02  0.13575364605E+03 -0.54300420408E+02  0.14746149009E+03  0.00000000000E+00 0. -1.
          4    1    6    6  503    0  0.22437699780E+03 -0.47063719442E+03 -0.15818420792E+03  0.54485470499E+03  0.00000000000E+00 0. -1.
         -4    1    6    6    0  503  0.10743059754E+03 -0.11341534425E+03 -0.35433978183E+02  0.16018720426E+03  0.00000000000E+00 0.  1.
<mgrwt>
<rscale>  0 0.14749735E+04</rscale>
<asrwt>0</asrwt>
<pdfrwt beam="1">  1        1 0.90908435E-01 0.14749735E+04</pdfrwt>
<pdfrwt beam="2">  1       -2 0.14160467E+00 0.14749735E+04</pdfrwt>
<totfact> 0.10347985E+01</totfact>
</mgrwt>
</event>
<event>
12    4  0.4183215E-008  0.2091454E+04  0.7818608E-02  0.8565017E-01
          1   -1    0    0  501    0  0.00000000000E+00  0.00000000000E+00  0.11414718784E+04  0.11414718784E+04  0.00000000000E+00 0. -1.
         -2   -1    0    0    0  501 -0.00000000000E+00 -0.00000000000E+00 -0.95801339613E+03  0.95801339613E+03  0.00000000000E+00 0.  1.
        -24    2    1    2    0    0 -0.42555515584E+01  0.37567812209E+03  0.84169917456E+03  0.92499914133E+03  0.77548371098E+02 0.  0.
        254    2    1    2    0    0  0.42555515584E+01 -0.37567812209E+03 -0.65824069232E+03  0.11744861332E+04  0.89720939968E+03 0.  0.
         23    2    4    4    0    0  0.27665755618E+03  0.11639637232E+03 -0.14019675143E+02  0.31432829707E+03  0.92294139380E+02 0.  0.
         23    2    4    4    0    0 -0.27240200463E+03 -0.49207449440E+03 -0.64422101718E+03  0.86015783612E+03  0.92253042703E+02 0.  0.
          3    1    3    3  502    0 -0.24944302720E+02  0.31660330249E+03  0.74427722036E+03  0.80920235426E+03  0.00000000000E+00 0. -1.
         -4    1    3    3    0  502  0.20688751162E+02  0.59074819598E+02  0.97421954200E+02  0.11579678707E+03  0.00000000000E+00 0.  1.
         11    1    5    5    0    0  0.82449152414E+02 -0.46755137072E+01  0.14010300007E+02  0.83761636018E+02  0.00000000000E+00 0. -1.
        -11    1    5    5    0    0  0.19420840377E+03  0.12107188602E+03 -0.28029975150E+02  0.23056666105E+03  0.00000000000E+00 0.  1.
          2    1    6    6  503    0 -0.11464154432E+02 -0.57642490442E+02 -0.37866701045E+02  0.69914022837E+02  0.00000000000E+00 0.  1.
         -2    1    6    6    0  503 -0.26093785019E+03 -0.43443200396E+03 -0.60635431613E+03  0.79024381328E+03  0.00000000000E+00 0. -1.
<mgrwt>
<rscale>  0 0.20914544E+04</rscale>
<asrwt>0</asrwt>
<pdfrwt beam="1">  1        1 0.17561106E+00 0.20914544E+04</pdfrwt>
<pdfrwt beam="2">  1       -2 0.14738668E+00 0.20914544E+04</pdfrwt>
<totfact> 0.29906726E+00</totfact>
</mgrwt>
</event>
<event>
12    4  0.4183215E-008  0.1346318E+04  0.7818608E-02  0.8993620E-01
         -2   -1    0    0    0  501 -0.00000000000E+00  0.00000000000E+00  0.30707797793E+03  0.30707797793E+03  0.00000000000E+00 0.  1.
          1   -1    0    0  501    0  0.00000000000E+00 -0.00000000000E+00 -0.14756601948E+04  0.14756601948E+04  0.00000000000E+00 0. -1.
        -24    2    1    2    0    0  0.16597199130E+03 -0.27776766434E+03 -0.20003553035E+03  0.38855986321E+03  0.79138970469E+02 0.  0.
        254    2    1    2    0    0 -0.16597199130E+03  0.27776766434E+03 -0.96854668650E+03  0.13941783095E+04  0.94918327919E+03 0.  0.
         23    2    4    4    0    0 -0.12188629836E+03 -0.48857188676E+02 -0.10335582472E+04  0.10459294968E+04  0.92100854211E+02 0.  0.
         23    2    4    4    0    0 -0.44085692949E+02  0.32662485301E+03  0.65011560700E+02  0.34824881268E+03  0.91779025801E+02 0.  0.
          1    1    3    3  502    0  0.75388225446E+02 -0.14370997919E+03 -0.14510778664E+03  0.21769752502E+03  0.00000000000E+00 0. -1.
         -2    1    3    3    0  502  0.90583765859E+02 -0.13405768514E+03 -0.54927743707E+02  0.17086233819E+03  0.00000000000E+00 0.  1.
         11    1    5    5    0    0 -0.51418851157E+02  0.25387205886E+02 -0.32596240840E+03  0.33096812560E+03  0.00000000000E+00 0. -1.
        -11    1    5    5    0    0 -0.70467447199E+02 -0.74244394562E+02 -0.70759583880E+03  0.71496137121E+03  0.00000000000E+00 0.  1.
          3    1    6    6  503    0 -0.34901778782E+02  0.33022723494E+03  0.65078268877E+02  0.33838342445E+03  0.00000000000E+00 0. -1.
         -3    1    6    6    0  503 -0.91839141664E+01 -0.36023819280E+01 -0.66708176372E-01  0.98653882311E+01  0.00000000000E+00 0.  1.
<mgrwt>
<rscale>  0 0.13463176E+04</rscale>
<asrwt>0</asrwt>
<pdfrwt beam="1">  1        1 0.22702465E+00 0.13463176E+04</pdfrwt>
<pdfrwt beam="2">  1       -2 0.47242766E-01 0.13463176E+04</pdfrwt>
<totfact> 0.24811845E+01</totfact>
</mgrwt>
</event>
<event>
12    4  0.4183215E-008  0.1255795E+04  0.7818608E-02  0.9065374E-01
         -2   -1    0    0    0  501 -0.00000000000E+00  0.00000000000E+00  0.39206645780E+03  0.39206645780E+03  0.00000000000E+00 0.  1.
          1   -1    0    0  501    0  0.00000000000E+00 -0.00000000000E+00 -0.10055828619E+04  0.10055828619E+04  0.00000000000E+00 0. -1.
        -24    2    1    2    0    0 -0.11165336593E+03 -0.16602732267E+03  0.93445806965E+02  0.23455944724E+03  0.79085203768E+02 0.  0.
        254    2    1    2    0    0  0.11165336593E+03  0.16602732267E+03 -0.70696221110E+03  0.11630898725E+04  0.90163791933E+03 0.  0.
         23    2    4    4    0    0  0.26574073659E+03 -0.19018285297E+03 -0.68332756688E+03  0.76296492319E+03  0.91603786558E+02 0.  0.
         23    2    4    4    0    0 -0.15408737066E+03  0.35621017564E+03 -0.23634644225E+02  0.40012494930E+03  0.94407476495E+02 0.  0.
          1    1    3    3  502    0 -0.12534277460E+02 -0.63394420689E+02  0.11570174530E+01  0.64632030568E+02  0.00000000000E+00 0. -1.
         -2    1    3    3    0  502 -0.99119088471E+02 -0.10263290198E+03  0.92288789512E+02  0.16992741667E+03  0.00000000000E+00 0.  1.
         11    1    5    5    0    0  0.24643922317E+03 -0.16059598821E+03 -0.65380405103E+03  0.71692614633E+03  0.00000000000E+00 0.  1.
        -11    1    5    5    0    0  0.19301513419E+02 -0.29586864764E+02 -0.29523515852E+02  0.46038776864E+02  0.00000000000E+00 0. -1.
          3    1    6    6  503    0 -0.10302850852E+03  0.12235209377E+03 -0.49436124601E+01  0.16002920897E+03  0.00000000000E+00 0. -1.
         -3    1    6    6    0  503 -0.51058862141E+02  0.23385808187E+03 -0.18691031765E+02  0.24009574033E+03  0.00000000000E+00 0.  1.
<mgrwt>
<rscale>  0 0.12557951E+04</rscale>
<asrwt>0</asrwt>
<pdfrwt beam="1">  1        1 0.15470506E+00 0.12557951E+04</pdfrwt>
<pdfrwt beam="2">  1       -2 0.60317916E-01 0.12557951E+04</pdfrwt>
<totfact> 0.33155497E+01</totfact>
</mgrwt>
</event>
<event>
12    4  0.4183215E-008  0.1165161E+04  0.7818608E-02  0.9143910E-01
          1   -1    0    0  501    0  0.00000000000E+00  0.00000000000E+00  0.75485388147E+03  0.75485388147E+03  0.00000000000E+00 0. -1.
         -2   -1    0    0    0  501 -0.00000000000E+00 -0.00000000000E+00 -0.44962320811E+03  0.44962320811E+03  0.00000000000E+00 0.  1.
        -24    2    1    2    0    0 -0.18194250078E+03  0.23584835051E+02 -0.61585779987E+02  0.20951001564E+03  0.80264066210E+02 0.  0.
        254    2    1    2    0    0  0.18194250078E+03 -0.23584835051E+02  0.36681645335E+03  0.99496707393E+03  0.90650198551E+03 0.  0.
         23    2    4    4    0    0  0.36787643831E+03  0.33692399741E+03  0.17829199238E+03  0.53711894909E+03  0.88644667241E+02 0.  0.
         23    2    4    4    0    0 -0.18593393753E+03 -0.36050883246E+03  0.18852446097E+03  0.45784812484E+03  0.97700489419E+02 0.  0.
          3    1    3    3  502    0 -0.53573383123E+02  0.43789375062E+02 -0.10998123822E+02  0.70061226618E+02  0.00000000000E+00 0. -1.
         -4    1    3    3    0  502 -0.12836911766E+03 -0.20204540011E+02 -0.50587656165E+02  0.13944878903E+03  0.00000000000E+00 0.  1.
         11    1    5    5    0    0  0.12783671353E+03  0.14885872064E+03  0.10879859001E+03  0.22436193355E+03  0.00000000000E+00 0.  1.
        -11    1    5    5    0    0  0.24003972478E+03  0.18806527676E+03  0.69493402376E+02  0.31275701554E+03  0.00000000000E+00 0. -1.
          3    1    6    6  503    0 -0.92464170537E+01 -0.19133766693E+00  0.21060654634E+02  0.23001826277E+02  0.00000000000E+00 0. -1.
         -3    1    6    6    0  503 -0.17668752048E+03 -0.36031749479E+03  0.16746380633E+03  0.43484629857E+03  0.00000000000E+00 0.  1.
<mgrwt>
<rscale>  0 0.11651606E+04</rscale>
<asrwt>0</asrwt>
<pdfrwt beam="1">  1        1 0.11613137E+00 0.11651606E+04</pdfrwt>
<pdfrwt beam="2">  1       -2 0.69172801E-01 0.11651606E+04</pdfrwt>
<totfact> 0.40212590E+01</totfact>
</mgrwt>
</event>
<event>
12    4  0.4183215E-008  0.1723558E+04  0.7818608E-02  0.8748041E-01
          1   -1    0    0  501    0  0.00000000000E+00  0.00000000000E+00  0.14137354987E+04  0.14137354987E+04  0.00000000000E+00 0. -1.
         -2   -1    0    0    0  501 -0.00000000000E+00 -0.00000000000E+00 -0.52531983685E+03  0.52531983685E+03  0.00000000000E+00 0.  1.
        -24    2    1    2    0    0  0.51101993142E+03  0.20500624826E+03 -0.64294716416E+01  0.55616185328E+03  0.78139214295E+02 0.  0.
        254    2    1    2    0    0 -0.51101993142E+03 -0.20500624826E+03  0.89484513345E+03  0.13828934822E+04  0.89915384567E+03 0.  0.
         23    2    4    4    0    0  0.13081129590E+03 -0.86566583012E+02 -0.86359714195E+02  0.20098135840E+03  0.91269588357E+02 0.  0.
         23    2    4    4    0    0 -0.64183122732E+03 -0.11843966524E+03  0.98120484765E+03  0.11819121238E+04  0.90432498249E+02 0.  0.
          1    1    3    3  502    0  0.34278594031E+03  0.13718048797E+03  0.32485316969E+02  0.37064266210E+03  0.00000000000E+00 0. -1.
         -2    1    3    3    0  502  0.16823399111E+03  0.67825760286E+02 -0.38914788610E+02  0.18551919118E+03  0.00000000000E+00 0.  1.
         11    1    5    5    0    0  0.10873649193E+03 -0.92272023279E+02 -0.10021551208E+03  0.17430117561E+03  0.00000000000E+00 0. -1.
        -11    1    5    5    0    0  0.22074803967E+02  0.57054402669E+01  0.13855797881E+02  0.26680182791E+02  0.00000000000E+00 0.  1.
          3    1    6    6  503    0 -0.62942605753E+03 -0.12630951612E+03  0.97096919194E+03  0.11640070564E+04  0.00000000000E+00 0. -1.
         -3    1    6    6    0  503 -0.12405169783E+02  0.78698508733E+01  0.10235655712E+02  0.17905067382E+02  0.00000000000E+00 0.  1.
<mgrwt>
<rscale>  0 0.17235583E+04</rscale>
<asrwt>0</asrwt>
<pdfrwt beam="1">  1        1 0.21749777E+00 0.17235583E+04</pdfrwt>
<pdfrwt beam="2">  1       -2 0.80818437E-01 0.17235583E+04</pdfrwt>
<totfact> 0.84591126E+00</totfact>
</mgrwt>
</event>
<event>
12    4  0.4183215E-008  0.1505456E+04  0.7818608E-02  0.8880833E-01
         -2   -1    0    0    0  501 -0.00000000000E+00  0.00000000000E+00  0.63512917301E+03  0.63512917301E+03  0.00000000000E+00 0.  1.
          1   -1    0    0  501    0  0.00000000000E+00 -0.00000000000E+00 -0.89210124749E+03  0.89210124749E+03  0.00000000000E+00 0. -1.
        -24    2    1    2    0    0 -0.27774275046E+03  0.16465433272E+03 -0.44346364767E+03  0.55408777594E+03  0.78109998818E+02 0.  0.
        254    2    1    2    0    0  0.27774275046E+03 -0.16465433272E+03  0.18649157319E+03  0.97314264456E+03  0.89887452688E+03 0.  0.
         23    2    4    4    0    0  0.13917791936E+03 -0.39951555931E+03  0.41959254436E+03  0.60251772500E+03  0.89367389385E+02 0.  0.
         23    2    4    4    0    0  0.13856483110E+03  0.23486122658E+03 -0.23310097117E+03  0.37062491956E+03  0.93095435281E+02 0.  0.
          1    1    3    3  502    0 -0.16089584765E+03  0.50142087098E+02 -0.23039580966E+03  0.28545390486E+03  0.00000000000E+00 0. -1.
         -2    1    3    3    0  502 -0.11684690281E+03  0.11451224562E+03 -0.21306783801E+03  0.26863387108E+03  0.00000000000E+00 0.  1.
         11    1    5    5    0    0  0.26975164979E+02 -0.21689691844E+02  0.58541454578E+02  0.68008853556E+02  0.00000000000E+00 0. -1.
        -11    1    5    5    0    0  0.11220275438E+03 -0.37782586746E+03  0.36105108979E+03  0.53450887144E+03  0.00000000000E+00 0.  1.
          1    1    6    6  503    0 -0.59511015534E+01  0.22183726625E+02  0.85952998697E+00  0.22984171259E+02  0.00000000000E+00 0. -1.
         -1    1    6    6    0  503  0.14451593266E+03  0.21267749996E+03 -0.23396050116E+03  0.34764074830E+03  0.00000000000E+00 0.  1.
<mgrwt>
<rscale>  0 0.15054561E+04</rscale>
<asrwt>0</asrwt>
<pdfrwt beam="1">  1        1 0.13724635E+00 0.15054561E+04</pdfrwt>
<pdfrwt beam="2">  1       -2 0.97712180E-01 0.15054561E+04</pdfrwt>
<totfact> 0.13655409E+01</totfact>
</mgrwt>
</event>
<event>
12    4  0.4183215E-008  0.2741641E+04  0.7818608E-02  0.8321619E-01
          3   -1    0    0  501    0  0.00000000000E+00  0.00000000000E+00  0.18706472486E+04  0.18706472486E+04  0.00000000000E+00 0. -1.
         -4   -1    0    0    0  501 -0.00000000000E+00 -0.00000000000E+00 -0.10045449780E+04  0.10045449780E+04  0.00000000000E+00 0.  1.
        -24    2    1    2    0    0  0.10309429583E+04 -0.30019060632E+03  0.99541851230E+03  0.14659684244E+04  0.72440481850E+02 0.  0.
        254    2    1    2    0    0 -0.10309429583E+04  0.30019060632E+03 -0.12931624165E+03  0.14092238023E+04  0.90345517387E+03 0.  0.
         23    2    4    4    0    0 -0.59664642086E+03 -0.31134788732E+02 -0.46426831429E+03  0.76228741463E+03  0.92632112468E+02 0.  0.
         23    2    4    4    0    0 -0.43429653740E+03  0.33132539505E+03  0.33495207264E+03  0.64693638762E+03  0.89127991459E+02 0.  0.
          3    1    3    3  502    0  0.87420188887E+03 -0.26145008119E+03  0.81012659097E+03  0.12202008773E+04  0.00000000000E+00 0. -1.
         -4    1    3    3    0  502  0.15674106938E+03 -0.38740525130E+02  0.18529192133E+03  0.24576754714E+03  0.00000000000E+00 0.  1.
         11    1    5    5    0    0 -0.15827699866E+03 -0.41155221859E+02 -0.95737842550E+02  0.18950222977E+03  0.00000000000E+00 0.  1.
        -11    1    5    5    0    0 -0.43836942220E+03  0.10020433127E+02 -0.36853047174E+03  0.57278518487E+03  0.00000000000E+00 0. -1.
          3    1    6    6  503    0 -0.95147680506E+02  0.35653654682E+02  0.83408047269E+02  0.13145785084E+03  0.00000000000E+00 0. -1.
         -3    1    6    6    0  503 -0.33914885689E+03  0.29567174037E+03  0.25154402537E+03  0.51547853678E+03  0.00000000000E+00 0.  1.
<mgrwt>
<rscale>  0 0.27416413E+04</rscale>
<asrwt>0</asrwt>
<pdfrwt beam="1">  1        3 0.28779188E+00 0.27416413E+04</pdfrwt>
<pdfrwt beam="2">  1       -4 0.15454538E+00 0.27416413E+04</pdfrwt>
<totfact> 0.24780629E-02</totfact>
</mgrwt>
</event>
<event>
12    4  0.4183215E-008  0.2652205E+04  0.7818608E-02  0.8350681E-01
          1   -1    0    0  501    0  0.00000000000E+00  0.00000000000E+00  0.14971172218E+04  0.14971172218E+04  0.00000000000E+00 0. -1.
         -2   -1    0    0    0  501 -0.00000000000E+00 -0.00000000000E+00 -0.11746229881E+04  0.11746229881E+04  0.00000000000E+00 0.  1.
        -24    2    1    2    0    0 -0.12372435381E+01  0.45224783442E+03  0.12296077954E+04  0.13125928793E+04  0.80219086172E+02 0.  0.
        254    2    1    2    0    0  0.12372435381E+01 -0.45224783442E+03 -0.90711356175E+03  0.13591473306E+04  0.90548153918E+03 0.  0.
         23    2    4    4    0    0  0.12943674517E+03  0.24497283176E+03 -0.21672115912E+03  0.36490891021E+03  0.97081886285E+02 0.  0.
         23    2    4    4    0    0 -0.12819950163E+03 -0.69722066617E+03 -0.69039240262E+03  0.99423842036E+03  0.96522522572E+02 0.  0.
          1    1    3    3  502    0  0.23633841788E+02  0.40672133715E+03  0.10863818816E+04  0.11602613486E+04  0.00000000000E+00 0. -1.
         -4    1    3    3    0  502 -0.24871085326E+02  0.45526497268E+02  0.14322591387E+03  0.15233153069E+03  0.00000000000E+00 0.  1.
         11    1    5    5    0    0  0.69816785242E+02  0.21583247821E+03 -0.17526958280E+03  0.28666612776E+03  0.00000000000E+00 0.  1.
        -11    1    5    5    0    0  0.59619959925E+02  0.29140353546E+02 -0.41451576326E+02  0.78242782454E+02  0.00000000000E+00 0. -1.
          3    1    6    6  503    0 -0.13054698236E+01 -0.25603100277E+03 -0.23258742715E+03  0.34590531927E+03  0.00000000000E+00 0. -1.
         -3    1    6    6    0  503 -0.12689403181E+03 -0.44118966340E+03 -0.45780497547E+03  0.64833310109E+03  0.00000000000E+00 0.  1.
<mgrwt>
<rscale>  0 0.26522053E+04</rscale>
<asrwt>0</asrwt>
<pdfrwt beam="1">  1        1 0.23032573E+00 0.26522053E+04</pdfrwt>
<pdfrwt beam="2">  1       -2 0.18071123E+00 0.26522053E+04</pdfrwt>
<totfact> 0.90721527E-01</totfact>
</mgrwt>
</event>
<event>
12    4  0.4183215E-008  0.1278157E+04  0.7818608E-02  0.9047069E-01
          1   -1    0    0  501    0  0.00000000000E+00  0.00000000000E+00  0.33626418558E+03  0.33626418558E+03  0.00000000000E+00 0. -1.
         -2   -1    0    0    0  501 -0.00000000000E+00 -0.00000000000E+00 -0.12145843667E+04  0.12145843667E+04  0.00000000000E+00 0.  1.
        -24    2    1    2    0    0  0.96897565005E+02  0.34544461508E+02 -0.73647791756E+03  0.74796208141E+03  0.80405809781E+02 0.  0.
        254    2    1    2    0    0 -0.96897565005E+02 -0.34544461508E+02 -0.14184226356E+03  0.80288647086E+03  0.78353366197E+03 0.  0.
         23    2    4    4    0    0 -0.38541067674E+03 -0.77611889886E+02  0.96744551440E+02  0.41469235277E+03  0.89695284242E+02 0.  0.
         23    2    4    4    0    0  0.28851311174E+03  0.43067428378E+02 -0.23858681500E+03  0.38819411809E+03  0.93147120184E+02 0.  0.
          1    1    3    3  502    0 -0.13535029242E+02  0.11486055263E+02 -0.10063847497E+03  0.10219211871E+03  0.00000000000E+00 0. -1.
         -2    1    3    3    0  502  0.11043259425E+03  0.23058406245E+02 -0.63583944259E+03  0.64576996270E+03  0.00000000000E+00 0.  1.
         11    1    5    5    0    0 -0.11372663781E+02  0.25856390847E+01 -0.12264700421E+02  0.16924712327E+02  0.00000000000E+00 0. -1.
        -11    1    5    5    0    0 -0.37403801296E+03 -0.80197528971E+02  0.10900925186E+03  0.39776764044E+03  0.00000000000E+00 0.  1.
          3    1    6    6  503    0  0.22318186738E+03  0.87182754115E+01 -0.13493550147E+03  0.26094777986E+03  0.00000000000E+00 0. -1.
         -3    1    6    6    0  503  0.65331244354E+02  0.34349152966E+02 -0.10365131353E+03  0.12724633823E+03  0.00000000000E+00 0.  1.
<mgrwt>
<rscale>  0 0.12781568E+04</rscale>
<asrwt>0</asrwt>
<pdfrwt beam="1">  1        1 0.51732950E-01 0.12781568E+04</pdfrwt>
<pdfrwt beam="2">  1       -2 0.18685914E+00 0.12781568E+04</pdfrwt>
<totfact> 0.10547567E+01</totfact>
</mgrwt>
</event>
<event>
12    4  0.4183215E-008  0.1100880E+04  0.7818608E-02  0.9204334E-01
          1   -1    0    0  501    0  0.00000000000E+00  0.00000000000E+00  0.10484453825E+04  0.10484453825E+04  0.00000000000E+00 0. -1.
         -2   -1    0    0    0  501 -0.00000000000E+00 -0.00000000000E+00 -0.28898440119E+03  0.28898440119E+03  0.00000000000E+00 0.  1.
        -24    2    1    2    0    0  0.29856600112E+01  0.37765918716E+02  0.30319619281E+03  0.31602227718E+03  0.80665789237E+02 0.  0.
        254    2    1    2    0    0 -0.29856600112E+01 -0.37765918716E+02  0.45626478844E+03  0.10214075065E+04  0.91305014009E+03 0.  0.
         23    2    4    4    0    0  0.38003521283E+03 -0.22261073316E+03  0.10518605054E+03  0.46218270659E+03  0.92555105390E+02 0.  0.
         23    2    4    4    0    0 -0.38302087284E+03  0.18484481445E+03  0.35107873790E+03  0.55922479988E+03  0.92755065272E+02 0.  0.
          1    1    3    3  502    0  0.11160668954E+02  0.20422361308E+02  0.29370939749E+03  0.29463001128E+03  0.00000000000E+00 0. -1.
         -2    1    3    3    0  502 -0.81750089425E+01  0.17343557407E+02  0.94867953262E+01  0.21392265899E+02  0.00000000000E+00 0.  1.
         11    1    5    5    0    0  0.11079470207E+03 -0.10252798179E+03  0.57692784046E+01  0.15106534225E+03  0.00000000000E+00 0.  1.
        -11    1    5    5    0    0  0.26924051076E+03 -0.12008275138E+03  0.99416772137E+02  0.31111736434E+03  0.00000000000E+00 0. -1.
          3    1    6    6  503    0 -0.25177852857E+03  0.71250437549E+02  0.21511519186E+03  0.33873824418E+03  0.00000000000E+00 0. -1.
         -3    1    6    6    0  503 -0.13124234427E+03  0.11359437690E+03  0.13596354604E+03  0.22048655570E+03  0.00000000000E+00 0.  1.
<mgrwt>
<rscale>  0 0.11008803E+04</rscale>
<asrwt>0</asrwt>
<pdfrwt beam="1">  1        1 0.16129929E+00 0.11008803E+04</pdfrwt>
<pdfrwt beam="2">  1       -2 0.44459139E-01 0.11008803E+04</pdfrwt>
<totfact> 0.58151358E+01</totfact>
</mgrwt>
</event>
<event>
12    4  0.4183215E-008  0.1241931E+04  0.7818608E-02  0.9076926E-01
          1   -1    0    0  501    0  0.00000000000E+00  0.00000000000E+00  0.77676209332E+03  0.77676209332E+03  0.00000000000E+00 0. -1.
         -2   -1    0    0    0  501 -0.00000000000E+00 -0.00000000000E+00 -0.49641726919E+03  0.49641726919E+03  0.00000000000E+00 0.  1.
        -24    2    1    2    0    0  0.18217982851E+03 -0.73747658556E+02  0.28609258544E+03  0.35536611715E+03  0.76209597277E+02 0.  0.
        254    2    1    2    0    0 -0.18217982851E+03  0.73747658556E+02 -0.57477613091E+01  0.91781324536E+03  0.89650427190E+03 0.  0.
         23    2    4    4    0    0 -0.20566095470E+03  0.28859945320E+03 -0.34728919076E+03  0.50494863489E+03  0.93687081237E+02 0.  0.
         23    2    4    4    0    0  0.23481126190E+02 -0.21485179464E+03  0.34154142945E+03  0.41286461046E+03  0.84225777486E+02 0.  0.
          1    1    3    3  502    0  0.62431178518E+02  0.10673279178E+02  0.71399057294E+02  0.95443157544E+02  0.00000000000E+00 0. -1.
         -2    1    3    3    0  502  0.11974864999E+03 -0.84420937735E+02  0.21469352815E+03  0.25992295961E+03  0.00000000000E+00 0.  1.
         11    1    5    5    0    0 -0.16217883833E+03  0.19450760675E+03 -0.19009532419E+03  0.31665662311E+03  0.00000000000E+00 0.  1.
        -11    1    5    5    0    0 -0.43482116366E+02  0.94091846450E+02 -0.15719386657E+03  0.18829201178E+03  0.00000000000E+00 0. -1.
          1    1    6    6  503    0 -0.21918159035E+02 -0.15256128626E+03  0.21160498626E+03  0.26178621424E+03  0.00000000000E+00 0. -1.
         -1    1    6    6    0  503  0.45399285226E+02 -0.62290508385E+02  0.12993644320E+03  0.15107839622E+03  0.00000000000E+00 0.  1.
<mgrwt>
<rscale>  0 0.12419309E+04</rscale>
<asrwt>0</asrwt>
<pdfrwt beam="1">  1        1 0.11950186E+00 0.12419309E+04</pdfrwt>
<pdfrwt beam="2">  1       -2 0.76371888E-01 0.12419309E+04</pdfrwt>
<totfact> 0.30733247E+01</totfact>
</mgrwt>
</event>
<event>
12    4  0.4183215E-008  0.9935711E+03  0.7818608E-02  0.9315624E-01
          3   -1    0    0  501    0  0.00000000000E+00  0.00000000000E+00  0.38448626121E+03  0.38448626121E+03  0.00000000000E+00 0. -1.
         -4   -1    0    0    0  501 -0.00000000000E+00 -0.00000000000E+00 -0.64188476610E+03  0.64188476610E+03  0.00000000000E+00 0.  1.
        -24    2    1    2    0    0 -0.10548486980E+02  0.30840324899E+02 -0.78223192017E+02  0.11234161649E+03  0.73752117316E+02 0.  0.
        254    2    1    2    0    0  0.10548486980E+02 -0.30840324899E+02 -0.17917531287E+03  0.91402941082E+03  0.89570283849E+03 0.  0.
         23    2    4    4    0    0 -0.30818940180E+03  0.13209253856E+03 -0.36334552698E+03  0.50117153362E+03  0.81998707355E+02 0.  0.
         23    2    4    4    0    0  0.31873788878E+03 -0.16293286346E+03  0.18417021411E+03  0.41285787720E+03  0.91607855931E+02 0.  0.
          1    1    3    3  502    0 -0.25919256657E+02  0.79309727878E+01  0.23200328972E+01  0.27204608941E+02  0.00000000000E+00 0. -1.
         -2    1    3    3    0  502  0.15370769677E+02  0.22909352112E+02 -0.80543224915E+02  0.85137007548E+02  0.00000000000E+00 0.  1.
         11    1    5    5    0    0 -0.33614378183E+02  0.42157400255E+02 -0.80151657126E+02  0.96599487354E+02  0.00000000000E+00 0. -1.
        -11    1    5    5    0    0 -0.27457502361E+03  0.89935138306E+02 -0.28319386985E+03  0.40457204626E+03  0.00000000000E+00 0.  1.
          3    1    6    6  503    0  0.60954983150E+02 -0.63602646244E+02  0.75404773129E+02  0.11595984818E+03  0.00000000000E+00 0. -1.
         -3    1    6    6    0  503  0.25778290563E+03 -0.99330217217E+02  0.10876544098E+03  0.29689802902E+03  0.00000000000E+00 0.  1.
<mgrwt>
<rscale>  0 0.99357108E+03</rscale>
<asrwt>0</asrwt>
<pdfrwt beam="1">  1        3 0.59151733E-01 0.99357108E+03</pdfrwt>
<pdfrwt beam="2">  1       -4 0.98751501E-01 0.99357108E+03</pdfrwt>
<totfact> 0.54253812E+00</totfact>
</mgrwt>
</event>
<event>
12    4  0.4183215E-008  0.1505018E+04  0.7818608E-02  0.8881123E-01
          1   -1    0    0  501    0  0.00000000000E+00  0.00000000000E+00  0.29277868456E+04  0.29277868456E+04  0.00000000000E+00 0. -1.
         -2   -1    0    0    0  501 -0.00000000000E+00 -0.00000000000E+00 -0.19341230807E+03  0.19341230807E+03  0.00000000000E+00 0.  1.
        -24    2    1    2    0    0 -0.23361497739E+02 -0.41173227021E+03  0.37552675988E+03  0.56348544886E+03  0.80164092869E+02 0.  0.
        254    2    1    2    0    0  0.23361497739E+02  0.41173227021E+03  0.23588477777E+04  0.25577137048E+04  0.89870314103E+03 0.  0.
         23    2    4    4    0    0 -0.37583348589E+03  0.76786330856E+02  0.14834407291E+04  0.15349077148E+04  0.90544720321E+02 0.  0.
         23    2    4    4    0    0  0.39919498363E+03  0.33494593935E+03  0.87540704856E+03  0.10228059900E+04  0.90824970978E+02 0.  0.
          3    1    3    3  502    0  0.10289785928E+02 -0.40545516552E+02  0.70030552481E+02  0.81572647914E+02  0.00000000000E+00 0. -1.
         -4    1    3    3    0  502 -0.33651283667E+02 -0.37118675366E+03  0.30549620740E+03  0.48191280095E+03  0.00000000000E+00 0.  1.
         11    1    5    5    0    0 -0.12729754340E+03  0.67950245728E+02  0.60226988466E+03  0.61931487502E+03  0.00000000000E+00 0.  1.
        -11    1    5    5    0    0 -0.24853594249E+03  0.88360851283E+01  0.88117084446E+03  0.91559283977E+03  0.00000000000E+00 0. -1.
          1    1    6    6  503    0  0.80491517800E+02  0.11878582682E+03  0.22081555456E+03  0.26334096952E+03  0.00000000000E+00 0. -1.
         -1    1    6    6    0  503  0.31870346583E+03  0.21616011253E+03  0.65459149400E+03  0.75946502052E+03  0.00000000000E+00 0.  1.
<mgrwt>
<rscale>  0 0.15050183E+04</rscale>
<asrwt>0</asrwt>
<pdfrwt beam="1">  1        1 0.45042871E+00 0.15050183E+04</pdfrwt>
<pdfrwt beam="2">  1       -2 0.29755742E-01 0.15050183E+04</pdfrwt>
<totfact> 0.59971391E+00</totfact>
</mgrwt>
</event>
<event>
12    4  0.4183215E-008  0.1642313E+04  0.7818608E-02  0.8794967E-01
         -4   -1    0    0    0  501 -0.00000000000E+00  0.00000000000E+00  0.60315865522E+03  0.60315865522E+03  0.00000000000E+00 0.  1.
          3   -1    0    0  501    0  0.00000000000E+00 -0.00000000000E+00 -0.11179449861E+04  0.11179449861E+04  0.00000000000E+00 0. -1.
        -24    2    1    2    0    0  0.55833611262E+03 -0.11431874684E+03 -0.90658082048E+02  0.58317253363E+03  0.84043593526E+02 0.  0.
        254    2    1    2    0    0 -0.55833611262E+03  0.11431874684E+03 -0.42412824882E+03  0.11379311077E+04  0.88892881820E+03 0.  0.
         23    2    4    4    0    0 -0.92481854719E+02 -0.31357422429E+03 -0.36049276586E+03  0.49566337697E+03  0.94050313355E+02 0.  0.
         23    2    4    4    0    0 -0.46585425790E+03  0.42789297113E+03 -0.63635482958E+02  0.64226773069E+03  0.91355234430E+02 0.  0.
          3    1    3    3  502    0  0.32602771440E+03 -0.86966602864E+02 -0.16678047171E+02  0.33783933730E+03  0.00000000000E+00 0. -1.
         -4    1    3    3    0  502  0.23230839822E+03 -0.27352143972E+02 -0.73980034877E+02  0.24533319633E+03  0.00000000000E+00 0.  1.
         11    1    5    5    0    0  0.14405799741E+02 -0.92278261010E+02 -0.82506481975E+02  0.12461991851E+03  0.00000000000E+00 0. -1.
        -11    1    5    5    0    0 -0.10688765446E+03 -0.22129596328E+03 -0.27798628389E+03  0.37104345846E+03  0.00000000000E+00 0.  1.
          4    1    6    6  503    0 -0.43051041375E+03  0.39883881696E+03 -0.82771447367E+02  0.59267421975E+03  0.00000000000E+00 0. -1.
         -4    1    6    6    0  503 -0.35343844147E+02  0.29054154170E+02  0.19135964410E+02  0.49593510941E+02  0.00000000000E+00 0.  1.
<mgrwt>
<rscale>  0 0.16423132E+04</rscale>
<asrwt>0</asrwt>
<pdfrwt beam="1">  1        3 0.17199154E+00 0.16423132E+04</pdfrwt>
<pdfrwt beam="2">  1       -4 0.92793640E-01 0.16423132E+04</pdfrwt>
<totfact> 0.48558246E-01</totfact>
</mgrwt>
</event>
<event>
12    4  0.4183215E-008  0.1610740E+04  0.7818608E-02  0.8813977E-01
          1   -1    0    0  501    0  0.00000000000E+00  0.00000000000E+00  0.10917128949E+04  0.10917128949E+04  0.00000000000E+00 0. -1.
         -2   -1    0    0    0  501 -0.00000000000E+00 -0.00000000000E+00 -0.59413149066E+03  0.59413149066E+03  0.00000000000E+00 0.  1.
        -24    2    1    2    0    0  0.36057838656E+03  0.43469366803E+02 -0.26373738948E+03  0.45605523458E+03  0.80762662604E+02 0.  0.
        254    2    1    2    0    0 -0.36057838656E+03 -0.43469366803E+02  0.76131879371E+03  0.12297891510E+04  0.89491267256E+03 0.  0.
         23    2    4    4    0    0  0.13383141695E+03  0.30966655691E+03  0.23278566469E+03  0.41939818751E+03  0.88890097101E+02 0.  0.
         23    2    4    4    0    0 -0.49440980351E+03 -0.35313592372E+03  0.52853312901E+03  0.81039096347E+03  0.90775606782E+02 0.  0.
          3    1    3    3  502    0  0.27838895143E+03  0.51660897414E+02 -0.16648342928E+03  0.32846002622E+03  0.00000000000E+00 0. -1.
         -2    1    3    3    0  502  0.82189435124E+02 -0.81915306108E+01 -0.97253960200E+02  0.12759520835E+03  0.00000000000E+00 0.  1.
         11    1    5    5    0    0  0.77752069394E+02  0.86180232021E+02  0.10159495673E+03  0.15425288302E+03  0.00000000000E+00 0.  1.
        -11    1    5    5    0    0  0.56079347556E+02  0.22348632489E+03  0.13119070797E+03  0.26514530449E+03  0.00000000000E+00 0. -1.
          3    1    6    6  503    0 -0.24590452077E+03 -0.22156161138E+03  0.31924725681E+03  0.45986671107E+03  0.00000000000E+00 0. -1.
         -3    1    6    6    0  503 -0.24850528274E+03 -0.13157431234E+03  0.20928587221E+03  0.35052425240E+03  0.00000000000E+00 0.  1.
<mgrwt>
<rscale>  0 0.16107402E+04</rscale>
<asrwt>0</asrwt>
<pdfrwt beam="1">  1        1 0.16795583E+00 0.16107402E+04</pdfrwt>
<pdfrwt beam="2">  1       -2 0.91404845E-01 0.16107402E+04</pdfrwt>
<totfact> 0.11025248E+01</totfact>
</mgrwt>
</event>
<event>
12    4  0.4183215E-008  0.1193499E+04  0.7818608E-02  0.9118566E-01
          1   -1    0    0  501    0  0.00000000000E+00  0.00000000000E+00  0.19144167368E+04  0.19144167368E+04  0.00000000000E+00 0. -1.
         -2   -1    0    0    0  501 -0.00000000000E+00 -0.00000000000E+00 -0.18601478181E+03  0.18601478181E+03  0.00000000000E+00 0.  1.
        -24    2    1    2    0    0  0.70560712396E+02  0.23389533217E+03  0.33581980380E+03  0.42324225650E+03  0.81689818952E+02 0.  0.
        254    2    1    2    0    0 -0.70560712396E+02 -0.23389533217E+03  0.13925821512E+04  0.16771892621E+04  0.90221556882E+03 0.  0.
         23    2    4    4    0    0  0.11423138584E+03  0.19305527134E+03  0.41818859745E+02  0.24569538792E+03  0.91094782039E+02 0.  0.
         23    2    4    4    0    0 -0.18479209823E+03 -0.42695060350E+03  0.13507632915E+04  0.14314938742E+04  0.90433981114E+02 0.  0.
          1    1    3    3  502    0  0.28479506989E+01  0.68809990411E+02  0.15296966579E+03  0.16775769507E+03  0.00000000000E+00 0. -1.
         -2    1    3    3    0  502  0.67712761697E+02  0.16508534176E+03  0.18285013802E+03  0.25548456143E+03  0.00000000000E+00 0.  1.
         11    1    5    5    0    0  0.17926299692E+02 -0.67871140675E+01 -0.29279103725E+01  0.19390456342E+02  0.00000000000E+00 0. -1.
        -11    1    5    5    0    0  0.96305086146E+02  0.19984238540E+03  0.44746770117E+02  0.22630493158E+03  0.00000000000E+00 0.  1.
          1    1    6    6  503    0 -0.37699327063E+02 -0.12746797565E+03  0.50753091011E+03  0.52464935794E+03  0.00000000000E+00 0. -1.
         -1    1    6    6    0  503 -0.14709277117E+03 -0.29948262785E+03  0.84323238136E+03  0.90684451627E+03  0.00000000000E+00 0.  1.
<mgrwt>
<rscale>  0 0.11934987E+04</rscale>
<asrwt>0</asrwt>
<pdfrwt beam="1">  1        1 0.29452564E+00 0.11934987E+04</pdfrwt>
<pdfrwt beam="2">  1       -2 0.28617660E-01 0.11934987E+04</pdfrwt>
<totfact> 0.33195638E+01</totfact>
</mgrwt>
</event>
<event>
12    4  0.4183215E-008  0.1788287E+04  0.7818608E-02  0.8712553E-01
         -2   -1    0    0    0  501 -0.00000000000E+00  0.00000000000E+00  0.96539070139E+03  0.96539070139E+03  0.00000000000E+00 0.  1.
          1   -1    0    0  501    0  0.00000000000E+00 -0.00000000000E+00 -0.82815420666E+03  0.82815420666E+03  0.00000000000E+00 0. -1.
        -24    2    1    2    0    0  0.55541048379E+03 -0.57863267355E+02 -0.34540304864E+03  0.66145263971E+03  0.79920994438E+02 0.  0.
        254    2    1    2    0    0 -0.55541048379E+03  0.57863267355E+02  0.48263954337E+03  0.11320922683E+04  0.85840725299E+03 0.  0.
         23    2    4    4    0    0 -0.19976732700E+03  0.43184024297E+03  0.13484218117E+03  0.50302053789E+03  0.91947089807E+02 0.  0.
         23    2    4    4    0    0 -0.35564315679E+03 -0.37397697562E+03  0.34779736220E+03  0.62907173045E+03  0.91800891273E+02 0.  0.
          3    1    3    3  502    0  0.24161336441E+03 -0.16225108990E+02 -0.19540466306E+03  0.31116435266E+03  0.00000000000E+00 0. -1.
         -4    1    3    3    0  502  0.31379711938E+03 -0.41638158365E+02 -0.14999838558E+03  0.35028828704E+03  0.00000000000E+00 0.  1.
         11    1    5    5    0    0 -0.30974011817E+02  0.63724864324E+02 -0.12755045262E+02  0.71992631017E+02  0.00000000000E+00 0.  1.
        -11    1    5    5    0    0 -0.16879331519E+03  0.36811537865E+03  0.14759722643E+03  0.43102790687E+03  0.00000000000E+00 0. -1.
          3    1    6    6  503    0 -0.30415575629E+03 -0.35886793057E+03  0.31591205652E+03  0.56665451831E+03  0.00000000000E+00 0. -1.
         -3    1    6    6    0  503 -0.51487400501E+02 -0.15109045051E+02  0.31885305678E+02  0.62417212136E+02  0.00000000000E+00 0.  1.
<mgrwt>
<rscale>  0 0.17882867E+04</rscale>
<asrwt>0</asrwt>
<pdfrwt beam="1">  1        1 0.12740834E+00 0.17882867E+04</pdfrwt>
<pdfrwt beam="2">  1       -2 0.14852165E+00 0.17882867E+04</pdfrwt>
<totfact> 0.53190746E+00</totfact>
</mgrwt>
</event>
<event>
12    4  0.4183215E-008  0.4942466E+04  0.7818608E-02  0.7837444E-01
          1   -1    0    0  501    0  0.00000000000E+00  0.00000000000E+00  0.28558083941E+04  0.28558083941E+04  0.00000000000E+00 0. -1.
         -2   -1    0    0    0  501 -0.00000000000E+00 -0.00000000000E+00 -0.21384462580E+04  0.21384462580E+04  0.00000000000E+00 0.  1.
        -24    2    1    2    0    0  0.65263718039E+03  0.20643432760E+04 -0.67250791235E+03  0.22685026399E+04  0.79930499099E+02 0.  0.
        254    2    1    2    0    0 -0.65263718039E+03 -0.20643432760E+04  0.13898700485E+04  0.27257520122E+04  0.90029818962E+03 0.  0.
         23    2    4    4    0    0 -0.49264698457E+01 -0.11477995237E+04  0.37764181589E+03  0.12116996770E+04  0.90192844983E+02 0.  0.
         23    2    4    4    0    0 -0.64771071054E+03 -0.91654375223E+03  0.10122282326E+04  0.15140523353E+04  0.90370707154E+02 0.  0.
          3    1    3    3  502    0  0.61971257553E+03  0.20057925289E+04 -0.65052077634E+03  0.21978227012E+04  0.00000000000E+00 0. -1.
         -4    1    3    3    0  502  0.32924604857E+02  0.58550747043E+02 -0.21987136011E+02  0.70679938697E+02  0.00000000000E+00 0.  1.
         11    1    5    5    0    0 -0.40192415656E+02 -0.28613657367E+03  0.91816845065E+02  0.30318295154E+03  0.00000000000E+00 0. -1.
        -11    1    5    5    0    0  0.35265945810E+02 -0.86166295005E+03  0.28582497083E+03  0.90851672542E+03  0.00000000000E+00 0.  1.
          3    1    6    6  503    0 -0.25418432125E+03 -0.28918013104E+03  0.36444618338E+03  0.53014699654E+03  0.00000000000E+00 0. -1.
         -3    1    6    6    0  503 -0.39352638929E+03 -0.62736362119E+03  0.64778204924E+03  0.98390533873E+03  0.00000000000E+00 0.  1.
<mgrwt>
<rscale>  0 0.49424661E+04</rscale>
<asrwt>0</asrwt>
<pdfrwt beam="1">  1        1 0.43935514E+00 0.49424661E+04</pdfrwt>
<pdfrwt beam="2">  1       -2 0.32899173E+00 0.49424661E+04</pdfrwt>
<totfact> 0.10212900E-02</totfact>
</mgrwt>
</event>
<event>
12    4  0.4183215E-008  0.2186237E+04  0.7818608E-02  0.8524178E-01
          1   -1    0    0  501    0  0.00000000000E+00  0.00000000000E+00  0.13169518688E+04  0.13169518688E+04  0.00000000000E+00 0. -1.
         -2   -1    0    0    0  501 -0.00000000000E+00 -0.00000000000E+00 -0.90732857373E+03  0.90732857373E+03  0.00000000000E+00 0.  1.
        -24    2    1    2    0    0  0.48517758920E+03 -0.68062625163E+03 -0.17683164651E+03  0.85798330818E+03  0.78845028003E+02 0.  0.
        254    2    1    2    0    0 -0.48517758920E+03  0.68062625163E+03  0.58645494161E+03  0.13662971344E+04  0.90784859609E+03 0.  0.
         23    2    4    4    0    0 -0.53920887212E+03  0.26735271528E+03 -0.38914488821E+02  0.60939078897E+03  0.87287536927E+02 0.  0.
         23    2    4    4    0    0  0.54031282923E+02  0.41327353634E+03  0.62536943043E+03  0.75690634541E+03  0.90032748614E+02 0.  0.
          3    1    3    3  502    0  0.51666521067E+02 -0.12175212815E+03 -0.28637504880E+02  0.13532596497E+03  0.00000000000E+00 0. -1.
         -4    1    3    3    0  502  0.43351106813E+03 -0.55887412347E+03 -0.14819414163E+03  0.72265734321E+03  0.00000000000E+00 0.  1.
         11    1    5    5    0    0 -0.29726133213E+03  0.12989842363E+03 -0.61601435565E+02  0.33020090385E+03  0.00000000000E+00 0.  1.
        -11    1    5    5    0    0 -0.24194753999E+03  0.13745429165E+03  0.22686946744E+02  0.27918988512E+03  0.00000000000E+00 0. -1.
          3    1    6    6  503    0  0.63788110321E+02  0.24200360024E+03  0.42420142022E+03  0.49252564447E+03  0.00000000000E+00 0. -1.
         -3    1    6    6    0  503 -0.97568273988E+01  0.17126993610E+03  0.20116801022E+03  0.26438070094E+03  0.00000000000E+00 0.  1.
<mgrwt>
<rscale>  0 0.21862370E+04</rscale>
<asrwt>0</asrwt>
<pdfrwt beam="1">  1        1 0.20260798E+00 0.21862370E+04</pdfrwt>
<pdfrwt beam="2">  1       -2 0.13958901E+00 0.21862370E+04</pdfrwt>
<totfact> 0.25503525E+00</totfact>
</mgrwt>
</event>
<event>
12    4  0.4183215E-008  0.1776010E+04  0.7818608E-02  0.8719162E-01
          1   -1    0    0  501    0  0.00000000000E+00  0.00000000000E+00  0.45253414295E+03  0.45253414295E+03  0.00000000000E+00 0. -1.
         -2   -1    0    0    0  501 -0.00000000000E+00 -0.00000000000E+00 -0.17425272697E+04  0.17425272697E+04  0.00000000000E+00 0.  1.
        -24    2    1    2    0    0  0.54112969841E+03 -0.31874420395E+03 -0.84850249331E+03  0.10588298734E+04  0.82127958486E+02 0.  0.
        254    2    1    2    0    0 -0.54112969841E+03  0.31874420395E+03 -0.44149063346E+03  0.11362315393E+04  0.83766873726E+03 0.  0.
         23    2    4    4    0    0 -0.61329209305E+03  0.51007414965E+03 -0.43183055790E+03  0.91174225062E+03  0.92160030835E+02 0.  0.
         23    2    4    4    0    0  0.72162394641E+02 -0.19132994570E+03 -0.96600755605E+01  0.22448928867E+03  0.92127978066E+02 0.  0.
          1    1    3    3  502    0  0.98185669833E+02 -0.94124384644E+02 -0.20369895908E+03  0.24493487190E+03  0.00000000000E+00 0. -1.
         -2    1    3    3    0  502  0.44294402858E+03 -0.22461981930E+03 -0.64480353423E+03  0.81389500148E+03  0.00000000000E+00 0.  1.
         11    1    5    5    0    0 -0.21714359699E+03  0.13630874181E+03 -0.16837651816E+03  0.30672800113E+03  0.00000000000E+00 0.  1.
        -11    1    5    5    0    0 -0.39614849606E+03  0.37376540785E+03 -0.26345403974E+03  0.60501424949E+03  0.00000000000E+00 0. -1.
          3    1    6    6  503    0  0.16122256224E+02 -0.15669956651E+03 -0.15850567442E+02  0.15832220873E+03  0.00000000000E+00 0. -1.
         -3    1    6    6    0  503  0.56040138418E+02 -0.34630379194E+02  0.61904918814E+01  0.66167079932E+02  0.00000000000E+00 0.  1.
<mgrwt>
<rscale>  0 0.17760102E+04</rscale>
<asrwt>0</asrwt>
<pdfrwt beam="1">  1        1 0.69620637E-01 0.17760102E+04</pdfrwt>
<pdfrwt beam="2">  1       -2 0.26808112E+00 0.17760102E+04</pdfrwt>
<totfact> 0.20940917E+00</totfact>
</mgrwt>
</event>
<event>
12    4  0.4183215E-008  0.2792299E+04  0.7818608E-02  0.8305663E-01
         -2   -1    0    0    0  501 -0.00000000000E+00  0.00000000000E+00  0.79049197921E+03  0.79049197921E+03  0.00000000000E+00 0.  1.
          1   -1    0    0  501    0  0.00000000000E+00 -0.00000000000E+00 -0.24658492667E+04  0.24658492667E+04  0.00000000000E+00 0. -1.
        -24    2    1    2    0    0 -0.58683334389E+03 -0.10903778943E+04 -0.55051598951E+03  0.13577494659E+04  0.84370797502E+02 0.  0.
        254    2    1    2    0    0  0.58683334389E+03  0.10903778943E+04 -0.11248412980E+04  0.18985917801E+04  0.89782263049E+03 0.  0.
         23    2    4    4    0    0  0.26276143172E+03  0.27520169357E+03 -0.91023189400E+03  0.99089995733E+03  0.92634132201E+02 0.  0.
         23    2    4    4    0    0  0.32407191217E+03  0.81517620072E+03 -0.21460940400E+03  0.90769182274E+03  0.91172398830E+02 0.  0.
          1    1    3    3  502    0 -0.34001855957E+03 -0.63013715309E+03 -0.36370935958E+03  0.80310021218E+03  0.00000000000E+00 0. -1.
         -4    1    3    3    0  502 -0.24681478431E+03 -0.46024074120E+03 -0.18680662993E+03  0.55464925367E+03  0.00000000000E+00 0.  1.
         11    1    5    5    0    0  0.44927322980E+02  0.10439094126E+03 -0.23159768241E+03  0.25797949427E+03  0.00000000000E+00 0.  1.
        -11    1    5    5    0    0  0.21783410874E+03  0.17081075231E+03 -0.67863421158E+03  0.73292046306E+03  0.00000000000E+00 0. -1.
          1    1    6    6  503    0  0.20879352799E+03  0.43342720324E+03 -0.14834983272E+03  0.50344965062E+03  0.00000000000E+00 0. -1.
         -1    1    6    6    0  503  0.11527838418E+03  0.38174899748E+03 -0.66259571272E+02  0.40424217212E+03  0.00000000000E+00 0.  1.
<mgrwt>
<rscale>  0 0.27922995E+04</rscale>
<asrwt>0</asrwt>
<pdfrwt beam="1">  1        1 0.37936142E+00 0.27922995E+04</pdfrwt>
<pdfrwt beam="2">  1       -2 0.12161415E+00 0.27922995E+04</pdfrwt>
<totfact> 0.55968535E-01</totfact>
</mgrwt>
</event>
<event>
12    4  0.4183215E-008  0.1991384E+04  0.7818608E-02  0.8610660E-01
          1   -1    0    0  501    0  0.00000000000E+00  0.00000000000E+00  0.52953324098E+03  0.52953324098E+03  0.00000000000E+00 0. -1.
         -2   -1    0    0    0  501 -0.00000000000E+00 -0.00000000000E+00 -0.18722187661E+04  0.18722187661E+04  0.00000000000E+00 0.  1.
        -24    2    1    2    0    0  0.25967835824E+03  0.42370958724E+03 -0.12719328294E+04  0.13680075997E+04  0.81663985361E+02 0.  0.
        254    2    1    2    0    0 -0.25967835824E+03 -0.42370958724E+03 -0.70752695719E+02  0.10337444073E+04  0.90369181229E+03 0.  0.
         23    2    4    4    0    0  0.25724435133E+03  0.87862646316E+02  0.50406322283E+02  0.29081402155E+03  0.90208075542E+02 0.  0.
         23    2    4    4    0    0 -0.51692270957E+03 -0.51157223355E+03 -0.12115901800E+03  0.74293038574E+03  0.91382780683E+02 0.  0.
          3    1    3    3  502    0  0.34547157796E+02  0.29018723643E+02 -0.72509068882E+02  0.85399985385E+02  0.00000000000E+00 0. -1.
         -4    1    3    3    0  502  0.22513120045E+03  0.39469086359E+03 -0.11994237605E+04  0.12826076144E+04  0.00000000000E+00 0.  1.
         11    1    5    5    0    0  0.11942516902E+03  0.54308019790E+02 -0.19573690795E+02  0.13264562330E+03  0.00000000000E+00 0.  1.
        -11    1    5    5    0    0  0.13781918231E+03  0.33554626526E+02  0.69980013077E+02  0.15816839825E+03  0.00000000000E+00 0. -1.
          3    1    6    6  503    0  0.81408333240E+00 -0.14423073398E+02 -0.72654164333E+01  0.16170159364E+02  0.00000000000E+00 0. -1.
         -3    1    6    6    0  503 -0.51773679290E+03 -0.49714916015E+03 -0.11389360157E+03  0.72676022638E+03  0.00000000000E+00 0.  1.
<mgrwt>
<rscale>  0 0.19913835E+04</rscale>
<asrwt>0</asrwt>
<pdfrwt beam="1">  1        1 0.81466653E-01 0.19913835E+04</pdfrwt>
<pdfrwt beam="2">  1       -2 0.28803365E+00 0.19913835E+04</pdfrwt>
<totfact> 0.12518301E+00</totfact>
</mgrwt>
</event>
<event>
12    4  0.4183215E-008  0.1125380E+04  0.7818608E-02  0.9180802E-01
          1   -1    0    0  501    0  0.00000000000E+00  0.00000000000E+00  0.12366315348E+04  0.12366315348E+04  0.00000000000E+00 0. -1.
         -2   -1    0    0    0  501 -0.00000000000E+00 -0.00000000000E+00 -0.25603414725E+03  0.25603414725E+03  0.00000000000E+00 0.  1.
        -24    2    1    2    0    0  0.64114009790E+02  0.99073369517E+02 -0.27363519436E+02  0.14362687612E+03  0.77160731913E+02 0.  0.
        254    2    1    2    0    0 -0.64114009790E+02 -0.99073369517E+02  0.10079609069E+04  0.13490388059E+04  0.88881627520E+03 0.  0.
         23    2    4    4    0    0 -0.13908554074E+03 -0.20385589909E+02 -0.12359150084E+03  0.20845863598E+03  0.91759380543E+02 0.  0.
         23    2    4    4    0    0  0.74971530950E+02 -0.78687779608E+02  0.11315524078E+04  0.11405801699E+04  0.93272585973E+02 0.  0.
          1    1    3    3  502    0 -0.18069823320E+02  0.16387453634E+02 -0.56777088284E+01  0.25046028207E+02  0.00000000000E+00 0. -1.
         -2    1    3    3    0  502  0.82183833110E+02  0.82685915883E+02 -0.21685810608E+02  0.11858084791E+03  0.00000000000E+00 0.  1.
         11    1    5    5    0    0 -0.48623132110E+00 -0.12701796435E+02  0.97179101446E+01  0.16000307220E+02  0.00000000000E+00 0.  1.
        -11    1    5    5    0    0 -0.13859930942E+03 -0.76837934741E+01 -0.13330941099E+03  0.19245832876E+03  0.00000000000E+00 0. -1.
          4    1    6    6  503    0  0.53944162053E+02 -0.99394282296E+02  0.93757493193E+03  0.94437066291E+03  0.00000000000E+00 0. -1.
         -4    1    6    6    0  503  0.21027368897E+02  0.20706502688E+02  0.19397747585E+03  0.19620950699E+03  0.00000000000E+00 0.  1.
<mgrwt>
<rscale>  0 0.11253798E+04</rscale>
<asrwt>0</asrwt>
<pdfrwt beam="1">  1        1 0.19025100E+00 0.11253798E+04</pdfrwt>
<pdfrwt beam="2">  1       -2 0.39389870E-01 0.11253798E+04</pdfrwt>
<totfact> 0.53419425E+01</totfact>
</mgrwt>
</event>
<event>
12    4  0.4183215E-008  0.1463678E+04  0.7818608E-02  0.8908972E-01
          1   -1    0    0  501    0  0.00000000000E+00  0.00000000000E+00  0.39452562066E+04  0.39452562066E+04  0.00000000000E+00 0. -1.
         -2   -1    0    0    0  501 -0.00000000000E+00 -0.00000000000E+00 -0.13575510363E+03  0.13575510363E+03  0.00000000000E+00 0.  1.
        -24    2    1    2    0    0 -0.38557984072E+03 -0.21434472595E+03  0.13437093951E+04  0.14163972912E+04  0.77529818494E+02 0.  0.
        254    2    1    2    0    0  0.38557984072E+03  0.21434472595E+03  0.24657917078E+04  0.26646140190E+04  0.90852828739E+03 0.  0.
         23    2    4    4    0    0 -0.29069928959E+03  0.52280054874E+02  0.80865183277E+03  0.86519318738E+03  0.86035944484E+02 0.  0.
         23    2    4    4    0    0  0.67627913031E+03  0.16206467108E+03  0.16571398750E+04  0.17994208316E+04  0.90467365487E+02 0.  0.
          1    1    3    3  502    0 -0.29742426781E+03 -0.13865208460E+03  0.10658234507E+04  0.11151973922E+04  0.00000000000E+00 0. -1.
         -2    1    3    3    0  502 -0.88155572912E+02 -0.75692641353E+02  0.27788594446E+03  0.30119989894E+03  0.00000000000E+00 0.  1.
         11    1    5    5    0    0 -0.20700261119E+03  0.73974772579E+02  0.54231657651E+03  0.58517486034E+03  0.00000000000E+00 0.  1.
        -11    1    5    5    0    0 -0.83696678399E+02 -0.21694717704E+02  0.26633525626E+03  0.28001832704E+03  0.00000000000E+00 0. -1.
          4    1    6    6  503    0  0.35776927629E+01 -0.34290781714E+01  0.37766076139E+02  0.38089827639E+02  0.00000000000E+00 0. -1.
         -4    1    6    6    0  503  0.67270143755E+03  0.16549374925E+03  0.16193737989E+04  0.17613310040E+04  0.00000000000E+00 0.  1.
<mgrwt>
<rscale>  0 0.14636785E+04</rscale>
<asrwt>0</asrwt>
<pdfrwt beam="1">  1        1 0.60696241E+00 0.14636785E+04</pdfrwt>
<pdfrwt beam="2">  1       -2 0.20885404E-01 0.14636785E+04</pdfrwt>
<totfact> 0.18436493E+00</totfact>
</mgrwt>
</event>
<event>
12    4  0.4183215E-008  0.1623956E+04  0.7818608E-02  0.8805965E-01
         -2   -1    0    0    0  501 -0.00000000000E+00  0.00000000000E+00  0.28496976911E+03  0.28496976911E+03  0.00000000000E+00 0.  1.
          1   -1    0    0  501    0  0.00000000000E+00 -0.00000000000E+00 -0.23136074117E+04  0.23136074117E+04  0.00000000000E+00 0. -1.
        -24    2    1    2    0    0 -0.10455079565E+02 -0.22283594397E+03  0.11899148706E+03  0.26463230912E+03  0.78141656124E+02 0.  0.
        254    2    1    2    0    0  0.10455079565E+02  0.22283594397E+03 -0.21476291297E+04  0.23339448717E+04  0.88612787956E+03 0.  0.
         23    2    4    4    0    0 -0.19595738643E+03  0.14575987408E+02 -0.19636683917E+04  0.19755635475E+04  0.90807604081E+02 0.  0.
         23    2    4    4    0    0  0.20641246600E+03  0.20825995656E+03 -0.18396073802E+03  0.35838132425E+03  0.92829439358E+02 0.  0.
          1    1    3    3  502    0  0.32020152144E+01  0.43339017600E+01 -0.32572642846E+01  0.62964574578E+01  0.00000000000E+00 0. -1.
         -2    1    3    3    0  502 -0.13657094779E+02 -0.22716984573E+03  0.12224875135E+03  0.25833585166E+03  0.00000000000E+00 0.  1.
         11    1    5    5    0    0 -0.88936199034E+02 -0.37015297654E+02 -0.77187547327E+03  0.77786343660E+03  0.00000000000E+00 0.  1.
        -11    1    5    5    0    0 -0.10702118740E+03  0.51591285062E+02 -0.11917929184E+04  0.11977001109E+04  0.00000000000E+00 0. -1.
          4    1    6    6  503    0  0.95654147308E+02  0.78643026277E+02 -0.13003093166E+03  0.17956192432E+03  0.00000000000E+00 0.  1.
         -4    1    6    6    0  503  0.11075831869E+03  0.12961693029E+03 -0.53929806365E+02  0.17881939993E+03  0.00000000000E+00 0. -1.
<mgrwt>
<rscale>  0 0.16239559E+04</rscale>
<asrwt>0</asrwt>
<pdfrwt beam="1">  1        1 0.35593959E+00 0.16239559E+04</pdfrwt>
<pdfrwt beam="2">  1       -2 0.43841504E-01 0.16239559E+04</pdfrwt>
<totfact> 0.75663283E+00</totfact>
</mgrwt>
</event>
<event>
12    4  0.4183215E-008  0.1614877E+04  0.7818608E-02  0.8811460E-01
         -2   -1    0    0    0  501 -0.00000000000E+00  0.00000000000E+00  0.40279015307E+03  0.40279015307E+03  0.00000000000E+00 0.  1.
          1   -1    0    0  501    0  0.00000000000E+00 -0.00000000000E+00 -0.16186028731E+04  0.16186028731E+04  0.00000000000E+00 0. -1.
        -24    2    1    2    0    0  0.24229518591E+03 -0.32293489012E+03  0.50783129613E+02  0.41488622225E+03  0.80979940639E+02 0.  0.
        254    2    1    2    0    0 -0.24229518591E+03  0.32293489012E+03 -0.12665958497E+04  0.16065068040E+04  0.90200064544E+03 0.  0.
         23    2    4    4    0    0  0.17336047404E+03  0.47090999410E+03 -0.85839354374E+03  0.99837432715E+03  0.90009692130E+02 0.  0.
         23    2    4    4    0    0 -0.41565565996E+03 -0.14797510398E+03 -0.40820230593E+03  0.60813247680E+03  0.92356525049E+02 0.  0.
          3    1    3    3  502    0  0.12937146815E+03 -0.11255361150E+03  0.38795744103E+02  0.17581354326E+03  0.00000000000E+00 0. -1.
         -4    1    3    3    0  502  0.11292371776E+03 -0.21038127862E+03  0.11987385510E+02  0.23907267899E+03  0.00000000000E+00 0.  1.
         11    1    5    5    0    0  0.63237935271E+02  0.27905628741E+03 -0.43489210837E+03  0.52057909478E+03  0.00000000000E+00 0.  1.
        -11    1    5    5    0    0  0.11012253877E+03  0.19185370669E+03 -0.42350143537E+03  0.47779523237E+03  0.00000000000E+00 0. -1.
          1    1    6    6  503    0 -0.22084561979E+03 -0.43104258788E+02 -0.16285917169E+03  0.27776586311E+03  0.00000000000E+00 0. -1.
         -1    1    6    6    0  503 -0.19481004017E+03 -0.10487084519E+03 -0.24534313424E+03  0.33036661369E+03  0.00000000000E+00 0.  1.
<mgrwt>
<rscale>  0 0.16148775E+04</rscale>
<asrwt>0</asrwt>
<pdfrwt beam="1">  1        1 0.24901583E+00 0.16148775E+04</pdfrwt>
<pdfrwt beam="2">  1       -2 0.61967716E-01 0.16148775E+04</pdfrwt>
<totfact> 0.11021164E+01</totfact>
</mgrwt>
</event>
<event>
12    4  0.4183215E-008  0.1588262E+04  0.7818608E-02  0.8827792E-01
          1   -1    0    0  501    0  0.00000000000E+00  0.00000000000E+00  0.20825530686E+04  0.20825530686E+04  0.00000000000E+00 0. -1.
         -2   -1    0    0    0  501 -0.00000000000E+00 -0.00000000000E+00 -0.30282236725E+03  0.30282236725E+03  0.00000000000E+00 0.  1.
        -24    2    1    2    0    0 -0.14804784381E+03 -0.33875668435E+03  0.19673684768E+02  0.37860862721E+03  0.79266534429E+02 0.  0.
        254    2    1    2    0    0  0.14804784381E+03  0.33875668435E+03  0.17600570166E+04  0.20067668086E+04  0.89030223372E+03 0.  0.
         23    2    4    4    0    0  0.38034140972E+03  0.43665101520E+03  0.15773257688E+04  0.16826707373E+04  0.90002957963E+02 0.  0.
         23    2    4    4    0    0 -0.23229356592E+03 -0.97894330848E+02  0.18273124784E+03  0.32409607133E+03  0.90021962499E+02 0.  0.
          1    1    3    3  502    0 -0.75615502024E+02 -0.11534315682E+03 -0.23224998853E+02  0.13986117597E+03  0.00000000000E+00 0. -1.
         -2    1    3    3    0  502 -0.72432341781E+02 -0.22341352753E+03  0.42898683621E+02  0.23874745124E+03  0.00000000000E+00 0.  1.
         11    1    5    5    0    0  0.26608005947E+03  0.28249145336E+03  0.11637110619E+04  0.12267124581E+04  0.00000000000E+00 0.  1.
        -11    1    5    5    0    0  0.11426135025E+03  0.15415956183E+03  0.41361470689E+03  0.45595827926E+03  0.00000000000E+00 0. -1.
          2    1    6    6  503    0 -0.15574834369E+03 -0.10538227317E+03  0.14984027483E+03  0.24044766171E+03  0.00000000000E+00 0. -1.
         -2    1    6    6    0  503 -0.76545222224E+02  0.74879423189E+01  0.32890973012E+02  0.83648409615E+02  0.00000000000E+00 0.  1.
<mgrwt>
<rscale>  0 0.15882615E+04</rscale>
<asrwt>0</asrwt>
<pdfrwt beam="1">  1        1 0.32039277E+00 0.15882615E+04</pdfrwt>
<pdfrwt beam="2">  1       -2 0.46588058E-01 0.15882615E+04</pdfrwt>
<totfact> 0.96526881E+00</totfact>
</mgrwt>
</event>
<event>
12    4  0.4183215E-008  0.1822501E+04  0.7818608E-02  0.8694424E-01
         -2   -1    0    0    0  501 -0.00000000000E+00  0.00000000000E+00  0.99706694993E+03  0.99706694993E+03  0.00000000000E+00 0.  1.
          1   -1    0    0  501    0  0.00000000000E+00 -0.00000000000E+00 -0.83282010493E+03  0.83282010493E+03  0.00000000000E+00 0. -1.
        -24    2    1    2    0    0  0.36580622170E+03  0.18318746399E+03  0.61199518810E+03  0.74046623432E+03  0.79876749472E+02 0.  0.
        254    2    1    2    0    0 -0.36580622170E+03 -0.18318746399E+03 -0.44774834310E+03  0.10894208205E+04  0.90497917472E+03 0.  0.
         23    2    4    4    0    0 -0.23250407859E+03 -0.35693179514E+03 -0.64664051478E+03  0.77975450489E+03  0.91731562698E+02 0.  0.
         23    2    4    4    0    0 -0.13330214311E+03  0.17374433115E+03  0.19889217168E+03  0.30966631566E+03  0.91534567973E+02 0.  0.
          3    1    3    3  502    0  0.11778220297E+03  0.81319265331E+02  0.15786730953E+03  0.21309049174E+03  0.00000000000E+00 0. -1.
         -4    1    3    3    0  502  0.24802401873E+03  0.10186819866E+03  0.45412787857E+03  0.52737574258E+03  0.00000000000E+00 0.  1.
         11    1    5    5    0    0 -0.16857979843E+03 -0.27842077780E+03 -0.55392587076E+03  0.64247268288E+03  0.00000000000E+00 0. -1.
        -11    1    5    5    0    0 -0.63924280167E+02 -0.78511017333E+02 -0.92714644014E+02  0.13728182200E+03  0.00000000000E+00 0.  1.
          3    1    6    6  503    0 -0.13565086989E+03  0.11620306202E+03  0.16296803000E+03  0.24179100258E+03  0.00000000000E+00 0. -1.
         -3    1    6    6    0  503  0.23487267854E+01  0.57541269123E+02  0.35924141681E+02  0.67875313077E+02  0.00000000000E+00 0.  1.
<mgrwt>
<rscale>  0 0.18225009E+04</rscale>
<asrwt>0</asrwt>
<pdfrwt beam="1">  1        1 0.12812617E+00 0.18225009E+04</pdfrwt>
<pdfrwt beam="2">  1       -2 0.15339492E+00 0.18225009E+04</pdfrwt>
<totfact> 0.48228277E+00</totfact>
</mgrwt>
</event>
<event>
12    4  0.4183215E-008  0.1890349E+04  0.7818608E-02  0.8659675E-01
          1   -1    0    0  501    0  0.00000000000E+00  0.00000000000E+00  0.21608998444E+04  0.21608998444E+04  0.00000000000E+00 0. -1.
         -2   -1    0    0    0  501 -0.00000000000E+00 -0.00000000000E+00 -0.41341796444E+03  0.41341796444E+03  0.00000000000E+00 0.  1.
        -24    2    1    2    0    0 -0.10088272396E+03  0.71412895382E+03  0.52494644641E+03  0.89558382919E+03  0.79650089986E+02 0.  0.
        254    2    1    2    0    0  0.10088272396E+03 -0.71412895382E+03  0.12225354336E+04  0.16787339797E+04  0.89632438408E+03 0.  0.
         23    2    4    4    0    0  0.32302467755E+03 -0.77923766643E+03  0.11238595779E+04  0.14083391076E+04  0.93821148674E+02 0.  0.
         23    2    4    4    0    0 -0.22214195359E+03  0.65108712613E+02  0.98675855657E+02  0.27039487211E+03  0.98945795099E+02 0.  0.
          1    1    3    3  502    0 -0.99790301275E+01  0.42170028228E+02  0.57474334133E+02  0.71980493240E+02  0.00000000000E+00 0. -1.
         -2    1    3    3    0  502 -0.90903693829E+02  0.67195892559E+03  0.46747211228E+03  0.82360333595E+03  0.00000000000E+00 0.  1.
         11    1    5    5    0    0  0.69884612123E+02 -0.99980187102E+02  0.13081503701E+03  0.17886439202E+03  0.00000000000E+00 0. -1.
        -11    1    5    5    0    0  0.25314006543E+03 -0.67925747933E+03  0.99304454089E+03  0.12294747155E+04  0.00000000000E+00 0.  1.
          2    1    6    6  503    0 -0.32226536341E+02  0.31064299976E+01  0.58135585758E+02  0.66542812410E+02  0.00000000000E+00 0. -1.
         -2    1    6    6    0  503 -0.18991541725E+03  0.62002282615E+02  0.40540269899E+02  0.20385205970E+03  0.00000000000E+00 0.  1.
<mgrwt>
<rscale>  0 0.18903490E+04</rscale>
<asrwt>0</asrwt>
<pdfrwt beam="1">  1        1 0.33244612E+00 0.18903490E+04</pdfrwt>
<pdfrwt beam="2">  1       -2 0.63602765E-01 0.18903490E+04</pdfrwt>
<totfact> 0.43583057E+00</totfact>
</mgrwt>
</event>
<event>
12    4  0.4183215E-008  0.1540596E+04  0.7818608E-02  0.8857897E-01
         -2   -1    0    0    0  501 -0.00000000000E+00  0.00000000000E+00  0.17732415984E+03  0.17732415984E+03  0.00000000000E+00 0.  1.
          1   -1    0    0  501    0  0.00000000000E+00 -0.00000000000E+00 -0.33461816004E+04  0.33461816004E+04  0.00000000000E+00 0. -1.
        -24    2    1    2    0    0  0.37512771533E+03 -0.14985200486E+03 -0.35989217924E+03  0.54662373069E+03  0.78094148976E+02 0.  0.
        254    2    1    2    0    0 -0.37512771533E+03  0.14985200486E+03 -0.28089652614E+04  0.29768820296E+04  0.89909084767E+03 0.  0.
         23    2    4    4    0    0 -0.52152153700E+03 -0.22026793541E+03 -0.15513727565E+04  0.16539482304E+04  0.91020010917E+02 0.  0.
         23    2    4    4    0    0  0.14639382167E+03  0.37011994027E+03 -0.12575925049E+04  0.13229337992E+04  0.10097032965E+03 0.  0.
          3    1    3    3  502    0  0.13646678722E+03 -0.63516280464E+02 -0.86588495488E+02  0.17365215072E+03  0.00000000000E+00 0. -1.
         -4    1    3    3    0  502  0.23866092811E+03 -0.86335724397E+02 -0.27330368375E+03  0.37297157997E+03  0.00000000000E+00 0.  1.
         11    1    5    5    0    0 -0.61753300053E+02 -0.36105692000E+02 -0.29322867744E+03  0.30182801118E+03  0.00000000000E+00 0. -1.
        -11    1    5    5    0    0 -0.45976823694E+03 -0.18416224341E+03 -0.12581440790E+04  0.13521202192E+04  0.00000000000E+00 0.  1.
          2    1    6    6  503    0  0.28582184833E+02  0.80830107030E+01 -0.10227591864E+03  0.10650183043E+03  0.00000000000E+00 0. -1.
         -2    1    6    6    0  503  0.11781163683E+03  0.36203692957E+03 -0.11553165862E+04  0.12164319687E+04  0.00000000000E+00 0.  1.
<mgrwt>
<rscale>  0 0.15405958E+04</rscale>
<asrwt>0</asrwt>
<pdfrwt beam="1">  1        1 0.51479714E+00 0.15405958E+04</pdfrwt>
<pdfrwt beam="2">  1       -2 0.27280642E-01 0.15405958E+04</pdfrwt>
<totfact> 0.34402019E+00</totfact>
</mgrwt>
</event>
<event>
12    4  0.4183215E-008  0.1323812E+04  0.7818608E-02  0.9010892E-01
         -4   -1    0    0    0  501 -0.00000000000E+00  0.00000000000E+00  0.19405907479E+03  0.19405907479E+03  0.00000000000E+00 0.  1.
          3   -1    0    0  501    0  0.00000000000E+00 -0.00000000000E+00 -0.22576603862E+04  0.22576603862E+04  0.00000000000E+00 0. -1.
        -24    2    1    2    0    0 -0.68490268893E+02 -0.14029308802E+02 -0.12105763048E+04  0.12152689811E+04  0.80597569683E+02 0.  0.
        254    2    1    2    0    0  0.68490268893E+02  0.14029308802E+02 -0.85302500662E+03  0.12364504799E+04  0.89233983936E+03 0.  0.
         23    2    4    4    0    0 -0.27463332881E+03  0.17094593470E+03 -0.77095395388E+03  0.84112180866E+03  0.92032168885E+02 0.  0.
         23    2    4    4    0    0  0.34312359771E+03 -0.15691662590E+03 -0.82071052738E+02  0.39532867125E+03  0.84808430186E+02 0.  0.
          3    1    3    3  502    0 -0.33720894527E+02 -0.33388062421E+02 -0.98965504205E+03  0.99079208903E+03  0.00000000000E+00 0. -1.
         -4    1    3    3    0  502 -0.34769374366E+02  0.19358753620E+02 -0.22092126278E+03  0.22447689209E+03  0.00000000000E+00 0.  1.
         11    1    5    5    0    0 -0.53710351259E+01  0.33075037883E+02 -0.66588394581E+02  0.74544083885E+02  0.00000000000E+00 0.  1.
        -11    1    5    5    0    0 -0.26926229369E+03  0.13787089682E+03 -0.70436555930E+03  0.76657772478E+03  0.00000000000E+00 0. -1.
          2    1    6    6  503    0  0.36967003315E+02 -0.50493495194E+02 -0.12210013694E+02  0.63759209730E+02  0.00000000000E+00 0. -1.
         -2    1    6    6    0  503  0.30615659439E+03 -0.10642313071E+03 -0.69861039044E+02  0.33156946152E+03  0.00000000000E+00 0.  1.
<mgrwt>
<rscale>  0 0.13238119E+04</rscale>
<asrwt>0</asrwt>
<pdfrwt beam="1">  1        3 0.34733238E+00 0.13238119E+04</pdfrwt>
<pdfrwt beam="2">  1       -4 0.29855241E-01 0.13238119E+04</pdfrwt>
<totfact> 0.52554453E-01</totfact>
</mgrwt>
</event>
<event>
12    4  0.4183215E-008  0.3579469E+04  0.7818608E-02  0.8095211E-01
          1   -1    0    0  501    0  0.00000000000E+00  0.00000000000E+00  0.22605410489E+04  0.22605410489E+04  0.00000000000E+00 0. -1.
         -2   -1    0    0    0  501 -0.00000000000E+00 -0.00000000000E+00 -0.14169834451E+04  0.14169834451E+04  0.00000000000E+00 0.  1.
        -24    2    1    2    0    0 -0.16404342675E+03 -0.16537834235E+04  0.12893158077E+03  0.16687945794E+04  0.79637539769E+02 0.  0.
        254    2    1    2    0    0  0.16404342675E+03  0.16537834235E+04  0.71462602306E+03  0.20087299147E+04  0.87315271255E+03 0.  0.
         23    2    4    4    0    0 -0.13891702946E+03  0.13966915321E+04  0.75965260252E+03  0.15984953233E+04  0.89833430734E+02 0.  0.
         23    2    4    4    0    0  0.30296045621E+03  0.25709189145E+03 -0.45026579460E+02  0.41023459136E+03  0.91562811294E+02 0.  0.
          1    1    3    3  502    0  0.40809041295E+01 -0.24309998885E+03  0.20378128831E+02  0.24398673425E+03  0.00000000000E+00 0. -1.
         -2    1    3    3    0  502 -0.16812433088E+03 -0.14106834347E+04  0.10855345194E+03  0.14248078451E+04  0.00000000000E+00 0.  1.
         11    1    5    5    0    0 -0.45383240865E+02  0.62218632985E+03  0.29051572245E+03  0.68816775034E+03  0.00000000000E+00 0. -1.
        -11    1    5    5    0    0 -0.93533788590E+02  0.77450520223E+03  0.46913688007E+03  0.91032757298E+03  0.00000000000E+00 0.  1.
          2    1    6    6  503    0  0.21368377918E+03  0.14952040085E+03  0.74755724644E+01  0.26090801433E+03  0.00000000000E+00 0. -1.
         -2    1    6    6    0  503  0.89276677025E+02  0.10757149060E+03 -0.52502151924E+02  0.14932657703E+03  0.00000000000E+00 0.  1.
<mgrwt>
<rscale>  0 0.35794688E+04</rscale>
<asrwt>0</asrwt>
<pdfrwt beam="1">  1        1 0.34777554E+00 0.35794688E+04</pdfrwt>
<pdfrwt beam="2">  1       -2 0.21799745E+00 0.35794688E+04</pdfrwt>
<totfact> 0.14369716E-01</totfact>
</mgrwt>
</event>
<event>
12    4  0.4183215E-008  0.1366659E+04  0.7818608E-02  0.8978312E-01
         -2   -1    0    0    0  501 -0.00000000000E+00  0.00000000000E+00  0.32459304792E+03  0.32459304792E+03  0.00000000000E+00 0.  1.
          1   -1    0    0  501    0  0.00000000000E+00 -0.00000000000E+00 -0.14385380432E+04  0.14385380432E+04  0.00000000000E+00 0. -1.
        -24    2    1    2    0    0  0.18533081364E+03 -0.25286475095E+03 -0.44857550773E+02  0.32673103823E+03  0.80329812161E+02 0.  0.
        254    2    1    2    0    0 -0.18533081364E+03  0.25286475095E+03 -0.10690874445E+04  0.14364000529E+04  0.90664715032E+03 0.  0.
         23    2    4    4    0    0  0.94627943511E+02  0.49232566687E+03 -0.86843321380E+03  0.10067768222E+04  0.89912807323E+02 0.  0.
         23    2    4    4    0    0 -0.27995875715E+03 -0.23946091592E+03 -0.20065423072E+03  0.42962323071E+03  0.92712265094E+02 0.  0.
          1    1    3    3  502    0  0.22781107738E+02 -0.32937066325E+02 -0.34819587402E+02  0.53068190799E+02  0.00000000000E+00 0. -1.
         -2    1    3    3    0  502  0.16254970590E+03 -0.21992768463E+03 -0.10037963371E+02  0.27366284743E+03  0.00000000000E+00 0.  1.
         11    1    5    5    0    0  0.56435796172E+02  0.26784619595E+03 -0.38486700745E+03  0.47228084568E+03  0.00000000000E+00 0.  1.
        -11    1    5    5    0    0  0.38192147339E+02  0.22447947093E+03 -0.48356620635E+03  0.53449597652E+03  0.00000000000E+00 0. -1.
          4    1    6    6  503    0 -0.73929571760E+02 -0.63470111094E+02 -0.92492579245E+01  0.97875356219E+02  0.00000000000E+00 0. -1.
         -4    1    6    6    0  503 -0.20602918539E+03 -0.17599080483E+03 -0.19140497280E+03  0.33174787449E+03  0.00000000000E+00 0.  1.
<mgrwt>
<rscale>  0 0.13666594E+04</rscale>
<asrwt>0</asrwt>
<pdfrwt beam="1">  1        1 0.22131355E+00 0.13666594E+04</pdfrwt>
<pdfrwt beam="2">  1       -2 0.49937392E-01 0.13666594E+04</pdfrwt>
<totfact> 0.23491243E+01</totfact>
</mgrwt>
</event>
<event>
12    4  0.4183215E-008  0.2706907E+04  0.7818608E-02  0.8332768E-01
          1   -1    0    0  501    0  0.00000000000E+00  0.00000000000E+00  0.22420342242E+04  0.22420342242E+04  0.00000000000E+00 0. -1.
         -2   -1    0    0    0  501 -0.00000000000E+00 -0.00000000000E+00 -0.81704182143E+03  0.81704182143E+03  0.00000000000E+00 0.  1.
        -24    2    1    2    0    0  0.71808698591E+03 -0.90302077428E+03  0.10397671311E+04  0.15551525951E+04  0.79299866652E+02 0.  0.
        254    2    1    2    0    0 -0.71808698591E+03  0.90302077428E+03  0.38522527170E+03  0.15039234506E+04  0.88447260966E+03 0.  0.
         23    2    4    4    0    0  0.10884256086E+03  0.18894567291E+03 -0.15647544524E+03  0.28132851433E+03  0.84344517571E+02 0.  0.
         23    2    4    4    0    0 -0.82692954677E+03  0.71407510137E+03  0.54170071694E+03  0.12225949363E+04  0.87080340914E+02 0.  0.
          3    1    3    3  502    0  0.22403407457E+03 -0.32418958430E+03  0.31916089143E+03  0.50710336989E+03  0.00000000000E+00 0. -1.
         -4    1    3    3    0  502  0.49405291133E+03 -0.57883118998E+03  0.72060623969E+03  0.10480492252E+04  0.00000000000E+00 0.  1.
         11    1    5    5    0    0  0.98656113314E+02  0.13203130778E+03 -0.15051371509E+03  0.22320321090E+03  0.00000000000E+00 0.  1.
        -11    1    5    5    0    0  0.10186447549E+02  0.56914365133E+02 -0.59617301559E+01  0.58125303428E+02  0.00000000000E+00 0. -1.
          2    1    6    6  503    0 -0.24696729621E+03  0.25708350570E+03  0.20308631740E+03  0.41027896195E+03  0.00000000000E+00 0. -1.
         -2    1    6    6    0  503 -0.57996225056E+03  0.45699159567E+03  0.33861439954E+03  0.81231597433E+03  0.00000000000E+00 0.  1.
<mgrwt>
<rscale>  0 0.27069065E+04</rscale>
<asrwt>0</asrwt>
<pdfrwt beam="1">  1        1 0.34492834E+00 0.27069065E+04</pdfrwt>
<pdfrwt beam="2">  1       -2 0.12569874E+00 0.27069065E+04</pdfrwt>
<totfact> 0.73961275E-01</totfact>
</mgrwt>
</event>
<event>
12    4  0.4183215E-008  0.2053062E+04  0.7818608E-02  0.8582207E-01
         -2   -1    0    0    0  501 -0.00000000000E+00  0.00000000000E+00  0.10207443650E+04  0.10207443650E+04  0.00000000000E+00 0.  1.
          1   -1    0    0  501    0  0.00000000000E+00 -0.00000000000E+00 -0.10323501749E+04  0.10323501749E+04  0.00000000000E+00 0. -1.
        -24    2    1    2    0    0 -0.64002631477E+03  0.43633318762E+03  0.29517947613E+03  0.83272752841E+03  0.79270922928E+02 0.  0.
        254    2    1    2    0    0  0.64002631477E+03 -0.43633318762E+03 -0.30678528602E+03  0.12203670114E+04  0.89171637681E+03 0.  0.
         23    2    4    4    0    0  0.67937127791E+01  0.11271902595E+03  0.19222452174E+03  0.24079593420E+03  0.90998251767E+02 0.  0.
         23    2    4    4    0    0  0.63323260199E+03 -0.54905221357E+03 -0.49900980776E+03  0.97957107724E+03  0.90038023459E+02 0.  0.
          3    1    3    3  502    0 -0.61082178694E+03  0.39314318378E+03  0.27892014171E+03  0.77811391441E+03  0.00000000000E+00 0. -1.
         -4    1    3    3    0  502 -0.29204527829E+02  0.43190003845E+02  0.16259334428E+02  0.54613613997E+02  0.00000000000E+00 0.  1.
         11    1    5    5    0    0  0.35919327129E+02  0.10283012345E+02  0.64064419358E+02  0.74163253920E+02  0.00000000000E+00 0. -1.
        -11    1    5    5    0    0 -0.29125614350E+02  0.10243601361E+03  0.12816010238E+03  0.16663268028E+03  0.00000000000E+00 0.  1.
          2    1    6    6  503    0  0.15919904447E+02 -0.18145552940E+02 -0.34719563799E+02  0.42286552939E+02  0.00000000000E+00 0. -1.
         -2    1    6    6    0  503  0.61731269754E+03 -0.53090666063E+03 -0.46429024396E+03  0.93728452430E+03  0.00000000000E+00 0.  1.
<mgrwt>
<rscale>  0 0.20530617E+04</rscale>
<asrwt>0</asrwt>
<pdfrwt beam="1">  1        1 0.15882310E+00 0.20530617E+04</pdfrwt>
<pdfrwt beam="2">  1       -2 0.15703760E+00 0.20530617E+04</pdfrwt>
<totfact> 0.30634805E+00</totfact>
</mgrwt>
</event>
<event>
12    4  0.4183215E-008  0.1973452E+04  0.7818608E-02  0.8619134E-01
          1   -1    0    0  501    0  0.00000000000E+00  0.00000000000E+00  0.18177612869E+04  0.18177612869E+04  0.00000000000E+00 0. -1.
         -2   -1    0    0    0  501 -0.00000000000E+00 -0.00000000000E+00 -0.53561928958E+03  0.53561928958E+03  0.00000000000E+00 0.  1.
        -24    2    1    2    0    0  0.22248904466E+03 -0.12021504507E+03  0.13950853349E+04  0.14201342476E+04  0.81025659569E+02 0.  0.
        254    2    1    2    0    0 -0.22248904466E+03  0.12021504507E+03 -0.11294333761E+03  0.93324632885E+03  0.89120114495E+03 0.  0.
         23    2    4    4    0    0 -0.11860973102E+03 -0.24908527249E+02 -0.48652954452E+03  0.50931551388E+03  0.89457207436E+02 0.  0.
         23    2    4    4    0    0 -0.10387931363E+03  0.14512357232E+03  0.37358620691E+03  0.42393081498E+03  0.91098402016E+02 0.  0.
          1    1    3    3  502    0  0.22783306270E+03 -0.10920053866E+03  0.13487040870E+04  0.13721644859E+04  0.00000000000E+00 0. -1.
         -2    1    3    3    0  502 -0.53440180389E+01 -0.11014506409E+02  0.46381247944E+02  0.47969761737E+02  0.00000000000E+00 0.  1.
         11    1    5    5    0    0 -0.84118035927E+02 -0.17657541242E+02 -0.16674069337E+03  0.18759022245E+03  0.00000000000E+00 0. -1.
        -11    1    5    5    0    0 -0.34491695098E+02 -0.72509860073E+01 -0.31978885115E+03  0.32172529143E+03  0.00000000000E+00 0.  1.
          1    1    6    6  503    0 -0.83258603028E+02  0.68730030505E+02  0.13678039484E+03  0.17425466560E+03  0.00000000000E+00 0. -1.
         -1    1    6    6    0  503 -0.20620710607E+02  0.76393541811E+02  0.23680581207E+03  0.24967614937E+03  0.00000000000E+00 0.  1.
<mgrwt>
<rscale>  0 0.19734518E+04</rscale>
<asrwt>0</asrwt>
<pdfrwt beam="1">  1        1 0.27965558E+00 0.19734518E+04</pdfrwt>
<pdfrwt beam="2">  1       -2 0.82402968E-01 0.19734518E+04</pdfrwt>
<totfact> 0.41821377E+00</totfact>
</mgrwt>
</event>
<event>
12    4  0.4183215E-008  0.1755172E+04  0.7818608E-02  0.8730509E-01
          1   -1    0    0  501    0  0.00000000000E+00  0.00000000000E+00  0.79106970059E+03  0.79106970059E+03  0.00000000000E+00 0. -1.
         -2   -1    0    0    0  501 -0.00000000000E+00 -0.00000000000E+00 -0.97356382055E+03  0.97356382055E+03  0.00000000000E+00 0.  1.
        -24    2    1    2    0    0  0.25579018132E+03  0.24451125023E+03  0.47464212965E+03  0.59773838797E+03  0.82411533565E+02 0.  0.
        254    2    1    2    0    0 -0.25579018132E+03 -0.24451125023E+03 -0.65713624961E+03  0.11668951332E+04  0.89699600495E+03 0.  0.
         23    2    4    4    0    0 -0.82637660892E+02 -0.27503554123E+02 -0.82011877629E+03  0.82953942244E+03  0.89193148150E+02 0.  0.
         23    2    4    4    0    0 -0.17315252043E+03 -0.21700769610E+03  0.16298252667E+03  0.33735571073E+03  0.10085353768E+03 0.  0.
          3    1    3    3  502    0  0.53940506860E+02  0.10265186279E+03  0.13536985627E+03  0.17824696688E+03  0.00000000000E+00 0. -1.
         -4    1    3    3    0  502  0.20184967446E+03  0.14185938744E+03  0.33927227339E+03  0.41949142109E+03  0.00000000000E+00 0.  1.
         11    1    5    5    0    0 -0.58039040936E+02  0.10732623411E+02 -0.67231736520E+03  0.67490322197E+03  0.00000000000E+00 0. -1.
        -11    1    5    5    0    0 -0.24598619956E+02 -0.38236177534E+02 -0.14780141109E+03  0.15463620047E+03  0.00000000000E+00 0.  1.
          1    1    6    6  503    0 -0.92820246188E+02 -0.15894671852E+03  0.58025292819E+02  0.19299376165E+03  0.00000000000E+00 0. -1.
         -1    1    6    6    0  503 -0.80332274240E+02 -0.58060977585E+02  0.10495723385E+03  0.14436194907E+03  0.00000000000E+00 0.  1.
<mgrwt>
<rscale>  0 0.17551716E+04</rscale>
<asrwt>0</asrwt>
<pdfrwt beam="1">  1        1 0.12170303E+00 0.17551716E+04</pdfrwt>
<pdfrwt beam="2">  1       -2 0.14977905E+00 0.17551716E+04</pdfrwt>
<totfact> 0.56161839E+00</totfact>
</mgrwt>
</event>
<event>
12    4  0.6272167E-008  0.1869788E+04  0.7818608E-02  0.8670043E-01
         -2   -1    0    0    0  501 -0.00000000000E+00  0.00000000000E+00  0.67661247864E+03  0.67661247864E+03  0.00000000000E+00 0.  1.
          1   -1    0    0  501    0  0.00000000000E+00 -0.00000000000E+00 -0.12917684521E+04  0.12917684521E+04  0.00000000000E+00 0. -1.
        -24    2    1    2    0    0 -0.44451875701E+03 -0.72215772603E+02  0.35043344855E+03  0.57667457841E+03  0.83294203693E+02 0.  0.
        254    2    1    2    0    0  0.44451875701E+03  0.72215772603E+02 -0.96558942203E+03  0.13917063524E+04  0.89536115401E+03 0.  0.
         23    2    4    4    0    0 -0.15450524087E+03  0.55167783670E+02  0.63255422392E+02  0.19764791567E+03  0.90266806169E+02 0.  0.
         23    2    4    4    0    0  0.59902399788E+03  0.17047988932E+02 -0.10288448444E+04  0.11940584367E+04  0.90185655069E+02 0.  0.
          1    1    3    3  502    0 -0.84353156460E+02 -0.32326939261E+02  0.10746841855E+03  0.14039211870E+03  0.00000000000E+00 0. -1.
         -2    1    3    3    0  502 -0.36016560055E+03 -0.39888833342E+02  0.24296503000E+03  0.43628245971E+03  0.00000000000E+00 0.  1.
         11    1    5    5    0    0 -0.13516234236E+03  0.78438874792E+02  0.46434549235E+02  0.16302663351E+03  0.00000000000E+00 0.  1.
        -11    1    5    5    0    0 -0.19342898508E+02 -0.23271091122E+02  0.16820873157E+02  0.34621282161E+02  0.00000000000E+00 0. -1.
          2    1    6    6  503    0  0.58350051491E+02  0.15686504536E+02 -0.63769434716E+02  0.87848367871E+02  0.00000000000E+00 0. -1.
         -2    1    6    6    0  503  0.54067394639E+03  0.13614843964E+01 -0.96507540970E+03  0.11062100688E+04  0.00000000000E+00 0.  1.
<mgrwt>
<rscale>  0 0.18697879E+04</rscale>
<asrwt>0</asrwt>
<pdfrwt beam="1">  1        1 0.19873361E+00 0.18697879E+04</pdfrwt>
<pdfrwt beam="2">  1       -2 0.10409423E+00 0.18697879E+04</pdfrwt>
<totfact> 0.56635682E+00</totfact>
</mgrwt>
</event>
<event>
12    4  0.4183215E-008  0.1365618E+04  0.7818608E-02  0.8979089E-01
          1   -1    0    0  501    0  0.00000000000E+00  0.00000000000E+00  0.73265577822E+03  0.73265577822E+03  0.00000000000E+00 0. -1.
         -2   -1    0    0    0  501 -0.00000000000E+00 -0.00000000000E+00 -0.63635376567E+03  0.63635376567E+03  0.00000000000E+00 0.  1.
        -24    2    1    2    0    0  0.14344299033E+03 -0.17334936877E+02 -0.32270199581E+03  0.36292788976E+03  0.81876025534E+02 0.  0.
        254    2    1    2    0    0 -0.14344299033E+03  0.17334936877E+02  0.41900400836E+03  0.10060816541E+04  0.90319407894E+03 0.  0.
         23    2    4    4    0    0  0.27569895738E+03  0.16975138331E+03  0.43590398712E+03  0.55043830641E+03  0.90247415156E+02 0.  0.
         23    2    4    4    0    0 -0.41914194771E+03 -0.15241644644E+03 -0.16899978759E+02  0.45564334771E+03  0.91730614089E+02 0.  0.
          3    1    3    3  502    0  0.57805672362E+02 -0.34924097980E+02 -0.78530988970E+02  0.10357752944E+03  0.00000000000E+00 0. -1.
         -4    1    3    3    0  502  0.85637317969E+02  0.17589161103E+02 -0.24417100684E+03  0.25935036032E+03  0.00000000000E+00 0.  1.
         11    1    5    5    0    0  0.13417362611E+03  0.83336258406E+02  0.28690393577E+03  0.32750780490E+03  0.00000000000E+00 0.  1.
        -11    1    5    5    0    0  0.14152533126E+03  0.86415124908E+02  0.14900005135E+03  0.22293050151E+03  0.00000000000E+00 0. -1.
          4    1    6    6  503    0 -0.20778637724E+03 -0.73640943953E+02  0.37501405789E+02  0.22361691042E+03  0.00000000000E+00 0. -1.
         -4    1    6    6    0  503 -0.21135557047E+03 -0.78775502484E+02 -0.54401384548E+02  0.23202643729E+03  0.00000000000E+00 0.  1.
<mgrwt>
<rscale>  0 0.13656182E+04</rscale>
<asrwt>0</asrwt>
<pdfrwt beam="1">  1        1 0.11271627E+00 0.13656182E+04</pdfrwt>
<pdfrwt beam="2">  1       -2 0.97900579E-01 0.13656182E+04</pdfrwt>
<totfact> 0.18889612E+01</totfact>
</mgrwt>
</event>
<event>
12    4  0.4183215E-008  0.1322235E+04  0.7818608E-02  0.9012116E-01
          1   -1    0    0  501    0  0.00000000000E+00  0.00000000000E+00  0.10967462765E+04  0.10967462765E+04  0.00000000000E+00 0. -1.
         -2   -1    0    0    0  501 -0.00000000000E+00 -0.00000000000E+00 -0.39852107404E+03  0.39852107404E+03  0.00000000000E+00 0.  1.
        -24    2    1    2    0    0  0.19641564094E+03 -0.29404177344E+03  0.20091426535E+03  0.41439837947E+03  0.79497209753E+02 0.  0.
        254    2    1    2    0    0 -0.19641564094E+03  0.29404177344E+03  0.49731093716E+03  0.10808689711E+04  0.89214342790E+03 0.  0.
         23    2    4    4    0    0 -0.51267121055E+02  0.22689698658E+03  0.73688136260E+03  0.77769651929E+03  0.87790508292E+02 0.  0.
         23    2    4    4    0    0 -0.14514851988E+03  0.67144786856E+02 -0.23957042545E+03  0.30317245181E+03  0.94567603140E+02 0.  0.
          1    1    3    3  502    0  0.31052897787E+02 -0.43524193904E+02  0.49859028963E+00  0.53468556257E+02  0.00000000000E+00 0. -1.
         -2    1    3    3    0  502  0.16536274315E+03 -0.25051757953E+03  0.20041567506E+03  0.36092982321E+03  0.00000000000E+00 0.  1.
         11    1    5    5    0    0  0.13574535742E+00  0.32944530678E+01  0.11163174306E+03  0.11168042758E+03  0.00000000000E+00 0.  1.
        -11    1    5    5    0    0 -0.51402866412E+02  0.22360253351E+03  0.62524961955E+03  0.66601609171E+03  0.00000000000E+00 0. -1.
          3    1    6    6  503    0 -0.66607214175E+02  0.66896605846E+01 -0.16821237412E+03  0.18104329689E+03  0.00000000000E+00 0. -1.
         -3    1    6    6    0  503 -0.78541305706E+02  0.60455126272E+02 -0.71358051323E+02  0.12212915493E+03  0.00000000000E+00 0.  1.
<mgrwt>
<rscale>  0 0.13222352E+04</rscale>
<asrwt>0</asrwt>
<pdfrwt beam="1">  1        1 0.16873020E+00 0.13222352E+04</pdfrwt>
<pdfrwt beam="2">  1       -2 0.61310935E-01 0.13222352E+04</pdfrwt>
<totfact> 0.27130890E+01</totfact>
</mgrwt>
</event>
<event>
12    4  0.4183215E-008  0.2542713E+04  0.7818608E-02  0.8387925E-01
         -2   -1    0    0    0  501 -0.00000000000E+00  0.00000000000E+00  0.10385808860E+04  0.10385808860E+04  0.00000000000E+00 0.  1.
          1   -1    0    0  501    0  0.00000000000E+00 -0.00000000000E+00 -0.15563037280E+04  0.15563037280E+04  0.00000000000E+00 0. -1.
        -24    2    1    2    0    0 -0.77158070793E+03  0.79776819410E+03 -0.26183751923E+03  0.11431414085E+04  0.80265266477E+02 0.  0.
        254    2    1    2    0    0  0.77158070793E+03 -0.79776819410E+03 -0.25588532278E+03  0.14517432054E+04  0.90017229222E+03 0.  0.
         23    2    4    4    0    0  0.32109343307E+03 -0.63967831997E+02  0.27399433859E+03  0.43659106215E+03  0.91356344488E+02 0.  0.
         23    2    4    4    0    0  0.45048727486E+03 -0.73380036210E+03 -0.52987966137E+03  0.10151521433E+04  0.91431188367E+02 0.  0.
          3    1    3    3  502    0 -0.30173594433E+03  0.30640527035E+03 -0.61624494879E+02  0.43442645887E+03  0.00000000000E+00 0. -1.
         -4    1    3    3    0  502 -0.46984476360E+03  0.49136292374E+03 -0.20021302435E+03  0.70871494963E+03  0.00000000000E+00 0.  1.
         11    1    5    5    0    0  0.24618235947E+03 -0.23817586943E+02  0.16067367653E+03  0.29493908166E+03  0.00000000000E+00 0.  1.
        -11    1    5    5    0    0  0.74911073598E+02 -0.40150245054E+02  0.11332066206E+03  0.14165198049E+03  0.00000000000E+00 0. -1.
          2    1    6    6  503    0  0.37706976157E+03 -0.56189405231E+03 -0.44470501804E+03  0.80973395890E+03  0.00000000000E+00 0. -1.
         -2    1    6    6    0  503  0.73417513284E+02 -0.17190630979E+03 -0.85174643327E+02  0.20541818437E+03  0.00000000000E+00 0.  1.
<mgrwt>
<rscale>  0 0.25427130E+04</rscale>
<asrwt>0</asrwt>
<pdfrwt beam="1">  1        1 0.23943134E+00 0.25427130E+04</pdfrwt>
<pdfrwt beam="2">  1       -2 0.15978167E+00 0.25427130E+04</pdfrwt>
<totfact> 0.11753867E+00</totfact>
</mgrwt>
</event>
<event>
12    4  0.4183215E-008  0.3516550E+04  0.7818608E-02  0.8109879E-01
         -2   -1    0    0    0  501 -0.00000000000E+00  0.00000000000E+00  0.16884034336E+04  0.16884034336E+04  0.00000000000E+00 0.  1.
          1   -1    0    0  501    0  0.00000000000E+00 -0.00000000000E+00 -0.18310380880E+04  0.18310380880E+04  0.00000000000E+00 0. -1.
        -24    2    1    2    0    0  0.14628403411E+04 -0.26305146352E+03  0.62256356092E+03  0.16133798684E+04  0.79443540388E+02 0.  0.
        254    2    1    2    0    0 -0.14628403411E+04  0.26305146352E+03 -0.76519821539E+03  0.19060616532E+04  0.91566630441E+03 0.  0.
         23    2    4    4    0    0 -0.15271117628E+04  0.12247862532E+03 -0.79150878279E+03  0.17268944388E+04  0.92773377503E+02 0.  0.
         23    2    4    4    0    0  0.64271421710E+02  0.14057283821E+03  0.26310567399E+02  0.17916721447E+03  0.86701247356E+02 0.  0.
          3    1    3    3  502    0  0.10013965305E+04 -0.17813538123E+03  0.38572976937E+03  0.10878026845E+04  0.00000000000E+00 0. -1.
         -4    1    3    3    0  502  0.46144381059E+03 -0.84916082292E+02  0.23683379155E+03  0.52557718385E+03  0.00000000000E+00 0.  1.
         11    1    5    5    0    0 -0.15186887270E+04  0.12598862532E+03 -0.77916825540E+03  0.17115465970E+04  0.00000000000E+00 0. -1.
        -11    1    5    5    0    0 -0.84230358101E+01 -0.35100000045E+01 -0.12340527393E+02  0.15347841823E+02  0.00000000000E+00 0.  1.
          3    1    6    6  503    0  0.64093814144E+02  0.15166816387E+03  0.30213679432E+02  0.16740404824E+03  0.00000000000E+00 0. -1.
         -3    1    6    6    0  503  0.17760756598E+00 -0.11095325665E+02 -0.39031120330E+01  0.11763166223E+02  0.00000000000E+00 0.  1.
<mgrwt>
<rscale>  0 0.35165500E+04</rscale>
<asrwt>0</asrwt>
<pdfrwt beam="1">  1        1 0.28169817E+00 0.35165500E+04</pdfrwt>
<pdfrwt beam="2">  1       -2 0.25975437E+00 0.35165500E+04</pdfrwt>
<totfact> 0.15558302E-01</totfact>
</mgrwt>
</event>
<event>
12    4  0.4183215E-008  0.1722397E+04  0.7818608E-02  0.8748692E-01
         -2   -1    0    0    0  501 -0.00000000000E+00  0.00000000000E+00  0.12014358907E+04  0.12014358907E+04  0.00000000000E+00 0.  1.
          1   -1    0    0  501    0  0.00000000000E+00 -0.00000000000E+00 -0.61731395787E+03  0.61731395787E+03  0.00000000000E+00 0. -1.
        -24    2    1    2    0    0  0.29848099418E+03 -0.39507581287E+03  0.61596228821E+03  0.79437176243E+03  0.80256804344E+02 0.  0.
        254    2    1    2    0    0 -0.29848099418E+03  0.39507581287E+03 -0.31840355339E+02  0.10243780862E+04  0.89619241987E+03 0.  0.
         23    2    4    4    0    0 -0.22992163136E+03  0.18867975719E+03  0.41537927501E+03  0.51881863677E+03  0.90381571211E+02 0.  0.
         23    2    4    4    0    0 -0.68559362826E+02  0.20639605568E+03 -0.44721963035E+03  0.50555944942E+03  0.91023299760E+02 0.  0.
          1    1    3    3  502    0  0.70339243963E+02 -0.45030784186E+02  0.11250400265E+03  0.14011613532E+03  0.00000000000E+00 0. -1.
         -2    1    3    3    0  502  0.22814175022E+03 -0.35004502868E+03  0.50345828557E+03  0.65425562711E+03  0.00000000000E+00 0.  1.
         11    1    5    5    0    0 -0.13017182006E+03  0.56618299323E+02  0.15394167356E+03  0.20940003203E+03  0.00000000000E+00 0. -1.
        -11    1    5    5    0    0 -0.99749811296E+02  0.13206145787E+03  0.26143760145E+03  0.30941860474E+03  0.00000000000E+00 0.  1.
          3    1    6    6  503    0 -0.24888623689E+02  0.15737773843E+01 -0.32544669322E+02  0.41000925181E+02  0.00000000000E+00 0. -1.
         -3    1    6    6    0  503 -0.43670739138E+02  0.20482227829E+03 -0.41467496102E+03  0.46455852424E+03  0.00000000000E+00 0.  1.
<mgrwt>
<rscale>  0 0.17223973E+04</rscale>
<asrwt>0</asrwt>
<pdfrwt beam="1">  1        1 0.94971378E-01 0.17223973E+04</pdfrwt>
<pdfrwt beam="2">  1       -2 0.18483629E+00 0.17223973E+04</pdfrwt>
<totfact> 0.45857883E+00</totfact>
</mgrwt>
</event>
<event>
12    4  0.4183215E-008  0.1396662E+04  0.7818608E-02  0.8956238E-01
          1   -1    0    0  501    0  0.00000000000E+00  0.00000000000E+00  0.11048071117E+04  0.11048071117E+04  0.00000000000E+00 0. -1.
         -2   -1    0    0    0  501 -0.00000000000E+00 -0.00000000000E+00 -0.44140405719E+03  0.44140405719E+03  0.00000000000E+00 0.  1.
        -24    2    1    2    0    0  0.31387807573E+03 -0.11404885400E+03 -0.48357035026E+02  0.34652761518E+03  0.78844135667E+02 0.  0.
        254    2    1    2    0    0 -0.31387807573E+03  0.11404885400E+03  0.71176008957E+03  0.11996835537E+04  0.90615209347E+03 0.  0.
         23    2    4    4    0    0 -0.13409960315E+03 -0.22171381006E+03  0.75726374982E+03  0.80551826409E+03  0.90948171305E+02 0.  0.
         23    2    4    4    0    0 -0.17977847257E+03  0.33576266405E+03 -0.45503660247E+02  0.39416528966E+03  0.90767982793E+02 0.  0.
          3    1    3    3  502    0  0.38978678577E+02  0.86644672451E+01 -0.18493512529E+02  0.44004776808E+02  0.00000000000E+00 0. -1.
         -4    1    3    3    0  502  0.27489939715E+03 -0.12271332124E+03 -0.29863522497E+02  0.30252283838E+03  0.00000000000E+00 0.  1.
         11    1    5    5    0    0 -0.13697813781E+03 -0.17922054993E+03  0.56030534944E+03  0.60400753337E+03  0.00000000000E+00 0. -1.
        -11    1    5    5    0    0  0.28785346571E+01 -0.42493260131E+02  0.19695840037E+03  0.20151073072E+03  0.00000000000E+00 0.  1.
          1    1    6    6  503    0 -0.55573838792E+02  0.98569167507E+02 -0.55915605075E+02  0.12621761855E+03  0.00000000000E+00 0. -1.
         -1    1    6    6    0  503 -0.12420463378E+03  0.23719349655E+03  0.10411944828E+02  0.26794767111E+03  0.00000000000E+00 0.  1.
<mgrwt>
<rscale>  0 0.13966622E+04</rscale>
<asrwt>0</asrwt>
<pdfrwt beam="1">  1        1 0.16997032E+00 0.13966622E+04</pdfrwt>
<pdfrwt beam="2">  1       -2 0.67908317E-01 0.13966622E+04</pdfrwt>
<totfact> 0.21356445E+01</totfact>
</mgrwt>
</event>
<event>
12    4  0.4183215E-008  0.2263055E+04  0.7818608E-02  0.8492632E-01
          1   -1    0    0  501    0  0.00000000000E+00  0.00000000000E+00  0.28509883444E+04  0.28509883444E+04  0.00000000000E+00 0. -1.
         -2   -1    0    0    0  501 -0.00000000000E+00 -0.00000000000E+00 -0.44909157554E+03  0.44909157554E+03  0.00000000000E+00 0.  1.
        -24    2    1    2    0    0 -0.73445632950E+03 -0.12842943307E+03  0.17584488218E+04  0.19116242064E+04  0.79022961186E+02 0.  0.
        254    2    1    2    0    0  0.73445632950E+03  0.12842943307E+03  0.64344794701E+03  0.13884557135E+04  0.97870515918E+03 0.  0.
         23    2    4    4    0    0 -0.14486077173E+02  0.41102353261E+03  0.26647660833E+03  0.49884883321E+03  0.93221160778E+02 0.  0.
         23    2    4    4    0    0  0.74894240667E+03 -0.28259409954E+03  0.37697133868E+03  0.88960688028E+03  0.92297657914E+02 0.  0.
          1    1    3    3  502    0 -0.56018224048E+03 -0.93613974835E+02  0.14196447274E+04  0.15290385446E+04  0.00000000000E+00 0. -1.
         -2    1    3    3    0  502 -0.17427408902E+03 -0.34815458237E+02  0.33880409440E+03  0.38258566181E+03  0.00000000000E+00 0.  1.
         11    1    5    5    0    0 -0.39233498999E+02  0.73828995094E+02  0.52004774354E+02  0.98460573409E+02  0.00000000000E+00 0.  1.
        -11    1    5    5    0    0  0.24747421827E+02  0.33719453752E+03  0.21447183397E+03  0.40038825980E+03  0.00000000000E+00 0. -1.
          3    1    6    6  503    0  0.70699217610E+03 -0.26544839812E+03  0.37751297571E+03  0.84428480737E+03  0.00000000000E+00 0. -1.
         -3    1    6    6    0  503  0.41950230572E+02 -0.17145701417E+02 -0.54163703256E+00  0.45322072909E+02  0.00000000000E+00 0.  1.
<mgrwt>
<rscale>  0 0.22630553E+04</rscale>
<asrwt>0</asrwt>
<pdfrwt beam="1">  1        1 0.43861358E+00 0.22630553E+04</pdfrwt>
<pdfrwt beam="2">  1       -2 0.69091013E-01 0.22630553E+04</pdfrwt>
<totfact> 0.11685027E+00</totfact>
</mgrwt>
</event>
<event>
12    4  0.4183215E-008  0.1849792E+04  0.7818608E-02  0.8680260E-01
          1   -1    0    0  501    0  0.00000000000E+00  0.00000000000E+00  0.14859241871E+04  0.14859241871E+04  0.00000000000E+00 0. -1.
         -2   -1    0    0    0  501 -0.00000000000E+00 -0.00000000000E+00 -0.57569060414E+03  0.57569060414E+03  0.00000000000E+00 0.  1.
        -24    2    1    2    0    0 -0.29786671243E+03  0.51592911803E+03  0.76282075078E+03  0.97119826878E+03  0.80144533503E+02 0.  0.
        254    2    1    2    0    0  0.29786671243E+03 -0.51592911803E+03  0.14741283217E+03  0.10904165224E+04  0.90131582485E+03 0.  0.
         23    2    4    4    0    0 -0.23734941238E+03 -0.50115777243E+02  0.25848006119E+03  0.36603883379E+03  0.91247745879E+02 0.  0.
         23    2    4    4    0    0  0.53521612481E+03 -0.46581334079E+03 -0.11106722902E+03  0.72437768865E+03  0.94597768125E+02 0.  0.
          3    1    3    3  502    0 -0.28700575716E+03  0.51575669223E+03  0.74978940786E+03  0.95423342341E+03  0.00000000000E+00 0. -1.
         -4    1    3    3    0  502 -0.10860955268E+02  0.17242580741E+00  0.13031342926E+02  0.16964845371E+02  0.00000000000E+00 0.  1.
         11    1    5    5    0    0 -0.12594053459E+03 -0.25425515936E+02  0.20026291153E+03  0.23793425321E+03  0.00000000000E+00 0.  1.
        -11    1    5    5    0    0 -0.11140887778E+03 -0.24690261308E+02  0.58217149655E+02  0.12810458058E+03  0.00000000000E+00 0. -1.
          1    1    6    6  503    0  0.99719185896E+02 -0.95513678089E+02 -0.59675925223E+02  0.15042604425E+03  0.00000000000E+00 0. -1.
         -1    1    6    6    0  503  0.43549693891E+03 -0.37029966270E+03 -0.51391303801E+02  0.57395164440E+03  0.00000000000E+00 0.  1.
<mgrwt>
<rscale>  0 0.18497920E+04</rscale>
<asrwt>0</asrwt>
<pdfrwt beam="1">  1        1 0.22860372E+00 0.18497920E+04</pdfrwt>
<pdfrwt beam="2">  1       -2 0.88567785E-01 0.18497920E+04</pdfrwt>
<totfact> 0.60501096E+00</totfact>
</mgrwt>
</event>
<event>
12    4  0.4183215E-008  0.1824883E+04  0.7818608E-02  0.8693178E-01
          1   -1    0    0  501    0  0.00000000000E+00  0.00000000000E+00  0.15350655160E+04  0.15350655160E+04  0.00000000000E+00 0. -1.
         -2   -1    0    0    0  501 -0.00000000000E+00 -0.00000000000E+00 -0.54235427434E+03  0.54235427434E+03  0.00000000000E+00 0.  1.
        -24    2    1    2    0    0  0.17390486317E+03 -0.66342306271E+03  0.34156727555E+03  0.76808945026E+03  0.54038304053E+02 0.  0.
        254    2    1    2    0    0 -0.17390486317E+03  0.66342306271E+03  0.65114396609E+03  0.13093303401E+04  0.90552990743E+03 0.  0.
         23    2    4    4    0    0  0.28547924387E+03  0.35874930566E+03  0.58085053648E+03  0.74587673708E+03  0.93516299159E+02 0.  0.
         23    2    4    4    0    0 -0.45938410704E+03  0.30467375705E+03  0.70293429611E+02  0.56345360297E+03  0.93160830907E+02 0.  0.
          3    1    3    3  502    0  0.98772184683E+02 -0.36828623231E+03  0.15989770171E+03  0.41347063788E+03  0.00000000000E+00 0. -1.
         -4    1    3    3    0  502  0.75132678485E+02 -0.29513683040E+03  0.18166957384E+03  0.35461881238E+03  0.00000000000E+00 0.  1.
         11    1    5    5    0    0  0.22471073629E+03  0.23916292739E+03  0.46179106963E+03  0.56651991389E+03  0.00000000000E+00 0. -1.
        -11    1    5    5    0    0  0.60768507582E+02  0.11958637827E+03  0.11905946684E+03  0.17935682320E+03  0.00000000000E+00 0.  1.
          4    1    6    6  503    0 -0.43984441715E+03  0.29501131722E+03  0.47230515192E+02  0.53171939042E+03  0.00000000000E+00 0. -1.
         -4    1    6    6    0  503 -0.19539689890E+02  0.96624398362E+01  0.23062914420E+02  0.31734212549E+02  0.00000000000E+00 0.  1.
<mgrwt>
<rscale>  0 0.18248828E+04</rscale>
<asrwt>0</asrwt>
<pdfrwt beam="1">  1        1 0.23616392E+00 0.18248828E+04</pdfrwt>
<pdfrwt beam="2">  1       -2 0.83439120E-01 0.18248828E+04</pdfrwt>
<totfact> 0.64245823E+00</totfact>
</mgrwt>
</event>
<event>
12    4  0.4183215E-008  0.1258902E+04  0.7818608E-02  0.9062806E-01
         -2   -1    0    0    0  501 -0.00000000000E+00  0.00000000000E+00  0.94046184511E+03  0.94046184511E+03  0.00000000000E+00 0.  1.
          1   -1    0    0  501    0  0.00000000000E+00 -0.00000000000E+00 -0.42129165435E+03  0.42129165435E+03  0.00000000000E+00 0. -1.
        -24    2    1    2    0    0  0.86145945464E+02 -0.97047718013E+02 -0.15765649234E+03  0.21965774634E+03  0.80960314098E+02 0.  0.
        254    2    1    2    0    0 -0.86145945464E+02  0.97047718013E+02  0.67682668311E+03  0.11420957531E+04  0.91074088896E+03 0.  0.
         23    2    4    4    0    0  0.37910786737E+03 -0.20976816826E+01  0.12927424247E+03  0.41111336325E+03  0.92602334241E+02 0.  0.
         23    2    4    4    0    0 -0.46525381283E+03  0.99145399696E+02  0.54755244064E+03  0.73098238987E+03  0.90722976192E+02 0.  0.
          1    1    3    3  502    0  0.95984463577E+02 -0.74216155573E+02 -0.10129299105E+03  0.15805481654E+03  0.00000000000E+00 0. -1.
         -2    1    3    3    0  502 -0.98385181128E+01 -0.22831562440E+02 -0.56363501289E+02  0.61602929798E+02  0.00000000000E+00 0.  1.
         11    1    5    5    0    0  0.33603121485E+03  0.98524243566E+01  0.14154110582E+03  0.36475736079E+03  0.00000000000E+00 0.  1.
        -11    1    5    5    0    0  0.43076652523E+02 -0.11950106039E+02 -0.12266863355E+02  0.46356002454E+02  0.00000000000E+00 0. -1.
          4    1    6    6  503    0 -0.63525124443E+01  0.71722217997E+01 -0.13037638375E+01  0.96692802236E+01  0.00000000000E+00 0. -1.
         -4    1    6    6    0  503 -0.45890130039E+03  0.91973177896E+02  0.54885620448E+03  0.72131310964E+03  0.00000000000E+00 0.  1.
<mgrwt>
<rscale>  0 0.12589023E+04</rscale>
<asrwt>0</asrwt>
<pdfrwt beam="1">  1        1 0.64814101E-01 0.12589023E+04</pdfrwt>
<pdfrwt beam="2">  1       -2 0.14468644E+00 0.12589023E+04</pdfrwt>
<totfact> 0.15871288E+01</totfact>
</mgrwt>
</event>
<event>
12    4  0.4183215E-008  0.2063959E+04  0.7818608E-02  0.8577288E-01
          1   -1    0    0  501    0  0.00000000000E+00  0.00000000000E+00  0.14345458518E+04  0.14345458518E+04  0.00000000000E+00 0. -1.
         -2   -1    0    0    0  501 -0.00000000000E+00 -0.00000000000E+00 -0.74238237652E+03  0.74238237652E+03  0.00000000000E+00 0.  1.
        -24    2    1    2    0    0  0.73169663606E+03 -0.35643411168E+03  0.74872246040E+02  0.82128745778E+03  0.80510818448E+02 0.  0.
        254    2    1    2    0    0 -0.73169663606E+03  0.35643411168E+03  0.61729122922E+03  0.13556407705E+04  0.89122847454E+03 0.  0.
         23    2    4    4    0    0 -0.32214229185E+03  0.37959926017E+03  0.76096128364E+03  0.91383909944E+03  0.90380141349E+02 0.  0.
         23    2    4    4    0    0 -0.40955434422E+03 -0.23165148487E+02 -0.14367005442E+03  0.44180167108E+03  0.79222768584E+02 0.  0.
          1    1    3    3  502    0  0.14985547821E+03 -0.44717992062E+02 -0.45140782221E+01  0.15645043965E+03  0.00000000000E+00 0. -1.
         -2    1    3    3    0  502  0.58184115785E+03 -0.31171611962E+03  0.79386324262E+02  0.66483701813E+03  0.00000000000E+00 0.  1.
         11    1    5    5    0    0 -0.90206472144E+02  0.14918605752E+03  0.20736115465E+03  0.27091019883E+03  0.00000000000E+00 0. -1.
        -11    1    5    5    0    0 -0.23193581970E+03  0.23041320265E+03  0.55360012899E+03  0.64292890061E+03  0.00000000000E+00 0.  1.
          4    1    6    6  503    0 -0.21026560974E+03 -0.44147188209E+02 -0.98653825103E+02  0.23641738107E+03  0.00000000000E+00 0. -1.
         -4    1    6    6    0  503 -0.19928873448E+03  0.20982039721E+02 -0.45016229317E+02  0.20538429001E+03  0.00000000000E+00 0.  1.
<mgrwt>
<rscale>  0 0.20639589E+04</rscale>
<asrwt>0</asrwt>
<pdfrwt beam="1">  1        1 0.22069936E+00 0.20639589E+04</pdfrwt>
<pdfrwt beam="2">  1       -2 0.11421267E+00 0.20639589E+04</pdfrwt>
<totfact> 0.35278377E+00</totfact>
</mgrwt>
</event>
<event>
12    4  0.4183215E-008  0.1343251E+04  0.7818608E-02  0.8995953E-01
         -2   -1    0    0    0  501 -0.00000000000E+00  0.00000000000E+00  0.56025993939E+03  0.56025993939E+03  0.00000000000E+00 0.  1.
          1   -1    0    0  501    0  0.00000000000E+00 -0.00000000000E+00 -0.80512769898E+03  0.80512769898E+03  0.00000000000E+00 0. -1.
        -24    2    1    2    0    0  0.17244712461E+03 -0.96632104920E+02  0.25313010490E+03  0.33050203293E+03  0.77980569874E+02 0.  0.
        254    2    1    2    0    0 -0.17244712461E+03  0.96632104920E+02 -0.49799786449E+03  0.10348856054E+04  0.88538724228E+03 0.  0.
         23    2    4    4    0    0  0.61448930874E+02 -0.28431934997E+03  0.63670050120E+02  0.31125425532E+03  0.90619381489E+02 0.  0.
         23    2    4    4    0    0 -0.23389605548E+03  0.38095145489E+03 -0.56166791461E+03  0.72363135011E+03  0.91324196122E+02 0.  0.
          1    1    3    3  502    0  0.63574135634E+02 -0.48516490450E+02  0.47809956092E+02  0.93173560996E+02  0.00000000000E+00 0. -1.
         -2    1    3    3    0  502  0.10887298897E+03 -0.48115614470E+02  0.20532014881E+03  0.23732847194E+03  0.00000000000E+00 0.  1.
         11    1    5    5    0    0  0.99569537495E+01 -0.11732696151E+03 -0.16665162473E+02  0.11892217819E+03  0.00000000000E+00 0.  1.
        -11    1    5    5    0    0  0.51491977125E+02 -0.16699238846E+03  0.80335212594E+02  0.19233207713E+03  0.00000000000E+00 0. -1.
          4    1    6    6  503    0 -0.20913720375E+03  0.36958599154E+03 -0.54762248614E+03  0.69298092503E+03  0.00000000000E+00 0. -1.
         -4    1    6    6    0  503 -0.24758851731E+02  0.11365463356E+02 -0.14045428477E+02  0.30650425077E+02  0.00000000000E+00 0.  1.
<mgrwt>
<rscale>  0 0.13432510E+04</rscale>
<asrwt>0</asrwt>
<pdfrwt beam="1">  1        1 0.12386580E+00 0.13432510E+04</pdfrwt>
<pdfrwt beam="2">  1       -2 0.86193837E-01 0.13432510E+04</pdfrwt>
<totfact> 0.21916625E+01</totfact>
</mgrwt>
</event>
<event>
12    4  0.4183215E-008  0.1426119E+04  0.7818608E-02  0.8935126E-01
         -2   -1    0    0    0  501 -0.00000000000E+00  0.00000000000E+00  0.23556859642E+03  0.23556859642E+03  0.00000000000E+00 0.  1.
          1   -1    0    0  501    0  0.00000000000E+00 -0.00000000000E+00 -0.21584112231E+04  0.21584112231E+04  0.00000000000E+00 0. -1.
        -24    2    1    2    0    0  0.10401370230E+03  0.11688869232E+03  0.77356078977E+02  0.19270512373E+03  0.81666915570E+02 0.  0.
        254    2    1    2    0    0 -0.10401370230E+03 -0.11688869232E+03 -0.20001987057E+04  0.22012746958E+04  0.90572269902E+03 0.  0.
         23    2    4    4    0    0 -0.35862717834E+02  0.38344406858E+03 -0.10397660832E+04  0.11123390727E+04  0.88708605492E+02 0.  0.
         23    2    4    4    0    0 -0.68150984466E+02 -0.50033276090E+03 -0.96043262248E+03  0.10889356231E+04  0.91501587720E+02 0.  0.
          1    1    3    3  502    0  0.87311346811E+01  0.27813671502E+01 -0.15084297231E+02  0.17649496848E+02  0.00000000000E+00 0. -1.
         -2    1    3    3    0  502  0.95282567618E+02  0.11410732517E+03  0.92440376208E+02  0.17505562688E+03  0.00000000000E+00 0.  1.
         11    1    5    5    0    0 -0.22117172417E+02  0.46381350544E+02 -0.21907574589E+03  0.22502129106E+03  0.00000000000E+00 0.  1.
        -11    1    5    5    0    0 -0.13745545417E+02  0.33706271804E+03 -0.82069033729E+03  0.88731778165E+03  0.00000000000E+00 0. -1.
          3    1    6    6  503    0 -0.84206036487E+02 -0.45252179983E+03 -0.82992375099E+03  0.94902058373E+03  0.00000000000E+00 0. -1.
         -3    1    6    6    0  503  0.16055052021E+02 -0.47810961074E+02 -0.13050887149E+03  0.13991503934E+03  0.00000000000E+00 0.  1.
<mgrwt>
<rscale>  0 0.14261191E+04</rscale>
<asrwt>0</asrwt>
<pdfrwt beam="1">  1        1 0.33206325E+00 0.14261191E+04</pdfrwt>
<pdfrwt beam="2">  1       -2 0.36241324E-01 0.14261191E+04</pdfrwt>
<totfact> 0.14254317E+01</totfact>
</mgrwt>
</event>
<event>
12    4  0.4183215E-008  0.1702301E+04  0.7818608E-02  0.8760053E-01
          1   -1    0    0  501    0  0.00000000000E+00  0.00000000000E+00  0.32210503625E+03  0.32210503625E+03  0.00000000000E+00 0. -1.
         -2   -1    0    0    0  501 -0.00000000000E+00 -0.00000000000E+00 -0.22491332460E+04  0.22491332460E+04  0.00000000000E+00 0.  1.
        -24    2    1    2    0    0 -0.51776555651E+03  0.13226804211E+02 -0.21285949720E+03  0.56577716686E+03  0.80861097758E+02 0.  0.
        254    2    1    2    0    0  0.51776555651E+03 -0.13226804211E+02 -0.17141687126E+04  0.20054611154E+04  0.90290851720E+03 0.  0.
         23    2    4    4    0    0 -0.97235772723E+01  0.11046979095E+02 -0.13600501537E+04  0.13635610363E+04  0.96673137850E+02 0.  0.
         23    2    4    4    0    0  0.52748913378E+03 -0.24273783306E+02 -0.35411855893E+03  0.64190007912E+03  0.88327543745E+02 0.  0.
          3    1    3    3  502    0 -0.24538459636E+03 -0.21569800255E+02 -0.69161721840E+02  0.25585581913E+03  0.00000000000E+00 0. -1.
         -4    1    3    3    0  502 -0.27238096015E+03  0.34796604466E+02 -0.14369777536E+03  0.30992134773E+03  0.00000000000E+00 0.  1.
         11    1    5    5    0    0  0.13667920089E+02  0.39130780832E+01 -0.29110112977E+02  0.32396340799E+02  0.00000000000E+00 0. -1.
        -11    1    5    5    0    0 -0.23391497361E+02  0.71339010119E+01 -0.13309400407E+04  0.13311646955E+04  0.00000000000E+00 0.  1.
          1    1    6    6  503    0  0.52929507472E+02 -0.28234964125E+02 -0.51380613656E+02  0.78985526649E+02  0.00000000000E+00 0. -1.
         -1    1    6    6    0  503  0.47455962631E+03  0.39611808187E+01 -0.30273794527E+03  0.56291455247E+03  0.00000000000E+00 0.  1.
<mgrwt>
<rscale>  0 0.17023010E+04</rscale>
<asrwt>0</asrwt>
<pdfrwt beam="1">  1        1 0.49554622E-01 0.17023010E+04</pdfrwt>
<pdfrwt beam="2">  1       -2 0.34602050E+00 0.17023010E+04</pdfrwt>
<totfact> 0.10996564E+00</totfact>
</mgrwt>
</event>
<event>
12    4  0.4183215E-008  0.1706126E+04  0.7818608E-02  0.8757878E-01
          1   -1    0    0  501    0  0.00000000000E+00  0.00000000000E+00  0.34045297836E+03  0.34045297836E+03  0.00000000000E+00 0. -1.
         -2   -1    0    0    0  501 -0.00000000000E+00 -0.00000000000E+00 -0.21374944993E+04  0.21374944993E+04  0.00000000000E+00 0.  1.
        -24    2    1    2    0    0  0.12417175611E+03 -0.19546934102E+03 -0.14852907906E+04  0.15053870097E+04  0.80463829569E+02 0.  0.
        254    2    1    2    0    0 -0.12417175611E+03  0.19546934102E+03 -0.31175073033E+03  0.97256046801E+03  0.89166050590E+03 0.  0.
         23    2    4    4    0    0 -0.39340037562E+03  0.85287137136E+02  0.13270081752E+03  0.43370092673E+03  0.91919723523E+02 0.  0.
         23    2    4    4    0    0  0.26922861952E+03  0.11018220388E+03 -0.44445154785E+03  0.53885954128E+03  0.90599443850E+02 0.  0.
          1    1    3    3  502    0  0.10783790738E+03 -0.10405856036E+03 -0.81056763846E+03  0.82430400628E+03  0.00000000000E+00 0. -1.
         -2    1    3    3    0  502  0.16333848724E+02 -0.91410780652E+02 -0.67472315217E+03  0.68108300339E+03  0.00000000000E+00 0.  1.
         11    1    5    5    0    0 -0.13425936783E+03  0.28078662809E+02  0.38718788692E+00  0.13716464220E+03  0.00000000000E+00 0.  1.
        -11    1    5    5    0    0 -0.25914100779E+03  0.57208474326E+02  0.13231362963E+03  0.29653628453E+03  0.00000000000E+00 0. -1.
          3    1    6    6  503    0  0.26448495861E+03  0.11591607753E+03 -0.39748787864E+03  0.49130992665E+03  0.00000000000E+00 0. -1.
         -3    1    6    6    0  503  0.47436609091E+01 -0.57338736518E+01 -0.46963669212E+02  0.47549614633E+02  0.00000000000E+00 0.  1.
<mgrwt>
<rscale>  0 0.17061259E+04</rscale>
<asrwt>0</asrwt>
<pdfrwt beam="1">  1        1 0.52377381E-01 0.17061259E+04</pdfrwt>
<pdfrwt beam="2">  1       -2 0.32884531E+00 0.17061259E+04</pdfrwt>
<totfact> 0.13079045E+00</totfact>
</mgrwt>
</event>
<event>
12    4  0.4183215E-008  0.1616285E+04  0.7818608E-02  0.8810606E-01
          1   -1    0    0  501    0  0.00000000000E+00  0.00000000000E+00  0.12897210664E+04  0.12897210664E+04  0.00000000000E+00 0. -1.
         -2   -1    0    0    0  501 -0.00000000000E+00 -0.00000000000E+00 -0.50638406251E+03  0.50638406251E+03  0.00000000000E+00 0.  1.
        -24    2    1    2    0    0  0.47704084225E+03  0.53081610006E+02 -0.26802718597E+02  0.48720202743E+03  0.79131582246E+02 0.  0.
        254    2    1    2    0    0 -0.47704084225E+03 -0.53081610006E+02  0.81013972252E+03  0.13089031015E+04  0.90912888891E+03 0.  0.
         23    2    4    4    0    0 -0.32309118099E+03  0.25613902662E+03  0.85081175574E+03  0.94968819240E+03  0.89620906457E+02 0.  0.
         23    2    4    4    0    0 -0.15394966126E+03 -0.30922063663E+03 -0.40672033224E+02  0.35921490912E+03  0.89795525078E+02 0.  0.
          1    1    3    3  502    0  0.82215171358E+02  0.20189124265E+02  0.23421451575E+02  0.87837916265E+02  0.00000000000E+00 0. -1.
         -2    1    3    3    0  502  0.39482567090E+03  0.32892485740E+02 -0.50224170172E+02  0.39936411116E+03  0.00000000000E+00 0.  1.
         11    1    5    5    0    0 -0.14679026163E+02  0.46863867696E+02  0.10623238949E+03  0.11703425345E+03  0.00000000000E+00 0.  1.
        -11    1    5    5    0    0 -0.30841215483E+03  0.20927515893E+03  0.74457936626E+03  0.83265393895E+03  0.00000000000E+00 0. -1.
          4    1    6    6  503    0 -0.72454813298E+02 -0.18268963104E+03 -0.64478069118E+02  0.20683960612E+03  0.00000000000E+00 0. -1.
         -4    1    6    6    0  503 -0.81494847966E+02 -0.12653100558E+03  0.23806035894E+02  0.15237530300E+03  0.00000000000E+00 0.  1.
<mgrwt>
<rscale>  0 0.16162849E+04</rscale>
<asrwt>0</asrwt>
<pdfrwt beam="1">  1        1 0.19841863E+00 0.16162849E+04</pdfrwt>
<pdfrwt beam="2">  1       -2 0.77905240E-01 0.16162849E+04</pdfrwt>
<totfact> 0.11346351E+01</totfact>
</mgrwt>
</event>
<event>
12    4  0.4183215E-008  0.1644159E+04  0.7818608E-02  0.8793869E-01
         -2   -1    0    0    0  501 -0.00000000000E+00  0.00000000000E+00  0.33709582454E+03  0.33709582454E+03  0.00000000000E+00 0.  1.
          1   -1    0    0  501    0  0.00000000000E+00 -0.00000000000E+00 -0.20048148990E+04  0.20048148990E+04  0.00000000000E+00 0. -1.
        -24    2    1    2    0    0 -0.12647141016E+03 -0.94475608201E+02  0.20355406272E+03  0.26565819491E+03  0.64956615826E+02 0.  0.
        254    2    1    2    0    0  0.12647141016E+03  0.94475608201E+02 -0.18712731372E+04  0.20762525286E+04  0.88557368443E+03 0.  0.
         23    2    4    4    0    0  0.43868060443E+03  0.14522067144E+02 -0.15455842104E+04  0.16092932604E+04  0.91338290559E+02 0.  0.
         23    2    4    4    0    0 -0.31220919427E+03  0.79953541057E+02 -0.32568892676E+03  0.46695926823E+03  0.90058489100E+02 0.  0.
          3    1    3    3  502    0 -0.32485377946E+02 -0.26895786266E+02  0.15701647251E+02  0.45002497992E+02  0.00000000000E+00 0. -1.
         -4    1    3    3    0  502 -0.93986032215E+02 -0.67579821935E+02  0.18785241547E+03  0.22065569692E+03  0.00000000000E+00 0.  1.
         11    1    5    5    0    0  0.40033561091E+03 -0.11537937285E+02 -0.14210319384E+04  0.14763920534E+04  0.00000000000E+00 0. -1.
        -11    1    5    5    0    0  0.38344993519E+02  0.26060004428E+02 -0.12455227205E+03  0.13290120704E+03  0.00000000000E+00 0.  1.
          4    1    6    6  503    0 -0.12194706821E+03  0.34193265663E+02 -0.19183522091E+03  0.22987174434E+03  0.00000000000E+00 0.  1.
         -4    1    6    6    0  503 -0.19026212606E+03  0.45760275394E+02 -0.13385370584E+03  0.23708752389E+03  0.00000000000E+00 0. -1.
<mgrwt>
<rscale>  0 0.16441590E+04</rscale>
<asrwt>0</asrwt>
<pdfrwt beam="1">  1        1 0.30843306E+00 0.16441590E+04</pdfrwt>
<pdfrwt beam="2">  1       -2 0.51860897E-01 0.16441590E+04</pdfrwt>
<totfact> 0.87196779E+00</totfact>
</mgrwt>
</event>
<event>
12    4  0.4183215E-008  0.2382110E+04  0.7818608E-02  0.8446232E-01
         -2   -1    0    0    0  501 -0.00000000000E+00  0.00000000000E+00  0.10586627046E+04  0.10586627046E+04  0.00000000000E+00 0.  1.
          1   -1    0    0  501    0  0.00000000000E+00 -0.00000000000E+00 -0.13400035195E+04  0.13400035195E+04  0.00000000000E+00 0. -1.
        -24    2    1    2    0    0  0.43952769277E+03  0.59452466469E+02 -0.10459120095E+04  0.11388569984E+04  0.79650126575E+02 0.  0.
        254    2    1    2    0    0 -0.43952769277E+03 -0.59452466469E+02  0.76457119461E+03  0.12598092257E+04  0.89768089260E+03 0.  0.
         23    2    4    4    0    0 -0.21097595257E+03 -0.28206150595E+03  0.84478289146E+03  0.91957925352E+03  0.88872516008E+02 0.  0.
         23    2    4    4    0    0 -0.22855174019E+03  0.22260903948E+03 -0.80211696857E+02  0.34022997213E+03  0.86786146471E+02 0.  0.
          3    1    3    3  502    0  0.42746986728E+03  0.58914233750E+02 -0.10387737095E+04  0.11248342962E+04  0.00000000000E+00 0. -1.
         -4    1    3    3    0  502  0.12057825484E+02  0.53823271822E+00 -0.71383000440E+01  0.14022702214E+02  0.00000000000E+00 0.  1.
         11    1    5    5    0    0 -0.20797545928E+03 -0.22600151325E+03  0.71497722841E+03  0.77815352778E+03  0.00000000000E+00 0. -1.
        -11    1    5    5    0    0 -0.30004932971E+01 -0.56059992703E+02  0.12980566305E+03  0.14142572574E+03  0.00000000000E+00 0.  1.
          1    1    6    6  503    0 -0.20631164271E+03  0.15471791267E+03 -0.50096560060E+02  0.26270095498E+03  0.00000000000E+00 0. -1.
         -1    1    6    6    0  503 -0.22240097484E+02  0.67891126813E+02 -0.30115136796E+02  0.77529017150E+02  0.00000000000E+00 0.  1.
<mgrwt>
<rscale>  0 0.23821098E+04</rscale>
<asrwt>0</asrwt>
<pdfrwt beam="1">  1        1 0.20615439E+00 0.23821098E+04</pdfrwt>
<pdfrwt beam="2">  1       -2 0.16287119E+00 0.23821098E+04</pdfrwt>
<totfact> 0.16010381E+00</totfact>
</mgrwt>
</event>
<event>
12    4  0.4183215E-008  0.1397134E+04  0.7818608E-02  0.8955896E-01
          1   -1    0    0  501    0  0.00000000000E+00  0.00000000000E+00  0.14335991102E+04  0.14335991102E+04  0.00000000000E+00 0. -1.
         -2   -1    0    0    0  501 -0.00000000000E+00 -0.00000000000E+00 -0.34039922105E+03  0.34039922105E+03  0.00000000000E+00 0.  1.
        -24    2    1    2    0    0  0.12823483927E+03 -0.36857198198E+03  0.27244542993E+03  0.48260566468E+03  0.79951456442E+02 0.  0.
        254    2    1    2    0    0 -0.12823483927E+03  0.36857198198E+03  0.82075445921E+03  0.12913926666E+04  0.91747896818E+03 0.  0.
         23    2    4    4    0    0 -0.26768389618E+02  0.53914849494E+03  0.12376572646E+03  0.56078186391E+03  0.88094821492E+02 0.  0.
         23    2    4    4    0    0 -0.10146644965E+03 -0.17057651295E+03  0.69698873275E+03  0.73061080265E+03  0.92774264735E+02 0.  0.
          3    1    3    3  502    0  0.84775454709E+02 -0.27983373858E+03  0.16146623793E+03  0.33401368978E+03  0.00000000000E+00 0. -1.
         -4    1    3    3    0  502  0.43459384557E+02 -0.88738243405E+02  0.11097919200E+03  0.14859197490E+03  0.00000000000E+00 0.  1.
         11    1    5    5    0    0 -0.17083977364E+02  0.26230739313E+03  0.10525695815E+03  0.28315377097E+03  0.00000000000E+00 0. -1.
        -11    1    5    5    0    0 -0.96844122542E+01  0.27684110180E+03  0.18508768311E+02  0.27762809294E+03  0.00000000000E+00 0.  1.
          2    1    6    6  503    0 -0.11262162365E+02  0.74601934922E+01  0.15811349180E+02  0.20796383122E+02  0.00000000000E+00 0. -1.
         -2    1    6    6    0  503 -0.90204287283E+02 -0.17803670645E+03  0.68117738357E+03  0.70981441953E+03  0.00000000000E+00 0.  1.
<mgrwt>
<rscale>  0 0.13971342E+04</rscale>
<asrwt>0</asrwt>
<pdfrwt beam="1">  1        1 0.22055371E+00 0.13971342E+04</pdfrwt>
<pdfrwt beam="2">  1       -2 0.52369112E-01 0.13971342E+04</pdfrwt>
<totfact> 0.21427163E+01</totfact>
</mgrwt>
</event>
<event>
12    4  0.4183215E-008  0.2777033E+04  0.7818608E-02  0.8310434E-01
          1   -1    0    0  501    0  0.00000000000E+00  0.00000000000E+00  0.26909997165E+04  0.26909997165E+04  0.00000000000E+00 0. -1.
         -2   -1    0    0    0  501 -0.00000000000E+00 -0.00000000000E+00 -0.71645429862E+03  0.71645429862E+03  0.00000000000E+00 0.  1.
        -24    2    1    2    0    0 -0.62410276013E+03 -0.61371371441E+02  0.22001315519E+04  0.22891712104E+04  0.80344785432E+02 0.  0.
        254    2    1    2    0    0  0.62410276013E+03  0.61371371441E+02 -0.22558613408E+03  0.11182828046E+04  0.89799589465E+03 0.  0.
         23    2    4    4    0    0  0.66647977726E+03  0.10093146288E+03 -0.48638163590E+03  0.83588901734E+03  0.88095969681E+02 0.  0.
         23    2    4    4    0    0 -0.42377017128E+02 -0.39560091435E+02  0.26079550182E+03  0.28239378729E+03  0.91493961085E+02 0.  0.
          3    1    3    3  502    0 -0.39860296921E+03 -0.12540819471E+02  0.14933514580E+04  0.15456843715E+04  0.00000000000E+00 0. -1.
         -4    1    3    3    0  502 -0.22549979092E+03 -0.48830551970E+02  0.70678009389E+03  0.74348683891E+03  0.00000000000E+00 0.  1.
         11    1    5    5    0    0  0.43204910034E+03  0.10435919872E+03 -0.29798910082E+03  0.53512126819E+03  0.00000000000E+00 0.  1.
        -11    1    5    5    0    0  0.23443067691E+03 -0.34277358489E+01 -0.18839253508E+03  0.30076774914E+03  0.00000000000E+00 0. -1.
          3    1    6    6  503    0 -0.12143902740E+02 -0.69036292331E+01  0.22458923752E+03  0.22502324342E+03  0.00000000000E+00 0. -1.
         -3    1    6    6    0  503 -0.30233114388E+02 -0.32656462202E+02  0.36206264302E+02  0.57370543869E+02  0.00000000000E+00 0.  1.
<mgrwt>
<rscale>  0 0.27770332E+04</rscale>
<asrwt>0</asrwt>
<pdfrwt beam="1">  1        1 0.41399995E+00 0.27770332E+04</pdfrwt>
<pdfrwt beam="2">  1       -2 0.11022374E+00 0.27770332E+04</pdfrwt>
<totfact> 0.49656386E-01</totfact>
</mgrwt>
</event>
<event>
12    4  0.4183215E-008  0.1624033E+04  0.7818608E-02  0.8805918E-01
         -2   -1    0    0    0  501 -0.00000000000E+00  0.00000000000E+00  0.47949716895E+03  0.47949716895E+03  0.00000000000E+00 0.  1.
          1   -1    0    0  501    0  0.00000000000E+00 -0.00000000000E+00 -0.13751301404E+04  0.13751301404E+04  0.00000000000E+00 0. -1.
        -24    2    1    2    0    0  0.24875202137E+03 -0.24465501737E+03 -0.84221922408E+03  0.91514807195E+03  0.80181834195E+02 0.  0.
        254    2    1    2    0    0 -0.24875202137E+03  0.24465501737E+03 -0.53413747350E+02  0.93947923737E+03  0.87065180375E+03 0.  0.
         23    2    4    4    0    0  0.24399020406E+03 -0.13321204304E+03 -0.10470614792E+03  0.30967805510E+03  0.87524009916E+02 0.  0.
         23    2    4    4    0    0 -0.49274222543E+03  0.37786706041E+03  0.51292400569E+02  0.62980118227E+03  0.91870576157E+02 0.  0.
          3    1    3    3  502    0  0.21725563460E+03 -0.24162704616E+03 -0.74139136272E+03  0.80947192226E+03  0.00000000000E+00 0. -1.
         -2    1    3    3    0  502  0.31496386778E+02 -0.30279712052E+01 -0.10082786135E+03  0.10567614969E+03  0.00000000000E+00 0.  1.
         11    1    5    5    0    0  0.21241527362E+03 -0.13155382732E+03 -0.63604893293E+02  0.25782210999E+03  0.00000000000E+00 0. -1.
        -11    1    5    5    0    0  0.31574930441E+02 -0.16582157218E+01 -0.41101254626E+02  0.51855945113E+02  0.00000000000E+00 0.  1.
          3    1    6    6  503    0 -0.15507193509E+03  0.13766527829E+03 -0.23594284775E+02  0.20870008187E+03  0.00000000000E+00 0. -1.
         -3    1    6    6    0  503 -0.33767029034E+03  0.24020178212E+03  0.74886685344E+02  0.42110110040E+03  0.00000000000E+00 0.  1.
<mgrwt>
<rscale>  0 0.16240333E+04</rscale>
<asrwt>0</asrwt>
<pdfrwt beam="1">  1        1 0.21155848E+00 0.16240333E+04</pdfrwt>
<pdfrwt beam="2">  1       -2 0.73768797E-01 0.16240333E+04</pdfrwt>
<totfact> 0.11132400E+01</totfact>
</mgrwt>
</event>
<event>
12    4  0.4183215E-008  0.1636077E+04  0.7818608E-02  0.8798686E-01
          1   -1    0    0  501    0  0.00000000000E+00  0.00000000000E+00  0.83184222914E+03  0.83184222914E+03  0.00000000000E+00 0. -1.
         -2   -1    0    0    0  501 -0.00000000000E+00 -0.00000000000E+00 -0.80446415482E+03  0.80446415482E+03  0.00000000000E+00 0.  1.
        -24    2    1    2    0    0 -0.49356135972E+03  0.11406958327E+03 -0.24716023200E+03  0.56907021639E+03  0.78345678051E+02 0.  0.
        254    2    1    2    0    0  0.49356135972E+03 -0.11406958327E+03  0.27453830631E+03  0.10672361676E+04  0.89833572237E+03 0.  0.
         23    2    4    4    0    0  0.60494916833E+03 -0.35600856105E+03  0.32782716479E+03  0.78070940263E+03  0.96596736870E+02 0.  0.
         23    2    4    4    0    0 -0.11138780861E+03  0.24193897778E+03 -0.53288858480E+02  0.28652676493E+03  0.91193046396E+02 0.  0.
          1    1    3    3  502    0 -0.15842979983E+03  0.40551354534E+02 -0.12130193638E+03  0.20361378538E+03  0.00000000000E+00 0. -1.
         -2    1    3    3    0  502 -0.33513155990E+03  0.73518228738E+02 -0.12585829562E+03  0.36545643102E+03  0.00000000000E+00 0.  1.
         11    1    5    5    0    0  0.10786745669E+03 -0.30962465652E+02  0.76389942564E+02  0.13575524232E+03  0.00000000000E+00 0. -1.
        -11    1    5    5    0    0  0.49708171164E+03 -0.32504609540E+03  0.25143722223E+03  0.64495416031E+03  0.00000000000E+00 0.  1.
          1    1    6    6  503    0 -0.29436596501E+01 -0.73427658559E+01  0.37568053993E+01  0.87575641224E+01  0.00000000000E+00 0. -1.
         -1    1    6    6    0  503 -0.10844414896E+03  0.24928174363E+03 -0.57045663880E+02  0.27776920081E+03  0.00000000000E+00 0.  1.
<mgrwt>
<rscale>  0 0.16360773E+04</rscale>
<asrwt>0</asrwt>
<pdfrwt beam="1">  1        1 0.12797573E+00 0.16360773E+04</pdfrwt>
<pdfrwt beam="2">  1       -2 0.12376372E+00 0.16360773E+04</pdfrwt>
<totfact> 0.85492322E+00</totfact>
</mgrwt>
</event>
<event>
12    4  0.4183215E-008  0.2233207E+04  0.7818608E-02  0.8504732E-01
         -2   -1    0    0    0  501 -0.00000000000E+00  0.00000000000E+00  0.19469459465E+04  0.19469459465E+04  0.00000000000E+00 0.  1.
          1   -1    0    0  501    0  0.00000000000E+00 -0.00000000000E+00 -0.64038938663E+03  0.64038938663E+03  0.00000000000E+00 0. -1.
        -24    2    1    2    0    0 -0.15949747011E+03 -0.91196244970E+03  0.41772716327E+03  0.10188436857E+04  0.80196760383E+02 0.  0.
        254    2    1    2    0    0  0.15949747011E+03  0.91196244970E+03  0.88882939661E+03  0.15684916474E+04  0.90168364691E+03 0.  0.
         23    2    4    4    0    0  0.21388013848E+03  0.14766189310E+03 -0.11808518921E+03  0.30005368839E+03  0.92408634328E+02 0.  0.
         23    2    4    4    0    0 -0.54382668368E+02  0.76430055660E+03  0.10069145858E+04  0.12684379590E+04  0.89135050897E+02 0.  0.
          3    1    3    3  502    0 -0.43408606386E+02 -0.15637036545E+03  0.10249993804E+03  0.19194331350E+03  0.00000000000E+00 0. -1.
         -4    1    3    3    0  502 -0.11608886372E+03 -0.75559208425E+03  0.31522722524E+03  0.82690037223E+03  0.00000000000E+00 0.  1.
         11    1    5    5    0    0 -0.84722156495E+01  0.63462385890E+01  0.15599663425E+01  0.10699844729E+02  0.00000000000E+00 0.  1.
        -11    1    5    5    0    0  0.22235235413E+03  0.14131565451E+03 -0.11964515556E+03  0.28935384366E+03  0.00000000000E+00 0. -1.
          1    1    6    6  503    0 -0.43048986970E+02  0.14075630150E+03  0.17371285028E+03  0.22768773802E+03  0.00000000000E+00 0. -1.
         -1    1    6    6    0  503 -0.11333681398E+02  0.62354425510E+03  0.83320173555E+03  0.10407502210E+04  0.00000000000E+00 0.  1.
<mgrwt>
<rscale>  0 0.22332071E+04</rscale>
<asrwt>0</asrwt>
<pdfrwt beam="1">  1        1 0.98521445E-01 0.22332071E+04</pdfrwt>
<pdfrwt beam="2">  1       -2 0.29953014E+00 0.22332071E+04</pdfrwt>
<totfact> 0.79384251E-01</totfact>
</mgrwt>
</event>
<event>
12    4  0.4183215E-008  0.1212570E+04  0.7818608E-02  0.9101925E-01
          1   -1    0    0  501    0  0.00000000000E+00  0.00000000000E+00  0.15792282253E+04  0.15792282253E+04  0.00000000000E+00 0. -1.
         -2   -1    0    0    0  501 -0.00000000000E+00 -0.00000000000E+00 -0.23276005994E+03  0.23276005994E+03  0.00000000000E+00 0.  1.
        -24    2    1    2    0    0  0.26131675992E+03  0.35102636226E+02  0.35986579943E+03  0.45327352406E+03  0.80217516398E+02 0.  0.
        254    2    1    2    0    0 -0.26131675992E+03 -0.35102636226E+02  0.98660236596E+03  0.13587147612E+04  0.89621589457E+03 0.  0.
         23    2    4    4    0    0 -0.37883721112E+03  0.34794318831E+03  0.52584994136E+03  0.74161661240E+03  0.94313011485E+02 0.  0.
         23    2    4    4    0    0  0.11752045120E+03 -0.38304582453E+03  0.46075242460E+03  0.61709814880E+03  0.89342981479E+02 0.  0.
          1    1    3    3  502    0  0.13846032191E+03  0.11182804718E+02  0.25329919356E+03  0.28888890135E+03  0.00000000000E+00 0. -1.
         -2    1    3    3    0  502  0.12285643801E+03  0.23919831508E+02  0.10656660587E+03  0.16438462272E+03  0.00000000000E+00 0.  1.
         11    1    5    5    0    0 -0.31471695075E+03  0.32547487199E+03  0.47887517202E+03  0.65901599507E+03  0.00000000000E+00 0. -1.
        -11    1    5    5    0    0 -0.64120260364E+02  0.22468316321E+02  0.46974769345E+02  0.82600617325E+02  0.00000000000E+00 0.  1.
          3    1    6    6  503    0  0.13213513397E+03 -0.35065466564E+03  0.42666090062E+03  0.56785377720E+03  0.00000000000E+00 0. -1.
         -3    1    6    6    0  503 -0.14614682775E+02 -0.32391158894E+02  0.34091523973E+02  0.49244371596E+02  0.00000000000E+00 0.  1.
<mgrwt>
<rscale>  0 0.12125696E+04</rscale>
<asrwt>0</asrwt>
<pdfrwt beam="1">  1        1 0.24295818E+00 0.12125696E+04</pdfrwt>
<pdfrwt beam="2">  1       -2 0.35809241E-01 0.12125696E+04</pdfrwt>
<totfact> 0.36691623E+01</totfact>
</mgrwt>
</event>
<event>
12    4  0.4183215E-008  0.1736417E+04  0.7818608E-02  0.8740863E-01
          1   -1    0    0  501    0  0.00000000000E+00  0.00000000000E+00  0.90793708978E+03  0.90793708978E+03  0.00000000000E+00 0. -1.
         -2   -1    0    0    0  501 -0.00000000000E+00 -0.00000000000E+00 -0.83021783774E+03  0.83021783774E+03  0.00000000000E+00 0.  1.
        -24    2    1    2    0    0  0.81846034004E+02 -0.40075984323E+03 -0.45150633667E+03  0.61437996902E+03  0.79357098364E+02 0.  0.
        254    2    1    2    0    0 -0.81846034004E+02  0.40075984323E+03  0.52922558871E+03  0.11237749585E+04  0.90304108896E+03 0.  0.
         23    2    4    4    0    0  0.13082092175E+03 -0.42759399585E+02 -0.18731610031E+03  0.24989460168E+03  0.91746992843E+02 0.  0.
         23    2    4    4    0    0 -0.21266695575E+03  0.44351924282E+03  0.71654168901E+03  0.87388035681E+03  0.91095187063E+02 0.  0.
          3    1    3    3  502    0  0.16652503435E+02 -0.27439101004E+02 -0.68121452354E+02  0.75304331916E+02  0.00000000000E+00 0. -1.
         -4    1    3    3    0  502  0.65193530568E+02 -0.37332074223E+03 -0.38338488431E+03  0.53907563711E+03  0.00000000000E+00 0.  1.
         11    1    5    5    0    0  0.11073220509E+03 -0.70344807282E+02 -0.15204329549E+03  0.20081627638E+03  0.00000000000E+00 0. -1.
        -11    1    5    5    0    0  0.20088716656E+02  0.27585407697E+02 -0.35272804816E+02  0.49078325300E+02  0.00000000000E+00 0.  1.
          1    1    6    6  503    0 -0.18745544937E+03  0.34781338794E+03  0.62281706283E+03  0.73757358418E+03  0.00000000000E+00 0. -1.
         -1    1    6    6    0  503 -0.25211506376E+02  0.95705854871E+02  0.93724626187E+02  0.13630677263E+03  0.00000000000E+00 0.  1.
<mgrwt>
<rscale>  0 0.17364165E+04</rscale>
<asrwt>0</asrwt>
<pdfrwt beam="1">  1        1 0.13968263E+00 0.17364165E+04</pdfrwt>
<pdfrwt beam="2">  1       -2 0.12772582E+00 0.17364165E+04</pdfrwt>
<totfact> 0.67674056E+00</totfact>
</mgrwt>
</event>
<event>
12    4  0.4183215E-008  0.1570084E+04  0.7818608E-02  0.8839140E-01
         -2   -1    0    0    0  501 -0.00000000000E+00  0.00000000000E+00  0.40997790607E+03  0.40997790607E+03  0.00000000000E+00 0.  1.
          1   -1    0    0  501    0  0.00000000000E+00 -0.00000000000E+00 -0.15032289575E+04  0.15032289575E+04  0.00000000000E+00 0. -1.
        -24    2    1    2    0    0  0.35921574125E+03 -0.13334832298E+03  0.78334797810E+02  0.39917732396E+03  0.79927913801E+02 0.  0.
        254    2    1    2    0    0 -0.35921574125E+03  0.13334832298E+03 -0.11715858492E+04  0.15140295396E+04  0.87912133442E+03 0.  0.
         23    2    4    4    0    0  0.98459956941E+02  0.16301647579E+02 -0.98868587306E+03  0.99762689445E+03  0.88315106849E+02 0.  0.
         23    2    4    4    0    0 -0.45767569820E+03  0.11704667541E+03 -0.18289997616E+03  0.51640264514E+03  0.10026126712E+03 0.  0.
          1    1    3    3  502    0  0.35744929023E+00  0.59245649797E+01 -0.13324985280E+01  0.60830742656E+01  0.00000000000E+00 0. -1.
         -2    1    3    3    0  502  0.35885829196E+03 -0.13927288796E+03  0.79667296338E+02  0.39309424969E+03  0.00000000000E+00 0.  1.
         11    1    5    5    0    0  0.10602627333E+03  0.21582622265E+02 -0.65991294381E+03  0.66872451251E+03  0.00000000000E+00 0. -1.
        -11    1    5    5    0    0 -0.75663163858E+01 -0.52809746860E+01 -0.32877292925E+03  0.32890238194E+03  0.00000000000E+00 0.  1.
          2    1    6    6  503    0 -0.44636510126E+03  0.12593756499E+03 -0.18893960935E+03  0.50079961051E+03  0.00000000000E+00 0. -1.
         -2    1    6    6    0  503 -0.11310596930E+02 -0.88908895869E+01  0.60396331925E+01  0.15603034630E+02  0.00000000000E+00 0.  1.
<mgrwt>
<rscale>  0 0.15700836E+04</rscale>
<asrwt>0</asrwt>
<pdfrwt beam="1">  1        1 0.23126599E+00 0.15700836E+04</pdfrwt>
<pdfrwt beam="2">  1       -2 0.63073525E-01 0.15700836E+04</pdfrwt>
<totfact> 0.12791426E+01</totfact>
</mgrwt>
</event>
<event>
12    4  0.4183215E-008  0.1477079E+04  0.7818608E-02  0.8899840E-01
         -2   -1    0    0    0  501 -0.00000000000E+00  0.00000000000E+00  0.67152729043E+03  0.67152729043E+03  0.00000000000E+00 0.  1.
          1   -1    0    0  501    0  0.00000000000E+00 -0.00000000000E+00 -0.81223909847E+03  0.81223909847E+03  0.00000000000E+00 0. -1.
        -24    2    1    2    0    0 -0.43487538144E+03  0.11939629924E+03 -0.11927109412E+02  0.46192571488E+03  0.99302751606E+02 0.  0.
        254    2    1    2    0    0  0.43487538144E+03 -0.11939629924E+03 -0.12878469863E+03  0.10218406740E+04  0.90785504946E+03 0.  0.
         23    2    4    4    0    0  0.15870748990E+03 -0.48827786504E+03  0.39932153088E+02  0.52321398541E+03  0.92493009688E+02 0.  0.
         23    2    4    4    0    0  0.27616789153E+03  0.36888156580E+03 -0.16871685172E+03  0.49862668861E+03  0.88435765612E+02 0.  0.
          3    1    3    3  502    0 -0.14148074883E+03  0.11794912559E+02 -0.41801151520E+02  0.14799749498E+03  0.00000000000E+00 0. -1.
         -4    1    3    3    0  502 -0.29339463261E+03  0.10760138668E+03  0.29874042108E+02  0.31392821990E+03  0.00000000000E+00 0.  1.
         11    1    5    5    0    0  0.96477703490E+02 -0.40671756292E+03  0.18520955295E+02  0.41841384901E+03  0.00000000000E+00 0.  1.
        -11    1    5    5    0    0  0.62229786415E+02 -0.81560302121E+02  0.21411197793E+02  0.10480013640E+03  0.00000000000E+00 0. -1.
          2    1    6    6  503    0  0.17987538129E+03  0.26613263932E+03 -0.15640086929E+03  0.35727155837E+03  0.00000000000E+00 0. -1.
         -2    1    6    6    0  503  0.96292510239E+02  0.10274892648E+03 -0.12315982424E+02  0.14135513024E+03  0.00000000000E+00 0.  1.
<mgrwt>
<rscale>  0 0.14770792E+04</rscale>
<asrwt>0</asrwt>
<pdfrwt beam="1">  1        1 0.12495986E+00 0.14770792E+04</pdfrwt>
<pdfrwt beam="2">  1       -2 0.10331189E+00 0.14770792E+04</pdfrwt>
<totfact> 0.13998593E+01</totfact>
</mgrwt>
</event>
<event>
12    4  0.4183215E-008  0.1284440E+04  0.7818608E-02  0.9041996E-01
         -2   -1    0    0    0  501 -0.00000000000E+00  0.00000000000E+00  0.40275160825E+03  0.40275160825E+03  0.00000000000E+00 0.  1.
          1   -1    0    0  501    0  0.00000000000E+00 -0.00000000000E+00 -0.10240723265E+04  0.10240723265E+04  0.00000000000E+00 0. -1.
        -24    2    1    2    0    0  0.82182152396E+02 -0.89154929574E+01  0.17806617977E+03  0.21335650863E+03  0.83546652884E+02 0.  0.
        254    2    1    2    0    0 -0.82182152396E+02  0.89154929574E+01 -0.79938689798E+03  0.12134674261E+04  0.90920316173E+03 0.  0.
         23    2    4    4    0    0  0.50429246034E+02 -0.42929703080E+03 -0.32993137202E+03  0.55110784926E+03  0.89588513610E+02 0.  0.
         23    2    4    4    0    0 -0.13261139843E+03  0.43821252375E+03 -0.46945552596E+03  0.66235957681E+03  0.93358016093E+02 0.  0.
          3    1    3    3  502    0  0.34562377592E+02 -0.83795278476E+01  0.76046620276E+01  0.36367641060E+02  0.00000000000E+00 0. -1.
         -4    1    3    3    0  502  0.47619774805E+02 -0.53596510980E+00  0.17046151775E+03  0.17698886757E+03  0.00000000000E+00 0.  1.
         11    1    5    5    0    0 -0.10408106889E+02 -0.42566510140E+02 -0.65040843141E+02  0.78425427961E+02  0.00000000000E+00 0. -1.
        -11    1    5    5    0    0  0.60837352923E+02 -0.38673052066E+03 -0.26489052888E+03  0.47268242130E+03  0.00000000000E+00 0.  1.
          4    1    6    6  503    0  0.13488831015E+02  0.19670710336E+02 -0.27075377090E+02  0.36082702946E+02  0.00000000000E+00 0. -1.
         -4    1    6    6    0  503 -0.14610022945E+03  0.41854181342E+03 -0.44238014887E+03  0.62627687386E+03  0.00000000000E+00 0.  1.
<mgrwt>
<rscale>  0 0.12844404E+04</rscale>
<asrwt>0</asrwt>
<pdfrwt beam="1">  1        1 0.15754959E+00 0.12844404E+04</pdfrwt>
<pdfrwt beam="2">  1       -2 0.61961787E-01 0.12844404E+04</pdfrwt>
<totfact> 0.30230973E+01</totfact>
</mgrwt>
</event>
<event>
12    4  0.4183215E-008  0.1315107E+04  0.7818608E-02  0.9017670E-01
         -2   -1    0    0    0  501 -0.00000000000E+00  0.00000000000E+00  0.21104723198E+03  0.21104723198E+03  0.00000000000E+00 0.  1.
          1   -1    0    0  501    0  0.00000000000E+00 -0.00000000000E+00 -0.20487206255E+04  0.20487206255E+04  0.00000000000E+00 0. -1.
        -24    2    1    2    0    0  0.11240097474E+02  0.32760101253E+03 -0.73230272234E+03  0.80636894819E+03  0.80714560384E+02 0.  0.
        254    2    1    2    0    0 -0.11240097474E+02 -0.32760101253E+03 -0.11053706712E+04  0.14533989093E+04  0.88491542287E+03 0.  0.
         23    2    4    4    0    0 -0.10854642178E+03 -0.29064144829E+03 -0.12269304523E+04  0.12688350349E+04  0.91264636761E+02 0.  0.
         23    2    4    4    0    0  0.97306324302E+02 -0.36959564239E+02  0.12155978109E+03  0.18456387439E+03  0.91937550618E+02 0.  0.
          1    1    3    3  502    0 -0.33823963023E+02  0.15326908657E+03 -0.36441274118E+03  0.39677716581E+03  0.00000000000E+00 0. -1.
         -2    1    3    3    0  502  0.45064060497E+02  0.17433192596E+03 -0.36788998116E+03  0.40959178238E+03  0.00000000000E+00 0.  1.
         11    1    5    5    0    0 -0.31308510262E+02 -0.10943247549E+02 -0.13356668383E+03  0.13762280520E+03  0.00000000000E+00 0.  1.
        -11    1    5    5    0    0 -0.77237911515E+02 -0.27969820074E+03 -0.10933637685E+04  0.11312122297E+04  0.00000000000E+00 0. -1.
          1    1    6    6  503    0  0.58524765488E+02 -0.66940432328E+02  0.88401278084E+02  0.12538323501E+03  0.00000000000E+00 0. -1.
         -1    1    6    6    0  503  0.38781558815E+02  0.29980868089E+02  0.33158503004E+02  0.59180639376E+02  0.00000000000E+00 0.  1.
<mgrwt>
<rscale>  0 0.13151073E+04</rscale>
<asrwt>0</asrwt>
<pdfrwt beam="1">  1        1 0.31518781E+00 0.13151073E+04</pdfrwt>
<pdfrwt beam="2">  1       -2 0.32468803E-01 0.13151073E+04</pdfrwt>
<totfact> 0.21056950E+01</totfact>
</mgrwt>
</event>
<event>
12    4  0.4183215E-008  0.1381832E+04  0.7818608E-02  0.8967076E-01
         -4   -1    0    0    0  501 -0.00000000000E+00  0.00000000000E+00  0.84451401823E+03  0.84451401823E+03  0.00000000000E+00 0.  1.
          1   -1    0    0  501    0  0.00000000000E+00 -0.00000000000E+00 -0.56525363807E+03  0.56525363807E+03  0.00000000000E+00 0. -1.
        -24    2    1    2    0    0  0.13767663743E+03 -0.72206698406E+02 -0.29867767378E+03  0.34598113810E+03  0.79535723551E+02 0.  0.
        254    2    1    2    0    0 -0.13767663743E+03  0.72206698406E+02  0.57793805393E+03  0.10637865182E+04  0.87946614393E+03 0.  0.
         23    2    4    4    0    0  0.17370329403E+03 -0.32237587813E+03  0.19780967479E+03  0.42621603165E+03  0.91828084174E+02 0.  0.
         23    2    4    4    0    0 -0.31137993146E+03  0.39458257653E+03  0.38012837914E+03  0.63757048654E+03  0.96673001757E+02 0.  0.
          1    1    3    3  502    0  0.65798452338E+02 -0.78535868062E+02 -0.17742854598E+03  0.20488584097E+03  0.00000000000E+00 0. -1.
         -2    1    3    3    0  502  0.71878185089E+02  0.63291696566E+01 -0.12124912779E+03  0.14109529713E+03  0.00000000000E+00 0.  1.
         11    1    5    5    0    0  0.63402903838E+02 -0.99953631551E+02  0.18127653506E+02  0.11974668470E+03  0.00000000000E+00 0. -1.
        -11    1    5    5    0    0  0.11030039019E+03 -0.22242224658E+03  0.17968202129E+03  0.30646934695E+03  0.00000000000E+00 0.  1.
          4    1    6    6  503    0 -0.86486103533E+02  0.10593534564E+03  0.16026116914E+03  0.21067934378E+03  0.00000000000E+00 0. -1.
         -4    1    6    6    0  503 -0.22489382792E+03  0.28864723089E+03  0.21986721000E+03  0.42689114276E+03  0.00000000000E+00 0.  1.
<mgrwt>
<rscale>  0 0.13818316E+04</rscale>
<asrwt>0</asrwt>
<pdfrwt beam="1">  1        1 0.86962098E-01 0.13818316E+04</pdfrwt>
<pdfrwt beam="2">  1       -4 0.12992523E+00 0.13818316E+04</pdfrwt>
<totfact> 0.75838891E+00</totfact>
</mgrwt>
</event>
<event>
12    4  0.4183215E-008  0.1364899E+04  0.7818608E-02  0.8979625E-01
         -2   -1    0    0    0  501 -0.00000000000E+00  0.00000000000E+00  0.11400195249E+03  0.11400195249E+03  0.00000000000E+00 0.  1.
          1   -1    0    0  501    0  0.00000000000E+00 -0.00000000000E+00 -0.40853477046E+04  0.40853477046E+04  0.00000000000E+00 0. -1.
        -24    2    1    2    0    0  0.19551471877E+02 -0.29406272889E+03 -0.41050016130E+03  0.51351543213E+03  0.91282901084E+02 0.  0.
        254    2    1    2    0    0 -0.19551471877E+02  0.29406272889E+03 -0.35608455908E+04  0.36858342249E+04  0.90492953524E+03 0.  0.
         23    2    4    4    0    0  0.19868319444E+02 -0.35564482914E+01 -0.32275280492E+04  0.32289167709E+04  0.92513818644E+02 0.  0.
         23    2    4    4    0    0 -0.39419791321E+02  0.29761917718E+03 -0.33331754161E+03  0.45691745405E+03  0.86844007851E+02 0.  0.
          3    1    3    3  502    0  0.14528545041E+02 -0.14437146084E+02 -0.69727059236E+02  0.72673052762E+02  0.00000000000E+00 0. -1.
         -4    1    3    3    0  502  0.50229268366E+01 -0.27962558281E+03 -0.34077310206E+03  0.44084237937E+03  0.00000000000E+00 0.  1.
         11    1    5    5    0    0  0.43359005770E+00 -0.19511502927E+02 -0.29896008547E+04  0.29896645559E+04  0.00000000000E+00 0. -1.
        -11    1    5    5    0    0  0.19434729386E+02  0.15955054636E+02 -0.23792719453E+03  0.23925221498E+03  0.00000000000E+00 0.  1.
          4    1    6    6  503    0 -0.61505404011E+02  0.26916955944E+03 -0.28709494583E+03  0.39831981419E+03  0.00000000000E+00 0. -1.
         -4    1    6    6    0  503  0.22085612690E+02  0.28449617743E+02 -0.46222595773E+02  0.58597639864E+02  0.00000000000E+00 0.  1.
<mgrwt>
<rscale>  0 0.13648994E+04</rscale>
<asrwt>0</asrwt>
<pdfrwt beam="1">  1        1 0.62851499E+00 0.13648994E+04</pdfrwt>
<pdfrwt beam="2">  1       -2 0.17538763E-01 0.13648994E+04</pdfrwt>
<totfact> 0.19091186E+00</totfact>
</mgrwt>
</event>
<event>
12    4  0.4183215E-008  0.1387774E+04  0.7818608E-02  0.8962716E-01
          1   -1    0    0  501    0  0.00000000000E+00  0.00000000000E+00  0.19323233690E+04  0.19323233690E+04  0.00000000000E+00 0. -1.
         -2   -1    0    0    0  501 -0.00000000000E+00 -0.00000000000E+00 -0.24917101848E+03  0.24917101848E+03  0.00000000000E+00 0.  1.
        -24    2    1    2    0    0 -0.12430541379E+03  0.21772250516E+03  0.74334007440E+01  0.26301595941E+03  0.79165739455E+02 0.  0.
        254    2    1    2    0    0  0.12430541379E+03 -0.21772250516E+03  0.16757189498E+04  0.19184784281E+04  0.89981695649E+03 0.  0.
         23    2    4    4    0    0  0.33748287288E+03 -0.16792026412E+03  0.22480784564E+03  0.44825204490E+03  0.91101172928E+02 0.  0.
         23    2    4    4    0    0 -0.21317745908E+03 -0.49802241047E+02  0.14509111041E+04  0.14702263832E+04  0.92182934458E+02 0.  0.
          3    1    3    3  502    0 -0.61641114277E+02  0.67264816980E+02  0.34991546854E+02  0.97716891702E+02  0.00000000000E+00 0. -1.
         -4    1    3    3    0  502 -0.62664299517E+02  0.15045768818E+03 -0.27558146110E+02  0.16529906770E+03  0.00000000000E+00 0.  1.
         11    1    5    5    0    0  0.60882144405E+02  0.45623805349E+01  0.25411277797E+02  0.66130052645E+02  0.00000000000E+00 0.  1.
        -11    1    5    5    0    0  0.27660072847E+03 -0.17248264465E+03  0.19939656784E+03  0.38212199225E+03  0.00000000000E+00 0. -1.
          4    1    6    6  503    0 -0.10896723498E+03 -0.71111057229E+02  0.72897437747E+03  0.74049597148E+03  0.00000000000E+00 0. -1.
         -4    1    6    6    0  503 -0.10421022410E+03  0.21308816182E+02  0.72193672664E+03  0.72973041168E+03  0.00000000000E+00 0.  1.
<mgrwt>
<rscale>  0 0.13877737E+04</rscale>
<asrwt>0</asrwt>
<pdfrwt beam="1">  1        1 0.29728051E+00 0.13877737E+04</pdfrwt>
<pdfrwt beam="2">  1       -2 0.38334004E-01 0.13877737E+04</pdfrwt>
<totfact> 0.18251953E+01</totfact>
</mgrwt>
</event>
<event>
12    4  0.4183215E-008  0.2103190E+04  0.7818608E-02  0.8559840E-01
         -2   -1    0    0    0  501 -0.00000000000E+00  0.00000000000E+00  0.11628533026E+04  0.11628533026E+04  0.00000000000E+00 0.  1.
          1   -1    0    0  501    0  0.00000000000E+00 -0.00000000000E+00 -0.95098117944E+03  0.95098117944E+03  0.00000000000E+00 0. -1.
        -24    2    1    2    0    0 -0.85269044235E+03  0.25242744081E+02  0.60546530921E+02  0.85895660658E+03  0.80139771472E+02 0.  0.
        254    2    1    2    0    0  0.85269044235E+03 -0.25242744081E+02  0.15132559221E+03  0.12548778754E+04  0.90780001144E+03 0.  0.
         23    2    4    4    0    0  0.94151276534E+03 -0.86395867937E+02 -0.11030529536E+03  0.95633702988E+03  0.92210212271E+02 0.  0.
         23    2    4    4    0    0 -0.88822322985E+02  0.61153123857E+02  0.26163088757E+03  0.29854084555E+03  0.95114696618E+02 0.  0.
          1    1    3    3  502    0 -0.28602684074E+03  0.25168227924E+02 -0.13649256666E+02  0.28745624976E+03  0.00000000000E+00 0. -1.
         -2    1    3    3    0  502 -0.56666360162E+03  0.74516156988E-01  0.74195787586E+02  0.57150035682E+03  0.00000000000E+00 0.  1.
         11    1    5    5    0    0  0.86183553827E+03 -0.94441677172E+02 -0.79868755916E+02  0.87066568991E+03  0.00000000000E+00 0.  1.
        -11    1    5    5    0    0  0.79677227065E+02  0.80458092342E+01 -0.30436539443E+02  0.85671339970E+02  0.00000000000E+00 0. -1.
          3    1    6    6  503    0 -0.94061290044E+02  0.78238349262E+02  0.20077758471E+03  0.23511785151E+03  0.00000000000E+00 0.  1.
         -3    1    6    6    0  503  0.52389670599E+01 -0.17085225405E+02  0.60853302863E+02  0.63422994034E+02  0.00000000000E+00 0. -1.
<mgrwt>
<rscale>  0 0.21031896E+04</rscale>
<asrwt>0</asrwt>
<pdfrwt beam="1">  1        1 0.14630480E+00 0.21031896E+04</pdfrwt>
<pdfrwt beam="2">  1       -2 0.17890051E+00 0.21031896E+04</pdfrwt>
<totfact> 0.24601923E+00</totfact>
</mgrwt>
</event>
<event>
12    4  0.4183215E-008  0.2149060E+04  0.7818608E-02  0.8539935E-01
          1   -1    0    0  501    0  0.00000000000E+00  0.00000000000E+00  0.56264511395E+03  0.56264511395E+03  0.00000000000E+00 0. -1.
         -2   -1    0    0    0  501 -0.00000000000E+00 -0.00000000000E+00 -0.20521183535E+04  0.20521183535E+04  0.00000000000E+00 0.  1.
        -24    2    1    2    0    0 -0.73809696386E+03 -0.41957758733E+03 -0.31453228941E+03  0.90893223818E+03  0.79967322521E+02 0.  0.
        254    2    1    2    0    0  0.73809696386E+03  0.41957758733E+03 -0.11749409501E+04  0.17058312292E+04  0.89918933856E+03 0.  0.
         23    2    4    4    0    0  0.83282638115E+03  0.26836063398E+03 -0.12145093493E+04  0.14998709641E+04  0.94671740851E+02 0.  0.
         23    2    4    4    0    0 -0.94729417289E+02  0.15121695335E+03  0.39568399217E+02  0.20596026509E+03  0.94940734669E+02 0.  0.
          1    1    3    3  502    0 -0.59501293225E+03 -0.35249918973E+03 -0.22480961001E+03  0.72721071847E+03  0.00000000000E+00 0. -1.
         -2    1    3    3    0  502 -0.14308403161E+03 -0.67078397598E+02 -0.89722679404E+02  0.18172151971E+03  0.00000000000E+00 0.  1.
         11    1    5    5    0    0  0.71078913092E+03  0.19413647753E+03 -0.10344097861E+04  0.12700054197E+04  0.00000000000E+00 0. -1.
        -11    1    5    5    0    0  0.12203725023E+03  0.74224156453E+02 -0.18009956318E+03  0.22986554440E+03  0.00000000000E+00 0.  1.
          2    1    6    6  503    0  0.44817470012E+01  0.50362580249E+02 -0.17366524618E+02  0.53460936419E+02  0.00000000000E+00 0. -1.
         -2    1    6    6    0  503 -0.99211164290E+02  0.10085437310E+03  0.56934923835E+02  0.15249932867E+03  0.00000000000E+00 0.  1.
<mgrwt>
<rscale>  0 0.21490597E+04</rscale>
<asrwt>0</asrwt>
<pdfrwt beam="1">  1        1 0.86560789E-01 0.21490597E+04</pdfrwt>
<pdfrwt beam="2">  1       -2 0.31571051E+00 0.21490597E+04</pdfrwt>
<totfact> 0.76739578E-01</totfact>
</mgrwt>
</event>
<event>
12    4  0.4183215E-008  0.2340871E+04  0.7818608E-02  0.8461978E-01
          1   -1    0    0  501    0  0.00000000000E+00  0.00000000000E+00  0.19785785313E+04  0.19785785313E+04  0.00000000000E+00 0. -1.
         -2   -1    0    0    0  501 -0.00000000000E+00 -0.00000000000E+00 -0.69237555675E+03  0.69237555675E+03  0.00000000000E+00 0.  1.
        -24    2    1    2    0    0 -0.31601432750E+03  0.85923723739E+01  0.16113984768E+04  0.16440817668E+04  0.80379852533E+02 0.  0.
        254    2    1    2    0    0  0.31601432750E+03 -0.85923723739E+01 -0.32519550228E+03  0.10268723213E+04  0.92129027207E+03 0.  0.
         23    2    4    4    0    0  0.43376675940E+03  0.27021005461E+03  0.66464064150E+02  0.52363272845E+03  0.92772233496E+02 0.  0.
         23    2    4    4    0    0 -0.11775243190E+03 -0.27880242699E+03 -0.39165956643E+03  0.50323959281E+03  0.90864972779E+02 0.  0.
          3    1    3    3  502    0 -0.29430418721E+03  0.11647429067E+02  0.13495311697E+04  0.13812983006E+04  0.00000000000E+00 0. -1.
         -4    1    3    3    0  502 -0.21710140289E+02 -0.30550566929E+01  0.26186730713E+03  0.26278346620E+03  0.00000000000E+00 0.  1.
         11    1    5    5    0    0  0.14001459447E+03  0.58657448984E+02  0.54963383264E+02  0.16144892841E+03  0.00000000000E+00 0. -1.
        -11    1    5    5    0    0  0.29375216493E+03  0.21155260563E+03  0.11500680886E+02  0.36218380004E+03  0.00000000000E+00 0.  1.
          1    1    6    6  503    0 -0.44989676255E+02 -0.24445900931E+02 -0.70837341627E+02  0.87404816861E+02  0.00000000000E+00 0. -1.
         -1    1    6    6    0  503 -0.72762755650E+02 -0.25435652606E+03 -0.32082222480E+03  0.41583477594E+03  0.00000000000E+00 0.  1.
<mgrwt>
<rscale>  0 0.23408711E+04</rscale>
<asrwt>0</asrwt>
<pdfrwt beam="1">  1        1 0.30439669E+00 0.23408711E+04</pdfrwt>
<pdfrwt beam="2">  1       -2 0.10651932E+00 0.23408711E+04</pdfrwt>
<totfact> 0.17314828E+00</totfact>
</mgrwt>
</event>
<event>
12    4  0.4183215E-008  0.1564252E+04  0.7818608E-02  0.8842815E-01
         -2   -1    0    0    0  501 -0.00000000000E+00  0.00000000000E+00  0.77309634668E+03  0.77309634668E+03  0.00000000000E+00 0.  1.
          1   -1    0    0  501    0  0.00000000000E+00 -0.00000000000E+00 -0.79126114619E+03  0.79126114619E+03  0.00000000000E+00 0. -1.
        -24    2    1    2    0    0 -0.44905389310E+03  0.19597699556E+03  0.78557878396E+02  0.50333708310E+03  0.84383039010E+02 0.  0.
        254    2    1    2    0    0  0.44905389310E+03 -0.19597699556E+03 -0.96722677909E+02  0.10610204098E+04  0.93613709030E+03 0.  0.
         23    2    4    4    0    0  0.70144772029E+03 -0.16003834113E+03  0.91846050529E+02  0.73118570274E+03  0.92496810520E+02 0.  0.
         23    2    4    4    0    0 -0.25239382719E+03 -0.35938654425E+02 -0.18856872844E+03  0.32983470703E+03  0.90766390982E+02 0.  0.
          1    1    3    3  502    0 -0.25935928092E+02  0.36966323413E+02  0.74767397162E+01  0.45772077399E+02  0.00000000000E+00 0. -1.
         -2    1    3    3    0  502 -0.42311796501E+03  0.15901067214E+03  0.71081138680E+02  0.45756500571E+03  0.00000000000E+00 0.  1.
         11    1    5    5    0    0  0.39895780486E+03 -0.63325912272E+02  0.13928305298E+02  0.40419240334E+03  0.00000000000E+00 0. -1.
        -11    1    5    5    0    0  0.30248991543E+03 -0.96712428859E+02  0.77917745231E+02  0.32699329940E+03  0.00000000000E+00 0.  1.
          4    1    6    6  503    0 -0.24579710752E+03 -0.43369179299E+02 -0.15266429076E+03  0.29258074006E+03  0.00000000000E+00 0. -1.
         -4    1    6    6    0  503 -0.65967196664E+01  0.74305248736E+01 -0.35904437676E+02  0.37253966971E+02  0.00000000000E+00 0.  1.
<mgrwt>
<rscale>  0 0.15642520E+04</rscale>
<asrwt>0</asrwt>
<pdfrwt beam="1">  1        1 0.12173248E+00 0.15642520E+04</pdfrwt>
<pdfrwt beam="2">  1       -2 0.11893790E+00 0.15642520E+04</pdfrwt>
<totfact> 0.10296190E+01</totfact>
</mgrwt>
</event>
<event>
12    4  0.4183215E-008  0.1446663E+04  0.7818608E-02  0.8920717E-01
         -2   -1    0    0    0  501 -0.00000000000E+00  0.00000000000E+00  0.10397042749E+04  0.10397042749E+04  0.00000000000E+00 0.  1.
          1   -1    0    0  501    0  0.00000000000E+00 -0.00000000000E+00 -0.50322798966E+03  0.50322798966E+03  0.00000000000E+00 0. -1.
        -24    2    1    2    0    0  0.16329049393E+03 -0.40348142416E+03  0.33772893671E+02  0.44332569832E+03  0.77045580006E+02 0.  0.
        254    2    1    2    0    0 -0.16329049393E+03  0.40348142416E+03  0.50270339154E+03  0.10996065662E+04  0.87576415520E+03 0.  0.
         23    2    4    4    0    0  0.11921535839E+03 -0.29060465607E+02 -0.18219220920E+03  0.23668205743E+03  0.88133891752E+02 0.  0.
         23    2    4    4    0    0 -0.28250585231E+03  0.43254188977E+03  0.68489560075E+03  0.86292450878E+03  0.93030537643E+02 0.  0.
          3    1    3    3  502    0  0.11836259156E+03 -0.33849855929E+03  0.31876217838E+01  0.35861000914E+03  0.00000000000E+00 0. -1.
         -2    1    3    3    0  502  0.44927902362E+02 -0.64982864869E+02  0.30585271887E+02  0.84715689182E+02  0.00000000000E+00 0.  1.
         11    1    5    5    0    0  0.82480582391E+02  0.19886468035E+02 -0.74955123006E+02  0.11321125627E+03  0.00000000000E+00 0.  1.
        -11    1    5    5    0    0  0.36734775998E+02 -0.48946933641E+02 -0.10723708620E+03  0.12347080115E+03  0.00000000000E+00 0. -1.
          1    1    6    6  503    0 -0.37594144481E+02  0.29208666073E+02  0.10510427078E+03  0.11538359333E+03  0.00000000000E+00 0.  1.
         -1    1    6    6    0  503 -0.24491170783E+03  0.40333322369E+03  0.57979132997E+03  0.74754091545E+03  0.00000000000E+00 0. -1.
<mgrwt>
<rscale>  0 0.14466628E+04</rscale>
<asrwt>0</asrwt>
<pdfrwt beam="1">  1        1 0.77419691E-01 0.14466628E+04</pdfrwt>
<pdfrwt beam="2">  1       -2 0.15995450E+00 0.14466628E+04</pdfrwt>
<totfact> 0.94000444E+00</totfact>
</mgrwt>
</event>
<event>
12    4  0.4183215E-008  0.1028635E+04  0.7818608E-02  0.9277685E-01
         -2   -1    0    0    0  501 -0.00000000000E+00  0.00000000000E+00  0.36918932158E+03  0.36918932158E+03  0.00000000000E+00 0.  1.
          1   -1    0    0  501    0  0.00000000000E+00 -0.00000000000E+00 -0.71649502728E+03  0.71649502728E+03  0.00000000000E+00 0. -1.
        -24    2    1    2    0    0 -0.58910590456E+02  0.33268983774E+02 -0.11568818558E+03  0.15587331192E+03  0.79595540938E+02 0.  0.
        254    2    1    2    0    0  0.58910590456E+02 -0.33268983774E+02 -0.23161752012E+03  0.92981103694E+03  0.89795579281E+03 0.  0.
         23    2    4    4    0    0 -0.31953881623E+03 -0.72650665192E+02 -0.38139393764E+03  0.51101514306E+03  0.91060235777E+02 0.  0.
         23    2    4    4    0    0  0.37844940668E+03  0.39381681419E+02  0.14977641752E+03  0.41879589388E+03  0.90455266480E+02 0.  0.
          1    1    3    3  502    0 -0.28458983118E+02  0.54166636393E+02 -0.44444529322E+02  0.75625752260E+02  0.00000000000E+00 0. -1.
         -2    1    3    3    0  502 -0.30451607338E+02 -0.20897652619E+02 -0.71243656261E+02  0.80247559663E+02  0.00000000000E+00 0.  1.
         11    1    5    5    0    0  0.25787949415E+01 -0.80533248370E+01 -0.24564541156E+02  0.25979278406E+02  0.00000000000E+00 0. -1.
        -11    1    5    5    0    0 -0.32211761117E+03 -0.64597340355E+02 -0.35682939649E+03  0.48503586465E+03  0.00000000000E+00 0.  1.
          4    1    6    6  503    0  0.62119316476E+02  0.34907000075E+02  0.66524188071E+01  0.71565094911E+02  0.00000000000E+00 0. -1.
         -4    1    6    6    0  503  0.31633009021E+03  0.44746813440E+01  0.14312399872E+03  0.34723079897E+03  0.00000000000E+00 0.  1.
<mgrwt>
<rscale>  0 0.10286347E+04</rscale>
<asrwt>0</asrwt>
<pdfrwt beam="1">  1        1 0.11023000E+00 0.10286347E+04</pdfrwt>
<pdfrwt beam="2">  1       -2 0.56798358E-01 0.10286347E+04</pdfrwt>
<totfact> 0.67019352E+01</totfact>
</mgrwt>
</event>
<event>
12    4  0.4183215E-008  0.1557595E+04  0.7818608E-02  0.8847031E-01
         -2   -1    0    0    0  501 -0.00000000000E+00  0.00000000000E+00  0.77576566768E+03  0.77576566768E+03  0.00000000000E+00 0.  1.
          1   -1    0    0  501    0  0.00000000000E+00 -0.00000000000E+00 -0.78184164076E+03  0.78184164076E+03  0.00000000000E+00 0. -1.
        -24    2    1    2    0    0  0.71017835972E+02  0.39991804007E+03 -0.31837689749E+03  0.52167694962E+03  0.76190675959E+02 0.  0.
        254    2    1    2    0    0 -0.71017835972E+02 -0.39991804007E+03  0.31230092441E+03  0.10359303588E+04  0.90035652335E+03 0.  0.
         23    2    4    4    0    0 -0.29405326672E+03 -0.44478388122E+03 -0.10607117224E+03  0.55113065456E+03  0.90520053856E+02 0.  0.
         23    2    4    4    0    0  0.22303543075E+03  0.44865841148E+02  0.41837209665E+03  0.48479970427E+03  0.90762299053E+02 0.  0.
          1    1    3    3  502    0  0.75850203274E+02  0.39712631214E+03 -0.30278144015E+03  0.50511301867E+03  0.00000000000E+00 0. -1.
         -2    1    3    3    0  502 -0.48323673024E+01  0.27917279308E+01 -0.15595457348E+02  0.16563930949E+02  0.00000000000E+00 0.  1.
         11    1    5    5    0    0 -0.13183900904E+03 -0.22050718990E+03 -0.65706653693E+01  0.25699828550E+03  0.00000000000E+00 0.  1.
        -11    1    5    5    0    0 -0.16221425768E+03 -0.22427669132E+03 -0.99500506874E+02  0.29413236906E+03  0.00000000000E+00 0. -1.
          1    1    6    6  503    0  0.11320794699E+03 -0.10213833640E+02  0.26451831237E+03  0.28790675442E+03  0.00000000000E+00 0. -1.
         -1    1    6    6    0  503  0.10982748375E+03  0.55079674788E+02  0.15385378428E+03  0.19689294985E+03  0.00000000000E+00 0.  1.
<mgrwt>
<rscale>  0 0.15575955E+04</rscale>
<asrwt>0</asrwt>
<pdfrwt beam="1">  1        1 0.12028333E+00 0.15575955E+04</pdfrwt>
<pdfrwt beam="2">  1       -2 0.11934856E+00 0.15575955E+04</pdfrwt>
<totfact> 0.10410666E+01</totfact>
</mgrwt>
</event>
<event>
12    4  0.4183215E-008  0.1360918E+04  0.7818608E-02  0.8982604E-01
          1   -1    0    0  501    0  0.00000000000E+00  0.00000000000E+00  0.12281998267E+04  0.12281998267E+04  0.00000000000E+00 0. -1.
         -2   -1    0    0    0  501 -0.00000000000E+00 -0.00000000000E+00 -0.37699425340E+03  0.37699425340E+03  0.00000000000E+00 0.  1.
        -24    2    1    2    0    0 -0.97051192820E+02 -0.13645335193E+02 -0.19188051132E+03  0.22901887972E+03  0.77629810269E+02 0.  0.
        254    2    1    2    0    0  0.97051192820E+02  0.13645335193E+02  0.10430860846E+04  0.13761752004E+04  0.89231411119E+03 0.  0.
         23    2    4    4    0    0  0.49435991884E+02  0.32291750076E+03  0.65867559366E+02  0.34594783202E+03  0.92853311794E+02 0.  0.
         23    2    4    4    0    0  0.47615200936E+02 -0.30927216557E+03  0.97721852527E+03  0.10302273684E+04  0.92173231883E+02 0.  0.
          3    1    3    3  502    0 -0.37539514063E+02  0.32388584201E+02 -0.69831204762E+02  0.85642469962E+02  0.00000000000E+00 0. -1.
         -4    1    3    3    0  502 -0.59511678757E+02 -0.46033919394E+02 -0.12204930656E+03  0.14337640976E+03  0.00000000000E+00 0.  1.
         11    1    5    5    0    0  0.58899856885E+02  0.22027105863E+03  0.80562231675E+02  0.24182391442E+03  0.00000000000E+00 0.  1.
        -11    1    5    5    0    0 -0.94638650016E+01  0.10264644213E+03 -0.14694672309E+02  0.10412391760E+03  0.00000000000E+00 0. -1.
          1    1    6    6  503    0  0.65067039936E+02 -0.13490800217E+03  0.49452372652E+03  0.51670843309E+03  0.00000000000E+00 0. -1.
         -1    1    6    6    0  503 -0.17451838999E+02 -0.17436416340E+03  0.48269479875E+03  0.51351893529E+03  0.00000000000E+00 0.  1.
<mgrwt>
<rscale>  0 0.13609177E+04</rscale>
<asrwt>0</asrwt>
<pdfrwt beam="1">  1        1 0.18895382E+00 0.13609177E+04</pdfrwt>
<pdfrwt beam="2">  1       -2 0.57999116E-01 0.13609177E+04</pdfrwt>
<totfact> 0.24320115E+01</totfact>
</mgrwt>
</event>
<event>
12    4  0.4183215E-008  0.1911466E+04  0.7818608E-02  0.8649170E-01
          1   -1    0    0  501    0  0.00000000000E+00  0.00000000000E+00  0.40472806800E+04  0.40472806800E+04  0.00000000000E+00 0. -1.
         -4   -1    0    0    0  501 -0.00000000000E+00 -0.00000000000E+00 -0.22568862657E+03  0.22568862657E+03  0.00000000000E+00 0.  1.
        -24    2    1    2    0    0 -0.30938981918E+03 -0.62247828289E+03  0.20702895427E+04  0.21853426259E+04  0.80139435690E+02 0.  0.
        254    2    1    2    0    0  0.30938981918E+03  0.62247828289E+03  0.17513025107E+04  0.20876266806E+04  0.89884559338E+03 0.  0.
         23    2    4    4    0    0  0.44178043192E+03  0.77080674600E+03  0.15607012830E+04  0.17981609196E+04  0.91001143557E+02 0.  0.
         23    2    4    4    0    0 -0.13239061275E+03 -0.14832846311E+03  0.19060122765E+03  0.28946576102E+03  0.89067342555E+02 0.  0.
          1    1    3    3  502    0 -0.21877008223E+03 -0.49473156148E+03  0.15301790285E+04  0.16229810615E+04  0.00000000000E+00 0. -1.
         -2    1    3    3    0  502 -0.90619736952E+02 -0.12774672140E+03  0.54011051423E+03  0.56236156442E+03  0.00000000000E+00 0.  1.
         11    1    5    5    0    0  0.27297168906E+03  0.50647863018E+03  0.10901875685E+04  0.12326974813E+04  0.00000000000E+00 0. -1.
        -11    1    5    5    0    0  0.16880874286E+03  0.26432811582E+03  0.47051371450E+03  0.56546343827E+03  0.00000000000E+00 0.  1.
          1    1    6    6  503    0 -0.12040981185E+03 -0.15281784322E+03  0.14649627002E+03  0.24354254890E+03  0.00000000000E+00 0. -1.
         -1    1    6    6    0  503 -0.11980800895E+02  0.44893801068E+01  0.44104957631E+02  0.45923212121E+02  0.00000000000E+00 0.  1.
<mgrwt>
<rscale>  0 0.19114656E+04</rscale>
<asrwt>0</asrwt>
<pdfrwt beam="1">  1        1 0.62265851E+00 0.19114656E+04</pdfrwt>
<pdfrwt beam="2">  1       -4 0.34721330E-01 0.19114656E+04</pdfrwt>
<totfact> 0.33379029E-01</totfact>
</mgrwt>
</event>
<event>
12    4  0.4183215E-008  0.1688177E+04  0.7818608E-02  0.8768136E-01
         -2   -1    0    0    0  501 -0.00000000000E+00  0.00000000000E+00  0.54634285472E+03  0.54634285472E+03  0.00000000000E+00 0.  1.
          1   -1    0    0  501    0  0.00000000000E+00 -0.00000000000E+00 -0.13040990341E+04  0.13040990341E+04  0.00000000000E+00 0. -1.
        -24    2    1    2    0    0  0.96931945694E+02 -0.31860035480E+03 -0.82219750669E+03  0.89063119602E+03  0.79455642682E+02 0.  0.
        254    2    1    2    0    0 -0.96931945694E+02  0.31860035480E+03  0.64441327273E+02  0.95981069283E+03  0.89787632402E+03 0.  0.
         23    2    4    4    0    0  0.37826899509E+03  0.26544429937E+03  0.12267924881E+02  0.47116646719E+03  0.91100104847E+02 0.  0.
         23    2    4    4    0    0 -0.47520094079E+03  0.53156055428E+02  0.52173402392E+02  0.48864422564E+03  0.86079120479E+02 0.  0.
          1    1    3    3  502    0  0.70559194313E+02 -0.22316674184E+03 -0.66358370880E+03  0.70365142873E+03  0.00000000000E+00 0. -1.
         -2    1    3    3    0  502  0.26372751381E+02 -0.95433612960E+02 -0.15861379788E+03  0.18697976729E+03  0.00000000000E+00 0.  1.
         11    1    5    5    0    0  0.38326633228E+03  0.25791685237E+03  0.11774848271E+02  0.46211776773E+03  0.00000000000E+00 0. -1.
        -11    1    5    5    0    0 -0.49973371906E+01  0.75274469991E+01  0.49307661039E+00  0.90486994571E+01  0.00000000000E+00 0.  1.
          1    1    6    6  503    0 -0.40499928087E+03  0.48384336920E+02  0.12945755412E+02  0.40808461641E+03  0.00000000000E+00 0. -1.
         -1    1    6    6    0  503 -0.70201659917E+02  0.47717185080E+01  0.39227646979E+02  0.80559609235E+02  0.00000000000E+00 0.  1.
<mgrwt>
<rscale>  0 0.16881768E+04</rscale>
<asrwt>0</asrwt>
<pdfrwt beam="1">  1        1 0.20063062E+00 0.16881768E+04</pdfrwt>
<pdfrwt beam="2">  1       -2 0.84052748E-01 0.16881768E+04</pdfrwt>
<totfact> 0.92803217E+00</totfact>
</mgrwt>
</event>
<event>
12    4  0.4183215E-008  0.1270391E+04  0.7818608E-02  0.9053380E-01
         -2   -1    0    0    0  501 -0.00000000000E+00  0.00000000000E+00  0.52994469093E+03  0.52994469093E+03  0.00000000000E+00 0.  1.
          1   -1    0    0  501    0  0.00000000000E+00 -0.00000000000E+00 -0.76135025396E+03  0.76135025396E+03  0.00000000000E+00 0. -1.
        -24    2    1    2    0    0  0.14999081524E+03  0.12744314168E+03 -0.30094910904E+03  0.36807006446E+03  0.78525200419E+02 0.  0.
        254    2    1    2    0    0 -0.14999081524E+03 -0.12744314168E+03  0.69543546011E+02  0.92322488044E+03  0.89931578217E+03 0.  0.
         23    2    4    4    0    0  0.33689379926E+03 -0.22455491336E+03  0.22051301609E+02  0.41624682549E+03  0.94089418825E+02 0.  0.
         23    2    4    4    0    0 -0.48688461450E+03  0.97111771684E+02  0.47492244402E+02  0.50697805495E+03  0.91015992450E+02 0.  0.
          1    1    3    3  502    0  0.15727453798E+03  0.12493879569E+03 -0.29886536246E+03  0.36009094385E+03  0.00000000000E+00 0. -1.
         -2    1    3    3    0  502 -0.72837227449E+01  0.25043459842E+01 -0.20837465848E+01  0.79791206071E+01  0.00000000000E+00 0.  1.
         11    1    5    5    0    0  0.10469865262E+03 -0.21033900321E+02  0.15344098539E+01  0.10680162562E+03  0.00000000000E+00 0.  1.
        -11    1    5    5    0    0  0.23219514665E+03 -0.20352101304E+03  0.20516891755E+02  0.30944519987E+03  0.00000000000E+00 0. -1.
          1    1    6    6  503    0 -0.15132636447E+03  0.73048714355E+02  0.23979729435E+02  0.16973747576E+03  0.00000000000E+00 0. -1.
         -1    1    6    6    0  503 -0.33555825003E+03  0.24063057329E+02  0.23512514967E+02  0.33724057919E+03  0.00000000000E+00 0.  1.
<mgrwt>
<rscale>  0 0.12703913E+04</rscale>
<asrwt>0</asrwt>
<pdfrwt beam="1">  1        1 0.11713081E+00 0.12703913E+04</pdfrwt>
<pdfrwt beam="2">  1       -2 0.81529953E-01 0.12703913E+04</pdfrwt>
<totfact> 0.27334595E+01</totfact>
</mgrwt>
</event>
<event>
12    4  0.4183215E-008  0.1412285E+04  0.7818608E-02  0.8944974E-01
         -2   -1    0    0    0  501 -0.00000000000E+00  0.00000000000E+00  0.69445243245E+03  0.69445243245E+03  0.00000000000E+00 0.  1.
          1   -1    0    0  501    0  0.00000000000E+00 -0.00000000000E+00 -0.71802955774E+03  0.71802955774E+03  0.00000000000E+00 0. -1.
        -24    2    1    2    0    0  0.30138411257E+03 -0.26888557924E+03 -0.12147209300E+03  0.42925348570E+03  0.79820095040E+02 0.  0.
        254    2    1    2    0    0 -0.30138411257E+03  0.26888557924E+03  0.97894967704E+02  0.98322850449E+03  0.89107969863E+03 0.  0.
         23    2    4    4    0    0 -0.48118111827E+03 -0.14045061722E+03  0.13042712979E+03  0.52591082486E+03  0.91155444529E+02 0.  0.
         23    2    4    4    0    0  0.17979700570E+03  0.40933619645E+03 -0.32532162090E+02  0.45731767963E+03  0.90542992809E+02 0.  0.
          3    1    3    3  502    0  0.59599355657E+02 -0.24456829752E+02 -0.40307964064E+02  0.75993102866E+02  0.00000000000E+00 0. -1.
         -4    1    3    3    0  502  0.24178475691E+03 -0.24442874949E+03 -0.81164128938E+02  0.35326038283E+03  0.00000000000E+00 0.  1.
         11    1    5    5    0    0 -0.32474231857E+02  0.69647084834E+01  0.26057055006E+02  0.42214369764E+02  0.00000000000E+00 0. -1.
        -11    1    5    5    0    0 -0.44870688641E+03 -0.14741532570E+03  0.10437007479E+03  0.48369645510E+03  0.00000000000E+00 0.  1.
          4    1    6    6  503    0  0.10945784653E+02  0.12487068632E+03 -0.99401293373E+01  0.12574301044E+03  0.00000000000E+00 0. -1.
         -4    1    6    6    0  503  0.16885122104E+03  0.28446551014E+03 -0.22592032753E+02  0.33157466919E+03  0.00000000000E+00 0.  1.
<mgrwt>
<rscale>  0 0.14122852E+04</rscale>
<asrwt>0</asrwt>
<pdfrwt beam="1">  1        1 0.11046609E+00 0.14122852E+04</pdfrwt>
<pdfrwt beam="2">  1       -2 0.10683884E+00 0.14122852E+04</pdfrwt>
<totfact> 0.15758606E+01</totfact>
</mgrwt>
</event>
<event>
12    4  0.4183215E-008  0.1185918E+04  0.7818608E-02  0.9125273E-01
          1   -1    0    0  501    0  0.00000000000E+00  0.00000000000E+00  0.29577573307E+04  0.29577573307E+04  0.00000000000E+00 0. -1.
         -4   -1    0    0    0  501 -0.00000000000E+00 -0.00000000000E+00 -0.11887393110E+03  0.11887393110E+03  0.00000000000E+00 0.  1.
        -24    2    1    2    0    0  0.13835088325E+03 -0.18656507338E+03  0.78058268803E+03  0.81805905430E+03  0.77225578459E+02 0.  0.
        254    2    1    2    0    0 -0.13835088325E+03  0.18656507338E+03  0.20583007116E+04  0.22585722075E+04  0.90033277389E+03 0.  0.
         23    2    4    4    0    0 -0.15271924391E+03 -0.32505871318E+03  0.55285440568E+03  0.66584958696E+03  0.93388136844E+02 0.  0.
         23    2    4    4    0    0  0.14368360653E+02  0.51162378656E+03  0.15054463059E+04  0.15927226205E+04  0.91822749320E+02 0.  0.
          3    1    3    3  502    0  0.11557699933E+03 -0.16878674477E+03  0.74304761777E+03  0.77069239665E+03  0.00000000000E+00 0. -1.
         -4    1    3    3    0  502  0.22773883927E+02 -0.17778328610E+02  0.37535070256E+02  0.47366657644E+02  0.00000000000E+00 0.  1.
         11    1    5    5    0    0 -0.71375952339E+02 -0.24200941458E+03  0.41316539888E+03  0.48411644276E+03  0.00000000000E+00 0.  1.
        -11    1    5    5    0    0 -0.81343291568E+02 -0.83049298606E+02  0.13968900680E+03  0.18173314420E+03  0.00000000000E+00 0. -1.
          1    1    6    6  503    0 -0.30344378814E+02  0.79141542259E+02  0.22198214590E+03  0.23761363205E+03  0.00000000000E+00 0. -1.
         -1    1    6    6    0  503  0.44712739466E+02  0.43248224430E+03  0.12834641600E+04  0.13551089885E+04  0.00000000000E+00 0.  1.
<mgrwt>
<rscale>  0 0.11859178E+04</rscale>
<asrwt>0</asrwt>
<pdfrwt beam="1">  1        1 0.45503954E+00 0.11859178E+04</pdfrwt>
<pdfrwt beam="2">  1       -4 0.18288299E-01 0.11859178E+04</pdfrwt>
<totfact> 0.87955559E+00</totfact>
</mgrwt>
</event>
<event>
12    4  0.4183215E-008  0.1891004E+04  0.7818608E-02  0.8659347E-01
          1   -1    0    0  501    0  0.00000000000E+00  0.00000000000E+00  0.11672454850E+04  0.11672454850E+04  0.00000000000E+00 0. -1.
         -2   -1    0    0    0  501 -0.00000000000E+00 -0.00000000000E+00 -0.76588384636E+03  0.76588384636E+03  0.00000000000E+00 0.  1.
        -24    2    1    2    0    0  0.64634520031E+03 -0.13100655314E+02  0.47502962917E+03  0.80612334260E+03  0.79043973678E+02 0.  0.
        254    2    1    2    0    0 -0.64634520031E+03  0.13100655314E+02 -0.73667990513E+02  0.11270059888E+04  0.92020746616E+03 0.  0.
         23    2    4    4    0    0  0.20650084324E+03 -0.55807960122E+02  0.89556531390E+02  0.25005653842E+03  0.93545568678E+02 0.  0.
         23    2    4    4    0    0 -0.85284604355E+03  0.68908615436E+02 -0.16322452190E+03  0.87694945036E+03  0.10150528387E+03 0.  0.
          1    1    3    3  502    0  0.58057306700E+02 -0.23693227012E+02  0.51813856875E+02  0.81343073656E+02  0.00000000000E+00 0. -1.
         -2    1    3    3    0  502  0.58828789361E+03  0.10592571698E+02  0.42321577229E+03  0.72478026895E+03  0.00000000000E+00 0.  1.
         11    1    5    5    0    0 -0.84333795001E+01 -0.44959676695E+00  0.12552576023E+02  0.15129150401E+02  0.00000000000E+00 0.  1.
        -11    1    5    5    0    0  0.21493422274E+03 -0.55358363355E+02  0.77003955367E+02  0.23492738802E+03  0.00000000000E+00 0. -1.
          4    1    6    6  503    0 -0.79824614387E+03  0.47069954262E+02 -0.13228322007E+03  0.81050067064E+03  0.00000000000E+00 0. -1.
         -4    1    6    6    0  503 -0.54599899681E+02  0.21838661175E+02 -0.30941301831E+02  0.66448779718E+02  0.00000000000E+00 0.  1.
<mgrwt>
<rscale>  0 0.18910045E+04</rscale>
<asrwt>0</asrwt>
<pdfrwt beam="1">  1        1 0.17957623E+00 0.18910045E+04</pdfrwt>
<pdfrwt beam="2">  1       -2 0.11782828E+00 0.18910045E+04</pdfrwt>
<totfact> 0.51536421E+00</totfact>
</mgrwt>
</event>
<event>
12    4  0.4183215E-008  0.1417655E+04  0.7818608E-02  0.8941137E-01
          1   -1    0    0  501    0  0.00000000000E+00  0.00000000000E+00  0.12376126595E+04  0.12376126595E+04  0.00000000000E+00 0. -1.
         -2   -1    0    0    0  501 -0.00000000000E+00 -0.00000000000E+00 -0.40597220567E+03  0.40597220567E+03  0.00000000000E+00 0.  1.
        -24    2    1    2    0    0  0.16978470045E+03  0.13653329686E+03  0.67947524163E+03  0.71802421617E+03  0.80024904680E+02 0.  0.
        254    2    1    2    0    0 -0.16978470045E+03 -0.13653329686E+03  0.15216521223E+03  0.92556064903E+03  0.88658901277E+03 0.  0.
         23    2    4    4    0    0  0.30935364087E+03  0.81958988301E+02  0.20130752430E+03  0.38897515218E+03  0.91433028973E+02 0.  0.
         23    2    4    4    0    0 -0.47913834132E+03 -0.21849228516E+03 -0.49142312067E+02  0.53658549685E+03  0.90535074968E+02 0.  0.
          1    1    3    3  502    0  0.14704603148E+03  0.14228005933E+03  0.55860977456E+03  0.59490421993E+03  0.00000000000E+00 0. -1.
         -2    1    3    3    0  502  0.22738668970E+02 -0.57467624726E+01  0.12086546707E+03  0.12311999624E+03  0.00000000000E+00 0.  1.
         11    1    5    5    0    0  0.19916877605E+03  0.75591199510E+02  0.17455142095E+03  0.27540956656E+03  0.00000000000E+00 0.  1.
        -11    1    5    5    0    0  0.11018486482E+03  0.63677887911E+01  0.26756103344E+02  0.11356558561E+03  0.00000000000E+00 0. -1.
          2    1    6    6  503    0 -0.16518726653E+02 -0.17573361435E+02 -0.20079220523E+02  0.31382582099E+02  0.00000000000E+00 0. -1.
         -2    1    6    6    0  503 -0.46261961467E+03 -0.20091892373E+03 -0.29063091544E+02  0.50520291475E+03  0.00000000000E+00 0.  1.
<mgrwt>
<rscale>  0 0.14176549E+04</rscale>
<asrwt>0</asrwt>
<pdfrwt beam="1">  1        1 0.19040195E+00 0.14176549E+04</pdfrwt>
<pdfrwt beam="2">  1       -2 0.62457263E-01 0.14176549E+04</pdfrwt>
<totfact> 0.20375020E+01</totfact>
</mgrwt>
</event>
<event>
12    4  0.4183215E-008  0.1522671E+04  0.7818608E-02  0.8869515E-01
         -2   -1    0    0    0  501 -0.00000000000E+00  0.00000000000E+00  0.48034461154E+03  0.48034461154E+03  0.00000000000E+00 0.  1.
          1   -1    0    0  501    0  0.00000000000E+00 -0.00000000000E+00 -0.12066995733E+04  0.12066995733E+04  0.00000000000E+00 0. -1.
        -24    2    1    2    0    0  0.42024487806E+03 -0.21224070639E+03 -0.93401127774E+02  0.48647237343E+03  0.79244712491E+02 0.  0.
        254    2    1    2    0    0 -0.42024487806E+03  0.21224070639E+03 -0.63295383402E+03  0.12005718114E+04  0.90503604539E+03 0.  0.
         23    2    4    4    0    0  0.27618697202E+03  0.83332781501E+02 -0.22222092107E+03  0.37668684872E+03  0.96370370192E+02 0.  0.
         23    2    4    4    0    0 -0.69643185008E+03  0.12890792489E+03 -0.41073291295E+03  0.82388496272E+03  0.91925682586E+02 0.  0.
          3    1    3    3  502    0  0.11439269082E+03 -0.63783679222E+02 -0.62415436467E+02  0.14508525823E+03  0.00000000000E+00 0. -1.
         -4    1    3    3    0  502  0.30585218724E+03 -0.14845702716E+03 -0.30985691307E+02  0.34138711520E+03  0.00000000000E+00 0.  1.
         11    1    5    5    0    0  0.11063492930E+03  0.13054122258E+02 -0.14004784971E+03  0.17895222239E+03  0.00000000000E+00 0. -1.
        -11    1    5    5    0    0  0.16555204272E+03  0.70278659243E+02 -0.82173071359E+02  0.19773462633E+03  0.00000000000E+00 0.  1.
          3    1    6    6  503    0 -0.17006415081E+03  0.57978299930E+02 -0.13974821130E+03  0.22762438625E+03  0.00000000000E+00 0. -1.
         -3    1    6    6    0  503 -0.52636769927E+03  0.70929624956E+02 -0.27098470165E+03  0.59626057647E+03  0.00000000000E+00 0.  1.
<mgrwt>
<rscale>  0 0.15226709E+04</rscale>
<asrwt>0</asrwt>
<pdfrwt beam="1">  1        1 0.18564609E+00 0.15226709E+04</pdfrwt>
<pdfrwt beam="2">  1       -2 0.73899171E-01 0.15226709E+04</pdfrwt>
<totfact> 0.14764143E+01</totfact>
</mgrwt>
</event>
<event>
12    4  0.4183215E-008  0.1325490E+04  0.7818608E-02  0.9009592E-01
          1   -1    0    0  501    0  0.00000000000E+00  0.00000000000E+00  0.11718689871E+04  0.11718689871E+04  0.00000000000E+00 0. -1.
         -2   -1    0    0    0  501 -0.00000000000E+00 -0.00000000000E+00 -0.37481225960E+03  0.37481225960E+03  0.00000000000E+00 0.  1.
        -24    2    1    2    0    0  0.26724268165E+03  0.25114196083E+03  0.25982472703E+03  0.45673751456E+03  0.81297804650E+02 0.  0.
        254    2    1    2    0    0 -0.26724268165E+03 -0.25114196083E+03  0.53723200049E+03  0.10899437322E+04  0.87456742539E+03 0.  0.
         23    2    4    4    0    0 -0.15442213722E+03 -0.35847309995E+03 -0.11074890248E+03  0.41759205398E+03  0.98836452279E+02 0.  0.
         23    2    4    4    0    0 -0.11282054443E+03  0.10733113911E+03  0.64798090297E+03  0.67235167818E+03  0.89045380919E+02 0.  0.
          3    1    3    3  502    0  0.21923150026E+03  0.15867375829E+03  0.20083034835E+03  0.33700540217E+03  0.00000000000E+00 0. -1.
         -4    1    3    3    0  502  0.48011181396E+02  0.92468202545E+02  0.58994378679E+02  0.11973211239E+03  0.00000000000E+00 0.  1.
         11    1    5    5    0    0 -0.22354641630E+02 -0.81630649020E+01  0.75512458966E+01  0.24967718069E+02  0.00000000000E+00 0. -1.
        -11    1    5    5    0    0 -0.13206749559E+03 -0.35031003505E+03 -0.11830014838E+03  0.39262433591E+03  0.00000000000E+00 0.  1.
          4    1    6    6  503    0 -0.23863855041E+02  0.56256341094E+02  0.12184948835E+03  0.13631418599E+03  0.00000000000E+00 0. -1.
         -4    1    6    6    0  503 -0.88956689391E+02  0.51074798020E+02  0.52613141462E+03  0.53603749219E+03  0.00000000000E+00 0.  1.
<mgrwt>
<rscale>  0 0.13254899E+04</rscale>
<asrwt>0</asrwt>
<pdfrwt beam="1">  1        1 0.18028754E+00 0.13254899E+04</pdfrwt>
<pdfrwt beam="2">  1       -2 0.57663425E-01 0.13254899E+04</pdfrwt>
<totfact> 0.27142256E+01</totfact>
</mgrwt>
</event>
<event>
12    4  0.4183215E-008  0.1653969E+04  0.7818608E-02  0.8788062E-01
         -2   -1    0    0    0  501 -0.00000000000E+00  0.00000000000E+00  0.65600737353E+03  0.65600737353E+03  0.00000000000E+00 0.  1.
          1   -1    0    0  501    0  0.00000000000E+00 -0.00000000000E+00 -0.10425243372E+04  0.10425243372E+04  0.00000000000E+00 0. -1.
        -24    2    1    2    0    0 -0.35773326482E+03  0.16301580101E+03 -0.56848102480E+03  0.69533682762E+03  0.75995974586E+02 0.  0.
        254    2    1    2    0    0  0.35773326482E+03 -0.16301580101E+03  0.18196406113E+03  0.10031948831E+04  0.90484353003E+03 0.  0.
         23    2    4    4    0    0  0.60522008435E+03 -0.30810434736E+03  0.13914733170E+03  0.69906976657E+03  0.90093946794E+02 0.  0.
         23    2    4    4    0    0 -0.24748681953E+03  0.14508854634E+03  0.42816729428E+02  0.30412511655E+03  0.91424296961E+02 0.  0.
          1    1    3    3  502    0 -0.35372434479E+03  0.16729061266E+03 -0.56761071600E+03  0.68941205827E+03  0.00000000000E+00 0. -1.
         -2    1    3    3    0  502 -0.40089200359E+01 -0.42748116443E+01 -0.87030880200E+00  0.59247693508E+01  0.00000000000E+00 0.  1.
         11    1    5    5    0    0  0.55478660343E+03 -0.25921907209E+03  0.14261700767E+03  0.62874662111E+03  0.00000000000E+00 0. -1.
        -11    1    5    5    0    0  0.50433480926E+02 -0.48885275270E+02 -0.34696759730E+01  0.70323145464E+02  0.00000000000E+00 0.  1.
          3    1    6    6  503    0 -0.25056508799E+03  0.13404513732E+03  0.52671409015E+02  0.28900733466E+03  0.00000000000E+00 0. -1.
         -3    1    6    6    0  503  0.30782684573E+01  0.11043409021E+02 -0.98546795877E+01  0.15117781890E+02  0.00000000000E+00 0.  1.
<mgrwt>
<rscale>  0 0.16539693E+04</rscale>
<asrwt>0</asrwt>
<pdfrwt beam="1">  1        1 0.16038836E+00 0.16539693E+04</pdfrwt>
<pdfrwt beam="2">  1       -2 0.10092421E+00 0.16539693E+04</pdfrwt>
<totfact> 0.94917946E+00</totfact>
</mgrwt>
</event>
<event>
12    4  0.4183215E-008  0.1342043E+04  0.7818608E-02  0.8996873E-01
         -2   -1    0    0    0  501 -0.00000000000E+00  0.00000000000E+00  0.50050078381E+03  0.50050078381E+03  0.00000000000E+00 0.  1.
          1   -1    0    0  501    0  0.00000000000E+00 -0.00000000000E+00 -0.89963904719E+03  0.89963904719E+03  0.00000000000E+00 0. -1.
        -24    2    1    2    0    0  0.12894274418E+03  0.12061895437E+03  0.21534228708E+03  0.28963604251E+03  0.79633994527E+02 0.  0.
        254    2    1    2    0    0 -0.12894274418E+03 -0.12061895437E+03 -0.61448055046E+03  0.11105037885E+04  0.90799623014E+03 0.  0.
         23    2    4    4    0    0  0.27805440858E+03 -0.22020382810E+03 -0.57305793682E+03  0.68027840800E+03  0.92624691080E+02 0.  0.
         23    2    4    4    0    0 -0.40699715276E+03  0.99584873735E+02 -0.41422613640E+02  0.43022538050E+03  0.88398052462E+02 0.  0.
          1    1    3    3  502    0  0.47515965770E+02  0.62927589017E+01  0.27877326475E+02  0.55448274536E+02  0.00000000000E+00 0. -1.
         -4    1    3    3    0  502  0.81426778407E+02  0.11432619547E+03  0.18746496061E+03  0.23418776797E+03  0.00000000000E+00 0.  1.
         11    1    5    5    0    0  0.58876466720E+02 -0.94419053638E+01 -0.12869724894E+03  0.14183994428E+03  0.00000000000E+00 0. -1.
        -11    1    5    5    0    0  0.21917794186E+03 -0.21076192274E+03 -0.44436068789E+03  0.53843846372E+03  0.00000000000E+00 0.  1.
          4    1    6    6  503    0 -0.93497262816E+02  0.45300321922E+02 -0.41994607383E+02  0.11205982496E+03  0.00000000000E+00 0. -1.
         -4    1    6    6    0  503 -0.31349988994E+03  0.54284551813E+02  0.57199374293E+00  0.31816555554E+03  0.00000000000E+00 0.  1.
<mgrwt>
<rscale>  0 0.13420433E+04</rscale>
<asrwt>0</asrwt>
<pdfrwt beam="1">  1        1 0.13840601E+00 0.13420433E+04</pdfrwt>
<pdfrwt beam="2">  1       -2 0.77000120E-01 0.13420433E+04</pdfrwt>
<totfact> 0.23541180E+01</totfact>
</mgrwt>
</event>
<event>
12    4  0.4183215E-008  0.2002558E+04  0.7818608E-02  0.8605426E-01
          1   -1    0    0  501    0  0.00000000000E+00  0.00000000000E+00  0.58710315616E+03  0.58710315616E+03  0.00000000000E+00 0. -1.
         -2   -1    0    0    0  501 -0.00000000000E+00 -0.00000000000E+00 -0.17076384933E+04  0.17076384933E+04  0.00000000000E+00 0.  1.
        -24    2    1    2    0    0 -0.66079445400E+03  0.11136319697E+03  0.44103267605E+02  0.67633464022E+03  0.80202090241E+02 0.  0.
        254    2    1    2    0    0  0.66079445400E+03 -0.11136319697E+03 -0.11646386048E+04  0.16184070093E+04  0.90211257381E+03 0.  0.
         23    2    4    4    0    0  0.64934204235E+03  0.14216614882E+03 -0.11698282411E+04  0.13484849403E+04  0.89762012332E+02 0.  0.
         23    2    4    4    0    0  0.11452411649E+02 -0.25352934578E+03  0.51896362884E+01  0.26992206894E+03  0.91775291173E+02 0.  0.
          3    1    3    3  502    0 -0.14243849892E+03  0.45449153670E+02  0.35794015762E+02  0.15373861944E+03  0.00000000000E+00 0. -1.
         -4    1    3    3    0  502 -0.51835595508E+03  0.65914043297E+02  0.83092518429E+01  0.52259602078E+03  0.00000000000E+00 0.  1.
         11    1    5    5    0    0  0.54961920246E+03  0.99637378766E+02 -0.92237443685E+03  0.10783243838E+04  0.00000000000E+00 0. -1.
        -11    1    5    5    0    0  0.99722839895E+02  0.42528770049E+02 -0.24745380421E+03  0.27016055652E+03  0.00000000000E+00 0.  1.
          4    1    6    6  503    0  0.36959464377E+02 -0.11304986570E+03 -0.30430937467E+02  0.12276936139E+03  0.00000000000E+00 0.  1.
         -4    1    6    6    0  503 -0.25507052729E+02 -0.14047948008E+03  0.35620573756E+02  0.14715270755E+03  0.00000000000E+00 0. -1.
<mgrwt>
<rscale>  0 0.20025583E+04</rscale>
<asrwt>0</asrwt>
<pdfrwt beam="1">  1        1 0.90323564E-01 0.20025583E+04</pdfrwt>
<pdfrwt beam="2">  1       -2 0.26271361E+00 0.20025583E+04</pdfrwt>
<totfact> 0.15413284E+00</totfact>
</mgrwt>
</event>
<event>
12    4  0.4183215E-008  0.2502756E+04  0.7818608E-02  0.8402004E-01
         -2   -1    0    0    0  501 -0.00000000000E+00  0.00000000000E+00  0.24700664075E+04  0.24700664075E+04  0.00000000000E+00 0.  1.
          1   -1    0    0  501    0  0.00000000000E+00 -0.00000000000E+00 -0.63396935525E+03  0.63396935525E+03  0.00000000000E+00 0. -1.
        -24    2    1    2    0    0  0.43081145995E+03 -0.82458887135E+03  0.98459869229E+02  0.93892102523E+03  0.79580305225E+02 0.  0.
        254    2    1    2    0    0 -0.43081145995E+03  0.82458887135E+03  0.17376371830E+04  0.21651147375E+04  0.89598745865E+03 0.  0.
         23    2    4    4    0    0  0.47071537815E+02 -0.97792346422E+02  0.12982009833E+02  0.14976956499E+03  0.10238807219E+03 0.  0.
         23    2    4    4    0    0 -0.47788299776E+03  0.92238121778E+03  0.17246551732E+04  0.20153451725E+04  0.89562423033E+02 0.  0.
          3    1    3    3  502    0  0.26468909954E+03 -0.47062900151E+03  0.21294525424E+02  0.54037527080E+03  0.00000000000E+00 0. -1.
         -4    1    3    3    0  502  0.16612236040E+03 -0.35395986984E+03  0.77165343805E+02  0.39854575443E+03  0.00000000000E+00 0.  1.
         11    1    5    5    0    0  0.14769151891E+02 -0.86779054673E+02 -0.31685931436E+02  0.93556028285E+02  0.00000000000E+00 0.  1.
        -11    1    5    5    0    0  0.32302385924E+02 -0.11013291749E+02  0.44667941269E+02  0.56213536704E+02  0.00000000000E+00 0. -1.
          1    1    6    6  503    0 -0.10937916074E+03  0.20687167472E+03  0.31964778136E+03  0.39614946010E+03  0.00000000000E+00 0. -1.
         -1    1    6    6    0  503 -0.36850383702E+03  0.71550954305E+03  0.14050073918E+04  0.16191957124E+04  0.00000000000E+00 0.  1.
<mgrwt>
<rscale>  0 0.25027556E+04</rscale>
<asrwt>0</asrwt>
<pdfrwt beam="1">  1        1 0.97533748E-01 0.25027556E+04</pdfrwt>
<pdfrwt beam="2">  1       -2 0.38001021E+00 0.25027556E+04</pdfrwt>
<totfact> 0.24639388E-01</totfact>
</mgrwt>
</event>
<event>
12    4  0.4183215E-008  0.1452060E+04  0.7818608E-02  0.8916974E-01
          1   -1    0    0  501    0  0.00000000000E+00  0.00000000000E+00  0.14279360525E+04  0.14279360525E+04  0.00000000000E+00 0. -1.
         -2   -1    0    0    0  501 -0.00000000000E+00 -0.00000000000E+00 -0.36914764335E+03  0.36914764335E+03  0.00000000000E+00 0.  1.
        -24    2    1    2    0    0 -0.32691896878E+03  0.23386205074E+03  0.11586171348E+03  0.42581053416E+03  0.79518572809E+02 0.  0.
        254    2    1    2    0    0  0.32691896878E+03 -0.23386205074E+03  0.94292669570E+03  0.13712731617E+04  0.91088520665E+03 0.  0.
         23    2    4    4    0    0  0.41254421845E+03  0.25188021036E+03  0.51563587340E+03  0.71265926604E+03  0.91468590137E+02 0.  0.
         23    2    4    4    0    0 -0.85625249664E+02 -0.48574226110E+03  0.42729082230E+03  0.65861389570E+03  0.88980836101E+02 0.  0.
          1    1    3    3  502    0 -0.22884815405E+02  0.30743956655E+02 -0.91239434523E+01  0.39397360204E+02  0.00000000000E+00 0. -1.
         -2    1    3    3    0  502 -0.30403415338E+03  0.20311809408E+03  0.12498565694E+03  0.38641317395E+03  0.00000000000E+00 0.  1.
         11    1    5    5    0    0  0.19651905980E+03  0.16536633095E+03  0.23532754864E+03  0.34834583308E+03  0.00000000000E+00 0. -1.
        -11    1    5    5    0    0  0.21602515865E+03  0.86513879406E+02  0.28030832476E+03  0.36431343296E+03  0.00000000000E+00 0.  1.
          3    1    6    6  503    0  0.96016313232E+01 -0.80511228873E+02  0.10211573354E+03  0.13039122799E+03  0.00000000000E+00 0. -1.
         -3    1    6    6    0  503 -0.95226880988E+02 -0.40523103222E+03  0.32517508876E+03  0.52822266771E+03  0.00000000000E+00 0.  1.
<mgrwt>
<rscale>  0 0.14520595E+04</rscale>
<asrwt>0</asrwt>
<pdfrwt beam="1">  1        1 0.21968247E+00 0.14520595E+04</pdfrwt>
<pdfrwt beam="2">  1       -2 0.56791946E-01 0.14520595E+04</pdfrwt>
<totfact> 0.18191978E+01</totfact>
</mgrwt>
</event>
<event>
12    4  0.4183215E-008  0.2205300E+04  0.7818608E-02  0.8516225E-01
          1   -1    0    0  501    0  0.00000000000E+00  0.00000000000E+00  0.84434776827E+03  0.84434776827E+03  0.00000000000E+00 0. -1.
         -2   -1    0    0    0  501 -0.00000000000E+00 -0.00000000000E+00 -0.14399723824E+04  0.14399723824E+04  0.00000000000E+00 0.  1.
        -24    2    1    2    0    0 -0.49996736470E+03 -0.65382622128E+03  0.16577608315E+03  0.84328431262E+03  0.78680548960E+02 0.  0.
        254    2    1    2    0    0  0.49996736470E+03  0.65382622128E+03 -0.76140069726E+03  0.14410358380E+04  0.90520559616E+03 0.  0.
         23    2    4    4    0    0  0.54890362340E+03  0.40210525334E+03 -0.60812007744E+02  0.68908806060E+03  0.90335111851E+02 0.  0.
         23    2    4    4    0    0 -0.48936258704E+02  0.25172096794E+03 -0.70058868952E+03  0.75194777744E+03  0.94035870785E+02 0.  0.
          3    1    3    3  502    0 -0.45992290475E+03 -0.60691259751E+03  0.17382622207E+03  0.78108100400E+03  0.00000000000E+00 0. -1.
         -4    1    3    3    0  502 -0.40044459949E+02 -0.46913623767E+02 -0.80501389200E+01  0.62203308627E+02  0.00000000000E+00 0.  1.
         11    1    5    5    0    0  0.48783141135E+02  0.17608653879E+02 -0.24077227045E+02  0.57180174996E+02  0.00000000000E+00 0.  1.
        -11    1    5    5    0    0  0.50012048227E+03  0.38449659946E+03 -0.36734780699E+02  0.63190788561E+03  0.00000000000E+00 0. -1.
          1    1    6    6  503    0 -0.38313733821E+02  0.98939526722E+02 -0.40958852605E+03  0.42310723560E+03  0.00000000000E+00 0. -1.
         -1    1    6    6    0  503 -0.10622524883E+02  0.15278144122E+03 -0.29100016347E+03  0.32884054184E+03  0.00000000000E+00 0.  1.
<mgrwt>
<rscale>  0 0.22053004E+04</rscale>
<asrwt>0</asrwt>
<pdfrwt beam="1">  1        1 0.12989966E+00 0.22053004E+04</pdfrwt>
<pdfrwt beam="2">  1       -2 0.22153421E+00 0.22053004E+04</pdfrwt>
<totfact> 0.15627791E+00</totfact>
</mgrwt>
</event>
<event>
12    4  0.4183215E-008  0.1627529E+04  0.7818608E-02  0.8803812E-01
         -2   -1    0    0    0  501 -0.00000000000E+00  0.00000000000E+00  0.42469363230E+03  0.42469363230E+03  0.00000000000E+00 0.  1.
          1   -1    0    0  501    0  0.00000000000E+00 -0.00000000000E+00 -0.15592721999E+04  0.15592721999E+04  0.00000000000E+00 0. -1.
        -24    2    1    2    0    0 -0.44093012084E+03 -0.29946367846E+02  0.37692810752E+02  0.45064330119E+03  0.79639691787E+02 0.  0.
        254    2    1    2    0    0  0.44093012084E+03  0.29946367846E+02 -0.11722713783E+04  0.15333225310E+04  0.88404843940E+03 0.  0.
         23    2    4    4    0    0 -0.59070249098E+02 -0.19291830884E+03  0.19195713631E+02  0.21904630470E+03  0.83102587002E+02 0.  0.
         23    2    4    4    0    0  0.50000036994E+03  0.22286467669E+03 -0.11914670920E+04  0.13142762263E+04  0.89772678131E+02 0.  0.
          3    1    3    3  502    0 -0.32856035248E+03 -0.12547518778E+02  0.61415000745E+02  0.33448639399E+03  0.00000000000E+00 0. -1.
         -4    1    3    3    0  502 -0.11236976836E+03 -0.17398849068E+02 -0.23722189993E+02  0.11615690720E+03  0.00000000000E+00 0.  1.
         11    1    5    5    0    0 -0.21401234259E+01 -0.13215084649E+03 -0.52211698964E+01  0.13227126284E+03  0.00000000000E+00 0.  1.
        -11    1    5    5    0    0 -0.56930125672E+02 -0.60767462346E+02  0.24416883528E+02  0.86775041862E+02  0.00000000000E+00 0. -1.
          1    1    6    6  503    0  0.23726526846E+03  0.57087625842E+02 -0.53126009507E+03  0.58462902191E+03  0.00000000000E+00 0. -1.
         -1    1    6    6    0  503  0.26273510148E+03  0.16577705084E+03 -0.66020699689E+03  0.72964720439E+03  0.00000000000E+00 0.  1.
<mgrwt>
<rscale>  0 0.16275294E+04</rscale>
<asrwt>0</asrwt>
<pdfrwt beam="1">  1        1 0.23988803E+00 0.16275294E+04</pdfrwt>
<pdfrwt beam="2">  1       -2 0.65337482E-01 0.16275294E+04</pdfrwt>
<totfact> 0.10796292E+01</totfact>
</mgrwt>
</event>
<event>
12    4  0.4183215E-008  0.1854588E+04  0.7818608E-02  0.8677797E-01
         -2   -1    0    0    0  501 -0.00000000000E+00  0.00000000000E+00  0.45870385108E+03  0.45870385108E+03  0.00000000000E+00 0.  1.
          1   -1    0    0  501    0  0.00000000000E+00 -0.00000000000E+00 -0.18745741835E+04  0.18745741835E+04  0.00000000000E+00 0. -1.
        -24    2    1    2    0    0  0.86899547774E+02 -0.33413602311E+03  0.22883051459E+03  0.42491295356E+03  0.94811393588E+02 0.  0.
        254    2    1    2    0    0 -0.86899547774E+02  0.33413602311E+03 -0.16447008470E+04  0.19083650810E+04  0.90422231391E+03 0.  0.
         23    2    4    4    0    0  0.53838250197E+02 -0.28252842655E+03 -0.33230352127E+03  0.44871702723E+03  0.90556453546E+02 0.  0.
         23    2    4    4    0    0 -0.14073779797E+03  0.61666444966E+03 -0.13123973257E+04  0.14596480538E+04  0.90019603927E+02 0.  0.
          1    1    3    3  502    0  0.52739438271E+02 -0.16336847436E+03  0.58636068088E+02  0.18140809035E+03  0.00000000000E+00 0. -1.
         -2    1    3    3    0  502  0.34160109503E+02 -0.17076754875E+03  0.17019444651E+03  0.24350486321E+03  0.00000000000E+00 0.  1.
         11    1    5    5    0    0 -0.43851213339E+01 -0.85597359153E+02 -0.48727824406E+02  0.98592789059E+02  0.00000000000E+00 0.  1.
        -11    1    5    5    0    0  0.58223371531E+02 -0.19693106740E+03 -0.28357569687E+03  0.35012423817E+03  0.00000000000E+00 0. -1.
          3    1    6    6  503    0 -0.14086737978E+03  0.61983722789E+03 -0.13073106534E+04  0.14536515924E+04  0.00000000000E+00 0. -1.
         -3    1    6    6    0  503  0.12958180828E+00 -0.31727782256E+01 -0.50866723482E+01  0.59964613475E+01  0.00000000000E+00 0.  1.
<mgrwt>
<rscale>  0 0.18545883E+04</rscale>
<asrwt>0</asrwt>
<pdfrwt beam="1">  1        1 0.28839602E+00 0.18545883E+04</pdfrwt>
<pdfrwt beam="2">  1       -2 0.70569824E-01 0.18545883E+04</pdfrwt>
<totfact> 0.54597713E+00</totfact>
</mgrwt>
</event>
<event>
12    4  0.4183215E-008  0.2745898E+04  0.7818608E-02  0.8320264E-01
          1   -1    0    0  501    0  0.00000000000E+00  0.00000000000E+00  0.17792841509E+04  0.17792841509E+04  0.00000000000E+00 0. -1.
         -2   -1    0    0    0  501 -0.00000000000E+00 -0.00000000000E+00 -0.10594087129E+04  0.10594087129E+04  0.00000000000E+00 0.  1.
        -24    2    1    2    0    0  0.78281900106E+03  0.90595112177E+03  0.58043402377E+03  0.13329513276E+04  0.79388679033E+02 0.  0.
        254    2    1    2    0    0 -0.78281900106E+03 -0.90595112177E+03  0.13944141430E+03  0.15057415362E+04  0.90236391898E+03 0.  0.
         23    2    4    4    0    0  0.15211476591E+03 -0.27151663363E+03 -0.11442379019E+03  0.34413464663E+03  0.92063385268E+02 0.  0.
         23    2    4    4    0    0 -0.93493376697E+03 -0.63443448814E+03  0.25386520449E+03  0.11616068895E+04  0.90965682623E+02 0.  0.
          3    1    3    3  502    0  0.46021875806E+02  0.61898648678E+02  0.59248275830E+02  0.97261574888E+02  0.00000000000E+00 0. -1.
         -4    1    3    3    0  502  0.73679712525E+03  0.84405247310E+03  0.52118574794E+03  0.12356897527E+04  0.00000000000E+00 0.  1.
         11    1    5    5    0    0  0.15725196266E+03 -0.20963485454E+03 -0.99153915199E+02  0.28019002641E+03  0.00000000000E+00 0.  1.
        -11    1    5    5    0    0 -0.51371967505E+01 -0.61881779089E+02 -0.15269874988E+02  0.63944620226E+02  0.00000000000E+00 0. -1.
          1    1    6    6  503    0 -0.91504061118E+02 -0.79499113501E+02  0.52542784404E+02  0.13211300633E+03  0.00000000000E+00 0. -1.
         -1    1    6    6    0  503 -0.84342970585E+03 -0.55493537464E+03  0.20132242009E+03  0.10294938832E+04  0.00000000000E+00 0.  1.
<mgrwt>
<rscale>  0 0.27458981E+04</rscale>
<asrwt>0</asrwt>
<pdfrwt beam="1">  1        1 0.27373602E+00 0.27458981E+04</pdfrwt>
<pdfrwt beam="2">  1       -2 0.16298596E+00 0.27458981E+04</pdfrwt>
<totfact> 0.77020520E-01</totfact>
</mgrwt>
</event>
<event>
12    4  0.4183215E-008  0.1466484E+04  0.7818608E-02  0.8907052E-01
          1   -1    0    0  501    0  0.00000000000E+00  0.00000000000E+00  0.81248167455E+03  0.81248167455E+03  0.00000000000E+00 0. -1.
         -2   -1    0    0    0  501 -0.00000000000E+00 -0.00000000000E+00 -0.66173036716E+03  0.66173036716E+03  0.00000000000E+00 0.  1.
        -24    2    1    2    0    0 -0.12106049138E+03  0.40732669690E+03  0.19935167026E+03  0.47617670407E+03  0.80202771081E+02 0.  0.
        254    2    1    2    0    0  0.12106049138E+03 -0.40732669690E+03 -0.48600362868E+02  0.99803533763E+03  0.90174378806E+03 0.  0.
         23    2    4    4    0    0 -0.87054493664E+02 -0.59726037807E+03 -0.22782739891E+03  0.65151686126E+03  0.90942029481E+02 0.  0.
         23    2    4    4    0    0  0.20811498504E+03  0.18993368117E+03  0.17922703604E+03  0.34651847637E+03  0.92553086264E+02 0.  0.
          3    1    3    3  502    0 -0.57951659457E+02  0.29619499696E+03  0.16440494439E+03  0.34368423996E+03  0.00000000000E+00 0. -1.
         -4    1    3    3    0  502 -0.63108831922E+02  0.11113169994E+03  0.34946725868E+02  0.13249246411E+03  0.00000000000E+00 0.  1.
         11    1    5    5    0    0  0.11662650046E+02 -0.20837162842E+03 -0.90060951022E+02  0.22730096312E+03  0.00000000000E+00 0. -1.
        -11    1    5    5    0    0 -0.98717143709E+02 -0.38888874966E+03 -0.13776644789E+03  0.42421589814E+03  0.00000000000E+00 0.  1.
          4    1    6    6  503    0  0.17839908720E+03  0.11606015830E+03  0.15499664479E+03  0.26328720925E+03  0.00000000000E+00 0.  1.
         -4    1    6    6    0  503  0.29715897841E+02  0.73873522877E+02  0.24230391247E+02  0.83231267122E+02  0.00000000000E+00 0. -1.
<mgrwt>
<rscale>  0 0.14664840E+04</rscale>
<asrwt>0</asrwt>
<pdfrwt beam="1">  1        1 0.12499718E+00 0.14664840E+04</pdfrwt>
<pdfrwt beam="2">  1       -2 0.10180467E+00 0.14664840E+04</pdfrwt>
<totfact> 0.14504751E+01</totfact>
</mgrwt>
</event>
<event>
12    4  0.4183215E-008  0.1497391E+04  0.7818608E-02  0.8886190E-01
         -2   -1    0    0    0  501 -0.00000000000E+00  0.00000000000E+00  0.78676321620E+03  0.78676321620E+03  0.00000000000E+00 0.  1.
          1   -1    0    0  501    0  0.00000000000E+00 -0.00000000000E+00 -0.71246923775E+03  0.71246923775E+03  0.00000000000E+00 0. -1.
        -24    2    1    2    0    0 -0.12351474221E+02 -0.86697588708E+01 -0.44697543344E+03  0.45479721347E+03  0.82618058881E+02 0.  0.
        254    2    1    2    0    0  0.12351474221E+02  0.86697588708E+01  0.52126941188E+03  0.10444352405E+04  0.90492842156E+03 0.  0.
         23    2    4    4    0    0  0.28771872577E+03 -0.69431740042E+02  0.64802949110E+03  0.71835323358E+03  0.92121198329E+02 0.  0.
         23    2    4    4    0    0 -0.27536725155E+03  0.78101498913E+02 -0.12676007922E+03  0.32608200689E+03  0.91292881316E+02 0.  0.
          1    1    3    3  502    0 -0.43697493076E+02  0.43580505144E+01 -0.33272768574E+03  0.33561313497E+03  0.00000000000E+00 0. -1.
         -2    1    3    3    0  502  0.31346018854E+02 -0.13027809385E+02 -0.11424774770E+03  0.11918407850E+03  0.00000000000E+00 0.  1.
         11    1    5    5    0    0  0.49298413748E+02  0.22703895012E+02  0.12070422958E+03  0.13234542487E+03  0.00000000000E+00 0. -1.
        -11    1    5    5    0    0  0.23842031202E+03 -0.92135635054E+02  0.52732526152E+03  0.58600780871E+03  0.00000000000E+00 0.  1.
          3    1    6    6  503    0 -0.40864734144E+02 -0.77910425028E+01  0.79128154921E+01  0.42346658533E+02  0.00000000000E+00 0. -1.
         -3    1    6    6    0  503 -0.23450251740E+03  0.85892541416E+02 -0.13467289471E+03  0.28373534836E+03  0.00000000000E+00 0.  1.
<mgrwt>
<rscale>  0 0.14973905E+04</rscale>
<asrwt>0</asrwt>
<pdfrwt beam="1">  1        1 0.10961065E+00 0.14973905E+04</pdfrwt>
<pdfrwt beam="2">  1       -2 0.12104049E+00 0.14973905E+04</pdfrwt>
<totfact> 0.11674153E+01</totfact>
</mgrwt>
</event>
<event>
12    4  0.4183215E-008  0.1928238E+04  0.7818608E-02  0.8640927E-01
         -2   -1    0    0    0  501 -0.00000000000E+00  0.00000000000E+00  0.16610288465E+04  0.16610288465E+04  0.00000000000E+00 0.  1.
          1   -1    0    0  501    0  0.00000000000E+00 -0.00000000000E+00 -0.55960797546E+03  0.55960797546E+03  0.00000000000E+00 0. -1.
        -24    2    1    2    0    0 -0.31401328478E+03  0.11872653874E+03  0.12123726604E+04  0.12605501947E+04  0.80243328710E+02 0.  0.
        254    2    1    2    0    0  0.31401328478E+03 -0.11872653874E+03 -0.11095178932E+03  0.96008662723E+03  0.89261172870E+03 0.  0.
         23    2    4    4    0    0 -0.20001357101E+03  0.21015585879E+03  0.79333915411E+02  0.31422679529E+03  0.90959854720E+02 0.  0.
         23    2    4    4    0    0  0.51402685579E+03 -0.32888239753E+03 -0.19028570473E+03  0.64585983195E+03  0.92406889476E+02 0.  0.
          1    1    3    3  502    0 -0.11562639839E+03  0.63100453570E+02  0.35167424103E+03  0.37553415697E+03  0.00000000000E+00 0. -1.
         -2    1    3    3    0  502 -0.19838688639E+03  0.55626085170E+02  0.86069841933E+03  0.88501603775E+03  0.00000000000E+00 0.  1.
         11    1    5    5    0    0 -0.34319801088E+02  0.91982345918E+02  0.44330880323E+02  0.10772106413E+03  0.00000000000E+00 0. -1.
        -11    1    5    5    0    0 -0.16569376992E+03  0.11817351287E+03  0.35003035088E+02  0.20650573116E+03  0.00000000000E+00 0.  1.
          1    1    6    6  503    0  0.71950713231E+02 -0.53089616081E+02  0.46526635211E+01  0.89538035202E+02  0.00000000000E+00 0. -1.
         -1    1    6    6    0  503  0.44207614256E+03 -0.27579278145E+03 -0.19493836825E+03  0.55632179675E+03  0.00000000000E+00 0.  1.
<mgrwt>
<rscale>  0 0.19282375E+04</rscale>
<asrwt>0</asrwt>
<pdfrwt beam="1">  1        1 0.86093535E-01 0.19282375E+04</pdfrwt>
<pdfrwt beam="2">  1       -2 0.25554290E+00 0.19282375E+04</pdfrwt>
<totfact> 0.18375105E+00</totfact>
</mgrwt>
</event>
<event>
12    4  0.4506800E-008  0.1837445E+04  0.7818608E-02  0.8686636E-01
         -2   -1    0    0    0  501 -0.00000000000E+00  0.00000000000E+00  0.62589692792E+03  0.62589692792E+03  0.00000000000E+00 0.  1.
          1   -1    0    0  501    0  0.00000000000E+00 -0.00000000000E+00 -0.13485469647E+04  0.13485469647E+04  0.00000000000E+00 0. -1.
        -24    2    1    2    0    0  0.39413499384E+03  0.11430986146E+03  0.29458235258E+03  0.51172705659E+03  0.81710955181E+02 0.  0.
        254    2    1    2    0    0 -0.39413499384E+03 -0.11430986146E+03 -0.10172323894E+04  0.14627168360E+04  0.96766196092E+03 0.  0.
         23    2    4    4    0    0 -0.53386616932E+03 -0.79806382689E+02 -0.13470949048E+03  0.56403756090E+03  0.92787810719E+02 0.  0.
         23    2    4    4    0    0  0.13973117548E+03 -0.34503478773E+02 -0.88252289889E+03  0.89867927512E+03  0.89791319333E+02 0.  0.
          3    1    3    3  502    0  0.32376675326E+02 -0.13015395520E+02  0.22988473351E+02  0.41786595132E+02  0.00000000000E+00 0. -1.
         -4    1    3    3    0  502  0.36175831852E+03  0.12732525698E+03  0.27159387923E+03  0.46994046146E+03  0.00000000000E+00 0.  1.
         11    1    5    5    0    0 -0.19453764427E+03 -0.37157275594E+02 -0.95256627758E+02  0.21977120671E+03  0.00000000000E+00 0.  1.
        -11    1    5    5    0    0 -0.33932852505E+03 -0.42649107095E+02 -0.39452862718E+02  0.34426635419E+03  0.00000000000E+00 0. -1.
          1    1    6    6  503    0  0.58715386114E+02  0.20691281791E+02 -0.20948883610E+03  0.21854335533E+03  0.00000000000E+00 0. -1.
         -1    1    6    6    0  503  0.81015789366E+02 -0.55194760563E+02 -0.67303406279E+03  0.68013591979E+03  0.00000000000E+00 0.  1.
<mgrwt>
<rscale>  0 0.18374454E+04</rscale>
<asrwt>0</asrwt>
<pdfrwt beam="1">  1        1 0.20746876E+00 0.18374454E+04</pdfrwt>
<pdfrwt beam="2">  1       -2 0.96291835E-01 0.18374454E+04</pdfrwt>
<totfact> 0.62250393E+00</totfact>
</mgrwt>
</event>
<event>
12    4  0.4183215E-008  0.1552892E+04  0.7818608E-02  0.8850022E-01
          1   -1    0    0  501    0  0.00000000000E+00  0.00000000000E+00  0.54438860139E+03  0.54438860139E+03  0.00000000000E+00 0. -1.
         -2   -1    0    0    0  501 -0.00000000000E+00 -0.00000000000E+00 -0.11074234315E+04  0.11074234315E+04  0.00000000000E+00 0.  1.
        -24    2    1    2    0    0 -0.38134231153E+03  0.29430728007E+03 -0.21655232080E+02  0.49390224622E+03  0.10691934378E+03 0.  0.
        254    2    1    2    0    0  0.38134231153E+03 -0.29430728007E+03 -0.54137959804E+03  0.11579097867E+04  0.90311930067E+03 0.  0.
         23    2    4    4    0    0 -0.22434687610E+03 -0.32858097575E+03 -0.24720397708E+03  0.47730320297E+03  0.91714572651E+02 0.  0.
         23    2    4    4    0    0  0.60568918763E+03  0.34273695679E+02 -0.29417562096E+03  0.68060658371E+03  0.93015845906E+02 0.  0.
          1    1    3    3  502    0 -0.29131687838E+03  0.20119791787E+03  0.28108435676E+02  0.35515659918E+03  0.00000000000E+00 0. -1.
         -2    1    3    3    0  502 -0.90025433157E+02  0.93109362197E+02 -0.49763667756E+02  0.13874564704E+03  0.00000000000E+00 0.  1.
         11    1    5    5    0    0 -0.89991447149E+02 -0.99746852869E+02 -0.13091145124E+03  0.18757852564E+03  0.00000000000E+00 0. -1.
        -11    1    5    5    0    0 -0.13435542895E+03 -0.22883412288E+03 -0.11629252584E+03  0.28972467732E+03  0.00000000000E+00 0.  1.
          3    1    6    6  503    0  0.78840949913E+02 -0.10987311802E+02 -0.98086903393E+01  0.80204905149E+02  0.00000000000E+00 0. -1.
         -3    1    6    6    0  503  0.52684823772E+03  0.45261007481E+02 -0.28436693062E+03  0.60040167856E+03  0.00000000000E+00 0.  1.
<mgrwt>
<rscale>  0 0.15528924E+04</rscale>
<asrwt>0</asrwt>
<pdfrwt beam="1">  1        1 0.83752094E-01 0.15528924E+04</pdfrwt>
<pdfrwt beam="2">  1       -2 0.17037283E+00 0.15528924E+04</pdfrwt>
<totfact> 0.70193762E+00</totfact>
</mgrwt>
</event>
<event>
12    4  0.4183215E-008  0.1673801E+04  0.7818608E-02  0.8776449E-01
          1   -1    0    0  501    0  0.00000000000E+00  0.00000000000E+00  0.36623766715E+04  0.36623766715E+04  0.00000000000E+00 0. -1.
         -2   -1    0    0    0  501 -0.00000000000E+00 -0.00000000000E+00 -0.19124266098E+03  0.19124266098E+03  0.00000000000E+00 0.  1.
        -24    2    1    2    0    0 -0.13036403675E+03  0.54613518602E+03  0.85079614384E+03  0.10225141792E+04  0.80142029534E+02 0.  0.
        254    2    1    2    0    0  0.13036403675E+03 -0.54613518602E+03  0.26203378667E+04  0.28311051533E+04  0.91308675909E+03 0.  0.
         23    2    4    4    0    0  0.39770167665E+03  0.49541822405E+02  0.99203887138E+03  0.10744765532E+04  0.98679913074E+02 0.  0.
         23    2    4    4    0    0 -0.26733763990E+03 -0.59567700842E+03  0.16282989953E+04  0.17566286001E+04  0.89921678885E+02 0.  0.
          1    1    3    3  502    0 -0.73730033954E+01  0.42465976469E+02  0.33285144656E+02  0.54457517308E+02  0.00000000000E+00 0. -1.
         -4    1    3    3    0  502 -0.12299103335E+03  0.50366920955E+03  0.81751099918E+03  0.96805666193E+03  0.00000000000E+00 0.  1.
         11    1    5    5    0    0  0.38426991673E+03  0.44885000294E+02  0.98570942718E+03  0.10589150613E+04  0.00000000000E+00 0. -1.
        -11    1    5    5    0    0  0.13431759921E+02  0.46568221119E+01  0.63294441965E+01  0.15561491914E+02  0.00000000000E+00 0.  1.
          2    1    6    6  503    0 -0.24222092118E+03 -0.44808362080E+03  0.12563977575E+04  0.13557231395E+04  0.00000000000E+00 0. -1.
         -2    1    6    6    0  503 -0.25116718716E+02 -0.14759338763E+03  0.37190123788E+03  0.40090546063E+03  0.00000000000E+00 0.  1.
<mgrwt>
<rscale>  0 0.16738013E+04</rscale>
<asrwt>0</asrwt>
<pdfrwt beam="1">  1        1 0.56344251E+00 0.16738013E+04</pdfrwt>
<pdfrwt beam="2">  1       -2 0.29421951E-01 0.16738013E+04</pdfrwt>
<totfact> 0.16663647E+00</totfact>
</mgrwt>
</event>
<event>
12    4  0.4183215E-008  0.1737789E+04  0.7818608E-02  0.8740101E-01
         -2   -1    0    0    0  501 -0.00000000000E+00  0.00000000000E+00  0.32179090594E+03  0.32179090594E+03  0.00000000000E+00 0.  1.
          1   -1    0    0  501    0  0.00000000000E+00 -0.00000000000E+00 -0.23461734064E+04  0.23461734064E+04  0.00000000000E+00 0. -1.
        -24    2    1    2    0    0 -0.57116268660E+03  0.47799362007E+02 -0.34276611266E+03  0.67432202725E+03  0.93327353314E+02 0.  0.
        254    2    1    2    0    0  0.57116268660E+03 -0.47799362007E+02 -0.16816163878E+04  0.19936422851E+04  0.90457962151E+03 0.  0.
         23    2    4    4    0    0  0.68484991261E+03  0.99668616790E+02 -0.16402432535E+04  0.17825101939E+04  0.89394769172E+02 0.  0.
         23    2    4    4    0    0 -0.11368722601E+03 -0.14746797880E+03 -0.41373134294E+02  0.21113209119E+03  0.90517587009E+02 0.  0.
          1    1    3    3  502    0 -0.86680103037E+02 -0.23577436684E+02 -0.69089984158E+02  0.11332590919E+03  0.00000000000E+00 0. -1.
         -2    1    3    3    0  502 -0.48448258356E+03  0.71376798691E+02 -0.27367612851E+03  0.56099611806E+03  0.00000000000E+00 0.  1.
         11    1    5    5    0    0  0.20977720378E+03  0.80876367775E+01 -0.58842179245E+03  0.62474962258E+03  0.00000000000E+00 0. -1.
        -11    1    5    5    0    0  0.47507270883E+03  0.91580980013E+02 -0.10518214611E+04  0.11577605714E+04  0.00000000000E+00 0.  1.
          2    1    6    6  503    0 -0.82043260473E+02 -0.58158373264E+02  0.13769711190E+02  0.10150417684E+03  0.00000000000E+00 0. -1.
         -2    1    6    6    0  503 -0.31643965539E+02 -0.89309605533E+02 -0.55142845484E+02  0.10962791434E+03  0.00000000000E+00 0.  1.
<mgrwt>
<rscale>  0 0.17377886E+04</rscale>
<asrwt>0</asrwt>
<pdfrwt beam="1">  1        1 0.36094976E+00 0.17377886E+04</pdfrwt>
<pdfrwt beam="2">  1       -2 0.49506293E-01 0.17377886E+04</pdfrwt>
<totfact> 0.55708380E+00</totfact>
</mgrwt>
</event>
<event>
12    4  0.4183215E-008  0.2573274E+04  0.7818608E-02  0.8377337E-01
         -2   -1    0    0    0  501 -0.00000000000E+00  0.00000000000E+00  0.69680872542E+03  0.69680872542E+03  0.00000000000E+00 0.  1.
          1   -1    0    0  501    0  0.00000000000E+00 -0.00000000000E+00 -0.23757370094E+04  0.23757370094E+04  0.00000000000E+00 0. -1.
        -24    2    1    2    0    0  0.96996634655E+03  0.49111083475E+03 -0.74778671495E+03  0.13218314835E+04  0.77646212206E+02 0.  0.
        254    2    1    2    0    0 -0.96996634655E+03 -0.49111083475E+03 -0.93114156901E+03  0.17507142513E+04  0.10079440474E+04 0.  0.
         23    2    4    4    0    0 -0.10223709332E+04 -0.70413413616E+03 -0.76878257787E+03  0.14630182263E+04  0.91369971314E+02 0.  0.
         23    2    4    4    0    0  0.52404586660E+02  0.21302330141E+03 -0.16235899114E+03  0.28769602499E+03  0.91013148207E+02 0.  0.
          1    1    3    3  502    0  0.25022770289E+03  0.11684896329E+03 -0.23039415838E+03  0.35965129185E+03  0.00000000000E+00 0. -1.
         -2    1    3    3    0  502  0.71973864367E+03  0.37426187146E+03 -0.51739255657E+03  0.96218019165E+03  0.00000000000E+00 0.  1.
         11    1    5    5    0    0  0.24183693024E+00 -0.66729530669E+01 -0.21021405585E+01  0.70004130350E+01  0.00000000000E+00 0.  1.
        -11    1    5    5    0    0 -0.10226127701E+04 -0.69746118309E+03 -0.76668043731E+03  0.14560178133E+04  0.00000000000E+00 0. -1.
          3    1    6    6  503    0  0.93302893680E-01  0.60995062145E+02 -0.96054108040E+02  0.11378399704E+03  0.00000000000E+00 0.  1.
         -3    1    6    6    0  503  0.52311283766E+02  0.15202823926E+03 -0.66304883096E+02  0.17391202795E+03  0.00000000000E+00 0. -1.
<mgrwt>
<rscale>  0 0.25732736E+04</rscale>
<asrwt>0</asrwt>
<pdfrwt beam="1">  1        1 0.36549800E+00 0.25732736E+04</pdfrwt>
<pdfrwt beam="2">  1       -2 0.10720134E+00 0.25732736E+04</pdfrwt>
<totfact> 0.89582864E-01</totfact>
</mgrwt>
</event>
<event>
12    4  0.4183215E-008  0.1737604E+04  0.7818608E-02  0.8740203E-01
         -2   -1    0    0    0  501 -0.00000000000E+00  0.00000000000E+00  0.78496829682E+03  0.78496829682E+03  0.00000000000E+00 0.  1.
          1   -1    0    0  501    0  0.00000000000E+00 -0.00000000000E+00 -0.96158916364E+03  0.96158916364E+03  0.00000000000E+00 0. -1.
        -24    2    1    2    0    0  0.32486612255E+03  0.32993650860E+03 -0.49367610045E+03  0.68198577299E+03  0.83620602191E+02 0.  0.
        254    2    1    2    0    0 -0.32486612255E+03 -0.32993650860E+03  0.31705523363E+03  0.10645716875E+04  0.90465062831E+03 0.  0.
         23    2    4    4    0    0 -0.36361821241E+03  0.17274556395E+03 -0.75084696862E+02  0.41937904137E+03  0.90453492888E+02 0.  0.
         23    2    4    4    0    0  0.38752089853E+02 -0.50268207256E+03  0.39213993049E+03  0.64519264610E+03  0.91152811043E+02 0.  0.
          1    1    3    3  502    0  0.23468377882E+03  0.22977057950E+03 -0.40138770219E+03  0.51863579004E+03  0.00000000000E+00 0. -1.
         -2    1    3    3    0  502  0.90182343734E+02  0.10016592911E+03 -0.92288398258E+02  0.16334998294E+03  0.00000000000E+00 0.  1.
         11    1    5    5    0    0 -0.28946492783E+03  0.17528535992E+03 -0.62415253374E+02  0.34410836330E+03  0.00000000000E+00 0. -1.
        -11    1    5    5    0    0 -0.74153284582E+02 -0.25397959635E+01 -0.12669443488E+02  0.75270678063E+02  0.00000000000E+00 0.  1.
          1    1    6    6  503    0 -0.19637316684E+02 -0.20743058423E+03  0.12644083366E+03  0.24372188227E+03  0.00000000000E+00 0. -1.
         -1    1    6    6    0  503  0.58389406537E+02 -0.29525148832E+03  0.26569909683E+03  0.40147076383E+03  0.00000000000E+00 0.  1.
<mgrwt>
<rscale>  0 0.17376041E+04</rscale>
<asrwt>0</asrwt>
<pdfrwt beam="1">  1        1 0.14793679E+00 0.17376041E+04</pdfrwt>
<pdfrwt beam="2">  1       -2 0.12076435E+00 0.17376041E+04</pdfrwt>
<totfact> 0.70509448E+00</totfact>
</mgrwt>
</event>
<event>
12    4  0.4183215E-008  0.3818621E+04  0.7818608E-02  0.8042171E-01
         -4   -1    0    0    0  501 -0.00000000000E+00  0.00000000000E+00  0.11442991544E+04  0.11442991544E+04  0.00000000000E+00 0.  1.
          1   -1    0    0  501    0  0.00000000000E+00 -0.00000000000E+00 -0.31857636107E+04  0.31857636107E+04  0.00000000000E+00 0. -1.
        -24    2    1    2    0    0 -0.47965231029E+03  0.10095698367E+04  0.64096026641E+03  0.12909434098E+04  0.80045176782E+02 0.  0.
        254    2    1    2    0    0  0.47965231029E+03 -0.10095698367E+04 -0.26824247227E+04  0.30391193552E+04  0.88968897256E+03 0.  0.
         23    2    4    4    0    0  0.20688552795E+03 -0.65136201357E+03 -0.24057852672E+04  0.25029669776E+04  0.99834086744E+02 0.  0.
         23    2    4    4    0    0  0.27276678234E+03 -0.35820782315E+03 -0.27663945553E+03  0.53615237754E+03  0.90638962179E+02 0.  0.
          1    1    3    3  502    0 -0.24624921561E+03  0.48979278242E+03  0.35821776030E+03  0.65487068165E+03  0.00000000000E+00 0. -1.
         -2    1    3    3    0  502 -0.23340309468E+03  0.51977705431E+03  0.28274250611E+03  0.63607272820E+03  0.00000000000E+00 0.  1.
         11    1    5    5    0    0 -0.11117044724E+01 -0.59349969681E+02 -0.14405542205E+03  0.15580635228E+03  0.00000000000E+00 0. -1.
        -11    1    5    5    0    0  0.20799723242E+03 -0.59201204389E+03 -0.22617298451E+04  0.23471606253E+04  0.00000000000E+00 0.  1.
          3    1    6    6  503    0  0.49409339300E+02 -0.10683516640E+03 -0.10895237103E+03  0.16039219041E+03  0.00000000000E+00 0. -1.
         -3    1    6    6    0  503  0.22335744304E+03 -0.25137265675E+03 -0.16768708450E+03  0.37576018713E+03  0.00000000000E+00 0.  1.
<mgrwt>
<rscale>  0 0.38186210E+04</rscale>
<asrwt>0</asrwt>
<pdfrwt beam="1">  1        1 0.49011748E+00 0.38186210E+04</pdfrwt>
<pdfrwt beam="2">  1       -4 0.17604602E+00 0.38186210E+04</pdfrwt>
<totfact> 0.32564121E-02</totfact>
</mgrwt>
</event>
<event>
12    4  0.4183215E-008  0.2081983E+04  0.7818608E-02  0.8569222E-01
          1   -1    0    0  501    0  0.00000000000E+00  0.00000000000E+00  0.12064641637E+04  0.12064641637E+04  0.00000000000E+00 0. -1.
         -2   -1    0    0    0  501 -0.00000000000E+00 -0.00000000000E+00 -0.89821459710E+03  0.89821459710E+03  0.00000000000E+00 0.  1.
        -24    2    1    2    0    0  0.31022180928E+03  0.57026478267E+03  0.67264384074E+03  0.93833071518E+03  0.81088231302E+02 0.  0.
        254    2    1    2    0    0 -0.31022180928E+03 -0.57026478267E+03 -0.36439427414E+03  0.11663480456E+04  0.89785582539E+03 0.  0.
         23    2    4    4    0    0 -0.29883829291E+03 -0.79762419957E+03 -0.31545583342E+03  0.91310269901E+03  0.93463720501E+02 0.  0.
         23    2    4    4    0    0 -0.11383516371E+02  0.22735941690E+03 -0.48938440718E+02  0.25324534661E+03  0.99580850072E+02 0.  0.
          3    1    3    3  502    0  0.26259140329E+03  0.41675799157E+03  0.48530208997E+03  0.69149084387E+03  0.00000000000E+00 0. -1.
         -4    1    3    3    0  502  0.47630405988E+02  0.15350679110E+03  0.18734175077E+03  0.24683987131E+03  0.00000000000E+00 0.  1.
         11    1    5    5    0    0 -0.96974588347E+02 -0.19882697509E+03 -0.11994677121E+03  0.25164154016E+03  0.00000000000E+00 0.  1.
        -11    1    5    5    0    0 -0.20186370456E+03 -0.59879722448E+03 -0.19550906221E+03  0.66146115885E+03  0.00000000000E+00 0. -1.
          1    1    6    6  503    0  0.65414185214E+01  0.20644796400E+03 -0.11639349153E+02  0.20687925572E+03  0.00000000000E+00 0. -1.
         -1    1    6    6    0  503 -0.17924934892E+02  0.20911452900E+02 -0.37299091565E+02  0.46366090895E+02  0.00000000000E+00 0.  1.
<mgrwt>
<rscale>  0 0.20819834E+04</rscale>
<asrwt>0</asrwt>
<pdfrwt beam="1">  1        1 0.18560987E+00 0.20819834E+04</pdfrwt>
<pdfrwt beam="2">  1       -2 0.13818686E+00 0.20819834E+04</pdfrwt>
<totfact> 0.31731727E+00</totfact>
</mgrwt>
</event>
<event>
12    4  0.4183215E-008  0.1540204E+04  0.7818608E-02  0.8858149E-01
         -2   -1    0    0    0  501 -0.00000000000E+00  0.00000000000E+00  0.75646341996E+03  0.75646341996E+03  0.00000000000E+00 0.  1.
          1   -1    0    0  501    0  0.00000000000E+00 -0.00000000000E+00 -0.78398619338E+03  0.78398619338E+03  0.00000000000E+00 0. -1.
        -24    2    1    2    0    0  0.31195582004E+03  0.55646184810E+02  0.37714970459E+03  0.49893022404E+03  0.79224599987E+02 0.  0.
        254    2    1    2    0    0 -0.31195582004E+03 -0.55646184810E+02 -0.40467247801E+03  0.10415193893E+04  0.90586416879E+03 0.  0.
         23    2    4    4    0    0 -0.50529069772E+03 -0.18830254351E+03 -0.52905695535E+03  0.76098118196E+03  0.91730911963E+02 0.  0.
         23    2    4    4    0    0  0.19333487768E+03  0.13265635870E+03  0.12438447734E+03  0.28053820734E+03  0.90852094883E+02 0.  0.
          1    1    3    3  502    0  0.14144573590E+03  0.77091669805E+01  0.11452556943E+03  0.18216046089E+03  0.00000000000E+00 0. -1.
         -2    1    3    3    0  502  0.17051008414E+03  0.47937017829E+02  0.26262413516E+03  0.31676976314E+03  0.00000000000E+00 0.  1.
         11    1    5    5    0    0 -0.39681937116E+03 -0.14680341115E+03 -0.46367503669E+03  0.62770326946E+03  0.00000000000E+00 0.  1.
        -11    1    5    5    0    0 -0.10847132656E+03 -0.41499132359E+02 -0.65381918662E+02  0.13327791250E+03  0.00000000000E+00 0. -1.
          3    1    6    6  503    0  0.84467668300E+02  0.44374768120E+02  0.35512843061E+01  0.95480462158E+02  0.00000000000E+00 0. -1.
         -3    1    6    6    0  503  0.10886720938E+03  0.88281590577E+02  0.12083319304E+03  0.18505774518E+03  0.00000000000E+00 0.  1.
<mgrwt>
<rscale>  0 0.15402037E+04</rscale>
<asrwt>0</asrwt>
<pdfrwt beam="1">  1        1 0.12061326E+00 0.15402037E+04</pdfrwt>
<pdfrwt beam="2">  1       -2 0.11637899E+00 0.15402037E+04</pdfrwt>
<totfact> 0.11045072E+01</totfact>
</mgrwt>
</event>
<event>
12    4  0.4183215E-008  0.1027346E+04  0.7818608E-02  0.9279051E-01
         -2   -1    0    0    0  501 -0.00000000000E+00  0.00000000000E+00  0.15137647057E+03  0.15137647057E+03  0.00000000000E+00 0.  1.
          1   -1    0    0  501    0  0.00000000000E+00 -0.00000000000E+00 -0.17430700722E+04  0.17430700722E+04  0.00000000000E+00 0. -1.
        -24    2    1    2    0    0  0.18384559622E+03 -0.43860623809E+02 -0.22633531066E+03  0.30427608789E+03  0.75055361176E+02 0.  0.
        254    2    1    2    0    0 -0.18384559622E+03  0.43860623809E+02 -0.13653582910E+04  0.15901704549E+04  0.79291604554E+03 0.  0.
         23    2    4    4    0    0 -0.36151851138E+03  0.30749916167E+03 -0.76719282739E+03  0.90649892591E+03  0.88905004183E+02 0.  0.
         23    2    4    4    0    0  0.17767291515E+03 -0.26363853786E+03 -0.59816546358E+03  0.68367152897E+03  0.92368253645E+02 0.  0.
          1    1    3    3  502    0  0.72289969588E+02  0.14212723364E+02 -0.11348169799E+03  0.13529943454E+03  0.00000000000E+00 0. -1.
         -2    1    3    3    0  502  0.11155562663E+03 -0.58073347173E+02 -0.11285361267E+03  0.16897665335E+03  0.00000000000E+00 0.  1.
         11    1    5    5    0    0 -0.13295977736E+03  0.73327193587E+02 -0.29822670191E+03  0.33465556240E+03  0.00000000000E+00 0. -1.
        -11    1    5    5    0    0 -0.22855873402E+03  0.23417196809E+03 -0.46896612548E+03  0.57184336350E+03  0.00000000000E+00 0.  1.
          3    1    6    6  503    0  0.12239947933E+02 -0.34707214971E+02 -0.24410272186E+02  0.44161844217E+02  0.00000000000E+00 0. -1.
         -3    1    6    6    0  503  0.16543296722E+03 -0.22893132289E+03 -0.57375519139E+03  0.63950968475E+03  0.00000000000E+00 0.  1.
<mgrwt>
<rscale>  0 0.10273457E+04</rscale>
<asrwt>0</asrwt>
<pdfrwt beam="1">  1        1 0.26816463E+00 0.10273457E+04</pdfrwt>
<pdfrwt beam="2">  1       -2 0.23288688E-01 0.10273457E+04</pdfrwt>
<totfact> 0.63916809E+01</totfact>
</mgrwt>
</event>
<event>
12    4  0.4183215E-008  0.1200531E+04  0.7818608E-02  0.9112392E-01
         -2   -1    0    0    0  501 -0.00000000000E+00  0.00000000000E+00  0.13409544569E+04  0.13409544569E+04  0.00000000000E+00 0.  1.
          1   -1    0    0  501    0  0.00000000000E+00 -0.00000000000E+00 -0.26870321815E+03  0.26870321815E+03  0.00000000000E+00 0. -1.
        -24    2    1    2    0    0 -0.10135984776E+03  0.23469432820E+03  0.28713646594E+03  0.39311232585E+03  0.82065243735E+02 0.  0.
        254    2    1    2    0    0  0.10135984776E+03 -0.23469432820E+03  0.78511477278E+03  0.12165453492E+04  0.89343278075E+03 0.  0.
         23    2    4    4    0    0 -0.41415256108E+02  0.32440732143E+03  0.35838948756E+03  0.49259982521E+03  0.85183504074E+02 0.  0.
         23    2    4    4    0    0  0.14277510387E+03 -0.55910164964E+03  0.42672528522E+03  0.72394552396E+03  0.94990882225E+02 0.  0.
          3    1    3    3  502    0 -0.35481187908E+02  0.24442363598E+02  0.22003951417E+02  0.48378897378E+02  0.00000000000E+00 0. -1.
         -2    1    3    3    0  502 -0.65878659857E+02  0.21025196461E+03  0.26513251453E+03  0.34473342847E+03  0.00000000000E+00 0.  1.
         11    1    5    5    0    0 -0.10822276021E+02  0.17335575754E+03  0.12948133922E+03  0.21664431111E+03  0.00000000000E+00 0. -1.
        -11    1    5    5    0    0 -0.30592980087E+02  0.15105156389E+03  0.22890814834E+03  0.27595551410E+03  0.00000000000E+00 0.  1.
          1    1    6    6  503    0  0.39456045220E+02 -0.95949102284E+02  0.12130042119E+03  0.15961454168E+03  0.00000000000E+00 0. -1.
         -1    1    6    6    0  503  0.10331905865E+03 -0.46315254735E+03  0.30542486403E+03  0.56433098228E+03  0.00000000000E+00 0.  1.
<mgrwt>
<rscale>  0 0.12005312E+04</rscale>
<asrwt>0</asrwt>
<pdfrwt beam="1">  1        1 0.41338957E-01 0.12005312E+04</pdfrwt>
<pdfrwt beam="2">  1       -2 0.20630068E+00 0.12005312E+04</pdfrwt>
<totfact> 0.10571314E+01</totfact>
</mgrwt>
</event>
<event>
12    4  0.4183215E-008  0.1713782E+04  0.7818608E-02  0.8753543E-01
         -4   -1    0    0    0  501 -0.00000000000E+00  0.00000000000E+00  0.25966019513E+04  0.25966019513E+04  0.00000000000E+00 0.  1.
          1   -1    0    0  501    0  0.00000000000E+00 -0.00000000000E+00 -0.28277818440E+03  0.28277818440E+03  0.00000000000E+00 0. -1.
        -24    2    1    2    0    0  0.45181933892E+03 -0.35021851036E+02  0.14407180183E+03  0.48162978633E+03  0.76441624268E+02 0.  0.
        254    2    1    2    0    0 -0.45181933892E+03  0.35021851036E+02  0.21697519650E+04  0.23977503493E+04  0.91433905249E+03 0.  0.
         23    2    4    4    0    0 -0.23127473736E+03 -0.13311523991E+03  0.87572245459E+02  0.29516177440E+03  0.90795945153E+02 0.  0.
         23    2    4    4    0    0 -0.22054460157E+03  0.16813709095E+03  0.20821797196E+04  0.21025885749E+04  0.92175529471E+02 0.  0.
          3    1    3    3  502    0  0.16855788658E+02 -0.12585449749E+02 -0.43731252576E+01  0.21485701785E+02  0.00000000000E+00 0. -1.
         -4    1    3    3    0  502  0.43496355027E+03 -0.22436401287E+02  0.14844492709E+03  0.46014408455E+03  0.00000000000E+00 0.  1.
         11    1    5    5    0    0 -0.15076142970E+02 -0.28464911556E+02  0.38159942187E+02  0.49937185188E+02  0.00000000000E+00 0.  1.
        -11    1    5    5    0    0 -0.21619859439E+03 -0.10465032835E+03  0.49412303272E+02  0.24522458921E+03  0.00000000000E+00 0. -1.
          3    1    6    6  503    0 -0.18227162733E+03  0.94485601951E+02  0.16270868400E+04  0.16399884329E+04  0.00000000000E+00 0. -1.
         -3    1    6    6    0  503 -0.38272974234E+02  0.73651488995E+02  0.45509287959E+03  0.46260014207E+03  0.00000000000E+00 0.  1.
<mgrwt>
<rscale>  0 0.17137822E+04</rscale>
<asrwt>0</asrwt>
<pdfrwt beam="1">  1        1 0.43504338E-01 0.17137822E+04</pdfrwt>
<pdfrwt beam="2">  1       -4 0.39947721E+00 0.17137822E+04</pdfrwt>
<totfact> 0.29457630E-01</totfact>
</mgrwt>
</event>
<event>
12    4  0.4183215E-008  0.2640276E+04  0.7818608E-02  0.8354648E-01
          1   -1    0    0  501    0  0.00000000000E+00  0.00000000000E+00  0.85872017384E+03  0.85872017384E+03  0.00000000000E+00 0. -1.
         -2   -1    0    0    0  501 -0.00000000000E+00 -0.00000000000E+00 -0.20294899303E+04  0.20294899303E+04  0.00000000000E+00 0.  1.
        -24    2    1    2    0    0 -0.22259819421E+03 -0.54244966231E+03  0.58179313526E+03  0.82988263050E+03  0.80126999036E+02 0.  0.
        254    2    1    2    0    0  0.22259819421E+03  0.54244966231E+03 -0.17525628918E+04  0.20583274737E+04  0.90632980040E+03 0.  0.
         23    2    4    4    0    0  0.37969827396E+03  0.35663991510E+03 -0.17159749615E+04  0.17956259661E+04  0.91322139771E+02 0.  0.
         23    2    4    4    0    0 -0.15710007975E+03  0.18580974721E+03 -0.36587930265E+02  0.26270150762E+03  0.92020151310E+02 0.  0.
          3    1    3    3  502    0 -0.17591828684E+03 -0.42693712133E+03  0.40894610560E+03  0.61681396426E+03  0.00000000000E+00 0. -1.
         -2    1    3    3    0  502 -0.46679907371E+02 -0.11551254097E+03  0.17284702966E+03  0.21306866624E+03  0.00000000000E+00 0.  1.
         11    1    5    5    0    0  0.15109651691E+02  0.46464057303E+02 -0.12535643011E+03  0.13454160979E+03  0.00000000000E+00 0.  1.
        -11    1    5    5    0    0  0.36458862227E+03  0.31017585779E+03 -0.15906185314E+04  0.16610843563E+04  0.00000000000E+00 0. -1.
          4    1    6    6  503    0 -0.13994506539E+03  0.98456124201E+02 -0.22967280788E+02  0.17264334828E+03  0.00000000000E+00 0. -1.
         -4    1    6    6    0  503 -0.17155014362E+02  0.87353623008E+02 -0.13620649477E+02  0.90058159334E+02  0.00000000000E+00 0.  1.
<mgrwt>
<rscale>  0 0.26402757E+04</rscale>
<asrwt>0</asrwt>
<pdfrwt beam="1">  1        1 0.13211080E+00 0.26402757E+04</pdfrwt>
<pdfrwt beam="2">  1       -2 0.31222922E+00 0.26402757E+04</pdfrwt>
<totfact> 0.40530433E-01</totfact>
</mgrwt>
</event>
<event>
12    4  0.4183215E-008  0.1248950E+04  0.7818608E-02  0.9071057E-01
          1   -1    0    0  501    0  0.00000000000E+00  0.00000000000E+00  0.72548678041E+03  0.72548678041E+03  0.00000000000E+00 0. -1.
         -2   -1    0    0    0  501 -0.00000000000E+00 -0.00000000000E+00 -0.53752765907E+03  0.53752765907E+03  0.00000000000E+00 0.  1.
        -24    2    1    2    0    0 -0.18189391148E+01 -0.38763632426E+02  0.32859099285E+03  0.33981398093E+03  0.77431087554E+02 0.  0.
        254    2    1    2    0    0  0.18189391148E+01  0.38763632426E+02 -0.14063187151E+03  0.92320045855E+03  0.91160069967E+03 0.  0.
         23    2    4    4    0    0 -0.86044611783E+02 -0.73654445639E+02 -0.50265861294E+03  0.52350652530E+03  0.92545925252E+02 0.  0.
         23    2    4    4    0    0  0.87863550898E+02  0.11241807806E+03  0.36202674143E+03  0.39969393326E+03  0.91291023200E+02 0.  0.
          1    1    3    3  502    0  0.11317839744E+02 -0.37308653752E+02  0.32319459430E+03  0.32553767052E+03  0.00000000000E+00 0. -1.
         -2    1    3    3    0  502 -0.13136778859E+02 -0.14549786735E+01  0.53963985416E+01  0.14276310411E+02  0.00000000000E+00 0.  1.
         11    1    5    5    0    0 -0.66595346021E+02 -0.87612832683E+02 -0.47172235610E+03  0.48438923379E+03  0.00000000000E+00 0. -1.
        -11    1    5    5    0    0 -0.19449265762E+02  0.13958387045E+02 -0.30936256844E+02  0.39117291510E+02  0.00000000000E+00 0.  1.
          3    1    6    6  503    0  0.74360160255E+02  0.11463442571E+03  0.23426986909E+03  0.27120629889E+03  0.00000000000E+00 0. -1.
         -3    1    6    6    0  503  0.13503390643E+02 -0.22163476454E+01  0.12775687234E+03  0.12848763437E+03  0.00000000000E+00 0.  1.
<mgrwt>
<rscale>  0 0.12489503E+04</rscale>
<asrwt>0</asrwt>
<pdfrwt beam="1">  1        1 0.11161335E+00 0.12489503E+04</pdfrwt>
<pdfrwt beam="2">  1       -2 0.82696563E-01 0.12489503E+04</pdfrwt>
<totfact> 0.28577112E+01</totfact>
</mgrwt>
</event>
<event>
12    4  0.4183215E-008  0.1068411E+04  0.7818608E-02  0.9236540E-01
          3   -1    0    0  501    0  0.00000000000E+00  0.00000000000E+00  0.24545653026E+04  0.24545653026E+04  0.00000000000E+00 0. -1.
         -4   -1    0    0    0  501 -0.00000000000E+00 -0.00000000000E+00 -0.11626305451E+03  0.11626305451E+03  0.00000000000E+00 0.  1.
        -24    2    1    2    0    0 -0.54385134796E+01  0.17975982424E+02  0.69336966210E+03  0.69814808679E+03  0.79350799645E+02 0.  0.
        254    2    1    2    0    0  0.54385134796E+01 -0.17975982424E+02  0.16449325860E+04  0.18726802703E+04  0.89486058634E+03 0.  0.
         23    2    4    4    0    0 -0.31418056582E+03 -0.24849164218E+03  0.12082265819E+04  0.12761415038E+04  0.90929314137E+02 0.  0.
         23    2    4    4    0    0  0.31961907930E+03  0.23051565976E+03  0.43670600402E+03  0.59653876652E+03  0.99259965561E+02 0.  0.
          3    1    3    3  502    0  0.30283981082E+02  0.58496987584E+01  0.51033501973E+03  0.51126624263E+03  0.00000000000E+00 0. -1.
         -4    1    3    3    0  502 -0.35722494561E+02  0.12126283665E+02  0.18303464236E+03  0.18688184416E+03  0.00000000000E+00 0.  1.
         11    1    5    5    0    0 -0.19446636225E+03 -0.17170746579E+03  0.90077986971E+03  0.93739265707E+03  0.00000000000E+00 0. -1.
        -11    1    5    5    0    0 -0.11971420357E+03 -0.76784176392E+02  0.30744671223E+03  0.33874884670E+03  0.00000000000E+00 0.  1.
          4    1    6    6  503    0  0.72957673401E+02  0.82435544098E+02  0.70036678803E+02  0.13047443204E+03  0.00000000000E+00 0. -1.
         -4    1    6    6    0  503  0.24666140590E+03  0.14808011566E+03  0.36666932522E+03  0.46606433447E+03  0.00000000000E+00 0.  1.
<mgrwt>
<rscale>  0 0.10684105E+04</rscale>
<asrwt>0</asrwt>
<pdfrwt beam="1">  1        3 0.37762539E+00 0.10684105E+04</pdfrwt>
<pdfrwt beam="2">  1       -4 0.17886626E-01 0.10684105E+04</pdfrwt>
<totfact> 0.96697801E-01</totfact>
</mgrwt>
</event>
<event>
12    4  0.4183215E-008  0.1841695E+04  0.7818608E-02  0.8684436E-01
         -2   -1    0    0    0  501 -0.00000000000E+00  0.00000000000E+00  0.59273289263E+03  0.59273289263E+03  0.00000000000E+00 0.  1.
          1   -1    0    0  501    0  0.00000000000E+00 -0.00000000000E+00 -0.14305938649E+04  0.14305938649E+04  0.00000000000E+00 0. -1.
        -24    2    1    2    0    0 -0.24490458279E+03  0.33767093825E+03  0.29235171948E+03  0.51557034708E+03  0.79645073251E+02 0.  0.
        254    2    1    2    0    0  0.24490458279E+03 -0.33767093825E+03 -0.11302126918E+04  0.15077564105E+04  0.90661389108E+03 0.  0.
         23    2    4    4    0    0  0.31739375173E+03  0.69620526129E+02 -0.10097392493E+04  0.10646634448E+04  0.91373342697E+02 0.  0.
         23    2    4    4    0    0 -0.72489168938E+02 -0.40729146438E+03 -0.12047344244E+03  0.44309296569E+03  0.10332719553E+03 0.  0.
          3    1    3    3  502    0 -0.11372090143E+03  0.11493309515E+03  0.14958658644E+03  0.22026848759E+03  0.00000000000E+00 0. -1.
         -4    1    3    3    0  502 -0.13118368135E+03  0.22273784311E+03  0.14276513304E+03  0.29530185949E+03  0.00000000000E+00 0.  1.
         11    1    5    5    0    0  0.51515168358E+02  0.34755638378E+02 -0.11645029926E+03  0.13199408763E+03  0.00000000000E+00 0. -1.
        -11    1    5    5    0    0  0.26587858337E+03  0.34864887751E+02 -0.89328895005E+03  0.93266935715E+03  0.00000000000E+00 0.  1.
          3    1    6    6  503    0 -0.93655899025E+02 -0.27852357839E+03 -0.10327599330E+03  0.31146868532E+03  0.00000000000E+00 0. -1.
         -3    1    6    6    0  503  0.21166730087E+02 -0.12876788600E+03 -0.17197449135E+02  0.13162428037E+03  0.00000000000E+00 0.  1.
<mgrwt>
<rscale>  0 0.18416949E+04</rscale>
<asrwt>0</asrwt>
<pdfrwt beam="1">  1        1 0.22009136E+00 0.18416949E+04</pdfrwt>
<pdfrwt beam="2">  1       -2 0.91189677E-01 0.18416949E+04</pdfrwt>
<totfact> 0.61854017E+00</totfact>
</mgrwt>
</event>
<event>
12    4  0.4183215E-008  0.4379344E+04  0.7818608E-02  0.7932107E-01
         -2   -1    0    0    0  501 -0.00000000000E+00  0.00000000000E+00  0.26216065643E+04  0.26216065643E+04  0.00000000000E+00 0.  1.
          1   -1    0    0  501    0  0.00000000000E+00 -0.00000000000E+00 -0.18289029998E+04  0.18289029998E+04  0.00000000000E+00 0. -1.
        -24    2    1    2    0    0  0.13971134525E+04  0.58376267004E+03  0.18463996770E+04  0.23892127813E+04  0.80256418730E+02 0.  0.
        254    2    1    2    0    0 -0.13971134525E+04 -0.58376267004E+03 -0.10536961125E+04  0.20612967828E+04  0.91976305375E+03 0.  0.
         23    2    4    4    0    0 -0.11931769651E+04 -0.33566382971E+03 -0.36405877809E+03  0.12951938347E+04  0.92988165514E+02 0.  0.
         23    2    4    4    0    0 -0.20393648738E+03 -0.24809884033E+03 -0.68963733442E+03  0.76610294804E+03  0.90393299107E+02 0.  0.
          1    1    3    3  502    0  0.49593871034E+03  0.17602990821E+03  0.68115514995E+03  0.86076365589E+03  0.00000000000E+00 0. -1.
         -2    1    3    3    0  502  0.90117474216E+03  0.40773276183E+03  0.11652445271E+04  0.15284491254E+04  0.00000000000E+00 0.  1.
         11    1    5    5    0    0 -0.10590289813E+04 -0.28996687826E+03 -0.29181569368E+03  0.11361248051E+04  0.00000000000E+00 0. -1.
        -11    1    5    5    0    0 -0.13414798382E+03 -0.45696951452E+02 -0.72243084402E+02  0.15906902960E+03  0.00000000000E+00 0.  1.
          1    1    6    6  503    0 -0.17803385746E+03 -0.15377961938E+03 -0.50706608474E+03  0.55898143085E+03  0.00000000000E+00 0. -1.
         -1    1    6    6    0  503 -0.25902629916E+02 -0.94319220948E+02 -0.18257124967E+03  0.20712151719E+03  0.00000000000E+00 0.  1.
<mgrwt>
<rscale>  0 0.43793443E+04</rscale>
<asrwt>0</asrwt>
<pdfrwt beam="1">  1        1 0.28136969E+00 0.43793443E+04</pdfrwt>
<pdfrwt beam="2">  1       -2 0.40332409E+00 0.43793443E+04</pdfrwt>
<totfact> 0.18319504E-02</totfact>
</mgrwt>
</event>
<event>
12    4  0.4183215E-008  0.2030139E+04  0.7818608E-02  0.8592658E-01
          1   -1    0    0  501    0  0.00000000000E+00  0.00000000000E+00  0.22395368156E+04  0.22395368156E+04  0.00000000000E+00 0. -1.
         -2   -1    0    0    0  501 -0.00000000000E+00 -0.00000000000E+00 -0.46008001641E+03  0.46008001641E+03  0.00000000000E+00 0.  1.
        -24    2    1    2    0    0 -0.23690074845E+03 -0.61626039220E+03  0.81216817337E+02  0.66993738537E+03  0.79505303553E+02 0.  0.
        254    2    1    2    0    0  0.23690074845E+03  0.61626039220E+03  0.16982399819E+04  0.20296794467E+04  0.89424872633E+03 0.  0.
         23    2    4    4    0    0  0.15358333231E+03  0.69388285190E+03  0.17357744131E+04  0.18778895902E+04  0.92169667713E+02 0.  0.
         23    2    4    4    0    0  0.83317416140E+02 -0.77622459701E+02 -0.37534431199E+02  0.15178985650E+03  0.93082162239E+02 0.  0.
          3    1    3    3  502    0 -0.98189840024E+02 -0.23629951496E+03 -0.68206497095E+01  0.25597895756E+03  0.00000000000E+00 0. -1.
         -4    1    3    3    0  502 -0.13871090843E+03 -0.37996087724E+03  0.88037467046E+02  0.41395842781E+03  0.00000000000E+00 0.  1.
         11    1    5    5    0    0  0.12225397916E+03  0.34789644442E+03  0.85957171364E+03  0.93532962230E+03  0.00000000000E+00 0. -1.
        -11    1    5    5    0    0  0.31329353155E+02  0.34598640748E+03  0.87620269943E+03  0.94255996786E+03  0.00000000000E+00 0.  1.
          3    1    6    6  503    0  0.23175375473E+02 -0.68803903965E+02 -0.52004798048E+02  0.89306070618E+02  0.00000000000E+00 0. -1.
         -3    1    6    6    0  503  0.60142040667E+02 -0.88185557363E+01  0.14470366849E+02  0.62483785878E+02  0.00000000000E+00 0.  1.
<mgrwt>
<rscale>  0 0.20301390E+04</rscale>
<asrwt>0</asrwt>
<pdfrwt beam="1">  1        1 0.34454412E+00 0.20301390E+04</pdfrwt>
<pdfrwt beam="2">  1       -2 0.70781542E-01 0.20301390E+04</pdfrwt>
<totfact> 0.30189994E+00</totfact>
</mgrwt>
</event>
<event>
12    4  0.4183215E-008  0.1804810E+04  0.7818608E-02  0.8703746E-01
          1   -1    0    0  501    0  0.00000000000E+00  0.00000000000E+00  0.64695241543E+03  0.64695241543E+03  0.00000000000E+00 0. -1.
         -2   -1    0    0    0  501 -0.00000000000E+00 -0.00000000000E+00 -0.12587249120E+04  0.12587249120E+04  0.00000000000E+00 0.  1.
        -24    2    1    2    0    0 -0.33818608942E+03  0.18031821574E+03 -0.81501437224E+03  0.90434648744E+03  0.81912467802E+02 0.  0.
        254    2    1    2    0    0  0.33818608942E+03 -0.18031821574E+03  0.20324187567E+03  0.10013308400E+04  0.90248085912E+03 0.  0.
         23    2    4    4    0    0 -0.20915161495E+03  0.19478978148E+03 -0.27705037788E+01  0.30052522839E+03  0.92845464107E+02 0.  0.
         23    2    4    4    0    0  0.54733770437E+03 -0.37510799722E+03  0.20601237945E+03  0.70080561159E+03  0.91666965451E+02 0.  0.
          1    1    3    3  502    0 -0.24458428134E+02  0.40459359516E+02 -0.77808857247E+02  0.91046102307E+02  0.00000000000E+00 0. -1.
         -2    1    3    3    0  502 -0.31372766128E+03  0.13985885623E+03 -0.73720551500E+03  0.81330038514E+03  0.00000000000E+00 0.  1.
         11    1    5    5    0    0 -0.15840561685E+03  0.16761073071E+03 -0.36972760190E+02  0.23356515471E+03  0.00000000000E+00 0.  1.
        -11    1    5    5    0    0 -0.50745998100E+02  0.27179050763E+02  0.34202256411E+02  0.66960073679E+02  0.00000000000E+00 0. -1.
          1    1    6    6  503    0  0.24035450925E+03 -0.14964998734E+03  0.42485972814E+02  0.28630484926E+03  0.00000000000E+00 0. -1.
         -1    1    6    6    0  503  0.30698319512E+03 -0.22545800988E+03  0.16352640663E+03  0.41450076233E+03  0.00000000000E+00 0.  1.
<mgrwt>
<rscale>  0 0.18048104E+04</rscale>
<asrwt>0</asrwt>
<pdfrwt beam="1">  1        1 0.99531143E-01 0.18048104E+04</pdfrwt>
<pdfrwt beam="2">  1       -2 0.19364998E+00 0.18048104E+04</pdfrwt>
<totfact> 0.37083905E+00</totfact>
</mgrwt>
</event>
<event>
12    4  0.4183215E-008  0.1787886E+04  0.7818608E-02  0.8712768E-01
         -2   -1    0    0    0  501 -0.00000000000E+00  0.00000000000E+00  0.86546617981E+03  0.86546617981E+03  0.00000000000E+00 0.  1.
          1   -1    0    0  501    0  0.00000000000E+00 -0.00000000000E+00 -0.92335646935E+03  0.92335646935E+03  0.00000000000E+00 0. -1.
        -24    2    1    2    0    0 -0.49384480144E+02  0.77748701061E+02 -0.68414688205E+03  0.69518332686E+03  0.82092717879E+02 0.  0.
        254    2    1    2    0    0  0.49384480144E+02 -0.77748701061E+02  0.62625659251E+03  0.10936393223E+04  0.89183292170E+03 0.  0.
         23    2    4    4    0    0  0.27707288601E+03  0.31736768364E+03  0.29363003323E+03  0.52172965591E+03  0.92149914085E+02 0.  0.
         23    2    4    4    0    0 -0.22768840586E+03 -0.39511638470E+03  0.33262655928E+03  0.57190966638E+03  0.92093815983E+02 0.  0.
          3    1    3    3  502    0 -0.66244140523E+02  0.78400897883E+02 -0.63448985310E+03  0.64273817424E+03  0.00000000000E+00 0. -1.
         -4    1    3    3    0  502  0.16859660379E+02 -0.65219682205E+00 -0.49657028945E+02  0.52445152611E+02  0.00000000000E+00 0.  1.
         11    1    5    5    0    0  0.13140574622E+03  0.13644405759E+03  0.78229548417E+02  0.20494953827E+03  0.00000000000E+00 0.  1.
        -11    1    5    5    0    0  0.14566713979E+03  0.18092362605E+03  0.21540048481E+03  0.31678011764E+03  0.00000000000E+00 0. -1.
          2    1    6    6  503    0 -0.15567283272E+03 -0.31145132417E+03  0.29151848677E+03  0.45411340688E+03  0.00000000000E+00 0. -1.
         -2    1    6    6    0  503 -0.72015573142E+02 -0.83665060531E+02  0.41108072502E+02  0.11779625951E+03  0.00000000000E+00 0.  1.
<mgrwt>
<rscale>  0 0.17878857E+04</rscale>
<asrwt>0</asrwt>
<pdfrwt beam="1">  1        1 0.14205484E+00 0.17878857E+04</pdfrwt>
<pdfrwt beam="2">  1       -2 0.13314864E+00 0.17878857E+04</pdfrwt>
<totfact> 0.58909449E+00</totfact>
</mgrwt>
</event>
<event>
12    4  0.4183215E-008  0.1438310E+04  0.7818608E-02  0.8926546E-01
         -2   -1    0    0    0  501 -0.00000000000E+00  0.00000000000E+00  0.18712573573E+04  0.18712573573E+04  0.00000000000E+00 0.  1.
          1   -1    0    0  501    0  0.00000000000E+00 -0.00000000000E+00 -0.27638292360E+03  0.27638292360E+03  0.00000000000E+00 0. -1.
        -24    2    1    2    0    0  0.25552031973E+03 -0.19267089002E+03  0.51073195941E+02  0.33362322684E+03  0.79267146342E+02 0.  0.
        254    2    1    2    0    0 -0.25552031973E+03  0.19267089002E+03  0.15438012377E+04  0.18140170540E+04  0.89717495788E+03 0.  0.
         23    2    4    4    0    0  0.57481606599E+02 -0.32114050130E+03  0.45749928067E+03  0.56887710782E+03  0.88770576820E+02 0.  0.
         23    2    4    4    0    0 -0.31300192633E+03  0.51381139132E+03  0.10863019571E+04  0.12451399462E+04  0.91373913218E+02 0.  0.
          3    1    3    3  502    0  0.22514285015E+03 -0.19085627412E+03  0.61428820500E+02  0.30147789360E+03  0.00000000000E+00 0. -1.
         -4    1    3    3    0  502  0.30377469581E+02 -0.18146159010E+01 -0.10355624559E+02  0.32145333239E+02  0.00000000000E+00 0.  1.
         11    1    5    5    0    0  0.61274270227E+01 -0.25150845505E+03  0.33960675843E+03  0.42264263710E+03  0.00000000000E+00 0. -1.
        -11    1    5    5    0    0  0.51354179576E+02 -0.69632046251E+02  0.11789252225E+03  0.14623447072E+03  0.00000000000E+00 0.  1.
          2    1    6    6  503    0  0.18362297432E+01  0.16322903339E+02  0.12918207158E+02  0.20897104806E+02  0.00000000000E+00 0. -1.
         -2    1    6    6    0  503 -0.31483815607E+03  0.49748848798E+03  0.10733837499E+04  0.12242428414E+04  0.00000000000E+00 0.  1.
<mgrwt>
<rscale>  0 0.14383095E+04</rscale>
<asrwt>0</asrwt>
<pdfrwt beam="1">  1        1 0.42520451E-01 0.14383095E+04</pdfrwt>
<pdfrwt beam="2">  1       -2 0.28788574E+00 0.14383095E+04</pdfrwt>
<totfact> 0.31322604E+00</totfact>
</mgrwt>
</event>
<event>
12    4  0.4183215E-008  0.2189685E+04  0.7818608E-02  0.8522734E-01
         -2   -1    0    0    0  501 -0.00000000000E+00  0.00000000000E+00  0.15602717843E+04  0.15602717843E+04  0.00000000000E+00 0.  1.
          1   -1    0    0  501    0  0.00000000000E+00 -0.00000000000E+00 -0.76825064261E+03  0.76825064261E+03  0.00000000000E+00 0. -1.
        -24    2    1    2    0    0  0.68907569399E+03 -0.13707191305E+02 -0.26797267369E+03  0.74445349273E+03  0.85956092541E+02 0.  0.
        254    2    1    2    0    0 -0.68907569399E+03  0.13707191305E+02  0.10599938154E+04  0.15840689342E+04  0.95429256545E+03 0.  0.
         23    2    4    4    0    0 -0.38945939409E+03  0.26762496892E+03  0.34686223426E+02  0.48227371386E+03  0.89905824893E+02 0.  0.
         23    2    4    4    0    0 -0.29961629991E+03 -0.25391777762E+03  0.10253075920E+04  0.11017952203E+04  0.91939569588E+02 0.  0.
          3    1    3    3  502    0  0.68682470045E+03 -0.19163951137E+02 -0.26996246758E+03  0.73822432910E+03  0.00000000000E+00 0. -1.
         -4    1    3    3    0  502  0.22509935488E+01  0.54567598317E+01  0.19897938952E+01  0.62291636327E+01  0.00000000000E+00 0.  1.
         11    1    5    5    0    0 -0.37069829785E+03  0.23491670706E+03  0.49734856758E+02  0.44167481620E+03  0.00000000000E+00 0. -1.
        -11    1    5    5    0    0 -0.18761096231E+02  0.32708261862E+02 -0.15048633332E+02  0.40598897658E+02  0.00000000000E+00 0.  1.
          1    1    6    6  503    0 -0.20570611634E+03 -0.14473862090E+03  0.54258857862E+03  0.59805237256E+03  0.00000000000E+00 0. -1.
         -1    1    6    6    0  503 -0.93910183573E+02 -0.10917915672E+03  0.48271901335E+03  0.50374284778E+03  0.00000000000E+00 0.  1.
<mgrwt>
<rscale>  0 0.21896847E+04</rscale>
<asrwt>0</asrwt>
<pdfrwt beam="1">  1        1 0.11819241E+00 0.21896847E+04</pdfrwt>
<pdfrwt beam="2">  1       -2 0.24004181E+00 0.21896847E+04</pdfrwt>
<totfact> 0.13959013E+00</totfact>
</mgrwt>
</event>
<event>
12    4  0.4183215E-008  0.1124835E+04  0.7818608E-02  0.9181319E-01
          1   -1    0    0  501    0  0.00000000000E+00  0.00000000000E+00  0.37513403899E+03  0.37513403899E+03  0.00000000000E+00 0. -1.
         -2   -1    0    0    0  501 -0.00000000000E+00 -0.00000000000E+00 -0.84320102004E+03  0.84320102004E+03  0.00000000000E+00 0.  1.
        -24    2    1    2    0    0  0.44025345321E+01 -0.16279708557E+03  0.15844650753E+02  0.18107803406E+03  0.77562414093E+02 0.  0.
        254    2    1    2    0    0 -0.44025345321E+01  0.16279708557E+03 -0.48391163180E+03  0.10372570250E+04  0.90288947003E+03 0.  0.
         23    2    4    4    0    0 -0.14389017789E+02 -0.30930342925E+03  0.41046931315E+02  0.32517802526E+03  0.90444692260E+02 0.  0.
         23    2    4    4    0    0  0.99864832568E+01  0.47210051483E+03 -0.52495856311E+03  0.71207899971E+03  0.92175826022E+02 0.  0.
          3    1    3    3  502    0  0.43762533976E+01 -0.15175591450E+03  0.37842937515E+02  0.15646436368E+03  0.00000000000E+00 0. -1.
         -4    1    3    3    0  502  0.26281134485E-01 -0.11041171068E+02 -0.21998286761E+02  0.24613670382E+02  0.00000000000E+00 0.  1.
         11    1    5    5    0    0  0.20277325586E+02 -0.20246223383E+02  0.16381324181E+02  0.33006473246E+02  0.00000000000E+00 0. -1.
        -11    1    5    5    0    0 -0.34666343375E+02 -0.28905720587E+03  0.24665607134E+02  0.29217155201E+03  0.00000000000E+00 0.  1.
          2    1    6    6  503    0 -0.10242910588E+02  0.98817922595E+02 -0.16811116089E+03  0.19527227519E+03  0.00000000000E+00 0. -1.
         -2    1    6    6    0  503  0.20229393845E+02  0.37328259223E+03 -0.35684740222E+03  0.51680672452E+03  0.00000000000E+00 0.  1.
<mgrwt>
<rscale>  0 0.11248349E+04</rscale>
<asrwt>0</asrwt>
<pdfrwt beam="1">  1        1 0.57712930E-01 0.11248349E+04</pdfrwt>
<pdfrwt beam="2">  1       -2 0.12972323E+00 0.11248349E+04</pdfrwt>
<totfact> 0.24776208E+01</totfact>
</mgrwt>
</event>
<event>
12    4  0.4183215E-008  0.1924863E+04  0.7818608E-02  0.8642579E-01
          1   -1    0    0  501    0  0.00000000000E+00  0.00000000000E+00  0.23663146787E+04  0.23663146787E+04  0.00000000000E+00 0. -1.
         -2   -1    0    0    0  501 -0.00000000000E+00 -0.00000000000E+00 -0.39144172982E+03  0.39144172982E+03  0.00000000000E+00 0.  1.
        -24    2    1    2    0    0 -0.69378538561E+03 -0.16031783477E+02  0.11749362851E+04  0.13669056468E+04  0.79753330987E+02 0.  0.
        254    2    1    2    0    0  0.69378538561E+03  0.16031783477E+02  0.79993666372E+03  0.13908507617E+04  0.90164959708E+03 0.  0.
         23    2    4    4    0    0  0.65209170932E+03 -0.35741755411E+03  0.49511776591E+03  0.89837686519E+03  0.94702082546E+02 0.  0.
         23    2    4    4    0    0  0.41693676291E+02  0.37344933759E+03  0.30481889780E+03  0.49247389648E+03  0.91723540422E+02 0.  0.
          3    1    3    3  502    0 -0.41354877595E+03  0.27984099194E+02  0.71932421531E+03  0.83020059421E+03  0.00000000000E+00 0. -1.
         -4    1    3    3    0  502 -0.28023660966E+03 -0.44015882671E+02  0.45561206981E+03  0.53670505259E+03  0.00000000000E+00 0.  1.
         11    1    5    5    0    0  0.23672113630E+03 -0.95844094640E+02  0.12976135664E+03  0.28646290602E+03  0.00000000000E+00 0. -1.
        -11    1    5    5    0    0  0.41537057302E+03 -0.26157345947E+03  0.36535640928E+03  0.61191395917E+03  0.00000000000E+00 0.  1.
          1    1    6    6  503    0 -0.24021867128E+02  0.12593309658E+03  0.12876113399E+03  0.18170202128E+03  0.00000000000E+00 0. -1.
         -1    1    6    6    0  503  0.65715543419E+02  0.24751624101E+03  0.17605776382E+03  0.31077187519E+03  0.00000000000E+00 0.  1.
<mgrwt>
<rscale>  0 0.19248629E+04</rscale>
<asrwt>0</asrwt>
<pdfrwt beam="1">  1        1 0.36404840E+00 0.19248629E+04</pdfrwt>
<pdfrwt beam="2">  1       -2 0.60221806E-01 0.19248629E+04</pdfrwt>
<totfact> 0.35332064E+00</totfact>
</mgrwt>
</event>
<event>
12    4  0.4183215E-008  0.2200568E+04  0.7818608E-02  0.8518192E-01
          1   -1    0    0  501    0  0.00000000000E+00  0.00000000000E+00  0.74917471413E+03  0.74917471413E+03  0.00000000000E+00 0. -1.
         -2   -1    0    0    0  501 -0.00000000000E+00 -0.00000000000E+00 -0.16159447963E+04  0.16159447963E+04  0.00000000000E+00 0.  1.
        -24    2    1    2    0    0  0.77725859852E+03  0.46015048736E+03 -0.28578840872E+03  0.95073047478E+03  0.79649363582E+02 0.  0.
        254    2    1    2    0    0 -0.77725859852E+03 -0.46015048736E+03 -0.58098167350E+03  0.14143890357E+04  0.92037342386E+03 0.  0.
         23    2    4    4    0    0  0.17874500080E+03 -0.22404730441E+03 -0.14654651219E+03  0.33437747560E+03  0.90473454853E+02 0.  0.
         23    2    4    4    0    0 -0.95600359932E+03 -0.23610318295E+03 -0.43443516132E+03  0.10800115601E+04  0.89462090518E+02 0.  0.
          1    1    3    3  502    0  0.68642163661E+03  0.41560166799E+03 -0.22790820539E+03  0.83417118131E+03  0.00000000000E+00 0. -1.
         -2    1    3    3    0  502  0.90836961908E+02  0.44548819369E+02 -0.57880203324E+02  0.11655929346E+03  0.00000000000E+00 0.  1.
         11    1    5    5    0    0  0.14104956325E+03 -0.10919711945E+03 -0.72004401439E+02  0.19236326057E+03  0.00000000000E+00 0.  1.
        -11    1    5    5    0    0  0.37695437543E+02 -0.11485018496E+03 -0.74542110747E+02  0.14201421503E+03  0.00000000000E+00 0. -1.
          1    1    6    6  503    0 -0.88441547416E+03 -0.21276503732E+03 -0.42530635471E+03  0.10041639246E+04  0.00000000000E+00 0.  1.
         -1    1    6    6    0  503 -0.71588125159E+02 -0.23338145637E+02 -0.91288066030E+01  0.75847635531E+02  0.00000000000E+00 0. -1.
<mgrwt>
<rscale>  0 0.22005681E+04</rscale>
<asrwt>0</asrwt>
<pdfrwt beam="1">  1        1 0.11525765E+00 0.22005681E+04</pdfrwt>
<pdfrwt beam="2">  1       -2 0.24860689E+00 0.22005681E+04</pdfrwt>
<totfact> 0.12844976E+00</totfact>
</mgrwt>
</event>
<event>
12    4  0.4183215E-008  0.1867252E+04  0.7818608E-02  0.8671331E-01
          1   -1    0    0  501    0  0.00000000000E+00  0.00000000000E+00  0.14271026447E+04  0.14271026447E+04  0.00000000000E+00 0. -1.
         -2   -1    0    0    0  501 -0.00000000000E+00 -0.00000000000E+00 -0.61078799094E+03  0.61078799094E+03  0.00000000000E+00 0.  1.
        -24    2    1    2    0    0 -0.35515616902E+03 -0.62761372205E+02  0.98764224140E+03  0.10544495296E+04  0.79697674337E+02 0.  0.
        254    2    1    2    0    0  0.35515616902E+03  0.62761372205E+02 -0.17132758769E+03  0.98344110597E+03  0.89873709858E+03 0.  0.
         23    2    4    4    0    0  0.18525581445E+03 -0.40926916785E+03 -0.94048742847E+02  0.46782182443E+03  0.90504833262E+02 0.  0.
         23    2    4    4    0    0  0.16990035457E+03  0.47203054006E+03 -0.77278844847E+02  0.51561928153E+03  0.90621533873E+02 0.  0.
          3    1    3    3  502    0 -0.36235695071E+02  0.55563690814E+01  0.17499723061E+03  0.17879577611E+03  0.00000000000E+00 0. -1.
         -4    1    3    3    0  502 -0.31892047395E+03 -0.68317741286E+02  0.81264501080E+03  0.87565375352E+03  0.00000000000E+00 0.  1.
         11    1    5    5    0    0  0.85583659621E+02 -0.97985911800E+02 -0.10869261832E+02  0.13055245137E+03  0.00000000000E+00 0. -1.
        -11    1    5    5    0    0  0.99672154830E+02 -0.31128325605E+03 -0.83179481015E+02  0.33726937307E+03  0.00000000000E+00 0.  1.
          2    1    6    6  503    0  0.32543047710E+02  0.23081483362E+02 -0.56374424565E+00  0.39901411454E+02  0.00000000000E+00 0. -1.
         -2    1    6    6    0  503  0.13735730686E+03  0.44894905669E+03 -0.76715100601E+02  0.47571787008E+03  0.00000000000E+00 0.  1.
<mgrwt>
<rscale>  0 0.18672516E+04</rscale>
<asrwt>0</asrwt>
<pdfrwt beam="1">  1        1 0.21955425E+00 0.18672516E+04</pdfrwt>
<pdfrwt beam="2">  1       -2 0.93967384E-01 0.18672516E+04</pdfrwt>
<totfact> 0.57887349E+00</totfact>
</mgrwt>
</event>
<event>
12    4  0.4183215E-008  0.2288295E+04  0.7818608E-02  0.8482550E-01
          1   -1    0    0  501    0  0.00000000000E+00  0.00000000000E+00  0.21269086267E+04  0.21269086267E+04  0.00000000000E+00 0. -1.
         -2   -1    0    0    0  501 -0.00000000000E+00 -0.00000000000E+00 -0.61548200229E+03  0.61548200229E+03  0.00000000000E+00 0.  1.
        -24    2    1    2    0    0  0.13409112962E+03 -0.89351928839E+03  0.10501982257E+04  0.13878349473E+04  0.82537131398E+02 0.  0.
        254    2    1    2    0    0 -0.13409112962E+03  0.89351928839E+03  0.46122839878E+03  0.13545556817E+04  0.89762592944E+03 0.  0.
         23    2    4    4    0    0 -0.40920207276E+03  0.21097414839E+03  0.39148789012E+03  0.61111159231E+03  0.90764434097E+02 0.  0.
         23    2    4    4    0    0  0.27511094314E+03  0.68254514000E+03  0.69740508661E+02  0.74344408939E+03  0.79318827142E+02 0.  0.
          1    1    3    3  502    0  0.15464745594E+02 -0.13559718709E+03  0.20633628042E+03  0.24738717857E+03  0.00000000000E+00 0. -1.
         -2    1    3    3    0  502  0.11862638403E+03 -0.75792210130E+03  0.84386194523E+03  0.11404477687E+04  0.00000000000E+00 0.  1.
         11    1    5    5    0    0 -0.39471365477E+03  0.18352512201E+03  0.34605358956E+03  0.55608760687E+03  0.00000000000E+00 0. -1.
        -11    1    5    5    0    0 -0.14488417990E+02  0.27449026382E+02  0.45434300566E+02  0.55023985434E+02  0.00000000000E+00 0.  1.
          1    1    6    6  503    0  0.25169965122E+03  0.64283950446E+03  0.83377273652E+02  0.69537551918E+03  0.00000000000E+00 0. -1.
         -1    1    6    6    0  503  0.23411291919E+02  0.39705635540E+02 -0.13636764991E+02  0.48068570214E+02  0.00000000000E+00 0.  1.
<mgrwt>
<rscale>  0 0.22882954E+04</rscale>
<asrwt>0</asrwt>
<pdfrwt beam="1">  1        1 0.32721671E+00 0.22882954E+04</pdfrwt>
<pdfrwt beam="2">  1       -2 0.94689540E-01 0.22882954E+04</pdfrwt>
<totfact> 0.18240359E+00</totfact>
</mgrwt>
</event>
<event>
12    4  0.4183215E-008  0.2604099E+04  0.7818608E-02  0.8366810E-01
         -2   -1    0    0    0  501 -0.00000000000E+00  0.00000000000E+00  0.13759139565E+04  0.13759139565E+04  0.00000000000E+00 0.  1.
          1   -1    0    0  501    0  0.00000000000E+00 -0.00000000000E+00 -0.12321506234E+04  0.12321506234E+04  0.00000000000E+00 0. -1.
        -24    2    1    2    0    0  0.42364471102E+03 -0.68069189731E+02  0.11328653072E+04  0.12137951612E+04  0.76201269267E+02 0.  0.
        254    2    1    2    0    0 -0.42364471102E+03  0.68069189731E+02 -0.98910197409E+03  0.13942694187E+04  0.88405669559E+03 0.  0.
         23    2    4    4    0    0  0.26043561777E+03  0.79760208860E+02 -0.37117768657E+03  0.46830838453E+03  0.85740690951E+02 0.  0.
         23    2    4    4    0    0 -0.68408032880E+03 -0.11691019129E+02 -0.61792428752E+03  0.92596103418E+03  0.86433995264E+02 0.  0.
          1    1    3    3  502    0  0.33933640253E+03 -0.23514685744E+02  0.90255349019E+03  0.96452316570E+03  0.00000000000E+00 0. -1.
         -2    1    3    3    0  502  0.84308308498E+02 -0.44554503987E+02  0.23031181702E+03  0.24927199555E+03  0.00000000000E+00 0.  1.
         11    1    5    5    0    0  0.10031792236E+03  0.10448802285E+02 -0.19942856317E+03  0.22348291841E+03  0.00000000000E+00 0.  1.
        -11    1    5    5    0    0  0.16011769541E+03  0.69311406575E+02 -0.17174912340E+03  0.24482546611E+03  0.00000000000E+00 0. -1.
          3    1    6    6  503    0  0.13554726920E+01 -0.37511131622E+01 -0.22376238907E+01  0.45733048062E+01  0.00000000000E+00 0. -1.
         -3    1    6    6    0  503 -0.68543580149E+03 -0.79399059671E+01 -0.61568666363E+03  0.92138772937E+03  0.00000000000E+00 0.  1.
<mgrwt>
<rscale>  0 0.26040993E+04</rscale>
<asrwt>0</asrwt>
<pdfrwt beam="1">  1        1 0.18956164E+00 0.26040993E+04</pdfrwt>
<pdfrwt beam="2">  1       -2 0.21167907E+00 0.26040993E+04</pdfrwt>
<totfact> 0.87369414E-01</totfact>
</mgrwt>
</event>
<event>
12    4  0.4183215E-008  0.3500986E+04  0.7818608E-02  0.8113556E-01
          3   -1    0    0  501    0  0.00000000000E+00  0.00000000000E+00  0.15733302298E+04  0.15733302298E+04  0.00000000000E+00 0. -1.
         -4   -1    0    0    0  501 -0.00000000000E+00 -0.00000000000E+00 -0.19476046055E+04  0.19476046055E+04  0.00000000000E+00 0.  1.
        -24    2    1    2    0    0 -0.73227632849E+03 -0.83949758023E+03 -0.13759847218E+04  0.17725592344E+04  0.87449848985E+02 0.  0.
        254    2    1    2    0    0  0.73227632849E+03  0.83949758023E+03  0.10017103462E+04  0.17483756010E+04  0.90133723767E+03 0.  0.
         23    2    4    4    0    0  0.53658911800E+03  0.43792514428E+03  0.59133216903E+02  0.70131321325E+03  0.92936387821E+02 0.  0.
         23    2    4    4    0    0  0.19568721048E+03  0.40157243596E+03  0.94257712926E+03  0.10470623877E+04  0.91291256598E+02 0.  0.
          1    1    3    3  502    0 -0.16300670808E+02 -0.45183311756E+02 -0.61119795132E+02  0.77735917612E+02  0.00000000000E+00 0. -1.
         -2    1    3    3    0  502 -0.71597565768E+03 -0.79431426848E+03 -0.13148649267E+04  0.16948233167E+04  0.00000000000E+00 0.  1.
         11    1    5    5    0    0  0.52597888552E+03  0.43633650177E+03  0.68815532674E+02  0.68686163696E+03  0.00000000000E+00 0.  1.
        -11    1    5    5    0    0  0.10610232483E+02  0.15886425019E+01 -0.96823157711E+01  0.14451576282E+02  0.00000000000E+00 0. -1.
          3    1    6    6  503    0  0.92768950910E+02  0.14677567194E+03  0.27614590611E+03  0.32619892334E+03  0.00000000000E+00 0. -1.
         -3    1    6    6    0  503  0.10291825957E+03  0.25479676402E+03  0.66643122315E+03  0.72086346439E+03  0.00000000000E+00 0.  1.
<mgrwt>
<rscale>  0 0.35009857E+04</rscale>
<asrwt>0</asrwt>
<pdfrwt beam="1">  1        3 0.24205080E+00 0.35009857E+04</pdfrwt>
<pdfrwt beam="2">  1       -4 0.29963148E+00 0.35009857E+04</pdfrwt>
<totfact> 0.47262569E-03</totfact>
</mgrwt>
</event>
<event>
12    4  0.4183215E-008  0.2106094E+04  0.7818608E-02  0.8558564E-01
          1   -1    0    0  501    0  0.00000000000E+00  0.00000000000E+00  0.16820108405E+04  0.16820108405E+04  0.00000000000E+00 0. -1.
         -2   -1    0    0    0  501 -0.00000000000E+00 -0.00000000000E+00 -0.65927499022E+03  0.65927499022E+03  0.00000000000E+00 0.  1.
        -24    2    1    2    0    0 -0.35589735599E+03  0.72948764609E+03  0.10703190561E+03  0.82256471992E+03  0.79635016445E+02 0.  0.
        254    2    1    2    0    0  0.35589735599E+03 -0.72948764609E+03  0.91570394469E+03  0.15187211108E+04  0.89954707736E+03 0.  0.
         23    2    4    4    0    0  0.24337448301E+03 -0.90410676694E+03  0.88305945910E+03  0.12901551230E+04  0.89811180916E+02 0.  0.
         23    2    4    4    0    0  0.11252287298E+03  0.17461912085E+03  0.32644485588E+02  0.22856598778E+03  0.89574070028E+02 0.  0.
          1    1    3    3  502    0 -0.34650210316E+03  0.72009932865E+03  0.11455877904E+03  0.80729825001E+03  0.00000000000E+00 0. -1.
         -2    1    3    3    0  502 -0.93952528219E+01  0.93883174391E+01 -0.75268734227E+01  0.15266469908E+02  0.00000000000E+00 0.  1.
         11    1    5    5    0    0  0.21634452300E+03 -0.70380765581E+03  0.72771706542E+03  0.10352402119E+04  0.00000000000E+00 0. -1.
        -11    1    5    5    0    0  0.27029960007E+02 -0.20029911112E+03  0.15534239368E+03  0.25491491115E+03  0.00000000000E+00 0.  1.
          4    1    6    6  503    0  0.91754511287E+02  0.15869281136E+03  0.57859217681E+02  0.19222379610E+03  0.00000000000E+00 0. -1.
         -4    1    6    6    0  503  0.20768361690E+02  0.15926309495E+02 -0.25214732094E+02  0.36342191678E+02  0.00000000000E+00 0.  1.
<mgrwt>
<rscale>  0 0.21060937E+04</rscale>
<asrwt>0</asrwt>
<pdfrwt beam="1">  1        1 0.25877090E+00 0.21060937E+04</pdfrwt>
<pdfrwt beam="2">  1       -2 0.10142692E+00 0.21060937E+04</pdfrwt>
<totfact> 0.31600594E+00</totfact>
</mgrwt>
</event>
<event>
12    4  0.4183215E-008  0.1705339E+04  0.7818608E-02  0.8758325E-01
          1   -1    0    0  501    0  0.00000000000E+00  0.00000000000E+00  0.30884448098E+04  0.30884448098E+04  0.00000000000E+00 0. -1.
         -2   -1    0    0    0  501 -0.00000000000E+00 -0.00000000000E+00 -0.23540834077E+03  0.23540834077E+03  0.00000000000E+00 0.  1.
        -24    2    1    2    0    0 -0.84872534040E+02 -0.18087492203E+03 -0.90579734590E+02  0.23727322231E+03  0.90414651760E+02 0.  0.
        254    2    1    2    0    0  0.84872534040E+02  0.18087492203E+03  0.29436162037E+04  0.30865799283E+04  0.90674153694E+03 0.  0.
         23    2    4    4    0    0  0.14292161106E+03  0.13045268489E+03  0.93739297210E+02  0.23412271900E+03  0.92638554641E+02 0.  0.
         23    2    4    4    0    0 -0.58049077017E+02  0.50422237144E+02  0.28498769064E+04  0.28524572093E+04  0.93817117806E+02 0.  0.
          1    1    3    3  502    0 -0.33085081427E+02 -0.63719551090E+01  0.57743413445E+00  0.33698039337E+02  0.00000000000E+00 0. -1.
         -2    1    3    3    0  502 -0.51787452613E+02 -0.17450296692E+03 -0.91157168725E+02  0.20357518298E+03  0.00000000000E+00 0.  1.
         11    1    5    5    0    0  0.74338852183E+02  0.12503601977E+03  0.58058113212E+02  0.15662380308E+03  0.00000000000E+00 0.  1.
        -11    1    5    5    0    0  0.68582758874E+02  0.54166651239E+01  0.35681183998E+02  0.77498915911E+02  0.00000000000E+00 0. -1.
          4    1    6    6  503    0 -0.14182886532E+02  0.14267692003E+02  0.22018293905E+04  0.22019212943E+04  0.00000000000E+00 0.  1.
         -4    1    6    6    0  503 -0.43866190485E+02  0.36154545141E+02  0.64804751592E+03  0.65053591499E+03  0.00000000000E+00 0. -1.
<mgrwt>
<rscale>  0 0.17053395E+04</rscale>
<asrwt>0</asrwt>
<pdfrwt beam="1">  1        1 0.47514533E+00 0.17053395E+04</pdfrwt>
<pdfrwt beam="2">  1       -2 0.36216670E-01 0.17053395E+04</pdfrwt>
<totfact> 0.30987332E+00</totfact>
</mgrwt>
</event>
<event>
12    4  0.4183215E-008  0.2435134E+04  0.7818608E-02  0.8426466E-01
         -2   -1    0    0    0  501 -0.00000000000E+00  0.00000000000E+00  0.24472706143E+04  0.24472706143E+04  0.00000000000E+00 0.  1.
          1   -1    0    0  501    0  0.00000000000E+00 -0.00000000000E+00 -0.60576452870E+03  0.60576452870E+03  0.00000000000E+00 0. -1.
        -24    2    1    2    0    0 -0.75780087173E+02 -0.24507496394E+02  0.21041420664E+04  0.21070004187E+04  0.75456543612E+02 0.  0.
        254    2    1    2    0    0  0.75780087173E+02  0.24507496394E+02 -0.26263598079E+03  0.94603472427E+03  0.90535120374E+03 0.  0.
         23    2    4    4    0    0 -0.19690122265E+03 -0.12916090845E+03 -0.48844170872E+03  0.54972513355E+03  0.90386878959E+02 0.  0.
         23    2    4    4    0    0  0.27268130982E+03  0.15366840484E+03  0.22580572793E+03  0.39630959072E+03  0.90022161466E+02 0.  0.
          3    1    3    3  502    0 -0.18010082321E+02 -0.99245373202E+01  0.10633611428E+03  0.10830618037E+03  0.00000000000E+00 0. -1.
         -4    1    3    3    0  502 -0.57770004852E+02 -0.14582959074E+02  0.19978059521E+04  0.19986942384E+04  0.00000000000E+00 0.  1.
         11    1    5    5    0    0 -0.14622717880E+03 -0.43244408010E+02 -0.29546439593E+03  0.33249312159E+03  0.00000000000E+00 0. -1.
        -11    1    5    5    0    0 -0.50674043848E+02 -0.85916500440E+02 -0.19297731279E+03  0.21723201196E+03  0.00000000000E+00 0.  1.
          2    1    6    6  503    0  0.23159656072E+03  0.88017207689E+02  0.16265335569E+03  0.29637832226E+03  0.00000000000E+00 0. -1.
         -2    1    6    6    0  503  0.41084749103E+02  0.65651197155E+02  0.63152372241E+02  0.99931268462E+02  0.00000000000E+00 0.  1.
<mgrwt>
<rscale>  0 0.24351343E+04</rscale>
<asrwt>0</asrwt>
<pdfrwt beam="1">  1        1 0.93194544E-01 0.24351343E+04</pdfrwt>
<pdfrwt beam="2">  1       -2 0.37650317E+00 0.24351343E+04</pdfrwt>
<totfact> 0.27906877E-01</totfact>
</mgrwt>
</event>
<event>
12    4  0.4183215E-008  0.1739510E+04  0.7818608E-02  0.8739146E-01
         -2   -1    0    0    0  501 -0.00000000000E+00  0.00000000000E+00  0.10915792808E+04  0.10915792808E+04  0.00000000000E+00 0.  1.
          1   -1    0    0  501    0  0.00000000000E+00 -0.00000000000E+00 -0.69300881657E+03  0.69300881657E+03  0.00000000000E+00 0. -1.
        -24    2    1    2    0    0 -0.32511252203E+03 -0.21338179912E+03  0.54037666560E+03  0.67095614239E+03  0.83338227141E+02 0.  0.
        254    2    1    2    0    0  0.32511252203E+03  0.21338179912E+03 -0.14180620141E+03  0.11136319549E+04  0.10338458242E+04 0.  0.
         23    2    4    4    0    0  0.50409315492E+03  0.43261198020E+03 -0.34430539708E+03  0.75380061165E+03  0.91684902851E+02 0.  0.
         23    2    4    4    0    0 -0.17898063289E+03 -0.21923018108E+03  0.20249919567E+03  0.35983134329E+03  0.91524489220E+02 0.  0.
          3    1    3    3  502    0 -0.24270340568E+01 -0.20787211178E+02  0.19013062400E+02  0.28275345882E+02  0.00000000000E+00 0. -1.
         -4    1    3    3    0  502 -0.32268548798E+03 -0.19259458795E+03  0.52136360320E+03  0.64268079651E+03  0.00000000000E+00 0.  1.
         11    1    5    5    0    0  0.55475306850E+02  0.90974973594E+02 -0.49398109455E+02  0.11744840871E+03  0.00000000000E+00 0.  1.
        -11    1    5    5    0    0  0.44861784807E+03  0.34163700661E+03 -0.29490728762E+03  0.63635220294E+03  0.00000000000E+00 0. -1.
          1    1    6    6  503    0 -0.15001521550E+03 -0.15584217920E+03  0.19223254490E+03  0.28938676718E+03  0.00000000000E+00 0. -1.
         -1    1    6    6    0  503 -0.28965417389E+02 -0.63388001876E+02  0.10266650771E+02  0.70444576118E+02  0.00000000000E+00 0.  1.
<mgrwt>
<rscale>  0 0.17395104E+04</rscale>
<asrwt>0</asrwt>
<pdfrwt beam="1">  1        1 0.10661674E+00 0.17395104E+04</pdfrwt>
<pdfrwt beam="2">  1       -2 0.16793527E+00 0.17395104E+04</pdfrwt>
<totfact> 0.50626256E+00</totfact>
</mgrwt>
</event>
<event>
12    4  0.4183215E-008  0.1544524E+04  0.7818608E-02  0.8855373E-01
         -2   -1    0    0    0  501 -0.00000000000E+00  0.00000000000E+00  0.18607941829E+04  0.18607941829E+04  0.00000000000E+00 0.  1.
          1   -1    0    0  501    0  0.00000000000E+00 -0.00000000000E+00 -0.32050209598E+03  0.32050209598E+03  0.00000000000E+00 0. -1.
        -24    2    1    2    0    0  0.13220323648E+03  0.37803565836E+03  0.94625589312E+03  0.10307285877E+04  0.81317596122E+02 0.  0.
        254    2    1    2    0    0 -0.13220323648E+03 -0.37803565836E+03  0.59403619375E+03  0.11505676912E+04  0.90029903796E+03 0.  0.
         23    2    4    4    0    0 -0.66520538605E+02 -0.25916723419E+03  0.82222381104E+03  0.86932901837E+03  0.89935028796E+02 0.  0.
         23    2    4    4    0    0 -0.65682697877E+02 -0.11886842417E+03 -0.22818761730E+03  0.28123867280E+03  0.92637375428E+02 0.  0.
          1    1    3    3  502    0  0.90577311094E+01  0.70021420208E+02  0.10597792887E+03  0.12734348506E+03  0.00000000000E+00 0. -1.
         -2    1    3    3    0  502  0.12314550537E+03  0.30801423815E+03  0.84027796425E+03  0.90338510260E+03  0.00000000000E+00 0.  1.
         11    1    5    5    0    0 -0.62169026307E+02 -0.74310848620E+02  0.25897467098E+03  0.27650491906E+03  0.00000000000E+00 0.  1.
        -11    1    5    5    0    0 -0.43515122983E+01 -0.18485638557E+03  0.56324914007E+03  0.59282409932E+03  0.00000000000E+00 0. -1.
          3    1    6    6  503    0 -0.59372970132E+02 -0.16250921882E+02 -0.87912181072E+02  0.10732098409E+03  0.00000000000E+00 0. -1.
         -3    1    6    6    0  503 -0.63097277452E+01 -0.10261750229E+03 -0.14027543622E+03  0.17391768871E+03  0.00000000000E+00 0.  1.
<mgrwt>
<rscale>  0 0.15445238E+04</rscale>
<asrwt>0</asrwt>
<pdfrwt beam="1">  1        1 0.49308016E-01 0.15445238E+04</pdfrwt>
<pdfrwt beam="2">  1       -2 0.28627602E+00 0.15445238E+04</pdfrwt>
<totfact> 0.26169116E+00</totfact>
</mgrwt>
</event>
<event>
12    4  0.4183215E-008  0.2047790E+04  0.7818608E-02  0.8584598E-01
         -2   -1    0    0    0  501 -0.00000000000E+00  0.00000000000E+00  0.10013914714E+04  0.10013914714E+04  0.00000000000E+00 0.  1.
          1   -1    0    0  501    0  0.00000000000E+00 -0.00000000000E+00 -0.10469038210E+04  0.10469038210E+04  0.00000000000E+00 0. -1.
        -24    2    1    2    0    0 -0.18088072016E+03  0.71406051369E+03 -0.38345708449E+03  0.83427969794E+03  0.79893845912E+02 0.  0.
        254    2    1    2    0    0  0.18088072016E+03 -0.71406051369E+03  0.33794473496E+03  0.12140155945E+04  0.90389544064E+03 0.  0.
         23    2    4    4    0    0  0.16008856322E+03 -0.32477830916E+02  0.47668284491E+03  0.51221690422E+03  0.91959038471E+02 0.  0.
         23    2    4    4    0    0  0.20792156937E+02 -0.68158268277E+03 -0.13873810995E+03  0.70179869026E+03  0.91026761210E+02 0.  0.
          3    1    3    3  502    0 -0.95340904771E+02  0.45877093356E+03 -0.20625107371E+03  0.51195718865E+03  0.00000000000E+00 0. -1.
         -4    1    3    3    0  502 -0.85539815386E+02  0.25528958013E+03 -0.17720601079E+03  0.32232250929E+03  0.00000000000E+00 0.  1.
         11    1    5    5    0    0  0.12572028716E+03  0.34868091880E+00  0.24133412204E+03  0.27211738394E+03  0.00000000000E+00 0.  1.
        -11    1    5    5    0    0  0.34368276058E+02 -0.32826511835E+02  0.23534872287E+03  0.24009952027E+03  0.00000000000E+00 0. -1.
          1    1    6    6  503    0  0.41828824461E+02 -0.17054837557E+03 -0.51016343764E+02  0.18286351822E+03  0.00000000000E+00 0. -1.
         -1    1    6    6    0  503 -0.21036667523E+02 -0.51103430720E+03 -0.87721766184E+02  0.51893517204E+03  0.00000000000E+00 0.  1.
<mgrwt>
<rscale>  0 0.20477896E+04</rscale>
<asrwt>0</asrwt>
<pdfrwt beam="1">  1        1 0.16106213E+00 0.20477896E+04</pdfrwt>
<pdfrwt beam="2">  1       -2 0.15406023E+00 0.20477896E+04</pdfrwt>
<totfact> 0.31449603E+00</totfact>
</mgrwt>
</event>
<event>
12    4  0.4183215E-008  0.2350754E+04  0.7818608E-02  0.8458174E-01
         -2   -1    0    0    0  501 -0.00000000000E+00  0.00000000000E+00  0.55748343400E+03  0.55748343400E+03  0.00000000000E+00 0.  1.
          1   -1    0    0  501    0  0.00000000000E+00 -0.00000000000E+00 -0.24781199858E+04  0.24781199858E+04  0.00000000000E+00 0. -1.
        -24    2    1    2    0    0  0.57135468716E+03  0.34891882346E+03 -0.17777920656E+04  0.19012981129E+04  0.78736026180E+02 0.  0.
        254    2    1    2    0    0 -0.57135468716E+03 -0.34891882346E+03 -0.14284448624E+03  0.11343053069E+04  0.90446307725E+03 0.  0.
         23    2    4    4    0    0 -0.78411093077E+03 -0.34902371465E+03 -0.21967331857E+03  0.89052334702E+03  0.90155197026E+02 0.  0.
         23    2    4    4    0    0  0.21275624361E+03  0.10489119158E+00  0.76828832332E+02  0.24378195988E+03  0.90894137814E+02 0.  0.
          3    1    3    3  502    0  0.54854620899E+03  0.33795567271E+03 -0.16563749770E+04  0.17772717982E+04  0.00000000000E+00 0. -1.
         -4    1    3    3    0  502  0.22808478176E+02  0.10963150741E+02 -0.12141708859E+03  0.12402631476E+03  0.00000000000E+00 0.  1.
         11    1    5    5    0    0 -0.44351159672E+01 -0.25177154948E+01  0.60997176360E+01  0.79508301576E+01  0.00000000000E+00 0. -1.
        -11    1    5    5    0    0 -0.77967581481E+03 -0.34650599915E+03 -0.22577303621E+03  0.88257251686E+03  0.00000000000E+00 0.  1.
          3    1    6    6  503    0  0.44953405772E+02 -0.32781461292E+02  0.40901560645E+02  0.69053389187E+02  0.00000000000E+00 0. -1.
         -3    1    6    6    0  503  0.16780283784E+03  0.32886352484E+02  0.35927271687E+02  0.17472857069E+03  0.00000000000E+00 0.  1.
<mgrwt>
<rscale>  0 0.23507538E+04</rscale>
<asrwt>0</asrwt>
<pdfrwt beam="1">  1        1 0.38124923E+00 0.23507538E+04</pdfrwt>
<pdfrwt beam="2">  1       -2 0.85766682E-01 0.23507538E+04</pdfrwt>
<totfact> 0.13098025E+00</totfact>
</mgrwt>
</event>
<event>
12    4  0.4183215E-008  0.1708408E+04  0.7818608E-02  0.8756584E-01
         -2   -1    0    0    0  501 -0.00000000000E+00  0.00000000000E+00  0.98997554692E+03  0.98997554692E+03  0.00000000000E+00 0.  1.
          1   -1    0    0  501    0  0.00000000000E+00 -0.00000000000E+00 -0.73705275466E+03  0.73705275466E+03  0.00000000000E+00 0. -1.
        -24    2    1    2    0    0 -0.56693337242E+03  0.59880790419E+02  0.31071212076E+03  0.65411525579E+03  0.79533565481E+02 0.  0.
        254    2    1    2    0    0  0.56693337242E+03 -0.59880790419E+02 -0.57789328492E+02  0.10729130458E+04  0.90708524380E+03 0.  0.
         23    2    4    4    0    0  0.27591689899E+03 -0.20746758093E+03  0.37877084781E+03  0.52042914723E+03  0.90588133042E+02 0.  0.
         23    2    4    4    0    0  0.29101647344E+03  0.14758679051E+03 -0.43656017631E+03  0.55248389857E+03  0.90450108330E+02 0.  0.
          3    1    3    3  502    0 -0.27386173456E+02  0.17895420283E+02  0.67057383841E+01  0.33394842281E+02  0.00000000000E+00 0. -1.
         -4    1    3    3    0  502 -0.53954719897E+03  0.41985370136E+02  0.30400638237E+03  0.62072041351E+03  0.00000000000E+00 0.  1.
         11    1    5    5    0    0  0.12273713083E+03 -0.12864096866E+03  0.14160580140E+03  0.22729959325E+03  0.00000000000E+00 0. -1.
        -11    1    5    5    0    0  0.15317976816E+03 -0.78826612270E+02  0.23716504641E+03  0.29312955398E+03  0.00000000000E+00 0.  1.
          3    1    6    6  503    0  0.44113167359E+02  0.61825388436E+02 -0.11929476946E+03  0.14141991447E+03  0.00000000000E+00 0. -1.
         -3    1    6    6    0  503  0.24690330608E+03  0.85761402075E+02 -0.31726540685E+03  0.41106398410E+03  0.00000000000E+00 0.  1.
<mgrwt>
<rscale>  0 0.17084077E+04</rscale>
<asrwt>0</asrwt>
<pdfrwt beam="1">  1        1 0.11339273E+00 0.17084077E+04</pdfrwt>
<pdfrwt beam="2">  1       -2 0.15230393E+00 0.17084077E+04</pdfrwt>
<totfact> 0.60271764E+00</totfact>
</mgrwt>
</event>
<event>
12    4  0.4183215E-008  0.3315950E+04  0.7818608E-02  0.8158849E-01
         -2   -1    0    0    0  501 -0.00000000000E+00  0.00000000000E+00  0.34340200587E+04  0.34340200587E+04  0.00000000000E+00 0.  1.
          1   -1    0    0  501    0  0.00000000000E+00 -0.00000000000E+00 -0.80048474097E+03  0.80048474097E+03  0.00000000000E+00 0. -1.
        -24    2    1    2    0    0 -0.10557489185E+04 -0.99671471605E+03  0.18552158717E+04  0.23572420620E+04  0.81964652254E+02 0.  0.
        254    2    1    2    0    0  0.10557489185E+04  0.99671471605E+03  0.77831944602E+03  0.18772627376E+04  0.90016010907E+03 0.  0.
         23    2    4    4    0    0  0.47668948662E+03  0.36063428075E+03  0.81090250381E+03  0.10115596808E+04  0.91652419752E+02 0.  0.
         23    2    4    4    0    0  0.57905943188E+03  0.63608043530E+03 -0.32583057797E+02  0.86570305682E+03  0.92043365391E+02 0.  0.
          3    1    3    3  502    0 -0.10292038487E+04 -0.98242971188E+03  0.18292786413E+04  0.23174747137E+04  0.00000000000E+00 0. -1.
         -4    1    3    3    0  502 -0.26545069781E+02 -0.14285004173E+02  0.25937230453E+02  0.39767348384E+02  0.00000000000E+00 0.  1.
         11    1    5    5    0    0  0.11314836578E+03  0.91858630350E+02  0.26793133332E+03  0.30500452460E+03  0.00000000000E+00 0. -1.
        -11    1    5    5    0    0  0.36354112084E+03  0.26877565040E+03  0.54297117049E+03  0.70655515622E+03  0.00000000000E+00 0.  1.
          1    1    6    6  503    0  0.36893710130E+03  0.42738776398E+03 -0.62484992714E+02  0.56804864213E+03  0.00000000000E+00 0. -1.
         -1    1    6    6    0  503  0.21012233058E+03  0.20869267132E+03  0.29901934916E+02  0.29765441469E+03  0.00000000000E+00 0.  1.
<mgrwt>
<rscale>  0 0.33159497E+04</rscale>
<asrwt>0</asrwt>
<pdfrwt beam="1">  1        1 0.12315150E+00 0.33159497E+04</pdfrwt>
<pdfrwt beam="2">  1       -2 0.52831077E+00 0.33159497E+04</pdfrwt>
<totfact> 0.17900350E-02</totfact>
</mgrwt>
</event>
<event>
12    4  0.4183215E-008  0.1546093E+04  0.7818608E-02  0.8854367E-01
          1   -1    0    0  501    0  0.00000000000E+00  0.00000000000E+00  0.80103425468E+03  0.80103425468E+03  0.00000000000E+00 0. -1.
         -2   -1    0    0    0  501 -0.00000000000E+00 -0.00000000000E+00 -0.74603697566E+03  0.74603697566E+03  0.00000000000E+00 0.  1.
        -24    2    1    2    0    0 -0.27030513268E+03  0.26450810509E+03  0.38282730209E+03  0.54373762103E+03  0.77874610017E+02 0.  0.
        254    2    1    2    0    0  0.27030513268E+03 -0.26450810509E+03 -0.32783002307E+03  0.10033336093E+04  0.86958404143E+03 0.  0.
         23    2    4    4    0    0  0.18576205848E+03 -0.56733070792E+03 -0.30120863219E+03  0.67485895696E+03  0.91303325006E+02 0.  0.
         23    2    4    4    0    0  0.84543074201E+02  0.30282260284E+03 -0.26621390882E+02  0.32847465234E+03  0.91311765908E+02 0.  0.
          1    1    3    3  502    0 -0.21568600024E+03  0.19835229287E+03  0.33663046659E+03  0.44630051963E+03  0.00000000000E+00 0. -1.
         -2    1    3    3    0  502 -0.54619132444E+02  0.66155812216E+02  0.46196835505E+02  0.97437101401E+02  0.00000000000E+00 0.  1.
         11    1    5    5    0    0  0.50686033940E+02 -0.16349517370E+03 -0.41666643410E+02  0.17616996064E+03  0.00000000000E+00 0. -1.
        -11    1    5    5    0    0  0.13507602454E+03 -0.40383553423E+03 -0.25954198878E+03  0.49868899632E+03  0.00000000000E+00 0.  1.
          4    1    6    6  503    0  0.84061444188E+02  0.29022810450E+03 -0.35413405065E+01  0.30217746464E+03  0.00000000000E+00 0. -1.
         -4    1    6    6    0  503  0.48163001297E+00  0.12594498335E+02 -0.23080050375E+02  0.26297187703E+02  0.00000000000E+00 0.  1.
<mgrwt>
<rscale>  0 0.15460934E+04</rscale>
<asrwt>0</asrwt>
<pdfrwt beam="1">  1        1 0.12323604E+00 0.15460934E+04</pdfrwt>
<pdfrwt beam="2">  1       -2 0.11477492E+00 0.15460934E+04</pdfrwt>
<totfact> 0.11035214E+01</totfact>
</mgrwt>
</event>
<event>
12    4  0.4183215E-008  0.2664987E+04  0.7818608E-02  0.8346456E-01
         -2   -1    0    0    0  501 -0.00000000000E+00  0.00000000000E+00  0.34387394229E+04  0.34387394229E+04  0.00000000000E+00 0.  1.
          1   -1    0    0  501    0  0.00000000000E+00 -0.00000000000E+00 -0.51633433413E+03  0.51633433413E+03  0.00000000000E+00 0. -1.
        -24    2    1    2    0    0  0.66510463711E+03 -0.97328497243E+03  0.13597170087E+04  0.18012741896E+04  0.78169984482E+02 0.  0.
        254    2    1    2    0    0 -0.66510463711E+03  0.97328497243E+03  0.15626880801E+04  0.21537995674E+04  0.89844906660E+03 0.  0.
         23    2    4    4    0    0  0.21794707253E+02 -0.13562446845E+03  0.25888149239E+03  0.30724040293E+03  0.92238996007E+02 0.  0.
         23    2    4    4    0    0 -0.68689934437E+03  0.11089094409E+04  0.13038065877E+04  0.18465591645E+04  0.91423588898E+02 0.  0.
          1    1    3    3  502    0  0.55338858918E+02 -0.10111025184E+03  0.10375033917E+03  0.15507999616E+03  0.00000000000E+00 0. -1.
         -2    1    3    3    0  502  0.60976577820E+03 -0.87217472059E+03  0.12559666695E+04  0.16461941934E+04  0.00000000000E+00 0.  1.
         11    1    5    5    0    0  0.49571704027E+02 -0.42341706943E+02  0.76482463888E+02  0.10049746897E+03  0.00000000000E+00 0. -1.
        -11    1    5    5    0    0 -0.27776996775E+02 -0.93282761509E+02  0.18239902850E+03  0.20674293396E+03  0.00000000000E+00 0.  1.
          2    1    6    6  503    0 -0.15017146082E+03  0.18435288510E+03  0.26245008288E+03  0.35414333241E+03  0.00000000000E+00 0. -1.
         -2    1    6    6    0  503 -0.53672788355E+03  0.92455655578E+03  0.10413565048E+04  0.14924158321E+04  0.00000000000E+00 0.  1.
<mgrwt>
<rscale>  0 0.26649872E+04</rscale>
<asrwt>0</asrwt>
<pdfrwt beam="1">  1        1 0.79436053E-01 0.26649872E+04</pdfrwt>
<pdfrwt beam="2">  1       -2 0.52903682E+00 0.26649872E+04</pdfrwt>
<totfact> 0.35802309E-02</totfact>
</mgrwt>
</event>
<event>
12    4  0.4183215E-008  0.1701580E+04  0.7818608E-02  0.8760464E-01
         -2   -1    0    0    0  501 -0.00000000000E+00  0.00000000000E+00  0.80966257852E+03  0.80966257852E+03  0.00000000000E+00 0.  1.
          1   -1    0    0  501    0  0.00000000000E+00 -0.00000000000E+00 -0.89400637419E+03  0.89400637419E+03  0.00000000000E+00 0. -1.
        -24    2    1    2    0    0 -0.49482542386E+03 -0.33431380581E+03 -0.17270516636E+03  0.62706608586E+03  0.82261052167E+02 0.  0.
        254    2    1    2    0    0  0.49482542386E+03  0.33431380581E+03  0.88361370689E+02  0.10766028668E+04  0.89143035635E+03 0.  0.
         23    2    4    4    0    0 -0.16270903292E+03  0.36248231731E+03  0.58165828597E+02  0.41180361389E+03  0.91275917064E+02 0.  0.
         23    2    4    4    0    0  0.65753445678E+03 -0.28168511505E+02  0.30195542092E+02  0.66479925296E+03  0.88888970527E+02 0.  0.
          3    1    3    3  502    0 -0.43619395725E+03 -0.30260604221E+03 -0.17867518683E+03  0.56014320269E+03  0.00000000000E+00 0. -1.
         -4    1    3    3    0  502 -0.58631466604E+02 -0.31707763595E+02  0.59700204681E+01  0.66922883177E+02  0.00000000000E+00 0.  1.
         11    1    5    5    0    0 -0.59295355266E+02  0.48954973167E+02  0.20082766541E+02  0.79472297474E+02  0.00000000000E+00 0. -1.
        -11    1    5    5    0    0 -0.10341367765E+03  0.31352734415E+03  0.38083062056E+02  0.33233131641E+03  0.00000000000E+00 0.  1.
          3    1    6    6  503    0  0.14745441007E+03  0.15801391543E+02 -0.22999159950E+02  0.15007147758E+03  0.00000000000E+00 0. -1.
         -3    1    6    6    0  503  0.51008004670E+03 -0.43969903048E+02  0.53194702042E+02  0.51472777538E+03  0.00000000000E+00 0.  1.
<mgrwt>
<rscale>  0 0.17015799E+04</rscale>
<asrwt>0</asrwt>
<pdfrwt beam="1">  1        1 0.13753944E+00 0.17015799E+04</pdfrwt>
<pdfrwt beam="2">  1       -2 0.12456347E+00 0.17015799E+04</pdfrwt>
<totfact> 0.74219636E+00</totfact>
</mgrwt>
</event>
<event>
12    4  0.4183215E-008  0.2279015E+04  0.7818608E-02  0.8486242E-01
         -2   -1    0    0    0  501 -0.00000000000E+00  0.00000000000E+00  0.77721894504E+03  0.77721894504E+03  0.00000000000E+00 0.  1.
          1   -1    0    0  501    0  0.00000000000E+00 -0.00000000000E+00 -0.16706706892E+04  0.16706706892E+04  0.00000000000E+00 0. -1.
        -24    2    1    2    0    0  0.82270607171E+03  0.45005291436E+03 -0.60380836615E+03  0.11181891486E+04  0.79809290620E+02 0.  0.
        254    2    1    2    0    0 -0.82270607171E+03 -0.45005291436E+03 -0.28964337800E+03  0.13297004856E+04  0.89711603982E+03 0.  0.
         23    2    4    4    0    0  0.40610899082E+02 -0.17063630304E+03 -0.36377689644E+03  0.41430051591E+03  0.92440759727E+02 0.  0.
         23    2    4    4    0    0 -0.86331697079E+03 -0.27941661132E+03  0.74133518435E+02  0.91539996972E+03  0.95244376595E+02 0.  0.
          1    1    3    3  502    0  0.68325110424E+03  0.37349550786E+03 -0.46425371583E+03  0.90656631225E+03  0.00000000000E+00 0. -1.
         -2    1    3    3    0  502  0.13945496747E+03  0.76557406503E+02 -0.13955465032E+03  0.21162283636E+03  0.00000000000E+00 0.  1.
         11    1    5    5    0    0  0.46403166945E+02 -0.26350005596E+02 -0.85451100999E+02  0.10074456491E+03  0.00000000000E+00 0.  1.
        -11    1    5    5    0    0 -0.57922678627E+01 -0.14428629744E+03 -0.27832579544E+03  0.31355595099E+03  0.00000000000E+00 0. -1.
          3    1    6    6  503    0 -0.56500298077E+03 -0.22992799231E+03  0.47999615300E+02  0.61188169853E+03  0.00000000000E+00 0. -1.
         -3    1    6    6    0  503 -0.29831399002E+03 -0.49488619008E+02  0.26133903135E+02  0.30351827119E+03  0.00000000000E+00 0.  1.
<mgrwt>
<rscale>  0 0.22790146E+04</rscale>
<asrwt>0</asrwt>
<pdfrwt beam="1">  1        1 0.25702626E+00 0.22790146E+04</pdfrwt>
<pdfrwt beam="2">  1       -2 0.11957215E+00 0.22790146E+04</pdfrwt>
<totfact> 0.21263933E+00</totfact>
</mgrwt>
</event>
<event>
12    4  0.4183215E-008  0.1371599E+04  0.7818608E-02  0.8974637E-01
          3   -1    0    0  501    0  0.00000000000E+00  0.00000000000E+00  0.73591288545E+03  0.73591288545E+03  0.00000000000E+00 0. -1.
         -4   -1    0    0    0  501 -0.00000000000E+00 -0.00000000000E+00 -0.63909864807E+03  0.63909864807E+03  0.00000000000E+00 0.  1.
        -24    2    1    2    0    0  0.12324795401E+03 -0.31445689737E+03  0.20820844209E+03  0.40461833577E+03  0.79322404224E+02 0.  0.
        254    2    1    2    0    0 -0.12324795401E+03  0.31445689737E+03 -0.11139420470E+03  0.97039319774E+03  0.90287379567E+03 0.  0.
         23    2    4    4    0    0 -0.22582460005E+03  0.54410882883E+03 -0.27542695024E+03  0.65667296307E+03  0.91149371423E+02 0.  0.
         23    2    4    4    0    0  0.10257664604E+03 -0.22965193145E+03  0.16403274553E+03  0.31372023468E+03  0.90838681773E+02 0.  0.
          3    1    3    3  502    0  0.11303889330E+02 -0.13286246466E+02  0.36169128136E+02  0.40156046733E+02  0.00000000000E+00 0. -1.
         -4    1    3    3    0  502  0.11194406468E+03 -0.30117065091E+03  0.17203931395E+03  0.36446228904E+03  0.00000000000E+00 0.  1.
         11    1    5    5    0    0 -0.91770391237E+02  0.13870700611E+03 -0.49129995895E+02  0.17342201345E+03  0.00000000000E+00 0.  1.
        -11    1    5    5    0    0 -0.13405420881E+03  0.40540182272E+03 -0.22629695434E+03  0.48325094962E+03  0.00000000000E+00 0. -1.
          3    1    6    6  503    0  0.97033684827E+02 -0.23720114031E+03  0.15031507460E+03  0.29711031387E+03  0.00000000000E+00 0. -1.
         -3    1    6    6    0  503  0.55429612097E+01  0.75492088581E+01  0.13717670935E+02  0.16609920807E+02  0.00000000000E+00 0.  1.
<mgrwt>
<rscale>  0 0.13715990E+04</rscale>
<asrwt>0</asrwt>
<pdfrwt beam="1">  1        3 0.11321737E+00 0.13715990E+04</pdfrwt>
<pdfrwt beam="2">  1       -4 0.98322869E-01 0.13715990E+04</pdfrwt>
<totfact> 0.12511013E+00</totfact>
</mgrwt>
</event>
<event>
12    4  0.4183215E-008  0.1478397E+04  0.7818608E-02  0.8898947E-01
         -2   -1    0    0    0  501 -0.00000000000E+00  0.00000000000E+00  0.16832715843E+03  0.16832715843E+03  0.00000000000E+00 0.  1.
          1   -1    0    0  501    0  0.00000000000E+00 -0.00000000000E+00 -0.32461434870E+04  0.32461434870E+04  0.00000000000E+00 0. -1.
        -24    2    1    2    0    0  0.19699780989E+03  0.17078221636E+03 -0.17938771312E+04  0.18145217907E+04  0.80743200163E+02 0.  0.
        254    2    1    2    0    0 -0.19699780989E+03 -0.17078221636E+03 -0.12839391974E+04  0.15999488548E+04  0.91834730513E+03 0.  0.
         23    2    4    4    0    0 -0.48664904027E+03 -0.13330319512E+02 -0.11134032456E+04  0.12186424187E+04  0.91747325207E+02 0.  0.
         23    2    4    4    0    0  0.28965123037E+03 -0.15745189685E+03 -0.17053595178E+03  0.38130643603E+03  0.87310665020E+02 0.  0.
          3    1    3    3  502    0  0.18897479847E+03  0.17375836669E+03 -0.16006916099E+04  0.16211468392E+04  0.00000000000E+00 0. -1.
         -2    1    3    3    0  502  0.80230114214E+01 -0.29761503325E+01 -0.19318552134E+03  0.19337495143E+03  0.00000000000E+00 0.  1.
         11    1    5    5    0    0 -0.13825006248E+03 -0.35942425090E+02 -0.26147596889E+03  0.29795070063E+03  0.00000000000E+00 0. -1.
        -11    1    5    5    0    0 -0.34839897779E+03  0.22612105578E+02 -0.85192727669E+03  0.92069171811E+03  0.00000000000E+00 0.  1.
          1    1    6    6  503    0  0.97297439112E+02 -0.83243987634E+01 -0.48230070628E+02  0.10891385121E+03  0.00000000000E+00 0. -1.
         -1    1    6    6    0  503  0.19235379126E+03 -0.14912749809E+03 -0.12230588115E+03  0.27239258482E+03  0.00000000000E+00 0.  1.
<mgrwt>
<rscale>  0 0.14783966E+04</rscale>
<asrwt>0</asrwt>
<pdfrwt beam="1">  1        1 0.49940664E+00 0.14783966E+04</pdfrwt>
<pdfrwt beam="2">  1       -2 0.25896489E-01 0.14783966E+04</pdfrwt>
<totfact> 0.45337012E+00</totfact>
</mgrwt>
</event>
<event>
12    4  0.4183215E-008  0.1609122E+04  0.7818608E-02  0.8814963E-01
         -2   -1    0    0    0  501 -0.00000000000E+00  0.00000000000E+00  0.58562833572E+03  0.58562833572E+03  0.00000000000E+00 0.  1.
          1   -1    0    0  501    0  0.00000000000E+00 -0.00000000000E+00 -0.11053402933E+04  0.11053402933E+04  0.00000000000E+00 0. -1.
        -24    2    1    2    0    0  0.19243669433E+03 -0.46433951498E+03 -0.40775178134E+03  0.65254799032E+03  0.83152257839E+02 0.  0.
        254    2    1    2    0    0 -0.19243669433E+03  0.46433951498E+03 -0.11196017627E+03  0.10384206387E+04  0.90174235533E+03 0.  0.
         23    2    4    4    0    0  0.90415198063E+02  0.14400896617E+03  0.35201743703E+03  0.40122814698E+03  0.90300938961E+02 0.  0.
         23    2    4    4    0    0 -0.28285189240E+03  0.32033054881E+03 -0.46397761330E+03  0.63719249176E+03  0.90123206645E+02 0.  0.
          1    1    3    3  502    0  0.12867576346E+03 -0.22435239223E+03 -0.17557380825E+03  0.31259816082E+03  0.00000000000E+00 0. -1.
         -2    1    3    3    0  502  0.63760930879E+02 -0.23998712274E+03 -0.23217797309E+03  0.33994982950E+03  0.00000000000E+00 0.  1.
         11    1    5    5    0    0  0.10385150774E+03  0.98793225959E+02  0.23786503819E+03  0.27771390593E+03  0.00000000000E+00 0. -1.
        -11    1    5    5    0    0 -0.13436309675E+02  0.45215740211E+02  0.11415239885E+03  0.12351424105E+03  0.00000000000E+00 0.  1.
          4    1    6    6  503    0 -0.23545279963E+03  0.24376374690E+03 -0.31263353821E+03  0.46108406432E+03  0.00000000000E+00 0. -1.
         -4    1    6    6    0  503 -0.47399092769E+02  0.76566801909E+02 -0.15134407509E+03  0.17610842744E+03  0.00000000000E+00 0.  1.
<mgrwt>
<rscale>  0 0.16091222E+04</rscale>
<asrwt>0</asrwt>
<pdfrwt beam="1">  1        1 0.17005235E+00 0.16091222E+04</pdfrwt>
<pdfrwt beam="2">  1       -2 0.90096668E-01 0.16091222E+04</pdfrwt>
<totfact> 0.11134362E+01</totfact>
</mgrwt>
</event>
<event>
12    4  0.4183215E-008  0.1601851E+04  0.7818608E-02  0.8819411E-01
          1   -1    0    0  501    0  0.00000000000E+00  0.00000000000E+00  0.12248728469E+04  0.12248728469E+04  0.00000000000E+00 0. -1.
         -2   -1    0    0    0  501 -0.00000000000E+00 -0.00000000000E+00 -0.52371313280E+03  0.52371313280E+03  0.00000000000E+00 0.  1.
        -24    2    1    2    0    0 -0.20208535047E+03  0.45607297085E+03  0.52774859134E+01  0.50501331413E+03  0.78546495624E+02 0.  0.
        254    2    1    2    0    0  0.20208535047E+03 -0.45607297085E+03  0.69588222824E+03  0.12435726656E+04  0.90187574281E+03 0.  0.
         23    2    4    4    0    0  0.20675277643E+03  0.22352155369E+03  0.95174707548E+02  0.33191592796E+03  0.91658948006E+02 0.  0.
         23    2    4    4    0    0 -0.46674259582E+01 -0.67959452455E+03  0.60070752069E+03  0.91165673765E+03  0.91640489017E+02 0.  0.
          1    1    3    3  502    0 -0.18929404582E+02  0.12576415304E+03 -0.33408618876E+01  0.12722462775E+03  0.00000000000E+00 0. -1.
         -2    1    3    3    0  502 -0.18315594589E+03  0.33030881781E+03  0.86183478010E+01  0.37778868638E+03  0.00000000000E+00 0.  1.
         11    1    5    5    0    0  0.11607163983E+03  0.18692344975E+03  0.70737769293E+02  0.23112082045E+03  0.00000000000E+00 0.  1.
        -11    1    5    5    0    0  0.90681136598E+02  0.36598103941E+02  0.24436938255E+02  0.10079510751E+03  0.00000000000E+00 0. -1.
          2    1    6    6  503    0  0.45995021975E+01 -0.14101611022E+03  0.17682376644E+03  0.22621525841E+03  0.00000000000E+00 0. -1.
         -2    1    6    6    0  503 -0.92669281558E+01 -0.53857841433E+03  0.42388375426E+03  0.68544147924E+03  0.00000000000E+00 0.  1.
<mgrwt>
<rscale>  0 0.16018514E+04</rscale>
<asrwt>0</asrwt>
<pdfrwt beam="1">  1        1 0.18844198E+00 0.16018514E+04</pdfrwt>
<pdfrwt beam="2">  1       -2 0.80571252E-01 0.16018514E+04</pdfrwt>
<totfact> 0.11731087E+01</totfact>
</mgrwt>
</event>
<event>
12    4  0.5831498E-008  0.2366458E+04  0.7818608E-02  0.8452169E-01
         -2   -1    0    0    0  501 -0.00000000000E+00  0.00000000000E+00  0.13420214272E+04  0.13420214272E+04  0.00000000000E+00 0.  1.
          1   -1    0    0  501    0  0.00000000000E+00 -0.00000000000E+00 -0.10432250771E+04  0.10432250771E+04  0.00000000000E+00 0. -1.
        -24    2    1    2    0    0  0.87786357269E+03  0.34517886800E+03 -0.22369529957E+03  0.97277115347E+03  0.80319529307E+02 0.  0.
        254    2    1    2    0    0 -0.87786357269E+03 -0.34517886800E+03  0.52249164972E+03  0.14124753509E+04  0.91230268532E+03 0.  0.
         23    2    4    4    0    0 -0.16660285360E+03  0.28377250754E+03  0.41388052242E+02  0.34403326750E+03  0.91447096260E+02 0.  0.
         23    2    4    4    0    0 -0.71126071910E+03 -0.62895137554E+03  0.48110359748E+03  0.10684420834E+04  0.92930999752E+02 0.  0.
          1    1    3    3  502    0  0.73280866382E+03  0.29086396873E+03 -0.15587560646E+03  0.80368376290E+03  0.00000000000E+00 0. -1.
         -2    1    3    3    0  502  0.14505490888E+03  0.54314899271E+02 -0.67819693117E+02  0.16908739056E+03  0.00000000000E+00 0.  1.
         11    1    5    5    0    0 -0.16033826454E+03  0.28368457309E+03  0.53664837702E+02  0.33025022467E+03  0.00000000000E+00 0.  1.
        -11    1    5    5    0    0 -0.62645890539E+01  0.87934450550E-01 -0.12276785460E+02  0.13783042833E+02  0.00000000000E+00 0. -1.
          4    1    6    6  503    0 -0.69172534333E+03 -0.62682137148E+03  0.46424756498E+03  0.10425520533E+04  0.00000000000E+00 0.  1.
         -4    1    6    6    0  503 -0.19535375766E+02 -0.21300040580E+01  0.16856032498E+02  0.25890030034E+02  0.00000000000E+00 0. -1.
<mgrwt>
<rscale>  0 0.23664576E+04</rscale>
<asrwt>0</asrwt>
<pdfrwt beam="1">  1        1 0.16049617E+00 0.23664576E+04</pdfrwt>
<pdfrwt beam="2">  1       -2 0.20646483E+00 0.23664576E+04</pdfrwt>
<totfact> 0.13321987E+00</totfact>
</mgrwt>
</event>
<event>
12    4  0.4183215E-008  0.2391790E+04  0.7818608E-02  0.8442584E-01
         -2   -1    0    0    0  501 -0.00000000000E+00  0.00000000000E+00  0.96293372206E+03  0.96293372206E+03  0.00000000000E+00 0.  1.
          1   -1    0    0  501    0  0.00000000000E+00 -0.00000000000E+00 -0.14852166276E+04  0.14852166276E+04  0.00000000000E+00 0. -1.
        -24    2    1    2    0    0  0.21661078366E+03  0.97189983892E+03 -0.47921588152E+03  0.11079504287E+04  0.79979765148E+02 0.  0.
        254    2    1    2    0    0 -0.21661078366E+03 -0.97189983892E+03 -0.43067024022E+02  0.13401999210E+04  0.89597518442E+03 0.  0.
         23    2    4    4    0    0 -0.36031376163E+02 -0.44887432148E+03 -0.45293708456E+03  0.64540060563E+03  0.92755175710E+02 0.  0.
         23    2    4    4    0    0 -0.18057940750E+03 -0.52302551744E+03  0.40987006053E+03  0.69479931534E+03  0.92671504627E+02 0.  0.
          3    1    3    3  502    0  0.21577945633E+03  0.90595534886E+03 -0.46297843277E+03  0.10400312001E+04  0.00000000000E+00 0. -1.
         -4    1    3    3    0  502  0.83132733618E+00  0.65944490063E+02 -0.16237448750E+02  0.67919228623E+02  0.00000000000E+00 0.  1.
         11    1    5    5    0    0 -0.52543658626E+02 -0.22296219859E+03 -0.18426471493E+03  0.29398378056E+03  0.00000000000E+00 0. -1.
        -11    1    5    5    0    0  0.16512282463E+02 -0.22591212290E+03 -0.26867236962E+03  0.35141682507E+03  0.00000000000E+00 0.  1.
          1    1    6    6  503    0 -0.55576545441E+02 -0.12843155521E+03  0.15443524212E+03  0.20840743938E+03  0.00000000000E+00 0. -1.
         -1    1    6    6    0  503 -0.12500286206E+03 -0.39459396222E+03  0.25543481841E+03  0.48639187596E+03  0.00000000000E+00 0.  1.
<mgrwt>
<rscale>  0 0.23917903E+04</rscale>
<asrwt>0</asrwt>
<pdfrwt beam="1">  1        1 0.22849486E+00 0.23917903E+04</pdfrwt>
<pdfrwt beam="2">  1       -2 0.14814365E+00 0.23917903E+04</pdfrwt>
<totfact> 0.16331616E+00</totfact>
</mgrwt>
</event>
<event>
12    4  0.4183215E-008  0.1817496E+04  0.7818608E-02  0.8697050E-01
         -2   -1    0    0    0  501 -0.00000000000E+00  0.00000000000E+00  0.14925327657E+04  0.14925327657E+04  0.00000000000E+00 0.  1.
          1   -1    0    0  501    0  0.00000000000E+00 -0.00000000000E+00 -0.55330327642E+03  0.55330327642E+03  0.00000000000E+00 0. -1.
        -24    2    1    2    0    0  0.52483710572E+02  0.63615396874E+02  0.11198888528E+04  0.11257173568E+04  0.79291021265E+02 0.  0.
        254    2    1    2    0    0 -0.52483710572E+02 -0.63615396874E+02 -0.18065936354E+03  0.92011868537E+03  0.89843148372E+03 0.  0.
         23    2    4    4    0    0  0.34224142890E+03 -0.26563755603E+03 -0.14010407075E+03  0.46481112751E+03  0.93422303492E+02 0.  0.
         23    2    4    4    0    0 -0.39472513947E+03  0.20202215915E+03 -0.40555292791E+02  0.45530755786E+03  0.95075506562E+02 0.  0.
          3    1    3    3  502    0  0.64379190787E+02  0.48009543755E+02  0.58710275185E+03  0.59257002770E+03  0.00000000000E+00 0. -1.
         -4    1    3    3    0  502 -0.11895480215E+02  0.15605853119E+02  0.53278610100E+03  0.53314732909E+03  0.00000000000E+00 0.  1.
         11    1    5    5    0    0  0.33855363343E+03 -0.26722107954E+03 -0.14796766738E+03  0.45598256397E+03  0.00000000000E+00 0.  1.
        -11    1    5    5    0    0  0.36877954703E+01  0.15835235116E+01  0.78635966313E+01  0.88285635368E+01  0.00000000000E+00 0. -1.
          3    1    6    6  503    0 -0.43943694507E+02 -0.92799428029E+00  0.14590505880E+02  0.46311902597E+02  0.00000000000E+00 0. -1.
         -3    1    6    6    0  503 -0.35078144497E+03  0.20295015343E+03 -0.55145798671E+02  0.40899565526E+03  0.00000000000E+00 0.  1.
<mgrwt>
<rscale>  0 0.18174964E+04</rscale>
<asrwt>0</asrwt>
<pdfrwt beam="1">  1        1 0.85123582E-01 0.18174964E+04</pdfrwt>
<pdfrwt beam="2">  1       -2 0.22962042E+00 0.18174964E+04</pdfrwt>
<totfact> 0.27255663E+00</totfact>
</mgrwt>
</event>
<event>
12    4  0.4183215E-008  0.1221041E+04  0.7818608E-02  0.9094636E-01
         -2   -1    0    0    0  501 -0.00000000000E+00  0.00000000000E+00  0.28857093320E+03  0.28857093320E+03  0.00000000000E+00 0.  1.
          1   -1    0    0  501    0  0.00000000000E+00 -0.00000000000E+00 -0.12916601227E+04  0.12916601227E+04  0.00000000000E+00 0. -1.
        -24    2    1    2    0    0 -0.21440388198E+03 -0.12493024679E+03 -0.41768198046E+03  0.49283577703E+03  0.82778470324E+02 0.  0.
        254    2    1    2    0    0  0.21440388198E+03  0.12493024679E+03 -0.58540720901E+03  0.10873952788E+04  0.88212827917E+03 0.  0.
         23    2    4    4    0    0  0.39911115195E+02  0.33983819550E+03 -0.69220110673E+03  0.77701051295E+03  0.86718330499E+02 0.  0.
         23    2    4    4    0    0  0.17449276679E+03 -0.21490794871E+03  0.10679389772E+03  0.31038476589E+03  0.91107706728E+02 0.  0.
          3    1    3    3  502    0 -0.18011674829E+03 -0.68368490506E+02 -0.27734568011E+03  0.33769352938E+03  0.00000000000E+00 0. -1.
         -4    1    3    3    0  502 -0.34287133693E+02 -0.56561756287E+02 -0.14033630035E+03  0.15514224765E+03  0.00000000000E+00 0.  1.
         11    1    5    5    0    0  0.27660306989E+02  0.11754827798E+03 -0.16275381506E+03  0.20266103364E+03  0.00000000000E+00 0.  1.
        -11    1    5    5    0    0  0.12250808205E+02  0.22228991752E+03 -0.52944729166E+03  0.57434947931E+03  0.00000000000E+00 0. -1.
          1    1    6    6  503    0  0.83781533781E+02 -0.51935115000E+02  0.68337752390E+02  0.11994436199E+03  0.00000000000E+00 0. -1.
         -1    1    6    6    0  503  0.90711233006E+02 -0.16297283371E+03  0.38456145326E+02  0.19044040389E+03  0.00000000000E+00 0.  1.
<mgrwt>
<rscale>  0 0.12210415E+04</rscale>
<asrwt>0</asrwt>
<pdfrwt beam="1">  1        1 0.19871695E+00 0.12210415E+04</pdfrwt>
<pdfrwt beam="2">  1       -2 0.44395527E-01 0.12210415E+04</pdfrwt>
<totfact> 0.38243917E+01</totfact>
</mgrwt>
</event>
<event>
12    4  0.4183215E-008  0.1479463E+04  0.7818608E-02  0.8898226E-01
          1   -1    0    0  501    0  0.00000000000E+00  0.00000000000E+00  0.75465958029E+03  0.75465958029E+03  0.00000000000E+00 0. -1.
         -2   -1    0    0    0  501 -0.00000000000E+00 -0.00000000000E+00 -0.72509841783E+03  0.72509841783E+03  0.00000000000E+00 0.  1.
        -24    2    1    2    0    0 -0.20970531210E+03 -0.72670421285E+02  0.41988085201E+03  0.48061333866E+03  0.73701718856E+02 0.  0.
        254    2    1    2    0    0  0.20970531210E+03  0.72670421285E+02 -0.39031968955E+03  0.99914465946E+03  0.89257116379E+03 0.  0.
         23    2    4    4    0    0  0.25085786689E+03 -0.20825053964E+03  0.15918395014E+03  0.37402435464E+03  0.90866557329E+02 0.  0.
         23    2    4    4    0    0 -0.41152554787E+02  0.28092096093E+03 -0.54950363970E+03  0.62512030482E+03  0.90614714052E+02 0.  0.
          1    1    3    3  502    0 -0.16276829343E+03 -0.30203819946E+02  0.25525468776E+03  0.30423797217E+03  0.00000000000E+00 0. -1.
         -2    1    3    3    0  502 -0.46937018677E+02 -0.42466601339E+02  0.16462616424E+03  0.17637536649E+03  0.00000000000E+00 0.  1.
         11    1    5    5    0    0  0.16104768851E+03 -0.10816464356E+03  0.13756678964E+03  0.23782466168E+03  0.00000000000E+00 0.  1.
        -11    1    5    5    0    0  0.89810178383E+02 -0.10008589608E+03  0.21617160505E+02  0.13619969297E+03  0.00000000000E+00 0. -1.
          3    1    6    6  503    0 -0.26832927073E+02  0.21554203856E+03 -0.48828655318E+03  0.53441756556E+03  0.00000000000E+00 0. -1.
         -3    1    6    6    0  503 -0.14319627713E+02  0.65378922362E+02 -0.61217086516E+02  0.90702739256E+02  0.00000000000E+00 0.  1.
<mgrwt>
<rscale>  0 0.14794627E+04</rscale>
<asrwt>0</asrwt>
<pdfrwt beam="1">  1        1 0.11610147E+00 0.14794627E+04</pdfrwt>
<pdfrwt beam="2">  1       -2 0.11155360E+00 0.14794627E+04</pdfrwt>
<totfact> 0.13071084E+01</totfact>
</mgrwt>
</event>
<event>
12    4  0.4183215E-008  0.1421621E+04  0.7818608E-02  0.8938315E-01
         -2   -1    0    0    0  501 -0.00000000000E+00  0.00000000000E+00  0.73574170555E+03  0.73574170555E+03  0.00000000000E+00 0.  1.
          1   -1    0    0  501    0  0.00000000000E+00 -0.00000000000E+00 -0.68672428022E+03  0.68672428022E+03  0.00000000000E+00 0. -1.
        -24    2    1    2    0    0 -0.20228091829E+03  0.28108846155E+03  0.20115622892E+03  0.40843361522E+03  0.80161689644E+02 0.  0.
        254    2    1    2    0    0  0.20228091829E+03 -0.28108846155E+03 -0.15213880359E+03  0.10140323706E+04  0.94084384456E+03 0.  0.
         23    2    4    4    0    0 -0.31385672551E+03 -0.32901722988E+03 -0.15780171424E+03  0.48964995498E+03  0.89985085952E+02 0.  0.
         23    2    4    4    0    0  0.51613764379E+03  0.47928768328E+02  0.56629106499E+01  0.52438241557E+03  0.79054506673E+02 0.  0.
          3    1    3    3  502    0 -0.41068157287E+02  0.20695535265E+02  0.46272424883E+02  0.65238301844E+02  0.00000000000E+00 0. -1.
         -4    1    3    3    0  502 -0.16121276100E+03  0.26039292629E+03  0.15488380403E+03  0.34319531337E+03  0.00000000000E+00 0.  1.
         11    1    5    5    0    0 -0.24066836360E+03 -0.29973524415E+03 -0.12428450538E+03  0.40399148023E+03  0.00000000000E+00 0. -1.
        -11    1    5    5    0    0 -0.73188361906E+02 -0.29281985733E+02 -0.33517208861E+02  0.85658474752E+02  0.00000000000E+00 0.  1.
          3    1    6    6  503    0  0.46231368407E+03  0.39163542448E+02  0.29415466043E+02  0.46490105956E+03  0.00000000000E+00 0. -1.
         -3    1    6    6    0  503  0.53823959722E+02  0.87652258797E+01 -0.23752555393E+02  0.59481356009E+02  0.00000000000E+00 0.  1.
<mgrwt>
<rscale>  0 0.14216212E+04</rscale>
<asrwt>0</asrwt>
<pdfrwt beam="1">  1        1 0.10564989E+00 0.14216212E+04</pdfrwt>
<pdfrwt beam="2">  1       -2 0.11319103E+00 0.14216212E+04</pdfrwt>
<totfact> 0.14649411E+01</totfact>
</mgrwt>
</event>
<event>
12    4  0.4183215E-008  0.2509112E+04  0.7818608E-02  0.8399747E-01
         -2   -1    0    0    0  501 -0.00000000000E+00  0.00000000000E+00  0.16608581460E+04  0.16608581460E+04  0.00000000000E+00 0.  1.
          1   -1    0    0  501    0  0.00000000000E+00 -0.00000000000E+00 -0.94764887431E+03  0.94764887431E+03  0.00000000000E+00 0. -1.
        -24    2    1    2    0    0 -0.76970690236E+03 -0.10746514851E+03 -0.49384496698E+03  0.92430338770E+03  0.80351897340E+02 0.  0.
        254    2    1    2    0    0  0.76970690236E+03  0.10746514851E+03  0.12070542386E+04  0.16842036326E+04  0.88066138060E+03 0.  0.
         23    2    4    4    0    0 -0.63149119035E+02 -0.18879718614E+03  0.51639017296E+02  0.22656208536E+03  0.95034739379E+02 0.  0.
         23    2    4    4    0    0  0.83285602140E+03  0.29626233465E+03  0.11554152213E+04  0.14576415472E+04  0.91181265341E+02 0.  0.
          3    1    3    3  502    0 -0.29244633752E+03 -0.24820458249E+02 -0.22896464678E+03  0.37224417383E+03  0.00000000000E+00 0. -1.
         -4    1    3    3    0  502 -0.47726056485E+03 -0.82644690262E+02 -0.26488032019E+03  0.55205921386E+03  0.00000000000E+00 0.  1.
         11    1    5    5    0    0 -0.30284926990E+02 -0.73731325889E+01  0.25642349099E+02  0.40361738742E+02  0.00000000000E+00 0. -1.
        -11    1    5    5    0    0 -0.32864192045E+02 -0.18142405355E+03  0.25996668198E+02  0.18620034662E+03  0.00000000000E+00 0.  1.
          3    1    6    6  503    0  0.99030378693E+02  0.39054189392E+02  0.95025895726E+02  0.14269606327E+03  0.00000000000E+00 0. -1.
         -3    1    6    6    0  503  0.73382564271E+03  0.25720814525E+03  0.10603893256E+04  0.13149454839E+04  0.00000000000E+00 0.  1.
<mgrwt>
<rscale>  0 0.25091117E+04</rscale>
<asrwt>0</asrwt>
<pdfrwt beam="1">  1        1 0.14579213E+00 0.25091117E+04</pdfrwt>
<pdfrwt beam="2">  1       -2 0.25551664E+00 0.25091117E+04</pdfrwt>
<totfact> 0.77022753E-01</totfact>
</mgrwt>
</event>
<event>
12    4  0.6982334E-008  0.1703855E+04  0.7818608E-02  0.8759169E-01
          1   -1    0    0  501    0  0.00000000000E+00  0.00000000000E+00  0.13596997772E+04  0.13596997772E+04  0.00000000000E+00 0. -1.
         -2   -1    0    0    0  501 -0.00000000000E+00 -0.00000000000E+00 -0.53377976523E+03  0.53377976523E+03  0.00000000000E+00 0.  1.
        -24    2    1    2    0    0 -0.49797866209E+03 -0.74687497337E+02  0.68552805611E+03  0.85462703471E+03  0.82931794794E+02 0.  0.
        254    2    1    2    0    0  0.49797866209E+03  0.74687497337E+02  0.14039195588E+03  0.10388525077E+04  0.89774365016E+03 0.  0.
         23    2    4    4    0    0  0.16227043454E+03  0.25453533795E+03 -0.30987518666E+03  0.44202818310E+03  0.90809422157E+02 0.  0.
         23    2    4    4    0    0  0.33570822755E+03 -0.17984784061E+03  0.45026714254E+03  0.59682432464E+03  0.91725214707E+02 0.  0.
          1    1    3    3  502    0 -0.48578933659E+03 -0.71099803703E+02  0.63578287325E+03  0.80328470890E+03  0.00000000000E+00 0. -1.
         -2    1    3    3    0  502 -0.12189325494E+02 -0.35876936344E+01  0.49745182862E+02  0.51342325810E+02  0.00000000000E+00 0.  1.
         11    1    5    5    0    0 -0.81012994668E+01  0.37218130723E+01 -0.22797417236E+02  0.24478667820E+02  0.00000000000E+00 0.  1.
        -11    1    5    5    0    0  0.17037173401E+03  0.25081352487E+03 -0.28707776943E+03  0.41754951528E+03  0.00000000000E+00 0. -1.
          4    1    6    6  503    0  0.20881438709E+02 -0.59502904484E+01  0.15665457030E+01  0.21769118136E+02  0.00000000000E+00 0.  1.
         -4    1    6    6    0  503  0.31482678884E+03 -0.17389755016E+03  0.44870059684E+03  0.57505520650E+03  0.00000000000E+00 0. -1.
<mgrwt>
<rscale>  0 0.17038547E+04</rscale>
<asrwt>0</asrwt>
<pdfrwt beam="1">  1        1 0.20918458E+00 0.17038547E+04</pdfrwt>
<pdfrwt beam="2">  1       -2 0.82119964E-01 0.17038547E+04</pdfrwt>
<totfact> 0.89207785E+00</totfact>
</mgrwt>
</event>
<event>
12    4  0.4183215E-008  0.1666793E+04  0.7818608E-02  0.8780534E-01
         -2   -1    0    0    0  501 -0.00000000000E+00  0.00000000000E+00  0.15795672456E+03  0.15795672456E+03  0.00000000000E+00 0.  1.
          1   -1    0    0  501    0  0.00000000000E+00 -0.00000000000E+00 -0.43970872470E+04  0.43970872470E+04  0.00000000000E+00 0. -1.
        -24    2    1    2    0    0 -0.25326727293E+02 -0.11793439941E+03 -0.30805724755E+04  0.30839155919E+04  0.77837237246E+02 0.  0.
        254    2    1    2    0    0  0.25326727293E+02  0.11793439941E+03 -0.11585580470E+04  0.14711283797E+04  0.89856106951E+03 0.  0.
         23    2    4    4    0    0 -0.37992755154E+03 -0.76306420377E+02 -0.77937399735E+03  0.87495646317E+03  0.89204094617E+02 0.  0.
         23    2    4    4    0    0  0.40525427883E+03  0.19424081979E+03 -0.37918404967E+03  0.59617191655E+03  0.98386401400E+02 0.  0.
          1    1    3    3  502    0  0.11489492615E+02 -0.76749582868E+02 -0.23396188172E+04  0.23409055334E+04  0.00000000000E+00 0. -1.
         -2    1    3    3    0  502 -0.36816219908E+02 -0.41184816543E+02 -0.74095365831E+03  0.74301005843E+03  0.00000000000E+00 0.  1.
         11    1    5    5    0    0 -0.33597694790E+02  0.17978730602E+02 -0.90063561800E+02  0.97793072420E+02  0.00000000000E+00 0.  1.
        -11    1    5    5    0    0 -0.34632985675E+03 -0.94285150979E+02 -0.68931043555E+03  0.77716339075E+03  0.00000000000E+00 0. -1.
          2    1    6    6  503    0  0.35820627611E+03  0.16383811208E+03 -0.36799267615E+03  0.53904848846E+03  0.00000000000E+00 0. -1.
         -2    1    6    6    0  503  0.47048002716E+02  0.30402707705E+02 -0.11191373526E+02  0.57123428090E+02  0.00000000000E+00 0.  1.
<mgrwt>
<rscale>  0 0.16667927E+04</rscale>
<asrwt>0</asrwt>
<pdfrwt beam="1">  1        1 0.67647495E+00 0.16667927E+04</pdfrwt>
<pdfrwt beam="2">  1       -2 0.24301035E-01 0.16667927E+04</pdfrwt>
<totfact> 0.52893839E-01</totfact>
</mgrwt>
</event>
<event>
12    4  0.4183215E-008  0.1865946E+04  0.7818608E-02  0.8671996E-01
         -2   -1    0    0    0  501 -0.00000000000E+00  0.00000000000E+00  0.35053127900E+03  0.35053127900E+03  0.00000000000E+00 0.  1.
          1   -1    0    0  501    0  0.00000000000E+00 -0.00000000000E+00 -0.24831970608E+04  0.24831970608E+04  0.00000000000E+00 0. -1.
        -24    2    1    2    0    0 -0.20614999042E+03  0.15377676077E+02 -0.17349034519E+04  0.17489824507E+04  0.79469075102E+02 0.  0.
        254    2    1    2    0    0  0.20614999042E+03 -0.15377676077E+02 -0.39776232989E+03  0.10847458891E+04  0.98778767020E+03 0.  0.
         23    2    4    4    0    0 -0.11908942742E+03  0.42518267299E+03 -0.13570839923E+03  0.47076388461E+03  0.90770415302E+02 0.  0.
         23    2    4    4    0    0  0.32523941783E+03 -0.44056034907E+03 -0.26205393066E+03  0.61398200450E+03  0.91801629576E+02 0.  0.
          3    1    3    3  502    0 -0.19488106483E+03 -0.84835614322E+01 -0.15351874446E+04  0.15475306428E+04  0.00000000000E+00 0. -1.
         -4    1    3    3    0  502 -0.11268925589E+02  0.23861237509E+02 -0.19971600724E+03  0.20145180785E+03  0.00000000000E+00 0.  1.
         11    1    5    5    0    0 -0.98448826989E+02  0.40913487379E+03 -0.11198158292E+03  0.43545768038E+03  0.00000000000E+00 0. -1.
        -11    1    5    5    0    0 -0.20640600426E+02  0.16047799205E+02 -0.23726816303E+02  0.35306204230E+02  0.00000000000E+00 0.  1.
          1    1    6    6  503    0  0.23885480783E+03 -0.37617725452E+03 -0.19029559387E+03  0.48453416710E+03  0.00000000000E+00 0. -1.
         -1    1    6    6    0  503  0.86384610001E+02 -0.64383094551E+02 -0.71758336788E+02  0.12944783740E+03  0.00000000000E+00 0.  1.
<mgrwt>
<rscale>  0 0.18659456E+04</rscale>
<asrwt>0</asrwt>
<pdfrwt beam="1">  1        1 0.38203033E+00 0.18659456E+04</pdfrwt>
<pdfrwt beam="2">  1       -2 0.53927887E-01 0.18659456E+04</pdfrwt>
<totfact> 0.37175824E+00</totfact>
</mgrwt>
</event>
<event>
12    4  0.4183215E-008  0.1856712E+04  0.7818608E-02  0.8676709E-01
          1   -1    0    0  501    0  0.00000000000E+00  0.00000000000E+00  0.21205183179E+04  0.21205183179E+04  0.00000000000E+00 0. -1.
         -2   -1    0    0    0  501 -0.00000000000E+00 -0.00000000000E+00 -0.40643103375E+03  0.40643103375E+03  0.00000000000E+00 0.  1.
        -24    2    1    2    0    0 -0.45554017971E+03  0.49926957839E+03  0.93304446962E+03  0.11549738662E+04  0.81275347250E+02 0.  0.
        254    2    1    2    0    0  0.45554017971E+03 -0.49926957839E+03  0.78104281454E+03  0.13719754855E+04  0.90305143119E+03 0.  0.
         23    2    4    4    0    0  0.21493971722E+03  0.97024535643E+02 -0.10607455015E+03  0.27271129348E+03  0.86641773093E+02 0.  0.
         23    2    4    4    0    0  0.24060046249E+03 -0.59629411403E+03  0.88711736470E+03  0.10992641920E+04  0.89158802675E+02 0.  0.
          1    1    3    3  502    0 -0.44272013580E+03  0.45729636646E+03  0.88156313901E+03  0.10873245392E+04  0.00000000000E+00 0. -1.
         -2    1    3    3    0  502 -0.12820043907E+02  0.41973211928E+02  0.51481330608E+02  0.67649327022E+02  0.00000000000E+00 0.  1.
         11    1    5    5    0    0  0.21506533795E+03  0.89935749592E+02 -0.81206394787E+02  0.24685221732E+03  0.00000000000E+00 0. -1.
        -11    1    5    5    0    0 -0.12562073327E+00  0.70887860513E+01 -0.24868155364E+02  0.25859076153E+02  0.00000000000E+00 0.  1.
          4    1    6    6  503    0  0.38879545725E+02 -0.44488521483E+02  0.11218737414E+03  0.12679453670E+03  0.00000000000E+00 0.  1.
         -4    1    6    6    0  503  0.20172091676E+03 -0.55180559255E+03  0.77492999055E+03  0.97246965530E+03  0.00000000000E+00 0. -1.
<mgrwt>
<rscale>  0 0.18567116E+04</rscale>
<asrwt>0</asrwt>
<pdfrwt beam="1">  1        1 0.32623358E+00 0.18567116E+04</pdfrwt>
<pdfrwt beam="2">  1       -2 0.62527853E-01 0.18567116E+04</pdfrwt>
<totfact> 0.48290102E+00</totfact>
</mgrwt>
</event>
<event>
12    4  0.4183215E-008  0.1562004E+04  0.7818608E-02  0.8844237E-01
         -2   -1    0    0    0  501 -0.00000000000E+00  0.00000000000E+00  0.17004109088E+04  0.17004109088E+04  0.00000000000E+00 0.  1.
          1   -1    0    0  501    0  0.00000000000E+00 -0.00000000000E+00 -0.35871562095E+03  0.35871562095E+03  0.00000000000E+00 0. -1.
        -24    2    1    2    0    0 -0.17952707199E+03 -0.28402625829E+03  0.93021094962E+03  0.99201480593E+03  0.76811974420E+02 0.  0.
        254    2    1    2    0    0  0.17952707199E+03  0.28402625829E+03  0.41148433819E+03  0.10671117238E+04  0.92547673416E+03 0.  0.
         23    2    4    4    0    0  0.18656529712E+03  0.50317195878E+03 -0.51306957981E+02  0.54681713747E+03  0.91585739622E+02 0.  0.
         23    2    4    4    0    0 -0.70382251298E+01 -0.21914570049E+03  0.46279129617E+03  0.52029458630E+03  0.91958132181E+02 0.  0.
          3    1    3    3  502    0 -0.27637102126E+02 -0.96176789255E+02  0.21597699026E+03  0.23803328449E+03  0.00000000000E+00 0. -1.
         -4    1    3    3    0  502 -0.15188996987E+03 -0.18784946903E+03  0.71423395936E+03  0.75398152143E+03  0.00000000000E+00 0.  1.
         11    1    5    5    0    0  0.42100721477E+02  0.20716895407E+03 -0.50887973170E+02  0.21744202007E+03  0.00000000000E+00 0. -1.
        -11    1    5    5    0    0  0.14446457565E+03  0.29600300470E+03 -0.41898481084E+00  0.32937511739E+03  0.00000000000E+00 0.  1.
          3    1    6    6  503    0  0.61589847359E+01 -0.54529264563E+00  0.72470862057E+02  0.72734147993E+02  0.00000000000E+00 0. -1.
         -3    1    6    6    0  503 -0.13197209866E+02 -0.21860040784E+03  0.39032043411E+03  0.44756043831E+03  0.00000000000E+00 0.  1.
<mgrwt>
<rscale>  0 0.15620038E+04</rscale>
<asrwt>0</asrwt>
<pdfrwt beam="1">  1        1 0.55187020E-01 0.15620038E+04</pdfrwt>
<pdfrwt beam="2">  1       -2 0.26160167E+00 0.15620038E+04</pdfrwt>
<totfact> 0.31841569E+00</totfact>
</mgrwt>
</event>
<event>
12    4  0.4183215E-008  0.1669090E+04  0.7818608E-02  0.8779192E-01
          1   -1    0    0  501    0  0.00000000000E+00  0.00000000000E+00  0.21968392397E+04  0.21968392397E+04  0.00000000000E+00 0. -1.
         -2   -1    0    0    0  501 -0.00000000000E+00 -0.00000000000E+00 -0.31703076048E+03  0.31703076048E+03  0.00000000000E+00 0.  1.
        -24    2    1    2    0    0  0.15392199988E+03  0.27999179797E+03 -0.66149867660E+02  0.34307264524E+03  0.10599832991E+03 0.  0.
        254    2    1    2    0    0 -0.15392199988E+03 -0.27999179797E+03  0.19459583469E+04  0.21707973549E+04  0.90747996088E+03 0.  0.
         23    2    4    4    0    0 -0.17544996811E+03 -0.15359104757E+02 -0.60073039774E+01  0.19869405036E+03  0.91785862410E+02 0.  0.
         23    2    4    4    0    0  0.21527968230E+02 -0.26463269321E+03  0.19519656508E+04  0.19721033046E+04  0.92345146252E+02 0.  0.
          3    1    3    3  502    0  0.55908595803E+02  0.10371025442E+03  0.27046946755E+02  0.12088476035E+03  0.00000000000E+00 0. -1.
         -4    1    3    3    0  502  0.98013404082E+02  0.17628154355E+03 -0.93196814415E+02  0.22218788489E+03  0.00000000000E+00 0.  1.
         11    1    5    5    0    0 -0.34598710253E+02  0.18624534472E+02  0.29950192689E+02  0.49406053046E+02  0.00000000000E+00 0. -1.
        -11    1    5    5    0    0 -0.14085125786E+03 -0.33983639229E+02 -0.35957496667E+02  0.14928799732E+03  0.00000000000E+00 0.  1.
          2    1    6    6  503    0  0.24538683629E+02 -0.14588328677E+02  0.29448005716E+03  0.29586055904E+03  0.00000000000E+00 0. -1.
         -2    1    6    6    0  503 -0.30107153993E+01 -0.25004436453E+03  0.16574855937E+04  0.16762427455E+04  0.00000000000E+00 0.  1.
<mgrwt>
<rscale>  0 0.16690903E+04</rscale>
<asrwt>0</asrwt>
<pdfrwt beam="1">  1        1 0.33797526E+00 0.16690903E+04</pdfrwt>
<pdfrwt beam="2">  1       -2 0.48773965E-01 0.16690903E+04</pdfrwt>
<totfact> 0.73063527E+00</totfact>
</mgrwt>
</event>
<event>
12    4  0.4183215E-008  0.1444025E+04  0.7818608E-02  0.8922554E-01
          1   -1    0    0  501    0  0.00000000000E+00  0.00000000000E+00  0.18051529665E+04  0.18051529665E+04  0.00000000000E+00 0. -1.
         -2   -1    0    0    0  501 -0.00000000000E+00 -0.00000000000E+00 -0.28878538153E+03  0.28878538153E+03  0.00000000000E+00 0.  1.
        -24    2    1    2    0    0  0.36465917066E+03  0.27964833073E+02  0.12148657178E+03  0.39355927066E+03  0.79822113284E+02 0.  0.
        254    2    1    2    0    0 -0.36465917066E+03 -0.27964833073E+02  0.13948810132E+04  0.17003790774E+04  0.90102032339E+03 0.  0.
         23    2    4    4    0    0 -0.49511737916E+02 -0.26969332377E+03  0.12245689350E+04  0.12588170316E+04  0.99324425641E+02 0.  0.
         23    2    4    4    0    0 -0.31514743274E+03  0.24172849069E+03  0.17031207826E+03  0.44156204578E+03  0.90665697487E+02 0.  0.
          3    1    3    3  502    0  0.26735119280E+03  0.27086948310E+02  0.51289563665E+02  0.27357079961E+03  0.00000000000E+00 0. -1.
         -4    1    3    3    0  502  0.97307977855E+02  0.87788476293E+00  0.70197008117E+02  0.11998847105E+03  0.00000000000E+00 0.  1.
         11    1    5    5    0    0 -0.56669035958E+02 -0.25826540254E+03  0.10169768778E+04  0.10507874988E+04  0.00000000000E+00 0. -1.
        -11    1    5    5    0    0  0.71572980422E+01 -0.11427921222E+02  0.20759205720E+03  0.20802953278E+03  0.00000000000E+00 0.  1.
          4    1    6    6  503    0 -0.24922647603E+03  0.21019006224E+03  0.10221469197E+03  0.34167461403E+03  0.00000000000E+00 0. -1.
         -4    1    6    6    0  503 -0.65920956712E+02  0.31538428456E+02  0.68097386292E+02  0.99887431758E+02  0.00000000000E+00 0.  1.
<mgrwt>
<rscale>  0 0.14440246E+04</rscale>
<asrwt>0</asrwt>
<pdfrwt beam="1">  1        1 0.27771584E+00 0.14440246E+04</pdfrwt>
<pdfrwt beam="2">  1       -2 0.44428521E-01 0.14440246E+04</pdfrwt>
<totfact> 0.16565241E+01</totfact>
</mgrwt>
</event>
<event>
12    4  0.4183215E-008  0.1599193E+04  0.7818608E-02  0.8821044E-01
          1   -1    0    0  501    0  0.00000000000E+00  0.00000000000E+00  0.10238430018E+04  0.10238430018E+04  0.00000000000E+00 0. -1.
         -2   -1    0    0    0  501 -0.00000000000E+00 -0.00000000000E+00 -0.62446580117E+03  0.62446580117E+03  0.00000000000E+00 0.  1.
        -24    2    1    2    0    0 -0.12354807327E+03  0.17397999956E+02  0.67550828163E+03  0.69178712230E+03  0.81799555077E+02 0.  0.
        254    2    1    2    0    0  0.12354807327E+03 -0.17397999956E+02 -0.27613108097E+03  0.95652168070E+03  0.90725880264E+03 0.  0.
         23    2    4    4    0    0 -0.33454882418E+03  0.14841067361E+03  0.24063853361E+02  0.37798363384E+03  0.91345030571E+02 0.  0.
         23    2    4    4    0    0  0.45809689745E+03 -0.16580867357E+03 -0.30019493433E+03  0.57853804686E+03  0.85111628958E+02 0.  0.
          3    1    3    3  502    0 -0.13234538106E+03  0.23972513366E+02  0.56743863094E+03  0.58316085360E+03  0.00000000000E+00 0. -1.
         -4    1    3    3    0  502  0.87973077887E+01 -0.65745134105E+01  0.10806965069E+03  0.10862626870E+03  0.00000000000E+00 0.  1.
         11    1    5    5    0    0 -0.26067556657E+03  0.14791248492E+03  0.40103742007E+02  0.30238744075E+03  0.00000000000E+00 0. -1.
        -11    1    5    5    0    0 -0.73873257607E+02  0.49818869654E+00 -0.16039888646E+02  0.75596193086E+02  0.00000000000E+00 0.  1.
          2    1    6    6  503    0  0.66736943997E+01 -0.15611877842E+02 -0.20972136382E+01  0.17107519742E+02  0.00000000000E+00 0. -1.
         -2    1    6    6    0  503  0.45142320305E+03 -0.15019679573E+03 -0.29809772069E+03  0.56143052712E+03  0.00000000000E+00 0.  1.
<mgrwt>
<rscale>  0 0.15991935E+04</rscale>
<asrwt>0</asrwt>
<pdfrwt beam="1">  1        1 0.15751431E+00 0.15991935E+04</pdfrwt>
<pdfrwt beam="2">  1       -2 0.96071662E-01 0.15991935E+04</pdfrwt>
<totfact> 0.11072705E+01</totfact>
</mgrwt>
</event>
<event>
12    4  0.4183215E-008  0.1339470E+04  0.7818608E-02  0.8998838E-01
          1   -1    0    0  501    0  0.00000000000E+00  0.00000000000E+00  0.80801576868E+03  0.80801576868E+03  0.00000000000E+00 0. -1.
         -2   -1    0    0    0  501 -0.00000000000E+00 -0.00000000000E+00 -0.55511920284E+03  0.55511920284E+03  0.00000000000E+00 0.  1.
        -24    2    1    2    0    0  0.33664802876E+03  0.74258336667E+02  0.18151779092E+03  0.39800532336E+03  0.81322402606E+02 0.  0.
        254    2    1    2    0    0 -0.33664802876E+03 -0.74258336667E+02  0.71378774922E+02  0.96512964817E+03  0.89862901824E+03 0.  0.
         23    2    4    4    0    0  0.19316522188E+03 -0.17037662815E+02  0.30749429855E+03  0.37481182035E+03  0.91258271599E+02 0.  0.
         23    2    4    4    0    0 -0.52981325064E+03 -0.57220673852E+02 -0.23611552363E+03  0.59031782781E+03  0.93532407563E+02 0.  0.
          3    1    3    3  502    0  0.20455752675E+03  0.14471515970E+02  0.76064574527E+02  0.21872134332E+03  0.00000000000E+00 0. -1.
         -4    1    3    3    0  502  0.13209050201E+03  0.59786820697E+02  0.10545321639E+03  0.17928398004E+03  0.00000000000E+00 0.  1.
         11    1    5    5    0    0  0.36486364588E+02  0.29641235298E+02  0.42102673497E+02  0.63106994433E+02  0.00000000000E+00 0.  1.
        -11    1    5    5    0    0  0.15667885729E+03 -0.46678898113E+02  0.26539162505E+03  0.31170482592E+03  0.00000000000E+00 0. -1.
          4    1    6    6  503    0 -0.28487737847E+03  0.14909646118E+02 -0.11273808679E+03  0.30673652297E+03  0.00000000000E+00 0. -1.
         -4    1    6    6    0  503 -0.24493587217E+03 -0.72130319970E+02 -0.12337743683E+03  0.28358130484E+03  0.00000000000E+00 0.  1.
<mgrwt>
<rscale>  0 0.13394701E+04</rscale>
<asrwt>0</asrwt>
<pdfrwt beam="1">  1        1 0.12431012E+00 0.13394701E+04</pdfrwt>
<pdfrwt beam="2">  1       -2 0.85402954E-01 0.13394701E+04</pdfrwt>
<totfact> 0.22260770E+01</totfact>
</mgrwt>
</event>
<event>
12    4  0.4183215E-008  0.2632907E+04  0.7818608E-02  0.8357109E-01
         -2   -1    0    0    0  501 -0.00000000000E+00  0.00000000000E+00  0.18092019742E+04  0.18092019742E+04  0.00000000000E+00 0.  1.
          1   -1    0    0  501    0  0.00000000000E+00 -0.00000000000E+00 -0.95790809357E+03  0.95790809357E+03  0.00000000000E+00 0. -1.
        -24    2    1    2    0    0  0.61413174292E+03 -0.40217252639E+02 -0.65954478236E+03  0.90557990708E+03  0.79375204624E+02 0.  0.
        254    2    1    2    0    0 -0.61413174292E+03  0.40217252639E+02  0.15108386630E+04  0.18615301607E+04  0.89659681493E+03 0.  0.
         23    2    4    4    0    0 -0.24321585561E+03  0.27438876697E+03  0.11375690986E+03  0.39428557597E+03  0.89873984099E+02 0.  0.
         23    2    4    4    0    0 -0.37091588731E+03 -0.23417151433E+03  0.13970817532E+04  0.14672445848E+04  0.92489744802E+02 0.  0.
          3    1    3    3  502    0  0.50070699320E+03 -0.59336188317E+02 -0.51326137991E+03  0.71948976392E+03  0.00000000000E+00 0. -1.
         -4    1    3    3    0  502  0.11342474972E+03  0.19118935678E+02 -0.14628340244E+03  0.18609014316E+03  0.00000000000E+00 0.  1.
         11    1    5    5    0    0 -0.15579962495E+02  0.69144253973E+02  0.17209760725E+02  0.72937226113E+02  0.00000000000E+00 0.  1.
        -11    1    5    5    0    0 -0.22763589312E+03  0.20524451299E+03  0.96547149131E+02  0.32134834986E+03  0.00000000000E+00 0. -1.
          2    1    6    6  503    0 -0.33989427909E+03 -0.23826748441E+03  0.13290333645E+04  0.13923466519E+04  0.00000000000E+00 0. -1.
         -2    1    6    6    0  503 -0.31021608218E+02  0.40959700821E+01  0.68048388658E+02  0.74897932857E+02  0.00000000000E+00 0.  1.
<mgrwt>
<rscale>  0 0.26329065E+04</rscale>
<asrwt>0</asrwt>
<pdfrwt beam="1">  1        1 0.14737048E+00 0.26329065E+04</pdfrwt>
<pdfrwt beam="2">  1       -2 0.27833876E+00 0.26329065E+04</pdfrwt>
<totfact> 0.54243431E-01</totfact>
</mgrwt>
</event>
<event>
12    4  0.4183215E-008  0.1438572E+04  0.7818608E-02  0.8926362E-01
          1   -1    0    0  501    0  0.00000000000E+00  0.00000000000E+00  0.38681409367E+03  0.38681409367E+03  0.00000000000E+00 0. -1.
         -2   -1    0    0    0  501 -0.00000000000E+00 -0.00000000000E+00 -0.13375228706E+04  0.13375228706E+04  0.00000000000E+00 0.  1.
        -24    2    1    2    0    0 -0.48765152692E+02 -0.15346573135E+03 -0.78519147972E+03  0.80550522781E+03  0.79895189996E+02 0.  0.
        254    2    1    2    0    0  0.48765152692E+02  0.15346573135E+03 -0.16551729719E+03  0.91883173644E+03  0.88934021241E+03 0.  0.
         23    2    4    4    0    0  0.25362105661E+03  0.38853482672E+03 -0.30849757438E+03  0.56468250370E+03  0.91720361183E+02 0.  0.
         23    2    4    4    0    0 -0.20485590392E+03 -0.23506909537E+03  0.14298027720E+03  0.35414923274E+03  0.88061901033E+02 0.  0.
          1    1    3    3  502    0  0.18975890660E+02 -0.52039209537E+02 -0.18821211718E+03  0.19619369207E+03  0.00000000000E+00 0. -1.
         -2    1    3    3    0  502 -0.67741043352E+02 -0.10142652182E+03 -0.59697936254E+03  0.60931153574E+03  0.00000000000E+00 0.  1.
         11    1    5    5    0    0  0.24621074880E+03  0.39245576973E+03 -0.29650955765E+03  0.55005379900E+03  0.00000000000E+00 0. -1.
        -11    1    5    5    0    0  0.74103078082E+01 -0.39209430112E+01 -0.11988016734E+02  0.14628704698E+02  0.00000000000E+00 0.  1.
          4    1    6    6  503    0 -0.20501007086E+03 -0.21600748520E+03  0.11279955736E+03  0.31845266988E+03  0.00000000000E+00 0. -1.
         -4    1    6    6    0  503  0.15416694309E+00 -0.19061610175E+02  0.30180719834E+02  0.35696562854E+02  0.00000000000E+00 0.  1.
<mgrwt>
<rscale>  0 0.14385725E+04</rscale>
<asrwt>0</asrwt>
<pdfrwt beam="1">  1        1 0.59509860E-01 0.14385725E+04</pdfrwt>
<pdfrwt beam="2">  1       -2 0.20577275E+00 0.14385725E+04</pdfrwt>
<totfact> 0.64934215E+00</totfact>
</mgrwt>
</event>
<event>
12    4  0.4183215E-008  0.1480496E+04  0.7818608E-02  0.8897528E-01
          1   -1    0    0  501    0  0.00000000000E+00  0.00000000000E+00  0.82875840098E+03  0.82875840098E+03  0.00000000000E+00 0. -1.
         -2   -1    0    0    0  501 -0.00000000000E+00 -0.00000000000E+00 -0.66118997780E+03  0.66118997780E+03  0.00000000000E+00 0.  1.
        -24    2    1    2    0    0 -0.36789175341E+03 -0.23616139935E+03  0.17082307539E+03  0.47636701955E+03  0.81415388379E+02 0.  0.
        254    2    1    2    0    0  0.36789175341E+03  0.23616139935E+03 -0.32546522114E+01  0.10135813592E+04  0.91445067130E+03 0.  0.
         23    2    4    4    0    0  0.59565482472E+03 -0.81107659323E+02  0.40044937429E+02  0.60971136214E+03  0.93601418228E+02 0.  0.
         23    2    4    4    0    0 -0.22776307132E+03  0.31726905867E+03 -0.43299589641E+02  0.40386999708E+03  0.93276191122E+02 0.  0.
          1    1    3    3  502    0 -0.35366278364E+03 -0.20790118456E+03  0.14367263729E+03  0.43467469881E+03  0.00000000000E+00 0. -1.
         -2    1    3    3    0  502 -0.14228969765E+02 -0.28260214786E+02  0.27150438099E+02  0.41692320747E+02  0.00000000000E+00 0.  1.
         11    1    5    5    0    0  0.11501019760E+03  0.11510524861E+02  0.32886320279E+02  0.12017215899E+03  0.00000000000E+00 0. -1.
        -11    1    5    5    0    0  0.48064462713E+03 -0.92618184184E+02  0.71586171502E+01  0.48953920316E+03  0.00000000000E+00 0.  1.
          3    1    6    6  503    0 -0.20143951130E+03  0.22082845896E+03 -0.52500778748E+02  0.30347885720E+03  0.00000000000E+00 0. -1.
         -3    1    6    6    0  503 -0.26323560021E+02  0.96440599715E+02  0.92011891075E+01  0.10039113988E+03  0.00000000000E+00 0.  1.
<mgrwt>
<rscale>  0 0.14804955E+04</rscale>
<asrwt>0</asrwt>
<pdfrwt beam="1">  1        1 0.12750129E+00 0.14804955E+04</pdfrwt>
<pdfrwt beam="2">  1       -2 0.10172153E+00 0.14804955E+04</pdfrwt>
<totfact> 0.14056600E+01</totfact>
</mgrwt>
</event>
<event>
12    4  0.4183215E-008  0.1095649E+04  0.7818608E-02  0.9209443E-01
         -2   -1    0    0    0  501 -0.00000000000E+00  0.00000000000E+00  0.10777646769E+03  0.10777646769E+03  0.00000000000E+00 0.  1.
          1   -1    0    0  501    0  0.00000000000E+00 -0.00000000000E+00 -0.27845750210E+04  0.27845750210E+04  0.00000000000E+00 0. -1.
        -24    2    1    2    0    0  0.12874408024E+03 -0.82541715710E+01 -0.23045486980E+03  0.27615074308E+03  0.80663599857E+02 0.  0.
        254    2    1    2    0    0 -0.12874408024E+03  0.82541715710E+01 -0.24463436835E+04  0.26162007456E+04  0.91829502558E+03 0.  0.
         23    2    4    4    0    0 -0.22447700620E+02 -0.33325285408E+03 -0.20318161734E+04  0.20612873784E+04  0.95222527941E+02 0.  0.
         23    2    4    4    0    0 -0.10629637962E+03  0.34150702565E+03 -0.41452751007E+03  0.55491336719E+03  0.90387054336E+02 0.  0.
          3    1    3    3  502    0  0.52077849240E+02 -0.34434185771E+02 -0.14765040797E+03  0.16030738756E+03  0.00000000000E+00 0. -1.
         -4    1    3    3    0  502  0.76666231000E+02  0.26180014200E+02 -0.82804461830E+02  0.11584335552E+03  0.00000000000E+00 0.  1.
         11    1    5    5    0    0 -0.94433558336E+01 -0.21165770956E+02 -0.34615581758E+03  0.34693085316E+03  0.00000000000E+00 0. -1.
        -11    1    5    5    0    0 -0.13004344787E+02 -0.31208708312E+03 -0.16856603558E+04  0.17143565253E+04  0.00000000000E+00 0.  1.
          2    1    6    6  503    0 -0.88336251650E+02  0.14752574244E+03 -0.16464356149E+03  0.23806436184E+03  0.00000000000E+00 0. -1.
         -2    1    6    6    0  503 -0.17960127969E+02  0.19398128321E+03 -0.24988394859E+03  0.31684900535E+03  0.00000000000E+00 0.  1.
<mgrwt>
<rscale>  0 0.10956490E+04</rscale>
<asrwt>0</asrwt>
<pdfrwt beam="1">  1        1 0.42839612E+00 0.10956490E+04</pdfrwt>
<pdfrwt beam="2">  1       -2 0.16580996E-01 0.10956490E+04</pdfrwt>
<totfact> 0.22443702E+01</totfact>
</mgrwt>
</event>
<event>
12    4  0.4183215E-008  0.1935480E+04  0.7818608E-02  0.8637395E-01
          1   -1    0    0  501    0  0.00000000000E+00  0.00000000000E+00  0.73690500721E+03  0.73690500721E+03  0.00000000000E+00 0. -1.
         -2   -1    0    0    0  501 -0.00000000000E+00 -0.00000000000E+00 -0.12708837722E+04  0.12708837722E+04  0.00000000000E+00 0.  1.
        -24    2    1    2    0    0 -0.50681441919E+03  0.25881500656E+03  0.29889417458E+03  0.64788962421E+03  0.81099780770E+02 0.  0.
        254    2    1    2    0    0  0.50681441919E+03 -0.25881500656E+03 -0.83287293955E+03  0.13598991552E+04  0.91203197077E+03 0.  0.
         23    2    4    4    0    0  0.93188032632E+02 -0.47054757202E+03 -0.72581793756E+03  0.87469494827E+03  0.90446376860E+02 0.  0.
         23    2    4    4    0    0  0.41362638656E+03  0.21173256546E+03 -0.10705500199E+03  0.48520420691E+03  0.89693266281E+02 0.  0.
          3    1    3    3  502    0 -0.26111397349E+03  0.96981046919E+02  0.17286660553E+03  0.32782418141E+03  0.00000000000E+00 0. -1.
         -4    1    3    3    0  502 -0.24570044571E+03  0.16183395964E+03  0.12602756905E+03  0.32006544280E+03  0.00000000000E+00 0.  1.
         11    1    5    5    0    0  0.85154025562E+02 -0.20624310169E+03 -0.35350653138E+03  0.41803623383E+03  0.00000000000E+00 0. -1.
        -11    1    5    5    0    0  0.80340070704E+01 -0.26430447033E+03 -0.37231140618E+03  0.45665871445E+03  0.00000000000E+00 0.  1.
          2    1    6    6  503    0  0.32406144261E+03  0.15853950765E+03 -0.12007943582E+03  0.38022317786E+03  0.00000000000E+00 0. -1.
         -2    1    6    6    0  503  0.89564943950E+02  0.53193057814E+02  0.13024433834E+02  0.10498102905E+03  0.00000000000E+00 0.  1.
<mgrwt>
<rscale>  0 0.19354799E+04</rscale>
<asrwt>0</asrwt>
<pdfrwt beam="1">  1        1 0.11337000E+00 0.19354799E+04</pdfrwt>
<pdfrwt beam="2">  1       -2 0.19552058E+00 0.19354799E+04</pdfrwt>
<totfact> 0.29269676E+00</totfact>
</mgrwt>
</event>
<event>
12    4  0.4183215E-008  0.1640151E+04  0.7818608E-02  0.8796254E-01
         -2   -1    0    0    0  501 -0.00000000000E+00  0.00000000000E+00  0.52222644077E+03  0.52222644077E+03  0.00000000000E+00 0.  1.
          1   -1    0    0  501    0  0.00000000000E+00 -0.00000000000E+00 -0.12878011746E+04  0.12878011746E+04  0.00000000000E+00 0. -1.
        -24    2    1    2    0    0  0.35734868347E+03 -0.17675732972E+03 -0.68472862549E+03  0.79591412436E+03  0.75397397827E+02 0.  0.
        254    2    1    2    0    0 -0.35734868347E+03  0.17675732972E+03 -0.80846108300E+02  0.10141134910E+04  0.92895039918E+03 0.  0.
         23    2    4    4    0    0 -0.50117782049E+03 -0.20377859040E+03 -0.19459859891E+03  0.58196360563E+03  0.90044999468E+02 0.  0.
         23    2    4    4    0    0  0.14382913701E+03  0.38053592012E+03  0.11375249061E+03  0.43214988533E+03  0.91211222550E+02 0.  0.
          1    1    3    3  502    0  0.26506642630E+03 -0.10000320308E+03 -0.51894740249E+03  0.59124213105E+03  0.00000000000E+00 0. -1.
         -2    1    3    3    0  502  0.92282257179E+02 -0.76754126643E+02 -0.16578122300E+03  0.20467199331E+03  0.00000000000E+00 0.  1.
         11    1    5    5    0    0 -0.22011000101E+03 -0.88698773635E+02 -0.38264203054E+02  0.24037477868E+03  0.00000000000E+00 0.  1.
        -11    1    5    5    0    0 -0.28106781947E+03 -0.11507981677E+03 -0.15633439586E+03  0.34158882695E+03  0.00000000000E+00 0. -1.
          1    1    6    6  503    0  0.69883435637E+02  0.23660257111E+03  0.11044009089E+03  0.27029888070E+03  0.00000000000E+00 0. -1.
         -1    1    6    6    0  503  0.73945701374E+02  0.14393334901E+03  0.33123997214E+01  0.16185100463E+03  0.00000000000E+00 0.  1.
<mgrwt>
<rscale>  0 0.16401510E+04</rscale>
<asrwt>0</asrwt>
<pdfrwt beam="1">  1        1 0.19812326E+00 0.16401510E+04</pdfrwt>
<pdfrwt beam="2">  1       -2 0.80342530E-01 0.16401510E+04</pdfrwt>
<totfact> 0.10600775E+01</totfact>
</mgrwt>
</event>
<event>
12    4  0.4183215E-008  0.1373552E+04  0.7818608E-02  0.8973189E-01
          1   -1    0    0  501    0  0.00000000000E+00  0.00000000000E+00  0.28696468575E+04  0.28696468575E+04  0.00000000000E+00 0. -1.
         -2   -1    0    0    0  501 -0.00000000000E+00 -0.00000000000E+00 -0.16436207033E+03  0.16436207033E+03  0.00000000000E+00 0.  1.
        -24    2    1    2    0    0  0.27492932737E+03 -0.25487472003E+03  0.98037146319E+03  0.10526711201E+04  0.80255985507E+02 0.  0.
        254    2    1    2    0    0 -0.27492932737E+03  0.25487472003E+03  0.17249133239E+04  0.19813378077E+04  0.89990348109E+03 0.  0.
         23    2    4    4    0    0 -0.36285954211E+03  0.54311369752E+03  0.11855773889E+04  0.13566946198E+04  0.91580623546E+02 0.  0.
         23    2    4    4    0    0  0.87930214742E+02 -0.28823897748E+03  0.53933593509E+03  0.62464318797E+03  0.92100111790E+02 0.  0.
          3    1    3    3  502    0  0.24853601803E+03 -0.24990756795E+03  0.86161792546E+03  0.93091857552E+03  0.00000000000E+00 0. -1.
         -4    1    3    3    0  502  0.26393309340E+02 -0.49671520776E+01  0.11875353773E+03  0.12175254454E+03  0.00000000000E+00 0.  1.
         11    1    5    5    0    0 -0.87689309673E+02  0.14059209826E+03  0.22473199811E+03  0.27921322336E+03  0.00000000000E+00 0. -1.
        -11    1    5    5    0    0 -0.27517023244E+03  0.40252159926E+03  0.96084539075E+03  0.10774813964E+04  0.00000000000E+00 0.  1.
          4    1    6    6  503    0  0.50536730968E+02 -0.23328084604E+03  0.47759573482E+03  0.53392096814E+03  0.00000000000E+00 0. -1.
         -4    1    6    6    0  503  0.37393483775E+02 -0.54958131448E+02  0.61740200273E+02  0.90722219830E+02  0.00000000000E+00 0.  1.
<mgrwt>
<rscale>  0 0.13735517E+04</rscale>
<asrwt>0</asrwt>
<pdfrwt beam="1">  1        1 0.44148410E+00 0.13735517E+04</pdfrwt>
<pdfrwt beam="2">  1       -2 0.25286474E-01 0.13735517E+04</pdfrwt>
<totfact> 0.90201396E+00</totfact>
</mgrwt>
</event>
<event>
12    4  0.4183215E-008  0.2360679E+04  0.7818608E-02  0.8454373E-01
         -2   -1    0    0    0  501 -0.00000000000E+00  0.00000000000E+00  0.78268017869E+03  0.78268017869E+03  0.00000000000E+00 0.  1.
          1   -1    0    0  501    0  0.00000000000E+00 -0.00000000000E+00 -0.17800392797E+04  0.17800392797E+04  0.00000000000E+00 0. -1.
        -24    2    1    2    0    0 -0.80674422026E+03  0.33123975060E+03  0.11372260489E+03  0.88294700492E+03  0.78144566873E+02 0.  0.
        254    2    1    2    0    0  0.80674422026E+03 -0.33123975060E+03 -0.11110817059E+04  0.16797724534E+04  0.90916276261E+03 0.  0.
         23    2    4    4    0    0  0.70715059309E+03 -0.55922432761E+03 -0.55045121093E+03  0.10602805968E+04  0.91676597279E+02 0.  0.
         23    2    4    4    0    0  0.99593627167E+02  0.22798457701E+03 -0.56063049493E+03  0.61949185661E+03  0.86992819421E+02 0.  0.
          3    1    3    3  502    0 -0.38506966205E+03  0.15859726164E+03  0.93684316581E+02  0.42685886099E+03  0.00000000000E+00 0. -1.
         -4    1    3    3    0  502 -0.42167455821E+03  0.17264248895E+03  0.20038288313E+02  0.45608814393E+03  0.00000000000E+00 0.  1.
         11    1    5    5    0    0  0.67882996014E+03 -0.51314531867E+03 -0.50418886799E+03  0.98910800596E+03  0.00000000000E+00 0. -1.
        -11    1    5    5    0    0  0.28320632955E+02 -0.46079008938E+02 -0.46262342944E+02  0.71172590864E+02  0.00000000000E+00 0.  1.
          2    1    6    6  503    0  0.10488999482E+03  0.14762437226E+03 -0.42108214028E+03  0.45837215793E+03  0.00000000000E+00 0. -1.
         -2    1    6    6    0  503 -0.52963676570E+01  0.80360204748E+02 -0.13954835466E+03  0.16111969869E+03  0.00000000000E+00 0.  1.
<mgrwt>
<rscale>  0 0.23606791E+04</rscale>
<asrwt>0</asrwt>
<pdfrwt beam="1">  1        1 0.27385219E+00 0.23606791E+04</pdfrwt>
<pdfrwt beam="2">  1       -2 0.12041234E+00 0.23606791E+04</pdfrwt>
<totfact> 0.17479196E+00</totfact>
</mgrwt>
</event>
<event>
12    4  0.4183215E-008  0.2052605E+04  0.7818608E-02  0.8582414E-01
          1   -1    0    0  501    0  0.00000000000E+00  0.00000000000E+00  0.25698430535E+03  0.25698430535E+03  0.00000000000E+00 0. -1.
         -2   -1    0    0    0  501 -0.00000000000E+00 -0.00000000000E+00 -0.40986796610E+04  0.40986796610E+04  0.00000000000E+00 0.  1.
        -24    2    1    2    0    0 -0.11449106385E+02 -0.70482463340E+03 -0.21455137227E+04  0.22597555324E+04  0.79731337887E+02 0.  0.
        254    2    1    2    0    0  0.11449106385E+02  0.70482463340E+03 -0.16961816330E+04  0.20959084339E+04  0.10094013996E+04 0.  0.
         23    2    4    4    0    0 -0.26509271424E+03 -0.65128682470E+01 -0.57694997146E+02  0.28628759450E+03  0.91188318750E+02 0.  0.
         23    2    4    4    0    0  0.27654182062E+03  0.71133750165E+03 -0.16384866358E+04  0.18096208394E+04  0.87250827495E+02 0.  0.
          1    1    3    3  502    0  0.12905411401E+01 -0.15148593100E+03 -0.36472845996E+03  0.39493860573E+03  0.00000000000E+00 0. -1.
         -2    1    3    3    0  502 -0.12739647526E+02 -0.55333870240E+03 -0.17807852627E+04  0.18648169267E+04  0.00000000000E+00 0.  1.
         11    1    5    5    0    0 -0.17294600878E+02 -0.17042792961E+02 -0.27099258990E+02  0.36385846826E+02  0.00000000000E+00 0. -1.
        -11    1    5    5    0    0 -0.24779811336E+03  0.10529924714E+02 -0.30595738156E+02  0.24990174768E+03  0.00000000000E+00 0.  1.
          2    1    6    6  503    0  0.50722824957E+02  0.11559598231E+03 -0.35351764906E+03  0.37537976011E+03  0.00000000000E+00 0. -1.
         -2    1    6    6    0  503  0.22581899566E+03  0.59574151934E+03 -0.12849689868E+04  0.14342410793E+04  0.00000000000E+00 0.  1.
<mgrwt>
<rscale>  0 0.20526045E+04</rscale>
<asrwt>0</asrwt>
<pdfrwt beam="1">  1        1 0.39536049E-01 0.20526045E+04</pdfrwt>
<pdfrwt beam="2">  1       -2 0.63056608E+00 0.20526045E+04</pdfrwt>
<totfact> 0.33208173E-02</totfact>
</mgrwt>
</event>
<event>
12    4  0.4183215E-008  0.1618649E+04  0.7818608E-02  0.8809172E-01
          1   -1    0    0  501    0  0.00000000000E+00  0.00000000000E+00  0.13447228465E+04  0.13447228465E+04  0.00000000000E+00 0. -1.
         -2   -1    0    0    0  501 -0.00000000000E+00 -0.00000000000E+00 -0.48709408227E+03  0.48709408227E+03  0.00000000000E+00 0.  1.
        -24    2    1    2    0    0 -0.35456794399E+02 -0.27246507212E+02  0.92839628256E+03  0.93275756726E+03  0.78214227539E+02 0.  0.
        254    2    1    2    0    0  0.35456794399E+02  0.27246507212E+02 -0.70767518307E+02  0.89905936153E+03  0.89515369490E+03 0.  0.
         23    2    4    4    0    0 -0.76896269250E+02  0.35523763100E+03  0.22292758327E+03  0.43571463804E+03  0.89686831349E+02 0.  0.
         23    2    4    4    0    0  0.11235306365E+03 -0.32799112379E+03 -0.29369510158E+03  0.46334472349E+03  0.90720074432E+02 0.  0.
          3    1    3    3  502    0 -0.32394392421E+02  0.22343100499E+02  0.48238604080E+03  0.48398853619E+03  0.00000000000E+00 0. -1.
         -4    1    3    3    0  502 -0.30624019777E+01 -0.49589607711E+02  0.44601024176E+03  0.44876903107E+03  0.00000000000E+00 0.  1.
         11    1    5    5    0    0 -0.28632100196E+02  0.27076283798E+03  0.19364914638E+03  0.33411420725E+03  0.00000000000E+00 0.  1.
        -11    1    5    5    0    0 -0.48264169054E+02  0.84474793020E+02  0.29278436892E+02  0.10160043079E+03  0.00000000000E+00 0. -1.
          1    1    6    6  503    0  0.42717039454E+01 -0.71823557611E+02 -0.10514580574E+03  0.12740687324E+03  0.00000000000E+00 0. -1.
         -1    1    6    6    0  503  0.10808135970E+03 -0.25616756618E+03 -0.18854929583E+03  0.33593785026E+03  0.00000000000E+00 0.  1.
<mgrwt>
<rscale>  0 0.16186495E+04</rscale>
<asrwt>0</asrwt>
<pdfrwt beam="1">  1        1 0.20688044E+00 0.16186495E+04</pdfrwt>
<pdfrwt beam="2">  1       -2 0.74937552E-01 0.16186495E+04</pdfrwt>
<totfact> 0.11302144E+01</totfact>
</mgrwt>
</event>
<event>
12    4  0.4183215E-008  0.2350407E+04  0.7818608E-02  0.8458307E-01
         -2   -1    0    0    0  501 -0.00000000000E+00  0.00000000000E+00  0.16022715657E+04  0.16022715657E+04  0.00000000000E+00 0.  1.
          1   -1    0    0  501    0  0.00000000000E+00 -0.00000000000E+00 -0.86196608583E+03  0.86196608583E+03  0.00000000000E+00 0. -1.
        -24    2    1    2    0    0 -0.19174593456E+03 -0.60844270907E+03 -0.49502797538E+03  0.81140091515E+03  0.79685099337E+02 0.  0.
        254    2    1    2    0    0  0.19174593456E+03  0.60844270907E+03  0.12353334552E+04  0.16528367364E+04  0.89378492816E+03 0.  0.
         23    2    4    4    0    0 -0.20716408696E+03  0.59820682914E+03  0.50737653577E+03  0.81775438023E+03  0.10258122627E+03 0.  0.
         23    2    4    4    0    0  0.39891002152E+03  0.10235879931E+02  0.72795691947E+03  0.83508235613E+03  0.90594074933E+02 0.  0.
          1    1    3    3  502    0 -0.17456719841E+03 -0.44158870057E+03 -0.37695763886E+03  0.60627662723E+03  0.00000000000E+00 0. -1.
         -2    1    3    3    0  502 -0.17178736148E+02 -0.16685400850E+03 -0.11807033653E+03  0.20512428792E+03  0.00000000000E+00 0.  1.
         11    1    5    5    0    0 -0.18346771480E+02  0.97104375518E+02  0.12696741615E+03  0.16089309659E+03  0.00000000000E+00 0. -1.
        -11    1    5    5    0    0 -0.18881731548E+03  0.50110245362E+03  0.38040911962E+03  0.65686128364E+03  0.00000000000E+00 0.  1.
          4    1    6    6  503    0  0.76221517247E+02 -0.32979340948E+02  0.16640260402E+03  0.18597629754E+03  0.00000000000E+00 0. -1.
         -4    1    6    6    0  503  0.32268850428E+03  0.43215220879E+02  0.56155431545E+03  0.64910605860E+03  0.00000000000E+00 0.  1.
<mgrwt>
<rscale>  0 0.23504074E+04</rscale>
<asrwt>0</asrwt>
<pdfrwt beam="1">  1        1 0.13261017E+00 0.23504074E+04</pdfrwt>
<pdfrwt beam="2">  1       -2 0.24650332E+00 0.23504074E+04</pdfrwt>
<totfact> 0.10424718E+00</totfact>
</mgrwt>
</event>
<event>
12    4  0.4183215E-008  0.2490524E+04  0.7818608E-02  0.8406369E-01
         -2   -1    0    0    0  501 -0.00000000000E+00  0.00000000000E+00  0.11445611297E+04  0.11445611297E+04  0.00000000000E+00 0.  1.
          1   -1    0    0  501    0  0.00000000000E+00 -0.00000000000E+00 -0.13548223843E+04  0.13548223843E+04  0.00000000000E+00 0. -1.
        -24    2    1    2    0    0 -0.92385473257E+03 -0.22769925764E+02 -0.65065489548E+03  0.11329425010E+04  0.78618579770E+02 0.  0.
        254    2    1    2    0    0  0.92385473257E+03  0.22769925764E+02  0.44039364088E+03  0.13664410131E+04  0.90509029764E+03 0.  0.
         23    2    4    4    0    0  0.38558168270E+03 -0.17412956794E+03  0.62234922551E+03  0.75807444556E+03  0.91454721364E+02 0.  0.
         23    2    4    4    0    0  0.53827304986E+03  0.19689949370E+03 -0.18195558462E+03  0.60836656751E+03  0.92167016128E+02 0.  0.
          3    1    3    3  502    0 -0.28311935154E+03  0.10181174676E+02 -0.16099256392E+03  0.32585093090E+03  0.00000000000E+00 0. -1.
         -4    1    3    3    0  502 -0.64073538103E+03 -0.32951100440E+02 -0.48966233156E+03  0.80709157007E+03  0.00000000000E+00 0.  1.
         11    1    5    5    0    0  0.34970301369E+03 -0.18109983438E+03  0.54363540191E+03  0.67128890800E+03  0.00000000000E+00 0. -1.
        -11    1    5    5    0    0  0.35878669016E+02  0.69702664439E+01  0.78713823597E+02  0.86785537562E+02  0.00000000000E+00 0.  1.
          1    1    6    6  503    0  0.38860648465E+03  0.16062155281E+03 -0.17114262623E+03  0.45398687388E+03  0.00000000000E+00 0. -1.
         -1    1    6    6    0  503  0.14966656521E+03  0.36277940897E+02 -0.10812958392E+02  0.15437969364E+03  0.00000000000E+00 0.  1.
<mgrwt>
<rscale>  0 0.24905237E+04</rscale>
<asrwt>0</asrwt>
<pdfrwt beam="1">  1        1 0.20843421E+00 0.24905237E+04</pdfrwt>
<pdfrwt beam="2">  1       -2 0.17608633E+00 0.24905237E+04</pdfrwt>
<totfact> 0.12458499E+00</totfact>
</mgrwt>
</event>
<event>
12    4  0.4183215E-008  0.1288065E+04  0.7818608E-02  0.9039084E-01
         -2   -1    0    0    0  501 -0.00000000000E+00  0.00000000000E+00  0.66371866511E+03  0.66371866511E+03  0.00000000000E+00 0.  1.
          1   -1    0    0  501    0  0.00000000000E+00 -0.00000000000E+00 -0.62492992056E+03  0.62492992056E+03  0.00000000000E+00 0. -1.
        -24    2    1    2    0    0 -0.80512930274E+02  0.33573441119E+02 -0.30398063702E+03  0.32616122535E+03  0.79796048428E+02 0.  0.
        254    2    1    2    0    0  0.80512930274E+02 -0.33573441119E+02  0.34276938157E+03  0.96248736032E+03  0.89514331922E+03 0.  0.
         23    2    4    4    0    0 -0.80769835933E+02 -0.42944282900E+03  0.82685041221E+02  0.45384723264E+03  0.90529469029E+02 0.  0.
         23    2    4    4    0    0  0.16128276621E+03  0.39586938788E+03  0.26008434035E+03  0.50864012767E+03  0.91357607516E+02 0.  0.
          3    1    3    3  502    0 -0.51231901658E+02  0.53881695791E+02 -0.25481223948E+03  0.26543779361E+03  0.00000000000E+00 0. -1.
         -4    1    3    3    0  502 -0.29281028616E+02 -0.20308254671E+02 -0.49168397539E+02  0.60723431731E+02  0.00000000000E+00 0.  1.
         11    1    5    5    0    0 -0.43764430573E+02 -0.29126689059E+03  0.96974298126E+02  0.31008989251E+03  0.00000000000E+00 0. -1.
        -11    1    5    5    0    0 -0.37005405361E+02 -0.13817593841E+03 -0.14289256904E+02  0.14375734014E+03  0.00000000000E+00 0.  1.
          3    1    6    6  503    0  0.16731374455E+03  0.33466714321E+03  0.23725058807E+03  0.44303930683E+03  0.00000000000E+00 0. -1.
         -3    1    6    6    0  503 -0.60309783406E+01  0.61202244665E+02  0.22833752284E+02  0.65600820842E+02  0.00000000000E+00 0.  1.
<mgrwt>
<rscale>  0 0.12880647E+04</rscale>
<asrwt>0</asrwt>
<pdfrwt beam="1">  1        1 0.96143065E-01 0.12880647E+04</pdfrwt>
<pdfrwt beam="2">  1       -2 0.10211056E+00 0.12880647E+04</pdfrwt>
<totfact> 0.21834774E+01</totfact>
</mgrwt>
</event>
<event>
12    4  0.4183215E-008  0.2012604E+04  0.7818608E-02  0.8600751E-01
          1   -1    0    0  501    0  0.00000000000E+00  0.00000000000E+00  0.39175675570E+03  0.39175675570E+03  0.00000000000E+00 0. -1.
         -2   -1    0    0    0  501 -0.00000000000E+00 -0.00000000000E+00 -0.25848777033E+04  0.25848777033E+04  0.00000000000E+00 0.  1.
        -24    2    1    2    0    0  0.58832970358E+03 -0.57992986151E+02 -0.79923911924E+02  0.60219591428E+03  0.82201343756E+02 0.  0.
        254    2    1    2    0    0 -0.58832970358E+03  0.57992986151E+02 -0.21131970356E+04  0.23744385447E+04  0.90711722755E+03 0.  0.
         23    2    4    4    0    0 -0.49222147808E+03 -0.37347844929E+03 -0.13414843329E+04  0.14798074502E+04  0.92096355305E+02 0.  0.
         23    2    4    4    0    0 -0.96108225501E+02  0.43147143544E+03 -0.77171270269E+03  0.89463109445E+03  0.97056215970E+02 0.  0.
          3    1    3    3  502    0  0.41844056850E+03 -0.73371385695E+01 -0.72669036804E+02  0.42476715019E+03  0.00000000000E+00 0. -1.
         -2    1    3    3    0  502  0.16988913508E+03 -0.50655847582E+02 -0.72548751192E+01  0.17742876409E+03  0.00000000000E+00 0.  1.
         11    1    5    5    0    0 -0.12319197088E+03 -0.52095946032E+02 -0.24653867827E+03  0.28048452572E+03  0.00000000000E+00 0.  1.
        -11    1    5    5    0    0 -0.36902950720E+03 -0.32138250326E+03 -0.10949456547E+04  0.11993229245E+04  0.00000000000E+00 0. -1.
          3    1    6    6  503    0 -0.92762472853E+02  0.35725730239E+03 -0.56409277785E+03  0.67412040357E+03  0.00000000000E+00 0. -1.
         -3    1    6    6    0  503 -0.33457526481E+01  0.74214133051E+02 -0.20761992484E+03  0.22051069088E+03  0.00000000000E+00 0.  1.
<mgrwt>
<rscale>  0 0.20126036E+04</rscale>
<asrwt>0</asrwt>
<pdfrwt beam="1">  1        1 0.60270270E-01 0.20126036E+04</pdfrwt>
<pdfrwt beam="2">  1       -2 0.39767349E+00 0.20126036E+04</pdfrwt>
<totfact> 0.38553845E-01</totfact>
</mgrwt>
</event>
<event>
12    4  0.4183215E-008  0.1192482E+04  0.7818608E-02  0.9119462E-01
         -2   -1    0    0    0  501 -0.00000000000E+00  0.00000000000E+00  0.47597219882E+03  0.47597219882E+03  0.00000000000E+00 0.  1.
          1   -1    0    0  501    0  0.00000000000E+00 -0.00000000000E+00 -0.74689961350E+03  0.74689961350E+03  0.00000000000E+00 0. -1.
        -24    2    1    2    0    0  0.14685790191E+03  0.97578343186E+02  0.10580760707E+03  0.22029846794E+03  0.79040425414E+02 0.  0.
        254    2    1    2    0    0 -0.14685790191E+03 -0.97578343186E+02 -0.37673502175E+03  0.10025733444E+04  0.91221448017E+03 0.  0.
         23    2    4    4    0    0 -0.92819995214E+02 -0.80242943797E+02 -0.67199604339E+03  0.68845321418E+03  0.85642654348E+02 0.  0.
         23    2    4    4    0    0 -0.54037906700E+02 -0.17335399389E+02  0.29526102164E+03  0.31412013020E+03  0.90949292809E+02 0.  0.
          3    1    3    3  502    0  0.49515871748E+02 -0.32495171248E+00  0.52870049583E+02  0.72437347353E+02  0.00000000000E+00 0. -1.
         -4    1    3    3    0  502  0.97342030166E+02  0.97903294899E+02  0.52937557486E+02  0.14786112059E+03  0.00000000000E+00 0.  1.
         11    1    5    5    0    0 -0.23865926014E+02 -0.30884775368E+02 -0.43491634142E+03  0.43666425982E+03  0.00000000000E+00 0.  1.
        -11    1    5    5    0    0 -0.68954069199E+02 -0.49358168429E+02 -0.23707970197E+03  0.25178895436E+03  0.00000000000E+00 0. -1.
          4    1    6    6  503    0  0.74498665921E+01  0.95620777217E+01  0.18246969597E+03  0.18287187807E+03  0.00000000000E+00 0. -1.
         -4    1    6    6    0  503 -0.61487773292E+02 -0.26897477111E+02  0.11279132568E+03  0.13124825213E+03  0.00000000000E+00 0.  1.
<mgrwt>
<rscale>  0 0.11924822E+04</rscale>
<asrwt>0</asrwt>
<pdfrwt beam="1">  1        1 0.11490763E+00 0.11924822E+04</pdfrwt>
<pdfrwt beam="2">  1       -2 0.73226492E-01 0.11924822E+04</pdfrwt>
<totfact> 0.36010933E+01</totfact>
</mgrwt>
</event>
<event>
12    4  0.4183215E-008  0.1587396E+04  0.7818608E-02  0.8828329E-01
         -2   -1    0    0    0  501 -0.00000000000E+00  0.00000000000E+00  0.33705544202E+03  0.33705544202E+03  0.00000000000E+00 0.  1.
          1   -1    0    0  501    0  0.00000000000E+00 -0.00000000000E+00 -0.18690003641E+04  0.18690003641E+04  0.00000000000E+00 0. -1.
        -24    2    1    2    0    0  0.33162286352E+03  0.34342777411E+03 -0.82657604400E+03  0.95784816338E+03  0.79553679582E+02 0.  0.
        254    2    1    2    0    0 -0.33162286352E+03 -0.34342777411E+03 -0.70536887808E+03  0.12482076427E+04  0.91244764540E+03 0.  0.
         23    2    4    4    0    0 -0.42280002788E+03  0.69691498211E+02 -0.20829070395E+02  0.43845713472E+03  0.90520938545E+02 0.  0.
         23    2    4    4    0    0  0.91177164360E+02 -0.41311927232E+03 -0.68453980768E+03  0.80975050802E+03  0.90112865224E+02 0.  0.
          3    1    3    3  502    0  0.17829135615E+03  0.17578201194E+03 -0.35513933604E+03  0.43452395952E+03  0.00000000000E+00 0. -1.
         -4    1    3    3    0  502  0.15333150737E+03  0.16764576216E+03 -0.47143670797E+03  0.52332420386E+03  0.00000000000E+00 0.  1.
         11    1    5    5    0    0 -0.45104432718E+02  0.28764707908E+02 -0.23770213693E+02  0.58539228991E+02  0.00000000000E+00 0.  1.
        -11    1    5    5    0    0 -0.37769559516E+03  0.40926790302E+02  0.29411432988E+01  0.37991790573E+03  0.00000000000E+00 0. -1.
          4    1    6    6  503    0  0.37524335642E+02 -0.25266082659E+03 -0.48487661140E+03  0.54804278788E+03  0.00000000000E+00 0. -1.
         -4    1    6    6    0  503  0.53652828718E+02 -0.16045844573E+03 -0.19966319628E+03  0.26170772015E+03  0.00000000000E+00 0.  1.
<mgrwt>
<rscale>  0 0.15873963E+04</rscale>
<asrwt>0</asrwt>
<pdfrwt beam="1">  1        1 0.28753852E+00 0.15873963E+04</pdfrwt>
<pdfrwt beam="2">  1       -2 0.51854683E-01 0.15873963E+04</pdfrwt>
<totfact> 0.10831957E+01</totfact>
</mgrwt>
</event>
<event>
12    4  0.4183215E-008  0.2884881E+04  0.7818608E-02  0.8277390E-01
          1   -1    0    0  501    0  0.00000000000E+00  0.00000000000E+00  0.14230204866E+04  0.14230204866E+04  0.00000000000E+00 0. -1.
         -2   -1    0    0    0  501 -0.00000000000E+00 -0.00000000000E+00 -0.14621251424E+04  0.14621251424E+04  0.00000000000E+00 0.  1.
        -24    2    1    2    0    0  0.90246507337E+03  0.68500076766E+03 -0.68502215479E+03  0.13263357446E+04  0.79005661656E+02 0.  0.
        254    2    1    2    0    0 -0.90246507337E+03 -0.68500076766E+03  0.64591749908E+03  0.15588098844E+04  0.85382057818E+03 0.  0.
         23    2    4    4    0    0 -0.28405719941E+03  0.38543168347E+02  0.51086538658E+03  0.59313219124E+03  0.92996154295E+02 0.  0.
         23    2    4    4    0    0 -0.61840787396E+03 -0.72354393601E+03  0.13505211249E+03  0.96567769315E+03  0.91379472820E+02 0.  0.
          3    1    3    3  502    0  0.27154779400E+03  0.25260602829E+03 -0.22438731264E+03  0.43347165539E+03  0.00000000000E+00 0. -1.
         -4    1    3    3    0  502  0.63091727937E+03  0.43239473938E+03 -0.46063484215E+03  0.89286408924E+03  0.00000000000E+00 0.  1.
         11    1    5    5    0    0 -0.28728359328E+03  0.47107731882E+02  0.50247060088E+03  0.58071310138E+03  0.00000000000E+00 0.  1.
        -11    1    5    5    0    0  0.32263938652E+01 -0.85645635348E+01  0.83947857071E+01  0.12419089861E+02  0.00000000000E+00 0. -1.
          4    1    6    6  503    0 -0.34221622772E+03 -0.41022626169E+03  0.30377576255E+02  0.53508908551E+03  0.00000000000E+00 0.  1.
         -4    1    6    6    0  503 -0.27619164623E+03 -0.31331767432E+03  0.10467453624E+03  0.43058860764E+03  0.00000000000E+00 0. -1.
<mgrwt>
<rscale>  0 0.28848806E+04</rscale>
<asrwt>0</asrwt>
<pdfrwt beam="1">  1        1 0.21892623E+00 0.28848806E+04</pdfrwt>
<pdfrwt beam="2">  1       -2 0.22494233E+00 0.28848806E+04</pdfrwt>
<totfact> 0.51385296E-01</totfact>
</mgrwt>
</event>
<event>
12    4  0.4183215E-008  0.1514027E+04  0.7818608E-02  0.8875178E-01
         -2   -1    0    0    0  501 -0.00000000000E+00  0.00000000000E+00  0.43778727846E+03  0.43778727846E+03  0.00000000000E+00 0.  1.
          1   -1    0    0  501    0  0.00000000000E+00 -0.00000000000E+00 -0.13090133242E+04  0.13090133242E+04  0.00000000000E+00 0. -1.
        -24    2    1    2    0    0  0.46154577185E+03  0.92323623394E+01 -0.10432943815E+03  0.47964690376E+03  0.77889566634E+02 0.  0.
        254    2    1    2    0    0 -0.46154577185E+03 -0.92323623394E+01 -0.76689660761E+03  0.12671536989E+04  0.89690487451E+03 0.  0.
         23    2    4    4    0    0 -0.66302646309E+03  0.15298375387E+03 -0.35728917155E+03  0.77380869479E+03  0.90090090049E+02 0.  0.
         23    2    4    4    0    0  0.20148069123E+03 -0.16221611621E+03 -0.40960743606E+03  0.49334500414E+03  0.93287213173E+02 0.  0.
          1    1    3    3  502    0  0.84379980860E+02 -0.18585009857E+02 -0.43017998409E+02  0.96519075568E+02  0.00000000000E+00 0. -1.
         -2    1    3    3    0  502  0.37716579099E+03  0.27817372196E+02 -0.61311439746E+02  0.38312782819E+03  0.00000000000E+00 0.  1.
         11    1    5    5    0    0 -0.18722535954E+03  0.15081916246E+02 -0.65759479037E+02  0.19901032269E+03  0.00000000000E+00 0. -1.
        -11    1    5    5    0    0 -0.47580110354E+03  0.13790183762E+03 -0.29152969252E+03  0.57479837210E+03  0.00000000000E+00 0.  1.
          4    1    6    6  503    0  0.33883641152E+02 -0.39393183670E+02 -0.16187371775E+03  0.17000889552E+03  0.00000000000E+00 0. -1.
         -4    1    6    6    0  503  0.16759705008E+03 -0.12282293253E+03 -0.24773371830E+03  0.32333610862E+03  0.00000000000E+00 0.  1.
<mgrwt>
<rscale>  0 0.15140269E+04</rscale>
<asrwt>0</asrwt>
<pdfrwt beam="1">  1        1 0.20138666E+00 0.15140269E+04</pdfrwt>
<pdfrwt beam="2">  1       -2 0.67351890E-01 0.15140269E+04</pdfrwt>
<totfact> 0.15272893E+01</totfact>
</mgrwt>
</event>
<event>
12    4  0.4183215E-008  0.1680581E+04  0.7818608E-02  0.8772518E-01
         -2   -1    0    0    0  501 -0.00000000000E+00  0.00000000000E+00  0.63333176662E+03  0.63333176662E+03  0.00000000000E+00 0.  1.
          1   -1    0    0  501    0  0.00000000000E+00 -0.00000000000E+00 -0.11148780999E+04  0.11148780999E+04  0.00000000000E+00 0. -1.
        -24    2    1    2    0    0  0.19542511308E+03  0.45214628881E+03  0.19156855745E+03  0.53451685257E+03  0.79890626339E+02 0.  0.
        254    2    1    2    0    0 -0.19542511308E+03 -0.45214628881E+03 -0.67311489071E+03  0.12136930139E+04  0.88166877831E+03 0.  0.
         23    2    4    4    0    0  0.10327571938E+03 -0.63172241138E+03 -0.38748006245E+03  0.75383695948E+03  0.91598490353E+02 0.  0.
         23    2    4    4    0    0 -0.29870083246E+03  0.17957612257E+03 -0.28563482826E+03  0.45985605444E+03  0.91709130324E+02 0.  0.
          3    1    3    3  502    0  0.16772714927E+02  0.39645614444E+02 -0.60495303383E+01  0.43470628337E+02  0.00000000000E+00 0. -1.
         -4    1    3    3    0  502  0.17865239815E+03  0.41250067436E+03  0.19761808779E+03  0.49104622424E+03  0.00000000000E+00 0.  1.
         11    1    5    5    0    0  0.25603631923E+02 -0.50657457047E+02 -0.13081401206E+02  0.58248150010E+02  0.00000000000E+00 0. -1.
        -11    1    5    5    0    0  0.77672087457E+02 -0.58106495433E+03 -0.37439866125E+03  0.69558880947E+03  0.00000000000E+00 0.  1.
          4    1    6    6  503    0 -0.16477660946E+03  0.11346561373E+03 -0.21804435622E+03  0.29592079651E+03  0.00000000000E+00 0. -1.
         -4    1    6    6    0  503 -0.13392422300E+03  0.66110508834E+02 -0.67590472033E+02  0.16393525793E+03  0.00000000000E+00 0.  1.
<mgrwt>
<rscale>  0 0.16805805E+04</rscale>
<asrwt>0</asrwt>
<pdfrwt beam="1">  1        1 0.17151971E+00 0.16805805E+04</pdfrwt>
<pdfrwt beam="2">  1       -2 0.97435658E-01 0.16805805E+04</pdfrwt>
<totfact> 0.90707453E+00</totfact>
</mgrwt>
</event>
<event>
12    4  0.4183215E-008  0.3000941E+04  0.7818608E-02  0.8243462E-01
          1   -1    0    0  501    0  0.00000000000E+00  0.00000000000E+00  0.16363710015E+04  0.16363710015E+04  0.00000000000E+00 0. -1.
         -2   -1    0    0    0  501 -0.00000000000E+00 -0.00000000000E+00 -0.13758562027E+04  0.13758562027E+04  0.00000000000E+00 0.  1.
        -24    2    1    2    0    0 -0.92642465331E+03  0.56217220645E+02 -0.88467900851E+03  0.12846267679E+04  0.78650941987E+02 0.  0.
        254    2    1    2    0    0  0.92642465331E+03 -0.56217220645E+02  0.11451938073E+04  0.17276004362E+04  0.90095027436E+03 0.  0.
         23    2    4    4    0    0 -0.35495482646E+02 -0.18367686148E+03  0.54428290269E+03  0.58259686902E+03  0.90432930388E+02 0.  0.
         23    2    4    4    0    0  0.96192013595E+03  0.12745964083E+03  0.60091090457E+03  0.11450035672E+04  0.91667582432E+02 0.  0.
          3    1    3    3  502    0 -0.33576321610E+02  0.16319185436E+02 -0.43058403672E+02  0.56988694606E+02  0.00000000000E+00 0. -1.
         -4    1    3    3    0  502 -0.89284833169E+03  0.39898035209E+02 -0.84162060483E+03  0.12276380733E+04  0.00000000000E+00 0.  1.
         11    1    5    5    0    0  0.16194112380E+02 -0.53853753850E+01  0.94229514092E+02  0.95762481535E+02  0.00000000000E+00 0. -1.
        -11    1    5    5    0    0 -0.51689595026E+02 -0.17829148609E+03  0.45005338860E+03  0.48683438749E+03  0.00000000000E+00 0.  1.
          3    1    6    6  503    0  0.20067708150E+03  0.17641851505E+02  0.16869452766E+03  0.26275534176E+03  0.00000000000E+00 0. -1.
         -3    1    6    6    0  503  0.76124305446E+03  0.10981778933E+03  0.43221637690E+03  0.88224822543E+03  0.00000000000E+00 0.  1.
<mgrwt>
<rscale>  0 0.30009406E+04</rscale>
<asrwt>0</asrwt>
<pdfrwt beam="1">  1        1 0.25174939E+00 0.30009406E+04</pdfrwt>
<pdfrwt beam="2">  1       -2 0.21167018E+00 0.30009406E+04</pdfrwt>
<totfact> 0.44001852E-01</totfact>
</mgrwt>
</event>
<event>
12    4  0.4183215E-008  0.1397542E+04  0.7818608E-02  0.8955600E-01
          1   -1    0    0  501    0  0.00000000000E+00  0.00000000000E+00  0.10472175935E+04  0.10472175935E+04  0.00000000000E+00 0. -1.
         -2   -1    0    0    0  501 -0.00000000000E+00 -0.00000000000E+00 -0.46626481232E+03  0.46626481232E+03  0.00000000000E+00 0.  1.
        -24    2    1    2    0    0 -0.17290872837E+03  0.31393023476E+03 -0.47824218531E+02  0.36860399515E+03  0.71638877118E+02 0.  0.
        254    2    1    2    0    0  0.17290872837E+03 -0.31393023476E+03  0.62877699970E+03  0.11448784107E+04  0.88709438010E+03 0.  0.
         23    2    4    4    0    0  0.24776783744E+03 -0.23662551844E+02  0.76096243722E+03  0.80467782011E+03  0.80583780491E+02 0.  0.
         23    2    4    4    0    0 -0.74859109063E+02 -0.29026768292E+03 -0.13218543753E+03  0.34020059055E+03  0.91674630954E+02 0.  0.
          1    1    3    3  502    0 -0.63720949168E+01 -0.32554054922E+01  0.16046202853E+00  0.71573044234E+01  0.00000000000E+00 0. -1.
         -2    1    3    3    0  502 -0.16653663346E+03  0.31718564025E+03 -0.47984680559E+02  0.36144669072E+03  0.00000000000E+00 0.  1.
         11    1    5    5    0    0  0.10968392344E+03 -0.45912565117E+02  0.40931123376E+03  0.42623258062E+03  0.00000000000E+00 0. -1.
        -11    1    5    5    0    0  0.13808391399E+03  0.22250013273E+02  0.35165120346E+03  0.37844523949E+03  0.00000000000E+00 0.  1.
          1    1    6    6  503    0 -0.23671805090E+02 -0.21049870977E+03 -0.12307282177E+03  0.24498363339E+03  0.00000000000E+00 0. -1.
         -1    1    6    6    0  503 -0.51187303973E+02 -0.79768973145E+02 -0.91126157611E+01  0.95216957159E+02  0.00000000000E+00 0.  1.
<mgrwt>
<rscale>  0 0.13975417E+04</rscale>
<asrwt>0</asrwt>
<pdfrwt beam="1">  1        1 0.16111040E+00 0.13975417E+04</pdfrwt>
<pdfrwt beam="2">  1       -2 0.71733048E-01 0.13975417E+04</pdfrwt>
<totfact> 0.20953043E+01</totfact>
</mgrwt>
</event>
<event>
12    4  0.4183215E-008  0.1596825E+04  0.7818608E-02  0.8822501E-01
         -4   -1    0    0    0  501 -0.00000000000E+00  0.00000000000E+00  0.54245282265E+03  0.54245282265E+03  0.00000000000E+00 0.  1.
          3   -1    0    0  501    0  0.00000000000E+00 -0.00000000000E+00 -0.11751482713E+04  0.11751482713E+04  0.00000000000E+00 0. -1.
        -24    2    1    2    0    0  0.15737381376E+03  0.45741788318E+03  0.51727356354E+02  0.49324129254E+03  0.81324142557E+02 0.  0.
        254    2    1    2    0    0 -0.15737381376E+03 -0.45741788318E+03 -0.68442280497E+03  0.12243598014E+04  0.89253835221E+03 0.  0.
         23    2    4    4    0    0 -0.22987407513E+03 -0.18700260598E+03 -0.83758989222E+03  0.89270630363E+03  0.86923253086E+02 0.  0.
         23    2    4    4    0    0  0.72500261379E+02 -0.27041527720E+03  0.15316708725E+03  0.33165349775E+03  0.90294938460E+02 0.  0.
          1    1    3    3  502    0  0.21670943399E+02  0.75033494652E+02 -0.21343415896E+02  0.80964168060E+02  0.00000000000E+00 0. -1.
         -4    1    3    3    0  502  0.13570287036E+03  0.38238438853E+03  0.73070772249E+02  0.41227712448E+03  0.00000000000E+00 0.  1.
         11    1    5    5    0    0 -0.18533506638E+03 -0.11249866439E+03 -0.66616940488E+03  0.70056171200E+03  0.00000000000E+00 0. -1.
        -11    1    5    5    0    0 -0.44539008755E+02 -0.74503941588E+02 -0.17142048734E+03  0.19214459163E+03  0.00000000000E+00 0.  1.
          1    1    6    6  503    0  0.50292607338E+02 -0.18770384292E+03  0.15081178619E+03  0.24598023062E+03  0.00000000000E+00 0. -1.
         -1    1    6    6    0  503  0.22207654041E+02 -0.82711434277E+02  0.23553010570E+01  0.85673267133E+02  0.00000000000E+00 0.  1.
<mgrwt>
<rscale>  0 0.15968250E+04</rscale>
<asrwt>0</asrwt>
<pdfrwt beam="1">  1        3 0.18079204E+00 0.15968250E+04</pdfrwt>
<pdfrwt beam="2">  1       -4 0.83454282E-01 0.15968250E+04</pdfrwt>
<totfact> 0.54330272E-01</totfact>
</mgrwt>
</event>
<event>
12    4  0.4183215E-008  0.1581807E+04  0.7818608E-02  0.8831803E-01
          1   -1    0    0  501    0  0.00000000000E+00  0.00000000000E+00  0.52884000355E+03  0.52884000355E+03  0.00000000000E+00 0. -1.
         -2   -1    0    0    0  501 -0.00000000000E+00 -0.00000000000E+00 -0.11828309159E+04  0.11828309159E+04  0.00000000000E+00 0.  1.
        -24    2    1    2    0    0  0.21603017586E+03 -0.26341722660E+03 -0.66243613607E+03  0.74926006262E+03  0.80692842980E+02 0.  0.
        254    2    1    2    0    0 -0.21603017586E+03  0.26341722660E+03  0.84452236810E+01  0.96241085687E+03  0.90005870001E+03 0.  0.
         23    2    4    4    0    0  0.32358874321E+03 -0.25477126483E+02  0.53870156131E+02  0.34217872718E+03  0.93944286180E+02 0.  0.
         23    2    4    4    0    0 -0.53961891907E+03  0.28889435309E+03 -0.45424932450E+02  0.62023212969E+03  0.89308147184E+02 0.  0.
          3    1    3    3  502    0  0.79146692368E+02 -0.42854071693E+02 -0.18866762420E+03  0.20903622364E+03  0.00000000000E+00 0. -1.
         -4    1    3    3    0  502  0.13688348349E+03 -0.22056315491E+03 -0.47376851187E+03  0.54022383897E+03  0.00000000000E+00 0.  1.
         11    1    5    5    0    0  0.10276937720E+03 -0.51332345168E+02  0.78966604715E+01  0.11514734820E+03  0.00000000000E+00 0. -1.
        -11    1    5    5    0    0  0.22081936601E+03  0.25855218685E+02  0.45973495659E+02  0.22703137898E+03  0.00000000000E+00 0.  1.
          1    1    6    6  503    0 -0.14021507563E+03  0.11839835762E+03 -0.27725652837E+02  0.18559943519E+03  0.00000000000E+00 0. -1.
         -1    1    6    6    0  503 -0.39940384344E+03  0.17049599547E+03 -0.17699279613E+02  0.43463269450E+03  0.00000000000E+00 0.  1.
<mgrwt>
<rscale>  0 0.15818069E+04</rscale>
<asrwt>0</asrwt>
<pdfrwt beam="1">  1        1 0.81360002E-01 0.15818069E+04</pdfrwt>
<pdfrwt beam="2">  1       -2 0.18197398E+00 0.15818069E+04</pdfrwt>
<totfact> 0.60504713E+00</totfact>
</mgrwt>
</event>
<event>
12    4  0.4183215E-008  0.1953447E+04  0.7818608E-02  0.8628700E-01
         -2   -1    0    0    0  501 -0.00000000000E+00  0.00000000000E+00  0.54243372907E+03  0.54243372907E+03  0.00000000000E+00 0.  1.
          1   -1    0    0  501    0  0.00000000000E+00 -0.00000000000E+00 -0.17587202973E+04  0.17587202973E+04  0.00000000000E+00 0. -1.
        -24    2    1    2    0    0  0.24010266832E+03 -0.48305515117E+03 -0.11202321214E+04  0.12458790251E+04  0.79391240182E+02 0.  0.
        254    2    1    2    0    0 -0.24010266832E+03  0.48305515117E+03 -0.96054446904E+02  0.10552750013E+04  0.90187987075E+03 0.  0.
         23    2    4    4    0    0 -0.59146998093E+02  0.51301210881E+03  0.30367118118E+03  0.60566048811E+03  0.89042963861E+02 0.  0.
         23    2    4    4    0    0 -0.18095567022E+03 -0.29956957644E+02 -0.39972562808E+03  0.44961451321E+03  0.93435854189E+02 0.  0.
          1    1    3    3  502    0  0.54188268276E+02 -0.12357900830E+03 -0.20842789850E+03  0.24829484204E+03  0.00000000000E+00 0. -1.
         -2    1    3    3    0  502  0.18591440004E+03 -0.35947614287E+03 -0.91180422286E+03  0.99758418305E+03  0.00000000000E+00 0.  1.
         11    1    5    5    0    0 -0.24524626990E+02  0.45279925606E+03  0.27627388081E+03  0.53099517967E+03  0.00000000000E+00 0. -1.
        -11    1    5    5    0    0 -0.34622371102E+02  0.60212852748E+02  0.27397300373E+02  0.74665308440E+02  0.00000000000E+00 0.  1.
          2    1    6    6  503    0 -0.10645803143E+03 -0.63690044846E+02 -0.23856396885E+03  0.26889124474E+03  0.00000000000E+00 0. -1.
         -2    1    6    6    0  503 -0.74497638797E+02  0.33733087202E+02 -0.16116165924E+03  0.18072326847E+03  0.00000000000E+00 0.  1.
<mgrwt>
<rscale>  0 0.19534474E+04</rscale>
<asrwt>0</asrwt>
<pdfrwt beam="1">  1        1 0.27057236E+00 0.19534474E+04</pdfrwt>
<pdfrwt beam="2">  1       -2 0.83451342E-01 0.19534474E+04</pdfrwt>
<totfact> 0.44649933E+00</totfact>
</mgrwt>
</event>
<event>
12    4  0.4183215E-008  0.1295325E+04  0.7818608E-02  0.9033280E-01
         -2   -1    0    0    0  501 -0.00000000000E+00  0.00000000000E+00  0.89423839659E+03  0.89423839659E+03  0.00000000000E+00 0.  1.
          1   -1    0    0  501    0  0.00000000000E+00 -0.00000000000E+00 -0.46907729941E+03  0.46907729941E+03  0.00000000000E+00 0. -1.
        -24    2    1    2    0    0 -0.17072944857E+03  0.13258834943E+03 -0.53211749264E+02  0.23643058921E+03  0.79622347607E+02 0.  0.
        254    2    1    2    0    0  0.17072944857E+03 -0.13258834943E+03  0.47837284645E+03  0.11268851068E+04  0.99714655327E+03 0.  0.
         23    2    4    4    0    0  0.48743591987E+03  0.79689827936E+02  0.52910429413E+03  0.72934669501E+03  0.89727380384E+02 0.  0.
         23    2    4    4    0    0 -0.31670647130E+03 -0.21227817737E+03 -0.50731447685E+02  0.39753841179E+03  0.10048928058E+03 0.  0.
          1    1    3    3  502    0 -0.12404555987E+03  0.77479168369E+02  0.77881022457E+00  0.14625638105E+03  0.00000000000E+00 0. -1.
         -2    1    3    3    0  502 -0.46683888705E+02  0.55109181064E+02 -0.53990559489E+02  0.90174208154E+02  0.00000000000E+00 0.  1.
         11    1    5    5    0    0  0.48042489620E+03  0.64553821546E+02  0.51721119795E+03  0.70886014139E+03  0.00000000000E+00 0. -1.
        -11    1    5    5    0    0  0.70110236740E+01  0.15136006390E+02  0.11893096182E+02  0.20486553620E+02  0.00000000000E+00 0.  1.
          3    1    6    6  503    0 -0.29551817208E+03 -0.16458204687E+03 -0.62634175861E+02  0.34400767458E+03  0.00000000000E+00 0. -1.
         -3    1    6    6    0  503 -0.21188299220E+02 -0.47696130498E+02  0.11902728175E+02  0.53530737210E+02  0.00000000000E+00 0.  1.
<mgrwt>
<rscale>  0 0.12953253E+04</rscale>
<asrwt>0</asrwt>
<pdfrwt beam="1">  1        1 0.72165738E-01 0.12953253E+04</pdfrwt>
<pdfrwt beam="2">  1       -2 0.13757514E+00 0.12953253E+04</pdfrwt>
<totfact> 0.15615305E+01</totfact>
</mgrwt>
</event>
<event>
12    4  0.4183215E-008  0.1720022E+04  0.7818608E-02  0.8750027E-01
         -2   -1    0    0    0  501 -0.00000000000E+00  0.00000000000E+00  0.59001547507E+03  0.59001547507E+03  0.00000000000E+00 0.  1.
          1   -1    0    0  501    0  0.00000000000E+00 -0.00000000000E+00 -0.12535586941E+04  0.12535586941E+04  0.00000000000E+00 0. -1.
        -24    2    1    2    0    0  0.29719030642E+03 -0.14837848712E+03 -0.81315427680E+03  0.88242853186E+03  0.84391837850E+02 0.  0.
        254    2    1    2    0    0 -0.29719030642E+03  0.14837848712E+03  0.14961105776E+03  0.96114563732E+03  0.88942633977E+03 0.  0.
         23    2    4    4    0    0 -0.10386565393E+03  0.48844291290E+03 -0.54080318108E+02  0.51053110818E+03  0.91393535751E+02 0.  0.
         23    2    4    4    0    0 -0.19332465249E+03 -0.34006442578E+03  0.20369137587E+03  0.45061452915E+03  0.92439398161E+02 0.  0.
          3    1    3    3  502    0  0.22686022670E+03 -0.12589063325E+03 -0.53426436710E+03  0.59392964899E+03  0.00000000000E+00 0. -1.
         -4    1    3    3    0  502  0.70330079725E+02 -0.22487853868E+02 -0.27888990970E+03  0.28849888287E+03  0.00000000000E+00 0.  1.
         11    1    5    5    0    0 -0.29891709798E+02  0.30567429060E+03 -0.61461788549E+02  0.31322170694E+03  0.00000000000E+00 0. -1.
        -11    1    5    5    0    0 -0.73973944133E+02  0.18276862230E+03  0.73814704416E+01  0.19730940123E+03  0.00000000000E+00 0.  1.
          3    1    6    6  503    0 -0.18804121571E+03 -0.26623410060E+03  0.18279072926E+03  0.37370114508E+03  0.00000000000E+00 0. -1.
         -3    1    6    6    0  503 -0.52834367805E+01 -0.73830325180E+02  0.20900646611E+02  0.76913384071E+02  0.00000000000E+00 0.  1.
<mgrwt>
<rscale>  0 0.17200221E+04</rscale>
<asrwt>0</asrwt>
<pdfrwt beam="1">  1        1 0.19285518E+00 0.17200221E+04</pdfrwt>
<pdfrwt beam="2">  1       -2 0.90771612E-01 0.17200221E+04</pdfrwt>
<totfact> 0.84352887E+00</totfact>
</mgrwt>
</event>
<event>
12    4  0.4183215E-008  0.1306097E+04  0.7818608E-02  0.9024744E-01
         -2   -1    0    0    0  501 -0.00000000000E+00  0.00000000000E+00  0.14938540922E+03  0.14938540922E+03  0.00000000000E+00 0.  1.
          1   -1    0    0  501    0  0.00000000000E+00 -0.00000000000E+00 -0.28548473068E+04  0.28548473068E+04  0.00000000000E+00 0. -1.
        -24    2    1    2    0    0 -0.24025873145E+03 -0.21984650257E+02 -0.17600008801E+03  0.30921805616E+03  0.80200950041E+02 0.  0.
        254    2    1    2    0    0  0.24025873145E+03  0.21984650257E+02 -0.25294618095E+04  0.26950146598E+04  0.89817558858E+03 0.  0.
         23    2    4    4    0    0  0.32542875873E+03  0.33395721026E+03 -0.20826351407E+04  0.21361768278E+04  0.91929403244E+02 0.  0.
         23    2    4    4    0    0 -0.85170027279E+02 -0.31197256001E+03 -0.44682666883E+03  0.55883783199E+03  0.89804447264E+02 0.  0.
          3    1    3    3  502    0 -0.77377225100E+01 -0.95414004227E+01  0.60045939940E+01  0.13673544555E+02  0.00000000000E+00 0. -1.
         -4    1    3    3    0  502 -0.23252100894E+03 -0.12443249834E+02 -0.18200468201E+03  0.29554451160E+03  0.00000000000E+00 0.  1.
         11    1    5    5    0    0  0.95551027143E+02  0.53990753715E+02 -0.59788151132E+03  0.60787112273E+03  0.00000000000E+00 0. -1.
        -11    1    5    5    0    0  0.22987773159E+03  0.27996645655E+03 -0.14847536294E+04  0.15283057051E+04  0.00000000000E+00 0.  1.
          3    1    6    6  503    0 -0.47961426844E+02 -0.44897361873E+02 -0.96752137698E+02  0.11694891071E+03  0.00000000000E+00 0. -1.
         -3    1    6    6    0  503 -0.37208600435E+02 -0.26707519813E+03 -0.35007453113E+03  0.44188892128E+03  0.00000000000E+00 0.  1.
<mgrwt>
<rscale>  0 0.13060973E+04</rscale>
<asrwt>0</asrwt>
<pdfrwt beam="1">  1        1 0.43920729E+00 0.13060973E+04</pdfrwt>
<pdfrwt beam="2">  1       -2 0.22982370E-01 0.13060973E+04</pdfrwt>
<totfact> 0.11053148E+01</totfact>
</mgrwt>
</event>
<event>
12    4  0.4183215E-008  0.2167042E+04  0.7818608E-02  0.8532272E-01
          1   -1    0    0  501    0  0.00000000000E+00  0.00000000000E+00  0.10166903000E+04  0.10166903000E+04  0.00000000000E+00 0. -1.
         -2   -1    0    0    0  501 -0.00000000000E+00 -0.00000000000E+00 -0.11547448034E+04  0.11547448034E+04  0.00000000000E+00 0.  1.
        -24    2    1    2    0    0 -0.84296037988E+03 -0.14385639635E+03 -0.30643122670E+03  0.91143405660E+03  0.74398104991E+02 0.  0.
        254    2    1    2    0    0  0.84296037988E+03  0.14385639635E+03  0.16837672331E+03  0.12600010467E+04  0.90993134465E+03 0.  0.
         23    2    4    4    0    0  0.46314988866E+03  0.51959992050E+03  0.42650162504E+02  0.70346156775E+03  0.92451307171E+02 0.  0.
         23    2    4    4    0    0  0.37981049122E+03 -0.37574352415E+03  0.12572656081E+03  0.55653947897E+03  0.92140210443E+02 0.  0.
          1    1    3    3  502    0 -0.59908394487E+03 -0.12646854134E+03 -0.19365546361E+03  0.64218245347E+03  0.00000000000E+00 0. -1.
         -2    1    3    3    0  502 -0.24387643501E+03 -0.17387855011E+02 -0.11277576308E+03  0.26925160314E+03  0.00000000000E+00 0.  1.
         11    1    5    5    0    0  0.43851976673E+03  0.49515038313E+03  0.60963307234E+02  0.66422135810E+03  0.00000000000E+00 0.  1.
        -11    1    5    5    0    0  0.24630121928E+02  0.24449537369E+02 -0.18313144730E+02  0.39240209653E+02  0.00000000000E+00 0. -1.
          1    1    6    6  503    0  0.12622554121E+03 -0.68739761385E+02  0.40549610194E+02  0.14933958931E+03  0.00000000000E+00 0. -1.
         -1    1    6    6    0  503  0.25358495001E+03 -0.30700376276E+03  0.85176950613E+02  0.40719988966E+03  0.00000000000E+00 0.  1.
<mgrwt>
<rscale>  0 0.21670421E+04</rscale>
<asrwt>0</asrwt>
<pdfrwt beam="1">  1        1 0.15641389E+00 0.21670421E+04</pdfrwt>
<pdfrwt beam="2">  1       -2 0.17765305E+00 0.21670421E+04</pdfrwt>
<totfact> 0.22159228E+00</totfact>
</mgrwt>
</event>
<event>
12    4  0.4183215E-008  0.2846617E+04  0.7818608E-02  0.8288940E-01
          1   -1    0    0  501    0  0.00000000000E+00  0.00000000000E+00  0.14273421117E+04  0.14273421117E+04  0.00000000000E+00 0. -1.
         -2   -1    0    0    0  501 -0.00000000000E+00 -0.00000000000E+00 -0.14192863920E+04  0.14192863920E+04  0.00000000000E+00 0.  1.
        -24    2    1    2    0    0  0.38531198994E+03 -0.43618344482E+03  0.11426268693E+04  0.12847766778E+04  0.79584057430E+02 0.  0.
        254    2    1    2    0    0 -0.38531198994E+03  0.43618344482E+03 -0.11345711497E+04  0.15618518259E+04  0.90189140428E+03 0.  0.
         23    2    4    4    0    0  0.52748739182E+01  0.41905449608E+02 -0.97069440976E+03  0.97589236975E+03  0.91292875956E+02 0.  0.
         23    2    4    4    0    0 -0.39058686385E+03  0.39427799522E+03 -0.16387673992E+03  0.58595945611E+03  0.92085083405E+02 0.  0.
          3    1    3    3  502    0  0.26938282982E+03 -0.34359001364E+03  0.79947708690E+03  0.91092525432E+03  0.00000000000E+00 0. -1.
         -4    1    3    3    0  502  0.11592916011E+03 -0.92593431181E+02  0.34314978244E+03  0.37385142350E+03  0.00000000000E+00 0.  1.
         11    1    5    5    0    0  0.75268771706E+01  0.35373218431E+02 -0.96767725403E+03  0.96835282126E+03  0.00000000000E+00 0. -1.
        -11    1    5    5    0    0 -0.22520032524E+01  0.65322311769E+01 -0.30171557215E+01  0.75395484908E+01  0.00000000000E+00 0.  1.
          2    1    6    6  503    0 -0.33757730568E+03  0.35818827294E+03 -0.11533007600E+03  0.50552774663E+03  0.00000000000E+00 0. -1.
         -2    1    6    6    0  503 -0.53009558172E+02  0.36089722280E+02 -0.48546663919E+02  0.80431709477E+02  0.00000000000E+00 0.  1.
<mgrwt>
<rscale>  0 0.28466171E+04</rscale>
<asrwt>0</asrwt>
<pdfrwt beam="1">  1        1 0.21959110E+00 0.28466171E+04</pdfrwt>
<pdfrwt beam="2">  1       -2 0.21835175E+00 0.28466171E+04</pdfrwt>
<totfact> 0.56351786E-01</totfact>
</mgrwt>
</event>
<event>
12    4  0.4183215E-008  0.1125558E+04  0.7818608E-02  0.9180633E-01
         -2   -1    0    0    0  501 -0.00000000000E+00  0.00000000000E+00  0.55533863631E+03  0.55533863631E+03  0.00000000000E+00 0.  1.
          1   -1    0    0  501    0  0.00000000000E+00 -0.00000000000E+00 -0.57031936255E+03  0.57031936255E+03  0.00000000000E+00 0. -1.
        -24    2    1    2    0    0  0.90630139305E+02  0.93869869568E+02 -0.13966386185E+03  0.20728112238E+03  0.80212809598E+02 0.  0.
        254    2    1    2    0    0 -0.90630139305E+02 -0.93869869568E+02  0.12468313561E+03  0.91837687648E+03  0.90046922678E+03 0.  0.
         23    2    4    4    0    0  0.38935114998E+03 -0.69464785832E+02  0.14067747492E+03  0.42938458775E+03  0.90339901406E+02 0.  0.
         23    2    4    4    0    0 -0.47998128928E+03 -0.24405083735E+02 -0.15994339305E+02  0.48899228873E+03  0.88769326780E+02 0.  0.
          3    1    3    3  502    0  0.47689039062E+02  0.98850559726E+02 -0.10468846227E+03  0.15167515201E+03  0.00000000000E+00 0. -1.
         -4    1    3    3    0  502  0.42941100243E+02 -0.49806901588E+01 -0.34975399584E+02  0.55605970369E+02  0.00000000000E+00 0.  1.
         11    1    5    5    0    0  0.46344487345E+02 -0.30490691802E+02  0.44235010198E+02  0.70952307369E+02  0.00000000000E+00 0. -1.
        -11    1    5    5    0    0  0.34300666263E+03 -0.38974094031E+02  0.96442464721E+02  0.35843228038E+03  0.00000000000E+00 0.  1.
          1    1    6    6  503    0 -0.10969686804E+03  0.25038564403E+02  0.17712667133E+02  0.11390378019E+03  0.00000000000E+00 0. -1.
         -1    1    6    6    0  503 -0.37028442124E+03 -0.49443648139E+02 -0.33707006438E+02  0.37508850854E+03  0.00000000000E+00 0.  1.
<mgrwt>
<rscale>  0 0.11255583E+04</rscale>
<asrwt>0</asrwt>
<pdfrwt beam="1">  1        1 0.87741440E-01 0.11255583E+04</pdfrwt>
<pdfrwt beam="2">  1       -2 0.85436714E-01 0.11255583E+04</pdfrwt>
<totfact> 0.38205129E+01</totfact>
</mgrwt>
</event>
<event>
12    4  0.4183215E-008  0.1778679E+04  0.7818608E-02  0.8717721E-01
          1   -1    0    0  501    0  0.00000000000E+00  0.00000000000E+00  0.18557323689E+04  0.18557323689E+04  0.00000000000E+00 0. -1.
         -2   -1    0    0    0  501 -0.00000000000E+00 -0.00000000000E+00 -0.42620606715E+03  0.42620606715E+03  0.00000000000E+00 0.  1.
        -24    2    1    2    0    0  0.35743120061E+03  0.51301747119E+03  0.26819752676E+03  0.68523511721E+03  0.81690045796E+02 0.  0.
        254    2    1    2    0    0 -0.35743120061E+03 -0.51301747119E+03  0.11613287750E+04  0.15967033188E+04  0.89990720400E+03 0.  0.
         23    2    4    4    0    0 -0.55831101683E+03 -0.54968674282E+03  0.11185302821E+04  0.13687186220E+04  0.91727680857E+02 0.  0.
         23    2    4    4    0    0  0.20087981622E+03  0.36669271632E+02  0.42798492817E+02  0.22798469679E+03  0.91912865984E+02 0.  0.
          1    1    3    3  502    0  0.14200565688E+03  0.15614995932E+03  0.60829045312E+02  0.21965561485E+03  0.00000000000E+00 0. -1.
         -2    1    3    3    0  502  0.21542554373E+03  0.35686751187E+03  0.20736848145E+03  0.46557950237E+03  0.00000000000E+00 0.  1.
         11    1    5    5    0    0 -0.32637861270E+02 -0.32972899277E+02  0.34469341760E+02  0.57797730028E+02  0.00000000000E+00 0. -1.
        -11    1    5    5    0    0 -0.52567315556E+03 -0.51671384355E+03  0.10840609404E+04  0.13109208920E+04  0.00000000000E+00 0.  1.
          1    1    6    6  503    0  0.71728327713E+02 -0.13988381647E+02  0.50834333848E+02  0.89021106011E+02  0.00000000000E+00 0. -1.
         -1    1    6    6    0  503  0.12915148851E+03  0.50657653279E+02 -0.80358410309E+01  0.13896359078E+03  0.00000000000E+00 0.  1.
<mgrwt>
<rscale>  0 0.17786786E+04</rscale>
<asrwt>0</asrwt>
<pdfrwt beam="1">  1        1 0.28549728E+00 0.17786786E+04</pdfrwt>
<pdfrwt beam="2">  1       -2 0.65570166E-01 0.17786786E+04</pdfrwt>
<totfact> 0.66392220E+00</totfact>
</mgrwt>
</event>
<event>
12    4  0.4183215E-008  0.2049946E+04  0.7818608E-02  0.8583619E-01
         -2   -1    0    0    0  501 -0.00000000000E+00  0.00000000000E+00  0.74494235949E+03  0.74494235949E+03  0.00000000000E+00 0.  1.
          1   -1    0    0  501    0  0.00000000000E+00 -0.00000000000E+00 -0.14102702157E+04  0.14102702157E+04  0.00000000000E+00 0. -1.
        -24    2    1    2    0    0 -0.30313656789E+03 -0.17158294030E+03  0.51552919159E+03  0.62723685279E+03  0.79518789748E+02 0.  0.
        254    2    1    2    0    0  0.30313656789E+03  0.17158294030E+03 -0.11808570478E+04  0.15279757224E+04  0.90496074871E+03 0.  0.
         23    2    4    4    0    0  0.30654724840E+03 -0.17841221958E+03 -0.88693055411E+02  0.37719526820E+03  0.92777565568E+02 0.  0.
         23    2    4    4    0    0 -0.34106805133E+01  0.34999515989E+03 -0.10921639924E+04  0.11507804542E+04  0.94684860554E+02 0.  0.
          3    1    3    3  502    0 -0.66829404488E+02 -0.44461435320E+01  0.11479438005E+03  0.13290480499E+03  0.00000000000E+00 0. -1.
         -4    1    3    3    0  502 -0.23630716340E+03 -0.16713679677E+03  0.40073481153E+03  0.49433204780E+03  0.00000000000E+00 0.  1.
         11    1    5    5    0    0  0.14924817572E+03 -0.36222564442E+02 -0.23561371239E+02  0.15537770222E+03  0.00000000000E+00 0. -1.
        -11    1    5    5    0    0  0.15729907268E+03 -0.14218965514E+03 -0.65131684172E+02  0.22181756598E+03  0.00000000000E+00 0.  1.
          3    1    6    6  503    0 -0.39035813509E+02  0.11444996876E+03 -0.44597101520E+03  0.46207438415E+03  0.00000000000E+00 0. -1.
         -3    1    6    6    0  503  0.35625132995E+02  0.23554519113E+03 -0.64619297716E+03  0.68870607003E+03  0.00000000000E+00 0.  1.
<mgrwt>
<rscale>  0 0.20499464E+04</rscale>
<asrwt>0</asrwt>
<pdfrwt beam="1">  1        1 0.21696465E+00 0.20499464E+04</pdfrwt>
<pdfrwt beam="2">  1       -2 0.11460652E+00 0.20499464E+04</pdfrwt>
<totfact> 0.36422921E+00</totfact>
</mgrwt>
</event>
<event>
12    4  0.4183215E-008  0.1829533E+04  0.7818608E-02  0.8690750E-01
          1   -1    0    0  501    0  0.00000000000E+00  0.00000000000E+00  0.99025917111E+03  0.99025917111E+03  0.00000000000E+00 0. -1.
         -2   -1    0    0    0  501 -0.00000000000E+00 -0.00000000000E+00 -0.84502914104E+03  0.84502914104E+03  0.00000000000E+00 0.  1.
        -24    2    1    2    0    0 -0.56149233531E+03 -0.11411446203E+03 -0.21920448928E+03  0.61871713467E+03  0.80402310656E+02 0.  0.
        254    2    1    2    0    0  0.56149233531E+03  0.11411446203E+03  0.36443451935E+03  0.12165711775E+04  0.10094241715E+04 0.  0.
         23    2    4    4    0    0  0.53008847529E+03  0.15191437603E+03  0.68277793800E+03  0.88233471403E+03  0.90868397562E+02 0.  0.
         23    2    4    4    0    0  0.31403860017E+02 -0.37799914003E+02 -0.31834341865E+03  0.33423646345E+03  0.89198909100E+02 0.  0.
          1    1    3    3  502    0 -0.15652230740E+03 -0.63181991152E+02 -0.43253536776E+02  0.17424713818E+03  0.00000000000E+00 0. -1.
         -2    1    3    3    0  502 -0.40497002791E+03 -0.50932470878E+02 -0.17595095250E+03  0.44446999649E+03  0.00000000000E+00 0.  1.
         11    1    5    5    0    0  0.51599031150E+03  0.16233290095E+03  0.65494808563E+03  0.84944391643E+03  0.00000000000E+00 0. -1.
        -11    1    5    5    0    0  0.14098163796E+02 -0.10418524913E+02  0.27829852365E+02  0.32890797595E+02  0.00000000000E+00 0.  1.
          2    1    6    6  503    0 -0.20995471618E+02  0.15307420460E+02 -0.10705615838E+03  0.11016418655E+03  0.00000000000E+00 0. -1.
         -2    1    6    6    0  503  0.52399331635E+02 -0.53107334462E+02 -0.21128726026E+03  0.22407227691E+03  0.00000000000E+00 0.  1.
<mgrwt>
<rscale>  0 0.18295331E+04</rscale>
<asrwt>0</asrwt>
<pdfrwt beam="1">  1        1 0.15234756E+00 0.18295331E+04</pdfrwt>
<pdfrwt beam="2">  1       -2 0.13000448E+00 0.18295331E+04</pdfrwt>
<totfact> 0.55174513E+00</totfact>
</mgrwt>
</event>
<event>
12    4  0.4183215E-008  0.1999176E+04  0.7818608E-02  0.8607006E-01
         -2   -1    0    0    0  501 -0.00000000000E+00  0.00000000000E+00  0.49795390527E+03  0.49795390527E+03  0.00000000000E+00 0.  1.
          1   -1    0    0  501    0  0.00000000000E+00 -0.00000000000E+00 -0.20065635962E+04  0.20065635962E+04  0.00000000000E+00 0. -1.
        -24    2    1    2    0    0 -0.92048971767E+02  0.25299666977E+03 -0.15335672280E+04  0.15589067758E+04  0.76691359546E+02 0.  0.
        254    2    1    2    0    0  0.92048971767E+02 -0.25299666977E+03  0.24957537033E+02  0.94561072573E+03  0.90613268225E+03 0.  0.
         23    2    4    4    0    0 -0.39285675094E+03 -0.32635488995E+02 -0.18688152591E+02  0.40334815866E+03  0.83300589103E+02 0.  0.
         23    2    4    4    0    0  0.48490572270E+03 -0.22036118078E+03  0.43645689624E+02  0.54226256708E+03  0.91930057787E+02 0.  0.
          3    1    3    3  502    0 -0.30535308650E+01  0.82136698754E+02 -0.60569263857E+03  0.61124408689E+03  0.00000000000E+00 0. -1.
         -4    1    3    3    0  502 -0.88995440902E+02  0.17085997102E+03 -0.92787458942E+03  0.94766268888E+03  0.00000000000E+00 0.  1.
         11    1    5    5    0    0 -0.23845305226E+03 -0.58957621865E+02 -0.23568813787E+00  0.24563370057E+03  0.00000000000E+00 0.  1.
        -11    1    5    5    0    0 -0.15440369868E+03  0.26322132871E+02 -0.18452464454E+02  0.15771445809E+03  0.00000000000E+00 0. -1.
          1    1    6    6  503    0  0.19091619292E+03 -0.11345983299E+03 -0.20161728096E+02  0.22299915180E+03  0.00000000000E+00 0. -1.
         -1    1    6    6    0  503  0.29398952978E+03 -0.10690134779E+03  0.63807417720E+02  0.31926341528E+03  0.00000000000E+00 0.  1.
<mgrwt>
<rscale>  0 0.19991760E+04</rscale>
<asrwt>0</asrwt>
<pdfrwt beam="1">  1        1 0.30870209E+00 0.19991760E+04</pdfrwt>
<pdfrwt beam="2">  1       -2 0.76608293E-01 0.19991760E+04</pdfrwt>
<totfact> 0.36604133E+00</totfact>
</mgrwt>
</event>
<event>
12    4  0.4183215E-008  0.1319968E+04  0.7818608E-02  0.9013879E-01
         -2   -1    0    0    0  501 -0.00000000000E+00  0.00000000000E+00  0.27727472237E+03  0.27727472237E+03  0.00000000000E+00 0.  1.
          1   -1    0    0  501    0  0.00000000000E+00 -0.00000000000E+00 -0.15709278469E+04  0.15709278469E+04  0.00000000000E+00 0. -1.
        -24    2    1    2    0    0  0.31183699044E+03  0.88400440208E+01 -0.16416267812E+03  0.36775557445E+03  0.10475840140E+03 0.  0.
        254    2    1    2    0    0 -0.31183699044E+03 -0.88400440208E+01 -0.11294904464E+04  0.14804469948E+04  0.90479510443E+03 0.  0.
         23    2    4    4    0    0  0.63400601253E+02 -0.33198106077E+03 -0.80972550812E+03  0.88227661574E+03  0.92333998328E+02 0.  0.
         23    2    4    4    0    0 -0.37523759169E+03  0.32314101674E+03 -0.31976493831E+03  0.59817037910E+03  0.10166031546E+03 0.  0.
          1    1    3    3  502    0  0.13760332414E+03 -0.21063569099E+02 -0.22064340216E+02  0.14094390327E+03  0.00000000000E+00 0. -1.
         -2    1    3    3    0  502  0.17423366630E+03  0.29903613120E+02 -0.14209833791E+03  0.22681167118E+03  0.00000000000E+00 0.  1.
         11    1    5    5    0    0  0.47604671811E+02 -0.19935062328E+03 -0.59590552095E+03  0.63016685543E+03  0.00000000000E+00 0.  1.
        -11    1    5    5    0    0  0.15795929442E+02 -0.13263043749E+03 -0.21381998717E+03  0.25210976032E+03  0.00000000000E+00 0. -1.
          1    1    6    6  503    0 -0.34309386418E+03  0.30792434324E+03 -0.32232320007E+03  0.56251492967E+03  0.00000000000E+00 0. -1.
         -1    1    6    6    0  503 -0.32143727512E+02  0.15216673506E+02  0.25582617602E+01  0.35655449432E+02  0.00000000000E+00 0.  1.
<mgrwt>
<rscale>  0 0.13199675E+04</rscale>
<asrwt>0</asrwt>
<pdfrwt beam="1">  1        1 0.24168121E+00 0.13199675E+04</pdfrwt>
<pdfrwt beam="2">  1       -2 0.42657650E-01 0.13199675E+04</pdfrwt>
<totfact> 0.26207523E+01</totfact>
</mgrwt>
</event>
<event>
12    4  0.4183215E-008  0.1212902E+04  0.7818608E-02  0.9101638E-01
         -2   -1    0    0    0  501 -0.00000000000E+00  0.00000000000E+00  0.53341051766E+03  0.53341051766E+03  0.00000000000E+00 0.  1.
          1   -1    0    0  501    0  0.00000000000E+00 -0.00000000000E+00 -0.68949268374E+03  0.68949268374E+03  0.00000000000E+00 0. -1.
        -24    2    1    2    0    0  0.23438757585E+03 -0.80224524542E+02  0.47953722691E+02  0.26632753333E+03  0.85189702657E+02 0.  0.
        254    2    1    2    0    0 -0.23438757585E+03  0.80224524542E+02 -0.20403588877E+03  0.95657566807E+03  0.90112865607E+03 0.  0.
         23    2    4    4    0    0  0.21886732740E+03 -0.69859609784E+01  0.21882585824E+03  0.32446791920E+03  0.97174912917E+02 0.  0.
         23    2    4    4    0    0 -0.45325490325E+03  0.87210485520E+02 -0.42286174701E+03  0.63210774887E+03  0.87763733919E+02 0.  0.
          1    1    3    3  502    0  0.99225558669E+02 -0.11264776330E+02 -0.16951497521E+02  0.10129146039E+03  0.00000000000E+00 0. -1.
         -2    1    3    3    0  502  0.13516201718E+03 -0.68959748212E+02  0.64905220212E+02  0.16503607294E+03  0.00000000000E+00 0.  1.
         11    1    5    5    0    0  0.62906516438E+00  0.11828133153E+02  0.39932463499E+02  0.41652155982E+02  0.00000000000E+00 0. -1.
        -11    1    5    5    0    0  0.21823826224E+03 -0.18814094132E+02  0.17889339474E+03  0.28281576322E+03  0.00000000000E+00 0.  1.
          3    1    6    6  503    0 -0.13102069269E+03  0.21709800943E+02 -0.17821561689E+03  0.22225783108E+03  0.00000000000E+00 0. -1.
         -3    1    6    6    0  503 -0.32223421055E+03  0.65500684577E+02 -0.24464613012E+03  0.40984991779E+03  0.00000000000E+00 0.  1.
<mgrwt>
<rscale>  0 0.12129017E+04</rscale>
<asrwt>0</asrwt>
<pdfrwt beam="1">  1        1 0.10607580E+00 0.12129017E+04</pdfrwt>
<pdfrwt beam="2">  1       -2 0.82063157E-01 0.12129017E+04</pdfrwt>
<totfact> 0.31510530E+01</totfact>
</mgrwt>
</event>
<event>
12    4  0.4183215E-008  0.2383744E+04  0.7818608E-02  0.8445615E-01
          3   -1    0    0  501    0  0.00000000000E+00  0.00000000000E+00  0.15533408640E+04  0.15533408640E+04  0.00000000000E+00 0. -1.
         -4   -1    0    0    0  501 -0.00000000000E+00 -0.00000000000E+00 -0.91451874626E+03  0.91451874626E+03  0.00000000000E+00 0.  1.
        -24    2    1    2    0    0  0.12688211748E+03  0.20706796666E+03 -0.74940097676E+03  0.79171181711E+03  0.78927579605E+02 0.  0.
        254    2    1    2    0    0 -0.12688211748E+03 -0.20706796666E+03  0.13882230945E+04  0.16761477932E+04  0.90737635511E+03 0.  0.
         23    2    4    4    0    0 -0.12237744007E+03 -0.80025868704E+02  0.14833296278E+04  0.14932619866E+04  0.90466559695E+02 0.  0.
         23    2    4    4    0    0 -0.45046774122E+01 -0.12704209795E+03 -0.95106533273E+02  0.18288580657E+03  0.90785344640E+02 0.  0.
          3    1    3    3  502    0  0.19813581251E+02  0.69215250655E+02 -0.13500015947E+03  0.15299794764E+03  0.00000000000E+00 0. -1.
         -4    1    3    3    0  502  0.10706853623E+03  0.13785271600E+03 -0.61440081729E+03  0.63871386947E+03  0.00000000000E+00 0.  1.
         11    1    5    5    0    0 -0.27237832356E+02 -0.70816851818E+02  0.71254922515E+03  0.71657750751E+03  0.00000000000E+00 0.  1.
        -11    1    5    5    0    0 -0.95139607716E+02 -0.92090168862E+01  0.77078040264E+03  0.77668447908E+03  0.00000000000E+00 0. -1.
          3    1    6    6  503    0  0.14378071450E+02 -0.64304129695E+02  0.17916206555E+01  0.65916310113E+02  0.00000000000E+00 0. -1.
         -3    1    6    6    0  503 -0.18882748862E+02 -0.62737968259E+02 -0.96898153929E+02  0.11696949645E+03  0.00000000000E+00 0.  1.
<mgrwt>
<rscale>  0 0.23837444E+04</rscale>
<asrwt>0</asrwt>
<pdfrwt beam="1">  1        3 0.23897552E+00 0.23837444E+04</pdfrwt>
<pdfrwt beam="2">  1       -4 0.14069519E+00 0.23837444E+04</pdfrwt>
<totfact> 0.62135389E-02</totfact>
</mgrwt>
</event>
<event>
12    4  0.4183215E-008  0.1938208E+04  0.7818608E-02  0.8636068E-01
          1   -1    0    0  501    0  0.00000000000E+00  0.00000000000E+00  0.12757557288E+04  0.12757557288E+04  0.00000000000E+00 0. -1.
         -4   -1    0    0    0  501 -0.00000000000E+00 -0.00000000000E+00 -0.73616163330E+03  0.73616163330E+03  0.00000000000E+00 0.  1.
        -24    2    1    2    0    0  0.57269911814E+03  0.26128223642E+03  0.64642830867E+03  0.90579150116E+03  0.79598984460E+02 0.  0.
        254    2    1    2    0    0 -0.57269911814E+03 -0.26128223642E+03 -0.10683421318E+03  0.11061258609E+04  0.90324314783E+03 0.  0.
         23    2    4    4    0    0  0.54840268988E+02 -0.22154015253E+03 -0.34897037999E+03  0.42594129147E+03  0.86937698265E+02 0.  0.
         23    2    4    4    0    0 -0.62753938713E+03 -0.39742083885E+02  0.24213616681E+03  0.68018456945E+03  0.92930132938E+02 0.  0.
          1    1    3    3  502    0  0.55552240074E+03  0.23963135231E+03  0.60209591558E+03  0.85355012406E+03  0.00000000000E+00 0. -1.
         -2    1    3    3    0  502  0.17176717409E+02  0.21650884108E+02  0.44332393092E+02  0.52241377096E+02  0.00000000000E+00 0.  1.
         11    1    5    5    0    0  0.61188052674E+02 -0.22744290930E+03 -0.33771427439E+03  0.41173436329E+03  0.00000000000E+00 0.  1.
        -11    1    5    5    0    0 -0.63477836860E+01  0.59027567669E+01 -0.11256105599E+02  0.14206928184E+02  0.00000000000E+00 0. -1.
          2    1    6    6  503    0 -0.44451589786E+03 -0.58647989359E+02  0.20245333830E+03  0.49195662847E+03  0.00000000000E+00 0. -1.
         -2    1    6    6    0  503 -0.18302348927E+03  0.18905905474E+02  0.39682828504E+02  0.18822794098E+03  0.00000000000E+00 0.  1.
<mgrwt>
<rscale>  0 0.19382079E+04</rscale>
<asrwt>0</asrwt>
<pdfrwt beam="1">  1        1 0.19627011E+00 0.19382079E+04</pdfrwt>
<pdfrwt beam="2">  1       -4 0.11325564E+00 0.19382079E+04</pdfrwt>
<totfact> 0.26150628E+00</totfact>
</mgrwt>
</event>
<event>
12    4  0.4183215E-008  0.1513999E+04  0.7818608E-02  0.8875197E-01
          1   -1    0    0  501    0  0.00000000000E+00  0.00000000000E+00  0.75622771703E+03  0.75622771703E+03  0.00000000000E+00 0. -1.
         -2   -1    0    0    0  501 -0.00000000000E+00 -0.00000000000E+00 -0.75777228499E+03  0.75777228499E+03  0.00000000000E+00 0.  1.
        -24    2    1    2    0    0  0.24133577130E+02 -0.29256565886E+03  0.38930092112E+03  0.49388861801E+03  0.78699844518E+02 0.  0.
        254    2    1    2    0    0 -0.24133577130E+02  0.29256565886E+03 -0.39084548908E+03  0.10201113840E+04  0.89537140068E+03 0.  0.
         23    2    4    4    0    0 -0.39513877551E+03  0.34249768701E+03 -0.10743823904E+03  0.54144845700E+03  0.90466230484E+02 0.  0.
         23    2    4    4    0    0  0.37100519838E+03 -0.49932028151E+02 -0.28340725004E+03  0.47866292701E+03  0.93061612138E+02 0.  0.
          1    1    3    3  502    0  0.43498797994E+02 -0.25319951984E+03  0.30440645876E+03  0.39832829978E+03  0.00000000000E+00 0. -1.
         -2    1    3    3    0  502 -0.19365220863E+02 -0.39366139023E+02  0.84894462362E+02  0.95560318231E+02  0.00000000000E+00 0.  1.
         11    1    5    5    0    0 -0.32077874027E+03  0.31800956077E+03 -0.81606375145E+02  0.45900836748E+03  0.00000000000E+00 0.  1.
        -11    1    5    5    0    0 -0.74360035243E+02  0.24488126241E+02 -0.25831863898E+02  0.82440089523E+02  0.00000000000E+00 0. -1.
          1    1    6    6  503    0  0.67184971376E+02  0.13092419878E+02 -0.19099871555E+02  0.71063611860E+02  0.00000000000E+00 0. -1.
         -1    1    6    6    0  503  0.30382022701E+03 -0.63024448029E+02 -0.26430737848E+03  0.40759931515E+03  0.00000000000E+00 0.  1.
<mgrwt>
<rscale>  0 0.15139992E+04</rscale>
<asrwt>0</asrwt>
<pdfrwt beam="1">  1        1 0.11634273E+00 0.15139992E+04</pdfrwt>
<pdfrwt beam="2">  1       -2 0.11658035E+00 0.15139992E+04</pdfrwt>
<totfact> 0.11666865E+01</totfact>
</mgrwt>
</event>
<event>
12    4  0.4183215E-008  0.1500180E+04  0.7818608E-02  0.8884333E-01
          1   -1    0    0  501    0  0.00000000000E+00  0.00000000000E+00  0.14433117977E+04  0.14433117977E+04  0.00000000000E+00 0. -1.
         -2   -1    0    0    0  501 -0.00000000000E+00 -0.00000000000E+00 -0.38982232285E+03  0.38982232285E+03  0.00000000000E+00 0.  1.
        -24    2    1    2    0    0  0.69175388309E+02 -0.22162568608E+03  0.85848423230E+03  0.89276813137E+03  0.78336327479E+02 0.  0.
        254    2    1    2    0    0 -0.69175388309E+02  0.22162568608E+03  0.19500524259E+03  0.94036598923E+03  0.89014491516E+03 0.  0.
         23    2    4    4    0    0  0.41528406693E+02 -0.20436251537E+03  0.38898788327E+03  0.45045585883E+03  0.90056988493E+02 0.  0.
         23    2    4    4    0    0 -0.11070379500E+03  0.42598820145E+03 -0.19398264068E+03  0.48991013039E+03  0.93066605036E+02 0.  0.
          1    1    3    3  502    0  0.18475760931E+02 -0.15621196557E+03  0.64236762069E+03  0.66134687725E+03  0.00000000000E+00 0. -1.
         -2    1    3    3    0  502  0.50699627378E+02 -0.65413720508E+02  0.21611661161E+03  0.23142125412E+03  0.00000000000E+00 0.  1.
         11    1    5    5    0    0 -0.77469849348E+00 -0.23071034807E+02  0.12688998501E+03  0.12897263703E+03  0.00000000000E+00 0.  1.
        -11    1    5    5    0    0  0.42303105186E+02 -0.18129148057E+03  0.26209789825E+03  0.32148322181E+03  0.00000000000E+00 0. -1.
          1    1    6    6  503    0 -0.43770593966E+02  0.12009611791E+03 -0.13611960583E+02  0.12854659818E+03  0.00000000000E+00 0.  1.
         -1    1    6    6    0  503 -0.66933201035E+02  0.30589208355E+03 -0.18037068009E+03  0.36136353221E+03  0.00000000000E+00 0. -1.
<mgrwt>
<rscale>  0 0.15001802E+04</rscale>
<asrwt>0</asrwt>
<pdfrwt beam="1">  1        1 0.22204797E+00 0.15001802E+04</pdfrwt>
<pdfrwt beam="2">  1       -2 0.59972666E-01 0.15001802E+04</pdfrwt>
<totfact> 0.15762806E+01</totfact>
</mgrwt>
</event>
<event>
12    4  0.4183215E-008  0.2273192E+04  0.7818608E-02  0.8488567E-01
          1   -1    0    0  501    0  0.00000000000E+00  0.00000000000E+00  0.10841974037E+04  0.10841974037E+04  0.00000000000E+00 0. -1.
         -2   -1    0    0    0  501 -0.00000000000E+00 -0.00000000000E+00 -0.11915271594E+04  0.11915271594E+04  0.00000000000E+00 0.  1.
        -24    2    1    2    0    0  0.63174226420E+02  0.40961464591E+03 -0.90843283746E+03  0.10016062570E+04  0.78674854644E+02 0.  0.
        254    2    1    2    0    0 -0.63174226420E+02 -0.40961464591E+03  0.80110308170E+03  0.12741183061E+04  0.89990897844E+03 0.  0.
         23    2    4    4    0    0 -0.11572046030E+03  0.17871459380E+03 -0.47256466061E+02  0.23649808256E+03  0.91476983447E+02 0.  0.
         23    2    4    4    0    0  0.52546233879E+02 -0.58832923971E+03  0.84835954777E+03  0.10376202236E+04  0.89718476896E+02 0.  0.
          3    1    3    3  502    0 -0.90934103191E+01  0.15559361406E+02 -0.71372547698E+02  0.73612664695E+02  0.00000000000E+00 0. -1.
         -4    1    3    3    0  502  0.72267636739E+02  0.39405528451E+03 -0.83706028976E+03  0.92799359226E+03  0.00000000000E+00 0.  1.
         11    1    5    5    0    0 -0.12389230019E+02 -0.55654783436E+01  0.10845638582E+02  0.17380893128E+02  0.00000000000E+00 0. -1.
        -11    1    5    5    0    0 -0.10333123028E+03  0.18428007214E+03 -0.58102104643E+02  0.21911718943E+03  0.00000000000E+00 0.  1.
          4    1    6    6  503    0  0.25026561251E+02 -0.70312924427E+02  0.15142512114E+03  0.16881884795E+03  0.00000000000E+00 0. -1.
         -4    1    6    6    0  503  0.27519672628E+02 -0.51801631528E+03  0.69693442663E+03  0.86880137563E+03  0.00000000000E+00 0.  1.
<mgrwt>
<rscale>  0 0.22731922E+04</rscale>
<asrwt>0</asrwt>
<pdfrwt beam="1">  1        1 0.16679960E+00 0.22731922E+04</pdfrwt>
<pdfrwt beam="2">  1       -2 0.18331187E+00 0.22731922E+04</pdfrwt>
<totfact> 0.17815740E+00</totfact>
</mgrwt>
</event>
<event>
12    4  0.4183215E-008  0.3136595E+04  0.7818608E-02  0.8205766E-01
          1   -1    0    0  501    0  0.00000000000E+00  0.00000000000E+00  0.28977209507E+04  0.28977209507E+04  0.00000000000E+00 0. -1.
         -2   -1    0    0    0  501 -0.00000000000E+00 -0.00000000000E+00 -0.84879023678E+03  0.84879023678E+03  0.00000000000E+00 0.  1.
        -24    2    1    2    0    0  0.80188186845E+03 -0.28133005023E+03  0.23215935545E+04  0.24735156802E+04  0.79511381730E+02 0.  0.
        254    2    1    2    0    0 -0.80188186845E+03  0.28133005023E+03 -0.27266284052E+03  0.12729955073E+04  0.90775074166E+03 0.  0.
         23    2    4    4    0    0 -0.10119350507E+02  0.36988506952E+03  0.88700547401E+02  0.39340377219E+03  0.99906831385E+02 0.  0.
         23    2    4    4    0    0 -0.79176251795E+03 -0.88555019295E+02 -0.36136338792E+03  0.87959173514E+03  0.91478118335E+02 0.  0.
          3    1    3    3  502    0  0.44428086778E+03 -0.14379293463E+03  0.13841531054E+04  0.14608017376E+04  0.00000000000E+00 0. -1.
         -4    1    3    3    0  502  0.35760100068E+03 -0.13753711560E+03  0.93744044913E+03  0.10127139426E+04  0.00000000000E+00 0.  1.
         11    1    5    5    0    0  0.21787027068E+02  0.15216564893E+03 -0.60262799188E+01  0.15383554633E+03  0.00000000000E+00 0. -1.
        -11    1    5    5    0    0 -0.31906377576E+02  0.21771942059E+03  0.94726827320E+02  0.23956822587E+03  0.00000000000E+00 0.  1.
          3    1    6    6  503    0 -0.55618992199E+03 -0.42539045487E+02 -0.21116288490E+03  0.59644493767E+03  0.00000000000E+00 0. -1.
         -3    1    6    6    0  503 -0.23557259596E+03 -0.46015973808E+02 -0.15020050302E+03  0.28314679747E+03  0.00000000000E+00 0.  1.
<mgrwt>
<rscale>  0 0.31365951E+04</rscale>
<asrwt>0</asrwt>
<pdfrwt beam="1">  1        1 0.44580322E+00 0.31365951E+04</pdfrwt>
<pdfrwt beam="2">  1       -2 0.13058311E+00 0.31365951E+04</pdfrwt>
<totfact> 0.22531698E-01</totfact>
</mgrwt>
</event>
<event>
12    4  0.4183215E-008  0.1765493E+04  0.7818608E-02  0.8724868E-01
         -2   -1    0    0    0  501 -0.00000000000E+00  0.00000000000E+00  0.20534414514E+03  0.20534414514E+03  0.00000000000E+00 0.  1.
          1   -1    0    0  501    0  0.00000000000E+00 -0.00000000000E+00 -0.37948080020E+04  0.37948080020E+04  0.00000000000E+00 0. -1.
        -24    2    1    2    0    0 -0.48433751895E+03 -0.20798273862E+03 -0.21993133220E+04  0.22631339006E+04  0.83404508870E+02 0.  0.
        254    2    1    2    0    0  0.48433751895E+03  0.20798273862E+03 -0.13901505349E+04  0.17370182465E+04  0.89826178102E+03 0.  0.
         23    2    4    4    0    0  0.21330844122E+03  0.66247789278E+02  0.62388772926E+02  0.24962568344E+03  0.92365373189E+02 0.  0.
         23    2    4    4    0    0  0.27102907773E+03  0.14173494935E+03 -0.14525393078E+04  0.14873925631E+04  0.94449134997E+02 0.  0.
          3    1    3    3  502    0 -0.40445316624E+03 -0.14129322682E+03 -0.18262106744E+04  0.18757909177E+04  0.00000000000E+00 0. -1.
         -4    1    3    3    0  502 -0.79884352717E+02 -0.66689511805E+02 -0.37310264754E+03  0.38734298289E+03  0.00000000000E+00 0.  1.
         11    1    5    5    0    0  0.86973567826E+02  0.59330307625E+02 -0.66475258946E+01  0.10549254241E+03  0.00000000000E+00 0.  1.
        -11    1    5    5    0    0  0.12633487340E+03  0.69174816527E+01  0.69036298821E+02  0.14413314103E+03  0.00000000000E+00 0. -1.
          2    1    6    6  503    0  0.18675518470E+03  0.13153138836E+03 -0.11812037460E+04  0.12030878167E+04  0.00000000000E+00 0. -1.
         -2    1    6    6    0  503  0.84273893030E+02  0.10203560989E+02 -0.27133556177E+03  0.28430474633E+03  0.00000000000E+00 0.  1.
<mgrwt>
<rscale>  0 0.17654933E+04</rscale>
<asrwt>0</asrwt>
<pdfrwt beam="1">  1        1 0.58381662E+00 0.17654933E+04</pdfrwt>
<pdfrwt beam="2">  1       -2 0.31591407E-01 0.17654933E+04</pdfrwt>
<totfact> 0.11249064E+00</totfact>
</mgrwt>
</event>
<event>
12    4  0.8023085E-008  0.1924916E+04  0.7818608E-02  0.8642553E-01
         -2   -1    0    0    0  501 -0.00000000000E+00  0.00000000000E+00  0.63513244820E+03  0.63513244820E+03  0.00000000000E+00 0.  1.
          1   -1    0    0  501    0  0.00000000000E+00 -0.00000000000E+00 -0.14584754479E+04  0.14584754479E+04  0.00000000000E+00 0. -1.
        -24    2    1    2    0    0 -0.24886667161E+03 -0.33359964191E+03 -0.99907387348E+03  0.10853177730E+04  0.80887097009E+02 0.  0.
        254    2    1    2    0    0  0.24886667161E+03  0.33359964191E+03  0.17573087378E+03  0.10082901231E+04  0.90141238674E+03 0.  0.
         23    2    4    4    0    0  0.31331773915E+03 -0.21195931377E+02 -0.27141231401E+03  0.42639522079E+03  0.97626671262E+02 0.  0.
         23    2    4    4    0    0 -0.64451067540E+02  0.35479557329E+03  0.44714318778E+03  0.58189490229E+03  0.92902142057E+02 0.  0.
          1    1    3    3  502    0 -0.23251411018E+03 -0.31961725054E+03 -0.97947266615E+03  0.10562124322E+04  0.00000000000E+00 0. -1.
         -2    1    3    3    0  502 -0.16352561433E+02 -0.13982391374E+02 -0.19601207326E+02  0.29105340791E+02  0.00000000000E+00 0.  1.
         11    1    5    5    0    0  0.21623146032E+03 -0.28961190736E+02 -0.23935107439E+03  0.32385757952E+03  0.00000000000E+00 0. -1.
        -11    1    5    5    0    0  0.97086278838E+02  0.77652593586E+01 -0.32061239614E+02  0.10253764127E+03  0.00000000000E+00 0.  1.
          3    1    6    6  503    0 -0.63457108842E+02  0.34140272172E+03  0.44975904245E+03  0.56821282925E+03  0.00000000000E+00 0. -1.
         -3    1    6    6    0  503 -0.99395869892E+00  0.13392851565E+02 -0.26158546678E+01  0.13682073036E+02  0.00000000000E+00 0.  1.
<mgrwt>
<rscale>  0 0.19249157E+04</rscale>
<asrwt>0</asrwt>
<pdfrwt beam="1">  1        1 0.22438084E+00 0.19249157E+04</pdfrwt>
<pdfrwt beam="2">  1       -2 0.97712685E-01 0.19249157E+04</pdfrwt>
<totfact> 0.49978246E+00</totfact>
</mgrwt>
</event>
<event>
12    4  0.4183215E-008  0.1829089E+04  0.7818608E-02  0.8690982E-01
          1   -1    0    0  501    0  0.00000000000E+00  0.00000000000E+00  0.69893261791E+03  0.69893261791E+03  0.00000000000E+00 0. -1.
         -2   -1    0    0    0  501 -0.00000000000E+00 -0.00000000000E+00 -0.11966696543E+04  0.11966696543E+04  0.00000000000E+00 0.  1.
        -24    2    1    2    0    0  0.49985525780E+03 -0.36452064908E+03  0.18085309946E+03  0.64947070194E+03  0.79835873685E+02 0.  0.
        254    2    1    2    0    0 -0.49985525780E+03  0.36452064908E+03 -0.67859013586E+03  0.12461315703E+04  0.84239464361E+03 0.  0.
         23    2    4    4    0    0  0.13406620851E+03 -0.89382834877E+02 -0.34885882086E+03  0.39459433777E+03  0.89661446952E+02 0.  0.
         23    2    4    4    0    0 -0.63392146631E+03  0.45390348396E+03 -0.32973131499E+03  0.85153723250E+03  0.92239471195E+02 0.  0.
          3    1    3    3  502    0  0.46765308064E+03 -0.35875162634E+03  0.18159121634E+03  0.61674751972E+03  0.00000000000E+00 0. -1.
         -4    1    3    3    0  502  0.32202177166E+02 -0.57690227405E+01 -0.73811687826E+00  0.32723182213E+02  0.00000000000E+00 0.  1.
         11    1    5    5    0    0  0.89080364107E+02 -0.48414918974E+02 -0.29966047894E+03  0.31634746449E+03  0.00000000000E+00 0. -1.
        -11    1    5    5    0    0  0.44985844404E+02 -0.40967915903E+02 -0.49198341921E+02  0.78246873279E+02  0.00000000000E+00 0.  1.
          4    1    6    6  503    0 -0.21733414891E+03  0.10710861808E+03 -0.84570060352E+02  0.25662907757E+03  0.00000000000E+00 0. -1.
         -4    1    6    6    0  503 -0.41658731741E+03  0.34679486588E+03 -0.24516125464E+03  0.59490815493E+03  0.00000000000E+00 0.  1.
<mgrwt>
<rscale>  0 0.18290888E+04</rscale>
<asrwt>0</asrwt>
<pdfrwt beam="1">  1        1 0.10752810E+00 0.18290888E+04</pdfrwt>
<pdfrwt beam="2">  1       -2 0.18410302E+00 0.18290888E+04</pdfrwt>
<totfact> 0.38225658E+00</totfact>
</mgrwt>
</event>
<event>
12    4  0.4183215E-008  0.1178952E+04  0.7818608E-02  0.9131482E-01
          1   -1    0    0  501    0  0.00000000000E+00  0.00000000000E+00  0.85048227918E+03  0.85048227918E+03  0.00000000000E+00 0. -1.
         -2   -1    0    0    0  501 -0.00000000000E+00 -0.00000000000E+00 -0.40857036483E+03  0.40857036483E+03  0.00000000000E+00 0.  1.
        -24    2    1    2    0    0 -0.19336124250E+03 -0.39455761655E+02  0.20207389801E+03  0.29406678439E+03  0.81829616874E+02 0.  0.
        254    2    1    2    0    0  0.19336124250E+03  0.39455761655E+02  0.23983801634E+03  0.96498585962E+03  0.91363565384E+03 0.  0.
         23    2    4    4    0    0  0.32654216295E+02 -0.89700591892E+02  0.55881657890E+03  0.57422102820E+03  0.91330861932E+02 0.  0.
         23    2    4    4    0    0  0.16070702620E+03  0.12915635355E+03 -0.31897856257E+03  0.39076483142E+03  0.91878823283E+02 0.  0.
          1    1    3    3  502    0 -0.14368587316E+03 -0.71264611676E+00  0.17240750958E+03  0.22443370373E+03  0.00000000000E+00 0. -1.
         -2    1    3    3    0  502 -0.49675369337E+02 -0.38743115539E+02  0.29666388439E+02  0.69633080669E+02  0.00000000000E+00 0.  1.
         11    1    5    5    0    0 -0.17556027200E+02 -0.56994460950E+01  0.22756371488E+02  0.29301027629E+02  0.00000000000E+00 0. -1.
        -11    1    5    5    0    0  0.50210243495E+02 -0.84001145797E+02  0.53606020742E+03  0.54492000057E+03  0.00000000000E+00 0.  1.
          4    1    6    6  503    0  0.56890931168E+02  0.60360688989E+02 -0.20808502055E+03  0.22400751461E+03  0.00000000000E+00 0.  1.
         -4    1    6    6    0  503  0.10381609503E+03  0.68795664559E+02 -0.11089354202E+03  0.16675731682E+03  0.00000000000E+00 0. -1.
<mgrwt>
<rscale>  0 0.11789518E+04</rscale>
<asrwt>0</asrwt>
<pdfrwt beam="1">  1        1 0.13084343E+00 0.11789518E+04</pdfrwt>
<pdfrwt beam="2">  1       -2 0.62856979E-01 0.11789518E+04</pdfrwt>
<totfact> 0.40777266E+01</totfact>
</mgrwt>
</event>
<event>
12    4  0.4183215E-008  0.1301360E+04  0.7818608E-02  0.9028488E-01
          3   -1    0    0  501    0  0.00000000000E+00  0.00000000000E+00  0.74879999062E+03  0.74879999062E+03  0.00000000000E+00 0. -1.
         -4   -1    0    0    0  501 -0.00000000000E+00 -0.00000000000E+00 -0.56541711914E+03  0.56541711914E+03  0.00000000000E+00 0.  1.
        -24    2    1    2    0    0 -0.31787801308E+03  0.57459261230E+02 -0.43685706525E+02  0.33551749991E+03  0.79470459244E+02 0.  0.
        254    2    1    2    0    0  0.31787801308E+03 -0.57459261230E+02  0.22706857800E+03  0.97869960985E+03  0.89551370135E+03 0.  0.
         23    2    4    4    0    0  0.60444443037E+03 -0.15375761091E+03  0.99397906680E+02  0.63819218674E+03  0.91732497262E+02 0.  0.
         23    2    4    4    0    0 -0.28656641729E+03  0.96298349683E+02  0.12767067132E+03  0.34050742310E+03  0.90839535467E+02 0.  0.
          3    1    3    3  502    0 -0.25846360923E+01 -0.41477450334E+01  0.87385321511E+01  0.10012296277E+02  0.00000000000E+00 0. -1.
         -4    1    3    3    0  502 -0.31529337699E+03  0.61607006264E+02 -0.52424238676E+02  0.32550520363E+03  0.00000000000E+00 0.  1.
         11    1    5    5    0    0  0.36787722896E+03 -0.50472302085E+02  0.41390446352E+02  0.37362317636E+03  0.00000000000E+00 0.  1.
        -11    1    5    5    0    0  0.23656720140E+03 -0.10328530883E+03  0.58007460328E+02  0.26456901038E+03  0.00000000000E+00 0. -1.
          4    1    6    6  503    0 -0.28157023888E+03  0.10505713473E+03  0.13351331354E+03  0.32885347174E+03  0.00000000000E+00 0. -1.
         -4    1    6    6    0  503 -0.49961784058E+01 -0.87587850517E+01 -0.58426422207E+01  0.11653951363E+02  0.00000000000E+00 0.  1.
<mgrwt>
<rscale>  0 0.13013598E+04</rscale>
<asrwt>0</asrwt>
<pdfrwt beam="1">  1        3 0.11520000E+00 0.13013598E+04</pdfrwt>
<pdfrwt beam="2">  1       -4 0.86987249E-01 0.13013598E+04</pdfrwt>
<totfact> 0.16065844E+00</totfact>
</mgrwt>
</event>
<event>
12    4  0.4183215E-008  0.1445514E+04  0.7818608E-02  0.8921517E-01
         -2   -1    0    0    0  501 -0.00000000000E+00  0.00000000000E+00  0.52726936538E+03  0.52726936538E+03  0.00000000000E+00 0.  1.
          1   -1    0    0  501    0  0.00000000000E+00 -0.00000000000E+00 -0.99072224022E+03  0.99072224022E+03  0.00000000000E+00 0. -1.
        -24    2    1    2    0    0 -0.42640979635E+03  0.30037789456E+02 -0.22037886152E+03  0.48819446169E+03  0.83901171605E+02 0.  0.
        254    2    1    2    0    0  0.42640979635E+03 -0.30037789456E+02 -0.24307401332E+03  0.10297971439E+04  0.90480362424E+03 0.  0.
         23    2    4    4    0    0  0.14450044116E+03 -0.12014359697E+03  0.32326856727E+03  0.38455553279E+03  0.89808294850E+02 0.  0.
         23    2    4    4    0    0  0.28190935520E+03  0.90105807517E+02 -0.56634258058E+03  0.64524161113E+03  0.89447621839E+02 0.  0.
          3    1    3    3  502    0 -0.38594714029E+03  0.56328526068E+01 -0.21142990378E+03  0.44010172499E+03  0.00000000000E+00 0. -1.
         -2    1    3    3    0  502 -0.40462656063E+02  0.24404936849E+02 -0.89489577317E+01  0.48092736695E+02  0.00000000000E+00 0.  1.
         11    1    5    5    0    0  0.11148181047E+03 -0.12969335879E+03  0.29028264696E+03  0.33691627521E+03  0.00000000000E+00 0. -1.
        -11    1    5    5    0    0  0.33018630686E+02  0.95497618159E+01  0.32985920310E+02  0.47639257571E+02  0.00000000000E+00 0.  1.
          1    1    6    6  503    0  0.22815318210E+03  0.10309421859E+03 -0.49742202262E+03  0.55687607329E+03  0.00000000000E+00 0. -1.
         -1    1    6    6    0  503  0.53756173096E+02 -0.12988411076E+02 -0.68920557964E+02  0.88365537843E+02  0.00000000000E+00 0.  1.
<mgrwt>
<rscale>  0 0.14455137E+04</rscale>
<asrwt>0</asrwt>
<pdfrwt beam="1">  1        1 0.15241881E+00 0.14455137E+04</pdfrwt>
<pdfrwt beam="2">  1       -2 0.81118364E-01 0.14455137E+04</pdfrwt>
<totfact> 0.17558171E+01</totfact>
</mgrwt>
</event>
<event>
12    4  0.4183215E-008  0.1836151E+04  0.7818608E-02  0.8687308E-01
          1   -1    0    0  501    0  0.00000000000E+00  0.00000000000E+00  0.23991120485E+04  0.23991120485E+04  0.00000000000E+00 0. -1.
         -2   -1    0    0    0  501 -0.00000000000E+00 -0.00000000000E+00 -0.35132267638E+03  0.35132267638E+03  0.00000000000E+00 0.  1.
        -24    2    1    2    0    0  0.56690490607E+03 -0.11684716073E+03  0.13278873708E+04  0.14507684239E+04  0.80060720178E+02 0.  0.
        254    2    1    2    0    0 -0.56690490607E+03  0.11684716073E+03  0.71990200130E+03  0.12996663009E+04  0.91424240260E+03 0.  0.
         23    2    4    4    0    0  0.15690847996E+03 -0.17856113458E+03  0.34596029391E+03  0.42817664363E+03  0.84512503941E+02 0.  0.
         23    2    4    4    0    0 -0.72381338603E+03  0.29540829531E+03  0.37394170739E+03  0.87148965727E+03  0.92140889171E+02 0.  0.
          3    1    3    3  502    0  0.48402450982E+03 -0.82408240851E+02  0.10586667179E+04  0.11669816039E+04  0.00000000000E+00 0. -1.
         -4    1    3    3    0  502  0.82880396256E+02 -0.34438919880E+02  0.26922065291E+03  0.28378682006E+03  0.00000000000E+00 0.  1.
         11    1    5    5    0    0  0.93296269984E+02 -0.15692278343E+03  0.22440104944E+03  0.28928322616E+03  0.00000000000E+00 0.  1.
        -11    1    5    5    0    0  0.63612209975E+02 -0.21638351154E+02  0.12155924448E+03  0.13889341747E+03  0.00000000000E+00 0. -1.
          3    1    6    6  503    0 -0.69032172043E+03  0.26344931053E+03  0.33626810109E+03  0.81180407287E+03  0.00000000000E+00 0. -1.
         -3    1    6    6    0  503 -0.33491665597E+02  0.31958984782E+02  0.37673606295E+02  0.59685584390E+02  0.00000000000E+00 0.  1.
<mgrwt>
<rscale>  0 0.18361508E+04</rscale>
<asrwt>0</asrwt>
<pdfrwt beam="1">  1        1 0.36909415E+00 0.18361508E+04</pdfrwt>
<pdfrwt beam="2">  1       -2 0.54049644E-01 0.18361508E+04</pdfrwt>
<totfact> 0.42402217E+00</totfact>
</mgrwt>
</event>
<event>
12    4  0.4183215E-008  0.1769856E+04  0.7818608E-02  0.8722496E-01
         -2   -1    0    0    0  501 -0.00000000000E+00  0.00000000000E+00  0.13468559130E+04  0.13468559130E+04  0.00000000000E+00 0.  1.
          1   -1    0    0  501    0  0.00000000000E+00 -0.00000000000E+00 -0.58142644757E+03  0.58142644757E+03  0.00000000000E+00 0. -1.
        -24    2    1    2    0    0  0.46809596398E+03 -0.57422243154E+02 -0.21229754462E+03  0.52323906337E+03  0.79358203551E+02 0.  0.
        254    2    1    2    0    0 -0.46809596398E+03  0.57422243154E+02  0.97772701003E+03  0.14050432972E+04  0.89206805531E+03 0.  0.
         23    2    4    4    0    0 -0.46318194546E+03  0.68360351710E+02  0.59589678163E+02  0.48150876161E+03  0.95336800191E+02 0.  0.
         23    2    4    4    0    0 -0.49140185202E+01 -0.10938108556E+02  0.91813733186E+03  0.92353453557E+03  0.98975190997E+02 0.  0.
          3    1    3    3  502    0  0.42456153789E+03 -0.71559154709E+02 -0.17732976713E+03  0.46563833432E+03  0.00000000000E+00 0. -1.
         -2    1    3    3    0  502  0.43534426094E+02  0.14136911554E+02 -0.34967777494E+02  0.57600729045E+02  0.00000000000E+00 0.  1.
         11    1    5    5    0    0 -0.21247584832E+02 -0.13786065218E+02 -0.88384559644E+01  0.26825990368E+02  0.00000000000E+00 0.  1.
        -11    1    5    5    0    0 -0.44193436063E+03  0.82146416928E+02  0.68428134127E+02  0.45468277124E+03  0.00000000000E+00 0. -1.
          1    1    6    6  503    0 -0.20906243070E+02  0.15806566873E+02  0.82313551624E+03  0.82355266780E+03  0.00000000000E+00 0. -1.
         -1    1    6    6    0  503  0.15992224549E+02 -0.26744675429E+02  0.95001815627E+02  0.99981867768E+02  0.00000000000E+00 0.  1.
<mgrwt>
<rscale>  0 0.17698561E+04</rscale>
<asrwt>0</asrwt>
<pdfrwt beam="1">  1        1 0.89450223E-01 0.17698561E+04</pdfrwt>
<pdfrwt beam="2">  1       -2 0.20720860E+00 0.17698561E+04</pdfrwt>
<totfact> 0.35392789E+00</totfact>
</mgrwt>
</event>
<event>
12    4  0.4183215E-008  0.1401251E+04  0.7818608E-02  0.8952913E-01
         -2   -1    0    0    0  501 -0.00000000000E+00  0.00000000000E+00  0.42273077598E+03  0.42273077598E+03  0.00000000000E+00 0.  1.
          1   -1    0    0  501    0  0.00000000000E+00 -0.00000000000E+00 -0.11612030033E+04  0.11612030033E+04  0.00000000000E+00 0. -1.
        -24    2    1    2    0    0  0.19609028125E+03 -0.39651070238E+02  0.18681500454E+03  0.28484468950E+03  0.78822873829E+02 0.  0.
        254    2    1    2    0    0 -0.19609028125E+03  0.39651070238E+02 -0.92528723188E+03  0.12990890898E+04  0.88963610313E+03 0.  0.
         23    2    4    4    0    0 -0.30652176526E+03 -0.33445506792E+03 -0.28331385299E+03  0.54234326818E+03  0.89742388041E+02 0.  0.
         23    2    4    4    0    0  0.11043148400E+03  0.37410613816E+03 -0.64197337889E+03  0.75674582162E+03  0.91563661332E+02 0.  0.
          3    1    3    3  502    0  0.65611130052E+01  0.15701070952E+02  0.96284977440E+01  0.19551976926E+02  0.00000000000E+00 0. -1.
         -4    1    3    3    0  502  0.18952916825E+03 -0.55352141190E+02  0.17718650680E+03  0.26529271257E+03  0.00000000000E+00 0.  1.
         11    1    5    5    0    0 -0.58494069935E+02 -0.95186984079E+02 -0.33299719196E+02  0.11658039910E+03  0.00000000000E+00 0. -1.
        -11    1    5    5    0    0 -0.24802769532E+03 -0.23926808384E+03 -0.25001413380E+03  0.42576286908E+03  0.00000000000E+00 0.  1.
          3    1    6    6  503    0  0.56151045360E+02  0.94128871750E+02 -0.24039641626E+03  0.26420374968E+03  0.00000000000E+00 0. -1.
         -3    1    6    6    0  503  0.54280438643E+02  0.27997726641E+03 -0.40157696262E+03  0.49254207194E+03  0.00000000000E+00 0.  1.
<mgrwt>
<rscale>  0 0.14012512E+04</rscale>
<asrwt>0</asrwt>
<pdfrwt beam="1">  1        1 0.17864662E+00 0.14012512E+04</pdfrwt>
<pdfrwt beam="2">  1       -2 0.65035504E-01 0.14012512E+04</pdfrwt>
<totfact> 0.21277414E+01</totfact>
</mgrwt>
</event>
<event>
12    4  0.4183215E-008  0.1297290E+04  0.7818608E-02  0.9031717E-01
          1   -1    0    0  501    0  0.00000000000E+00  0.00000000000E+00  0.79085127587E+03  0.79085127587E+03  0.00000000000E+00 0. -1.
         -2   -1    0    0    0  501 -0.00000000000E+00 -0.00000000000E+00 -0.53200931312E+03  0.53200931312E+03  0.00000000000E+00 0.  1.
        -24    2    1    2    0    0  0.15660282134E+03  0.11449825839E+03  0.32865881116E+03  0.38990960204E+03  0.79866067813E+02 0.  0.
        254    2    1    2    0    0 -0.15660282134E+03 -0.11449825839E+03 -0.69816848407E+02  0.93295098695E+03  0.90988397991E+03 0.  0.
         23    2    4    4    0    0  0.35783773817E+03  0.62014623518E+02 -0.77426963460E+02  0.38193498647E+03  0.89362961167E+02 0.  0.
         23    2    4    4    0    0 -0.51444055951E+03 -0.17651288191E+03  0.76101150523E+01  0.55101600048E+03  0.88061524978E+02 0.  0.
          1    1    3    3  502    0  0.16060796249E+03  0.11340129088E+03  0.28606446676E+03  0.34711330935E+03  0.00000000000E+00 0. -1.
         -2    1    3    3    0  502 -0.40051411488E+01  0.10969675149E+01  0.42594344401E+02  0.42796292693E+02  0.00000000000E+00 0.  1.
         11    1    5    5    0    0  0.24385252178E+02  0.27069826196E+00  0.17220547548E+02  0.29853995699E+02  0.00000000000E+00 0. -1.
        -11    1    5    5    0    0  0.33345248599E+03  0.61743925256E+02 -0.94647511008E+02  0.35208099077E+03  0.00000000000E+00 0.  1.
          1    1    6    6  503    0 -0.82302960173E+02 -0.47699531730E+02 -0.26649419793E+02  0.98788734964E+02  0.00000000000E+00 0. -1.
         -1    1    6    6    0  503 -0.43213759934E+03 -0.12881335018E+03  0.34259534846E+02  0.45222726551E+03  0.00000000000E+00 0.  1.
<mgrwt>
<rscale>  0 0.12972899E+04</rscale>
<asrwt>0</asrwt>
<pdfrwt beam="1">  1        1 0.12166943E+00 0.12972899E+04</pdfrwt>
<pdfrwt beam="2">  1       -2 0.81847587E-01 0.12972899E+04</pdfrwt>
<totfact> 0.25460221E+01</totfact>
</mgrwt>
</event>
<event>
12    4  0.4183215E-008  0.2136772E+04  0.7818608E-02  0.8545216E-01
          1   -1    0    0  501    0  0.00000000000E+00  0.00000000000E+00  0.70728592284E+03  0.70728592284E+03  0.00000000000E+00 0. -1.
         -2   -1    0    0    0  501 -0.00000000000E+00 -0.00000000000E+00 -0.16138432525E+04  0.16138432525E+04  0.00000000000E+00 0.  1.
        -24    2    1    2    0    0 -0.80474650340E+03 -0.35289192760E+03 -0.52539633184E+03  0.10269339660E+04  0.80015109727E+02 0.  0.
        254    2    1    2    0    0  0.80474650340E+03  0.35289192760E+03 -0.38116099783E+03  0.12941952093E+04  0.87034928981E+03 0.  0.
         23    2    4    4    0    0  0.30421108514E+03  0.55883331446E+03 -0.31034985776E+02  0.64321697885E+03  0.89027264709E+02 0.  0.
         23    2    4    4    0    0  0.50053541825E+03 -0.20594138686E+03 -0.35012601206E+03  0.65097823047E+03  0.90757217257E+02 0.  0.
          1    1    3    3  502    0 -0.70139610058E+03 -0.29952007509E+03 -0.42389757188E+03  0.87255825980E+03  0.00000000000E+00 0. -1.
         -2    1    3    3    0  502 -0.10335040281E+03 -0.53371852515E+02 -0.10149875996E+03  0.15437570623E+03  0.00000000000E+00 0.  1.
         11    1    5    5    0    0  0.10374172156E+03  0.12707094409E+03  0.16241805493E+02  0.16484285204E+03  0.00000000000E+00 0. -1.
        -11    1    5    5    0    0  0.20046936358E+03  0.43176237037E+03 -0.47276791269E+02  0.47837412681E+03  0.00000000000E+00 0.  1.
          3    1    6    6  503    0  0.35712184293E+03 -0.17831217799E+03 -0.28824957604E+03  0.49236070275E+03  0.00000000000E+00 0. -1.
         -3    1    6    6    0  503  0.14341357532E+03 -0.27629208872E+02 -0.61876436012E+02  0.15861752773E+03  0.00000000000E+00 0.  1.
<mgrwt>
<rscale>  0 0.21367720E+04</rscale>
<asrwt>0</asrwt>
<pdfrwt beam="1">  1        1 0.10881322E+00 0.21367720E+04</pdfrwt>
<pdfrwt beam="2">  1       -2 0.24828358E+00 0.21367720E+04</pdfrwt>
<totfact> 0.14179797E+00</totfact>
</mgrwt>
</event>
<event>
12    4  0.4183215E-008  0.1502004E+04  0.7818608E-02  0.8883122E-01
         -2   -1    0    0    0  501 -0.00000000000E+00  0.00000000000E+00  0.23415785152E+03  0.23415785152E+03  0.00000000000E+00 0.  1.
          1   -1    0    0  501    0  0.00000000000E+00 -0.00000000000E+00 -0.24086474001E+04  0.24086474001E+04  0.00000000000E+00 0. -1.
        -24    2    1    2    0    0  0.19184652574E+03 -0.31690983246E+03 -0.12681109818E+04  0.13235084927E+04  0.79575980378E+02 0.  0.
        254    2    1    2    0    0 -0.19184652574E+03  0.31690983246E+03 -0.90637856677E+03  0.13192967589E+04  0.88418601013E+03 0.  0.
         23    2    4    4    0    0  0.22077934505E+03  0.38395064166E+03 -0.20023577534E+03  0.49370759018E+03  0.86551744319E+02 0.  0.
         23    2    4    4    0    0 -0.41262587079E+03 -0.67040809193E+02 -0.70614279143E+03  0.82558916877E+03  0.90582859027E+02 0.  0.
          1    1    3    3  502    0  0.19692961523E+03 -0.29336883617E+03 -0.12118339570E+04  0.12622947702E+04  0.00000000000E+00 0. -1.
         -2    1    3    3    0  502 -0.50830894944E+01 -0.23540996290E+02 -0.56277024831E+02  0.61213722554E+02  0.00000000000E+00 0.  1.
         11    1    5    5    0    0  0.12926239312E+03  0.28889951236E+03 -0.11560367372E+03  0.33695089241E+03  0.00000000000E+00 0. -1.
        -11    1    5    5    0    0  0.91516951933E+02  0.95051129295E+02 -0.84632101620E+02  0.15675669777E+03  0.00000000000E+00 0.  1.
          1    1    6    6  503    0 -0.37003438765E+03 -0.34010829220E+02 -0.64221927262E+03  0.74197559170E+03  0.00000000000E+00 0. -1.
         -1    1    6    6    0  503 -0.42591483144E+02 -0.33029979973E+02 -0.63923518809E+02  0.83613577069E+02  0.00000000000E+00 0.  1.
<mgrwt>
<rscale>  0 0.15020036E+04</rscale>
<asrwt>0</asrwt>
<pdfrwt beam="1">  1        1 0.37056114E+00 0.15020036E+04</pdfrwt>
<pdfrwt beam="2">  1       -2 0.36024284E-01 0.15020036E+04</pdfrwt>
<totfact> 0.96663746E+00</totfact>
</mgrwt>
</event>
<event>
12    4  0.4183215E-008  0.1484858E+04  0.7818608E-02  0.8894585E-01
         -2   -1    0    0    0  501 -0.00000000000E+00  0.00000000000E+00  0.64621879998E+03  0.64621879998E+03  0.00000000000E+00 0.  1.
          1   -1    0    0  501    0  0.00000000000E+00 -0.00000000000E+00 -0.85296337748E+03  0.85296337748E+03  0.00000000000E+00 0. -1.
        -24    2    1    2    0    0 -0.44978863720E+02  0.10624740210E+03  0.40851839192E+03  0.43287329495E+03  0.84737266357E+02 0.  0.
        254    2    1    2    0    0  0.44978863720E+02 -0.10624740210E+03 -0.61526296942E+03  0.10663088825E+04  0.86322332147E+03 0.  0.
         23    2    4    4    0    0 -0.11753454464E+03 -0.65204450605E+02 -0.79037396936E+03  0.80693454719E+03  0.91577084700E+02 0.  0.
         23    2    4    4    0    0  0.16251340836E+03 -0.41042951499E+02  0.17511099994E+03  0.25937433532E+03  0.92282456387E+02 0.  0.
          1    1    3    3  502    0 -0.34707052557E+01 -0.12740597361E+02  0.78684400166E+02  0.79784731908E+02  0.00000000000E+00 0. -1.
         -2    1    3    3    0  502 -0.41508158464E+02  0.11898799947E+03  0.32983399175E+03  0.35308856304E+03  0.00000000000E+00 0.  1.
         11    1    5    5    0    0 -0.91703074505E+02 -0.40087842099E+02 -0.72843978610E+03  0.73528294618E+03  0.00000000000E+00 0.  1.
        -11    1    5    5    0    0 -0.25831470132E+02 -0.25116608506E+02 -0.61934183255E+02  0.71651601012E+02  0.00000000000E+00 0. -1.
          2    1    6    6  503    0  0.51243855888E+00 -0.11174395055E+02 -0.74793957365E+01  0.13456264664E+02  0.00000000000E+00 0. -1.
         -2    1    6    6    0  503  0.16200096980E+03 -0.29868556444E+02  0.18259039568E+03  0.24591807065E+03  0.00000000000E+00 0.  1.
<mgrwt>
<rscale>  0 0.14848582E+04</rscale>
<asrwt>0</asrwt>
<pdfrwt beam="1">  1        1 0.13122514E+00 0.14848582E+04</pdfrwt>
<pdfrwt beam="2">  1       -2 0.99418277E-01 0.14848582E+04</pdfrwt>
<totfact> 0.14153301E+01</totfact>
</mgrwt>
</event>
<event>
12    4  0.4183215E-008  0.1164749E+04  0.7818608E-02  0.9144284E-01
          1   -1    0    0  501    0  0.00000000000E+00  0.00000000000E+00  0.20949607273E+04  0.20949607273E+04  0.00000000000E+00 0. -1.
         -2   -1    0    0    0  501 -0.00000000000E+00 -0.00000000000E+00 -0.16189315978E+03  0.16189315978E+03  0.00000000000E+00 0.  1.
        -24    2    1    2    0    0 -0.22863126554E+02 -0.77299562913E+02 -0.54020203426E+01  0.11631722211E+03  0.83681356066E+02 0.  0.
        254    2    1    2    0    0  0.22863126554E+02  0.77299562913E+02  0.19384695879E+04  0.21405366650E+04  0.90428697109E+03 0.  0.
         23    2    4    4    0    0 -0.86169381822E+02  0.33390856153E+03  0.17593779634E+04  0.17953961702E+04  0.95480363779E+02 0.  0.
         23    2    4    4    0    0  0.10903250838E+03 -0.25660899862E+03  0.17909162444E+03  0.34514049481E+03  0.96498109607E+02 0.  0.
          3    1    3    3  502    0  0.30280808416E+02 -0.27140746623E+02  0.94481563812E+01  0.41747037555E+02  0.00000000000E+00 0. -1.
         -4    1    3    3    0  502 -0.53143934970E+02 -0.50158816289E+02 -0.14850176724E+02  0.74570184554E+02  0.00000000000E+00 0.  1.
         11    1    5    5    0    0  0.85611636033E+01  0.58431115265E+02  0.18191171607E+03  0.19125731672E+03  0.00000000000E+00 0.  1.
        -11    1    5    5    0    0 -0.94730545425E+02  0.27547744626E+03  0.15774662474E+04  0.16041388535E+04  0.00000000000E+00 0. -1.
          3    1    6    6  503    0  0.10477533156E+03 -0.19653751871E+03  0.17766243257E+03  0.28490139752E+03  0.00000000000E+00 0. -1.
         -3    1    6    6    0  503  0.42571768167E+01 -0.60071479906E+02  0.14291918751E+01  0.60239097287E+02  0.00000000000E+00 0.  1.
<mgrwt>
<rscale>  0 0.11647486E+04</rscale>
<asrwt>0</asrwt>
<pdfrwt beam="1">  1        1 0.32230163E+00 0.11647486E+04</pdfrwt>
<pdfrwt beam="2">  1       -2 0.24906641E-01 0.11647486E+04</pdfrwt>
<totfact> 0.32410455E+01</totfact>
</mgrwt>
</event>
<event>
12    4  0.4183215E-008  0.1844357E+04  0.7818608E-02  0.8683060E-01
          1   -1    0    0  501    0  0.00000000000E+00  0.00000000000E+00  0.97416643634E+03  0.97416643634E+03  0.00000000000E+00 0. -1.
         -2   -1    0    0    0  501 -0.00000000000E+00 -0.00000000000E+00 -0.87296460200E+03  0.87296460200E+03  0.00000000000E+00 0.  1.
        -24    2    1    2    0    0 -0.44890789662E+03  0.47121800607E+03  0.29622114450E+03  0.71925067442E+03  0.77523269478E+02 0.  0.
        254    2    1    2    0    0  0.44890789662E+03 -0.47121800607E+03 -0.19501931016E+03  0.11278803639E+04  0.90028710702E+03 0.  0.
         23    2    4    4    0    0  0.70498039509E+03 -0.24189844492E+03 -0.86229659235E+02  0.75560923696E+03  0.89429020635E+02 0.  0.
         23    2    4    4    0    0 -0.25607249846E+03 -0.22931956115E+03 -0.10878965093E+03  0.37227112696E+03  0.92682351181E+02 0.  0.
          1    1    3    3  502    0 -0.17843559004E+03  0.14654676606E+03  0.13141400791E+03  0.26567810582E+03  0.00000000000E+00 0. -1.
         -2    1    3    3    0  502 -0.27047230658E+03  0.32467124001E+03  0.16480713658E+03  0.45357256860E+03  0.00000000000E+00 0.  1.
         11    1    5    5    0    0  0.61529430779E+02 -0.30217655443E+00 -0.21824949795E+02  0.65286220569E+02  0.00000000000E+00 0. -1.
        -11    1    5    5    0    0  0.64345096431E+03 -0.24159626837E+03 -0.64404709440E+02  0.69032301639E+03  0.00000000000E+00 0.  1.
          2    1    6    6  503    0 -0.23829764775E+03 -0.18827881510E+03 -0.11935896912E+03  0.32631464056E+03  0.00000000000E+00 0.  1.
         -2    1    6    6    0  503 -0.17774850714E+02 -0.41040746052E+02  0.10569318191E+02  0.45956486392E+02  0.00000000000E+00 0. -1.
<mgrwt>
<rscale>  0 0.18443566E+04</rscale>
<asrwt>0</asrwt>
<pdfrwt beam="1">  1        1 0.14987176E+00 0.18443566E+04</pdfrwt>
<pdfrwt beam="2">  1       -2 0.13430225E+00 0.18443566E+04</pdfrwt>
<totfact> 0.52229175E+00</totfact>
</mgrwt>
</event>
<event>
12    4  0.4183215E-008  0.1675376E+04  0.7818608E-02  0.8775534E-01
          3   -1    0    0  501    0  0.00000000000E+00  0.00000000000E+00  0.20382266770E+04  0.20382266770E+04  0.00000000000E+00 0. -1.
         -4   -1    0    0    0  501 -0.00000000000E+00 -0.00000000000E+00 -0.34428031734E+03  0.34428031734E+03  0.00000000000E+00 0.  1.
        -24    2    1    2    0    0  0.54234216489E+03 -0.92089545941E+01  0.25915967391E+03  0.60682257418E+03  0.82765157514E+02 0.  0.
        254    2    1    2    0    0 -0.54234216489E+03  0.92089545941E+01  0.14347866858E+04  0.17756844202E+04  0.89455156237E+03 0.  0.
         23    2    4    4    0    0 -0.38063919475E+03  0.37148283776E+03  0.11771427874E+04  0.12949975220E+04  0.92020349751E+02 0.  0.
         23    2    4    4    0    0 -0.16170297014E+03 -0.36227388316E+03  0.25764389838E+03  0.48068689818E+03  0.85377390044E+02 0.  0.
          3    1    3    3  502    0  0.27646508638E+03 -0.50440619955E+01  0.86298702436E+02  0.28966506968E+03  0.00000000000E+00 0. -1.
         -4    1    3    3    0  502  0.26587707850E+03 -0.41648925986E+01  0.17286097147E+03  0.31715750450E+03  0.00000000000E+00 0.  1.
         11    1    5    5    0    0 -0.95924362416E+02  0.54390836015E+02  0.30460349147E+03  0.32394927591E+03  0.00000000000E+00 0.  1.
        -11    1    5    5    0    0 -0.28471483233E+03  0.31709200174E+03  0.87253929592E+03  0.97104824610E+03  0.00000000000E+00 0. -1.
          1    1    6    6  503    0 -0.13824365315E+03 -0.22275027468E+03  0.14326627273E+03  0.29875444333E+03  0.00000000000E+00 0. -1.
         -1    1    6    6    0  503 -0.23459316993E+02 -0.13952360849E+03  0.11437762565E+03  0.18193245485E+03  0.00000000000E+00 0.  1.
<mgrwt>
<rscale>  0 0.16753762E+04</rscale>
<asrwt>0</asrwt>
<pdfrwt beam="1">  1        3 0.31357333E+00 0.16753762E+04</pdfrwt>
<pdfrwt beam="2">  1       -4 0.52966204E-01 0.16753762E+04</pdfrwt>
<totfact> 0.24442446E-01</totfact>
</mgrwt>
</event>
<event>
12    4  0.4183215E-008  0.1151379E+04  0.7818608E-02  0.9156512E-01
          1   -1    0    0  501    0  0.00000000000E+00  0.00000000000E+00  0.15523230687E+04  0.15523230687E+04  0.00000000000E+00 0. -1.
         -2   -1    0    0    0  501 -0.00000000000E+00 -0.00000000000E+00 -0.21349840014E+03  0.21349840014E+03  0.00000000000E+00 0.  1.
        -24    2    1    2    0    0  0.43411094365E+02 -0.95057601937E+02  0.49444596981E+03  0.51172466385E+03  0.80404251911E+02 0.  0.
        254    2    1    2    0    0 -0.43411094365E+02  0.95057601937E+02  0.84437869870E+03  0.12540968049E+04  0.92133758121E+03 0.  0.
         23    2    4    4    0    0  0.19496804868E+03 -0.13277928894E+03  0.87166029646E+03  0.90794037329E+03  0.94451942513E+02 0.  0.
         23    2    4    4    0    0 -0.23837914304E+03  0.22783689088E+03 -0.27281597760E+02  0.34615643165E+03  0.10171393668E+03 0.  0.
          3    1    3    3  502    0  0.41744205913E+02 -0.10919881376E+03  0.45530774556E+03  0.47007669887E+03  0.00000000000E+00 0. -1.
         -4    1    3    3    0  502  0.16668884521E+01  0.14141211825E+02  0.39138224252E+02  0.41647964975E+02  0.00000000000E+00 0.  1.
         11    1    5    5    0    0  0.19828246876E+03 -0.10291690658E+03  0.74560653668E+03  0.77835527532E+03  0.00000000000E+00 0.  1.
        -11    1    5    5    0    0 -0.33144200845E+01 -0.29862382357E+02  0.12605375979E+03  0.12958509797E+03  0.00000000000E+00 0. -1.
          3    1    6    6  503    0  0.65045526833E+01 -0.15297990762E+01  0.60054852268E+01  0.89841718390E+01  0.00000000000E+00 0. -1.
         -3    1    6    6    0  503 -0.24488369573E+03  0.22936668996E+03 -0.33287082987E+02  0.33717225981E+03  0.00000000000E+00 0.  1.
<mgrwt>
<rscale>  0 0.11513792E+04</rscale>
<asrwt>0</asrwt>
<pdfrwt beam="1">  1        1 0.23881893E+00 0.11513792E+04</pdfrwt>
<pdfrwt beam="2">  1       -2 0.32845909E-01 0.11513792E+04</pdfrwt>
<totfact> 0.45349810E+01</totfact>
</mgrwt>
</event>
<event>
12    4  0.4183215E-008  0.1256441E+04  0.7818608E-02  0.9064840E-01
         -4   -1    0    0    0  501 -0.00000000000E+00  0.00000000000E+00  0.40665685266E+03  0.40665685266E+03  0.00000000000E+00 0.  1.
          1   -1    0    0  501    0  0.00000000000E+00 -0.00000000000E+00 -0.97050063158E+03  0.97050063158E+03  0.00000000000E+00 0. -1.
        -24    2    1    2    0    0 -0.32276816110E+02 -0.24647924729E+03 -0.31255307499E+03  0.40735532304E+03  0.80343775899E+02 0.  0.
        254    2    1    2    0    0  0.32276816110E+02  0.24647924729E+03 -0.25129070393E+03  0.96980216120E+03  0.90309213361E+03 0.  0.
         23    2    4    4    0    0 -0.40029791142E+03 -0.35723524212E+02 -0.10843148674E+03  0.42618545900E+03  0.91444355080E+02 0.  0.
         23    2    4    4    0    0  0.43257472753E+03  0.28220277150E+03 -0.14285921718E+03  0.54361670220E+03  0.91384155272E+02 0.  0.
          3    1    3    3  502    0 -0.14586485731E+02 -0.21566277546E+03 -0.22093577862E+03  0.30908868720E+03  0.00000000000E+00 0. -1.
         -4    1    3    3    0  502 -0.17690330380E+02 -0.30816471829E+02 -0.91617296370E+02  0.98266635838E+02  0.00000000000E+00 0.  1.
         11    1    5    5    0    0 -0.35452615335E+02 -0.28644431647E+02 -0.24490687591E+02  0.51741522756E+02  0.00000000000E+00 0.  1.
        -11    1    5    5    0    0 -0.36484529609E+03 -0.70790925650E+01 -0.83940799151E+02  0.37444393625E+03  0.00000000000E+00 0. -1.
          2    1    6    6  503    0  0.25924595212E+03  0.12222757497E+03 -0.10205853455E+03  0.30424330436E+03  0.00000000000E+00 0. -1.
         -2    1    6    6    0  503  0.17332877542E+03  0.15997519653E+03 -0.40800682638E+02  0.23937339784E+03  0.00000000000E+00 0.  1.
<mgrwt>
<rscale>  0 0.12564406E+04</rscale>
<asrwt>0</asrwt>
<pdfrwt beam="1">  1        1 0.14930779E+00 0.12564406E+04</pdfrwt>
<pdfrwt beam="2">  1       -4 0.62562593E-01 0.12564406E+04</pdfrwt>
<totfact> 0.18354405E+01</totfact>
</mgrwt>
</event>
<event>
12    4  0.4183215E-008  0.1303638E+04  0.7818608E-02  0.9026686E-01
          1   -1    0    0  501    0  0.00000000000E+00  0.00000000000E+00  0.65251880796E+03  0.65251880796E+03  0.00000000000E+00 0. -1.
         -2   -1    0    0    0  501 -0.00000000000E+00 -0.00000000000E+00 -0.65111946707E+03  0.65111946707E+03  0.00000000000E+00 0.  1.
        -24    2    1    2    0    0 -0.34107511536E+02 -0.86499881396E+02 -0.32758352323E+03  0.34984050992E+03  0.80198914373E+02 0.  0.
        254    2    1    2    0    0  0.34107511536E+02  0.86499881396E+02  0.32898286411E+03  0.95379776511E+03  0.89042400014E+03 0.  0.
         23    2    4    4    0    0 -0.36431774656E+03  0.15909191475E+03  0.35083744286E+03  0.53792748239E+03  0.90782196462E+02 0.  0.
         23    2    4    4    0    0  0.39842525810E+03 -0.72592033351E+02 -0.21854578752E+02  0.41587028272E+03  0.91968363259E+02 0.  0.
          1    1    3    3  502    0 -0.33373860571E+02 -0.65595071926E+02 -0.11701418559E+03  0.13823475562E+03  0.00000000000E+00 0. -1.
         -2    1    3    3    0  502 -0.73365096558E+00 -0.20904809469E+02 -0.21056933763E+03  0.21160575430E+03  0.00000000000E+00 0.  1.
         11    1    5    5    0    0 -0.32801169423E+03  0.10948568574E+03  0.28805034927E+03  0.45005754148E+03  0.00000000000E+00 0.  1.
        -11    1    5    5    0    0 -0.36306052336E+02  0.49606229008E+02  0.62787093592E+02  0.87869940904E+02  0.00000000000E+00 0. -1.
          3    1    6    6  503    0  0.14382558493E+00 -0.12446477822E+02 -0.17714079456E+01  0.12572723734E+02  0.00000000000E+00 0. -1.
         -3    1    6    6    0  503  0.39828143251E+03 -0.60145555529E+02 -0.20083170807E+02  0.40329755899E+03  0.00000000000E+00 0.  1.
<mgrwt>
<rscale>  0 0.13036375E+04</rscale>
<asrwt>0</asrwt>
<pdfrwt beam="1">  1        1 0.10038751E+00 0.13036375E+04</pdfrwt>
<pdfrwt beam="2">  1       -2 0.10017223E+00 0.13036375E+04</pdfrwt>
<totfact> 0.21422586E+01</totfact>
</mgrwt>
</event>
<event>
12    4  0.4183215E-008  0.2363148E+04  0.7818608E-02  0.8453431E-01
          1   -1    0    0  501    0  0.00000000000E+00  0.00000000000E+00  0.72779407385E+03  0.72779407385E+03  0.00000000000E+00 0. -1.
         -2   -1    0    0    0  501 -0.00000000000E+00 -0.00000000000E+00 -0.19182857439E+04  0.19182857439E+04  0.00000000000E+00 0.  1.
        -24    2    1    2    0    0  0.32709379736E+03 -0.65002195636E+03 -0.12771317380E+04  0.14718388480E+04  0.75665197290E+02 0.  0.
        254    2    1    2    0    0 -0.32709379736E+03  0.65002195636E+03  0.86640067975E+02  0.11742409698E+04  0.91750556278E+03 0.  0.
         23    2    4    4    0    0 -0.27935098039E+03  0.85085962288E+03 -0.62100892115E+02  0.90224188736E+03  0.90470074673E+02 0.  0.
         23    2    4    4    0    0 -0.47742816977E+02 -0.20083766652E+03  0.14874096009E+03  0.27199908243E+03  0.96148233321E+02 0.  0.
          3    1    3    3  502    0  0.15585921770E+03 -0.38024906406E+03 -0.67779897257E+03  0.79264928794E+03  0.00000000000E+00 0. -1.
         -4    1    3    3    0  502  0.17123457967E+03 -0.26977289230E+03 -0.59933276545E+03  0.67918956002E+03  0.00000000000E+00 0.  1.
         11    1    5    5    0    0 -0.23827601028E+01  0.95920384910E+02 -0.79333612382E+01  0.96277390947E+02  0.00000000000E+00 0. -1.
        -11    1    5    5    0    0 -0.27696822028E+03  0.75493923797E+03 -0.54167530877E+02  0.80596449641E+03  0.00000000000E+00 0.  1.
          4    1    6    6  503    0 -0.70194352444E+02 -0.15435799020E+03  0.84104169692E+02  0.18928060549E+03  0.00000000000E+00 0. -1.
         -4    1    6    6    0  503  0.22451535467E+02 -0.46479676317E+02  0.64636790398E+02  0.82718476946E+02  0.00000000000E+00 0.  1.
<mgrwt>
<rscale>  0 0.23631479E+04</rscale>
<asrwt>0</asrwt>
<pdfrwt beam="1">  1        1 0.11196832E+00 0.23631479E+04</pdfrwt>
<pdfrwt beam="2">  1       -2 0.29512088E+00 0.23631479E+04</pdfrwt>
<totfact> 0.68863284E-01</totfact>
</mgrwt>
</event>
<event>
12    4  0.4183215E-008  0.1389097E+04  0.7818608E-02  0.8961749E-01
          1   -1    0    0  501    0  0.00000000000E+00  0.00000000000E+00  0.36015876905E+03  0.36015876905E+03  0.00000000000E+00 0. -1.
         -2   -1    0    0    0  501 -0.00000000000E+00 -0.00000000000E+00 -0.13394021493E+04  0.13394021493E+04  0.00000000000E+00 0.  1.
        -24    2    1    2    0    0  0.12811516083E+03  0.96764457836E+02 -0.71747093009E+03  0.73934804453E+03  0.78064977393E+02 0.  0.
        254    2    1    2    0    0 -0.12811516083E+03 -0.96764457836E+02 -0.26177245017E+03  0.96021287383E+03  0.90978409123E+03 0.  0.
         23    2    4    4    0    0 -0.45834479935E+03 -0.11164185120E+03 -0.36284122438E+03  0.60248909500E+03  0.93784313479E+02 0.  0.
         23    2    4    4    0    0  0.33022963853E+03  0.14877393361E+02  0.10106877421E+03  0.35772377882E+03  0.92078519880E+02 0.  0.
          1    1    3    3  502    0  0.26032704096E+02  0.60075428463E+02 -0.19382829264E+03  0.20458779488E+03  0.00000000000E+00 0. -1.
         -2    1    3    3    0  502  0.10208245673E+03  0.36689029373E+02 -0.52364263745E+03  0.53476024965E+03  0.00000000000E+00 0.  1.
         11    1    5    5    0    0 -0.35198906105E+03 -0.44128287358E+02 -0.25897964534E+03  0.43921983282E+03  0.00000000000E+00 0.  1.
        -11    1    5    5    0    0 -0.10635573830E+03 -0.67513563838E+02 -0.10386157904E+03  0.16326926218E+03  0.00000000000E+00 0. -1.
          2    1    6    6  503    0  0.31380127074E+02  0.30652457368E+02  0.14113387995E+02  0.46081159258E+02  0.00000000000E+00 0. -1.
         -2    1    6    6    0  503  0.29884951145E+03 -0.15775064007E+02  0.86955386212E+02  0.31164261957E+03  0.00000000000E+00 0.  1.
<mgrwt>
<rscale>  0 0.13890967E+04</rscale>
<asrwt>0</asrwt>
<pdfrwt beam="1">  1        1 0.55409041E-01 0.13890967E+04</pdfrwt>
<pdfrwt beam="2">  1       -2 0.20606187E+00 0.13890967E+04</pdfrwt>
<totfact> 0.71330104E+00</totfact>
</mgrwt>
</event>
<event>
12    4  0.4183215E-008  0.1593805E+04  0.7818608E-02  0.8824363E-01
         -4   -1    0    0    0  501 -0.00000000000E+00  0.00000000000E+00  0.12363386002E+04  0.12363386002E+04  0.00000000000E+00 0.  1.
          3   -1    0    0  501    0  0.00000000000E+00 -0.00000000000E+00 -0.51365680418E+03  0.51365680418E+03  0.00000000000E+00 0. -1.
        -24    2    1    2    0    0  0.25974255596E+03  0.27225508618E+02  0.75694392166E+03  0.80477621053E+03  0.80580548539E+02 0.  0.
        254    2    1    2    0    0 -0.25974255596E+03 -0.27225508618E+02 -0.34262125604E+02  0.94521919388E+03  0.90777640834E+03 0.  0.
         23    2    4    4    0    0 -0.17189856621E+03 -0.29865400191E+03 -0.35720607505E+03  0.50457733136E+03  0.90877793472E+02 0.  0.
         23    2    4    4    0    0 -0.87843989749E+02  0.27142849329E+03  0.32294394945E+03  0.44064186252E+03  0.92100287836E+02 0.  0.
          3    1    3    3  502    0  0.13874270718E+03 -0.17354069414E+02  0.46625478644E+03  0.48676917363E+03  0.00000000000E+00 0. -1.
         -4    1    3    3    0  502  0.12099984878E+03  0.44579578032E+02  0.29068913522E+03  0.31800703690E+03  0.00000000000E+00 0.  1.
         11    1    5    5    0    0 -0.12074381845E+03 -0.15155455874E+03 -0.14831309064E+03  0.24401767727E+03  0.00000000000E+00 0. -1.
        -11    1    5    5    0    0 -0.51154747760E+02 -0.14709944317E+03 -0.20889298441E+03  0.26055965408E+03  0.00000000000E+00 0.  1.
          3    1    6    6  503    0 -0.69021213334E+02  0.17333556825E+03  0.26828652544E+03  0.32678250694E+03  0.00000000000E+00 0.  1.
         -3    1    6    6    0  503 -0.18822776415E+02  0.98092925039E+02  0.54657424012E+02  0.11385935559E+03  0.00000000000E+00 0. -1.
<mgrwt>
<rscale>  0 0.15938052E+04</rscale>
<asrwt>0</asrwt>
<pdfrwt beam="1">  1        3 0.79024124E-01 0.15938052E+04</pdfrwt>
<pdfrwt beam="2">  1       -4 0.19020594E+00 0.15938052E+04</pdfrwt>
<totfact> 0.50207679E-01</totfact>
</mgrwt>
</event>
<event>
12    4  0.4183215E-008  0.2449967E+04  0.7818608E-02  0.8421030E-01
         -2   -1    0    0    0  501 -0.00000000000E+00  0.00000000000E+00  0.92332244292E+03  0.92332244292E+03  0.00000000000E+00 0.  1.
          1   -1    0    0  501    0  0.00000000000E+00 -0.00000000000E+00 -0.16252015041E+04  0.16252015041E+04  0.00000000000E+00 0. -1.
        -24    2    1    2    0    0  0.20146604501E+03 -0.10335197929E+04 -0.19456247410E+03  0.10738188586E+04  0.80502517305E+02 0.  0.
        254    2    1    2    0    0 -0.20146604501E+03  0.10335197929E+04 -0.50731658707E+03  0.14747050884E+04  0.89924037309E+03 0.  0.
         23    2    4    4    0    0 -0.40957938663E+03  0.52362328947E+03 -0.61025543461E+03  0.90693189927E+03  0.90427602069E+02 0.  0.
         23    2    4    4    0    0  0.20811334163E+03  0.50989650340E+03  0.10293884754E+03  0.56777318910E+03  0.92002069457E+02 0.  0.
          3    1    3    3  502    0  0.98067992837E+02 -0.61683291393E+03 -0.81644342265E+02  0.62989362082E+03  0.00000000000E+00 0. -1.
         -4    1    3    3    0  502  0.10339805217E+03 -0.41668687894E+03 -0.11291813184E+03  0.44392523782E+03  0.00000000000E+00 0.  1.
         11    1    5    5    0    0 -0.20938074993E+03  0.22152835193E+03 -0.32630653470E+03  0.44653226506E+03  0.00000000000E+00 0.  1.
        -11    1    5    5    0    0 -0.20019863671E+03  0.30209493753E+03 -0.28394889991E+03  0.46039963421E+03  0.00000000000E+00 0. -1.
          3    1    6    6  503    0  0.16345488720E+03  0.32848179788E+03  0.33396698570E+02  0.36841977575E+03  0.00000000000E+00 0. -1.
         -3    1    6    6    0  503  0.44658454425E+02  0.18141470552E+03  0.69542148970E+02  0.19935341335E+03  0.00000000000E+00 0.  1.
<mgrwt>
<rscale>  0 0.24499674E+04</rscale>
<asrwt>0</asrwt>
<pdfrwt beam="1">  1        1 0.25003100E+00 0.24499674E+04</pdfrwt>
<pdfrwt beam="2">  1       -2 0.14204961E+00 0.24499674E+04</pdfrwt>
<totfact> 0.14531262E+00</totfact>
</mgrwt>
</event>
<event>
12    4  0.4183215E-008  0.2145320E+04  0.7818608E-02  0.8541538E-01
          1   -1    0    0  501    0  0.00000000000E+00  0.00000000000E+00  0.37395835439E+04  0.37395835439E+04  0.00000000000E+00 0. -1.
         -2   -1    0    0    0  501 -0.00000000000E+00 -0.00000000000E+00 -0.30768123615E+03  0.30768123615E+03  0.00000000000E+00 0.  1.
        -24    2    1    2    0    0 -0.22941700103E+03 -0.47607989294E+03  0.99903164492E+02  0.54694203653E+03  0.99401832090E+02 0.  0.
        254    2    1    2    0    0  0.22941700103E+03  0.47607989294E+03  0.33319991432E+04  0.35003227435E+04  0.93314350096E+03 0.  0.
         23    2    4    4    0    0  0.50560388251E+02  0.57212041257E+03  0.99304854092E+03  0.11508352863E+04  0.91642414376E+02 0.  0.
         23    2    4    4    0    0  0.17885661278E+03 -0.96040519633E+02  0.23389506023E+04  0.23494874572E+04  0.90487139477E+02 0.  0.
          1    1    3    3  502    0 -0.56358547428E+02 -0.21699049196E+03  0.64996125122E+02  0.23342162657E+03  0.00000000000E+00 0. -1.
         -2    1    3    3    0  502 -0.17305845360E+03 -0.25908940098E+03  0.34907039370E+02  0.31352040995E+03  0.00000000000E+00 0.  1.
         11    1    5    5    0    0  0.76120395948E+02  0.48047725933E+03  0.83234379362E+03  0.96407930286E+03  0.00000000000E+00 0. -1.
        -11    1    5    5    0    0 -0.25560007697E+02  0.91643153239E+02  0.16070474730E+03  0.18675598340E+03  0.00000000000E+00 0.  1.
          1    1    6    6  503    0  0.17253525898E+03 -0.72576649713E+02  0.17389213813E+04  0.17489663679E+04  0.00000000000E+00 0. -1.
         -1    1    6    6    0  503  0.63213537982E+01 -0.23463869920E+02  0.60002922093E+03  0.60052108929E+03  0.00000000000E+00 0.  1.
<mgrwt>
<rscale>  0 0.21453202E+04</rscale>
<asrwt>0</asrwt>
<pdfrwt beam="1">  1        1 0.57532051E+00 0.21453202E+04</pdfrwt>
<pdfrwt beam="2">  1       -2 0.47335577E-01 0.21453202E+04</pdfrwt>
<totfact> 0.54741119E-01</totfact>
</mgrwt>
</event>
<event>
12    4  0.4183215E-008  0.5444606E+04  0.7818608E-02  0.7763358E-01
         -2   -1    0    0    0  501 -0.00000000000E+00  0.00000000000E+00  0.46218743002E+04  0.46218743002E+04  0.00000000000E+00 0.  1.
          1   -1    0    0  501    0  0.00000000000E+00 -0.00000000000E+00 -0.16034477721E+04  0.16034477721E+04  0.00000000000E+00 0. -1.
        -24    2    1    2    0    0 -0.24379303509E+04 -0.63186253112E+03  0.53210343148E+03  0.25752929026E+04  0.79024163345E+02 0.  0.
        254    2    1    2    0    0  0.24379303509E+04  0.63186253112E+03  0.24863230966E+04  0.36500291696E+04  0.89339562583E+03 0.  0.
         23    2    4    4    0    0  0.11606733361E+04  0.40044332121E+03  0.17946654972E+04  0.21765061739E+04  0.94007613774E+02 0.  0.
         23    2    4    4    0    0  0.12772570148E+04  0.23141920991E+03  0.69165759939E+03  0.14735229957E+04  0.89103600367E+02 0.  0.
          1    1    3    3  502    0 -0.22819566068E+04 -0.60019798735E+03  0.51595344682E+03  0.24153201731E+04  0.00000000000E+00 0. -1.
         -2    1    3    3    0  502 -0.15597374416E+03 -0.31664543763E+02  0.16149984662E+02  0.15997272956E+03  0.00000000000E+00 0.  1.
         11    1    5    5    0    0  0.11094765075E+04  0.38021747318E+03  0.17441071562E+04  0.21017643112E+04  0.00000000000E+00 0. -1.
        -11    1    5    5    0    0  0.51196828622E+02  0.20225848032E+02  0.50558340951E+02  0.74741862629E+02  0.00000000000E+00 0.  1.
          4    1    6    6  503    0  0.11398231525E+04  0.19522913358E+03  0.58592541668E+03  0.12963872213E+04  0.00000000000E+00 0. -1.
         -4    1    6    6    0  503  0.13743386225E+03  0.36190076321E+02  0.10573218271E+03  0.17713577442E+03  0.00000000000E+00 0.  1.
<mgrwt>
<rscale>  0 0.54446062E+04</rscale>
<asrwt>0</asrwt>
<pdfrwt beam="1">  1        1 0.24668427E+00 0.54446062E+04</pdfrwt>
<pdfrwt beam="2">  1       -2 0.71105758E+00 0.54446062E+04</pdfrwt>
<totfact> 0.71148619E-04</totfact>
</mgrwt>
</event>
<event>
12    4  0.4183215E-008  0.1267715E+04  0.7818608E-02  0.9055567E-01
         -2   -1    0    0    0  501 -0.00000000000E+00  0.00000000000E+00  0.50997849163E+03  0.50997849163E+03  0.00000000000E+00 0.  1.
          1   -1    0    0  501    0  0.00000000000E+00 -0.00000000000E+00 -0.78782778495E+03  0.78782778495E+03  0.00000000000E+00 0. -1.
        -24    2    1    2    0    0  0.49967739712E+02 -0.21000032211E+03  0.16139036477E+03  0.27992157852E+03  0.75579957553E+02 0.  0.
        254    2    1    2    0    0 -0.49967739712E+02  0.21000032211E+03 -0.43923965809E+03  0.10178846981E+04  0.89250258880E+03 0.  0.
         23    2    4    4    0    0  0.34138831025E+03  0.31240444566E+03 -0.36610943243E+03  0.59712573439E+03  0.91545126107E+02 0.  0.
         23    2    4    4    0    0 -0.39135604997E+03 -0.10240412355E+03 -0.73130225661E+02  0.42075896367E+03  0.89687865632E+02 0.  0.
          1    1    3    3  502    0 -0.18420592663E+01 -0.75697685782E+02  0.20382173027E+02  0.78415341563E+02  0.00000000000E+00 0. -1.
         -2    1    3    3    0  502  0.51809798978E+02 -0.13430263632E+03  0.14100819175E+03  0.20150623696E+03  0.00000000000E+00 0.  1.
         11    1    5    5    0    0  0.34341585835E+03  0.29075055035E+03 -0.34850347289E+03  0.56914409854E+03  0.00000000000E+00 0. -1.
        -11    1    5    5    0    0 -0.20275480940E+01  0.21653895307E+02 -0.17605959544E+02  0.27981635847E+02  0.00000000000E+00 0.  1.
          2    1    6    6  503    0 -0.23886834777E+03 -0.19575207035E+02 -0.57878203743E+02  0.24655863961E+03  0.00000000000E+00 0. -1.
         -2    1    6    6    0  503 -0.15248770220E+03 -0.82828916515E+02 -0.15252021918E+02  0.17420032407E+03  0.00000000000E+00 0.  1.
<mgrwt>
<rscale>  0 0.12677148E+04</rscale>
<asrwt>0</asrwt>
<pdfrwt beam="1">  1        1 0.12120427E+00 0.12677148E+04</pdfrwt>
<pdfrwt beam="2">  1       -2 0.78458230E-01 0.12677148E+04</pdfrwt>
<totfact> 0.28238839E+01</totfact>
</mgrwt>
</event>
<event>
12    4  0.4183215E-008  0.1824944E+04  0.7818608E-02  0.8693146E-01
         -2   -1    0    0    0  501 -0.00000000000E+00  0.00000000000E+00  0.67278234415E+03  0.67278234415E+03  0.00000000000E+00 0.  1.
          1   -1    0    0  501    0  0.00000000000E+00 -0.00000000000E+00 -0.12375543458E+04  0.12375543458E+04  0.00000000000E+00 0. -1.
        -24    2    1    2    0    0  0.49431794839E+02  0.61984415197E+02  0.50319961186E+03  0.51554234376E+03  0.79299992205E+02 0.  0.
        254    2    1    2    0    0 -0.49431794839E+02 -0.61984415197E+02 -0.10679716135E+04  0.13947943462E+04  0.89364552861E+03 0.  0.
         23    2    4    4    0    0  0.33892661747E+03  0.12883862225E+03 -0.78724362061E+03  0.87165105498E+03  0.92479191424E+02 0.  0.
         23    2    4    4    0    0 -0.38835841231E+03 -0.19082303745E+03 -0.28072799288E+03  0.52314329118E+03  0.87378539092E+02 0.  0.
          3    1    3    3  502    0  0.28673440945E+02 -0.41941110123E+01  0.56579240701E+02  0.63568602793E+02  0.00000000000E+00 0. -1.
         -4    1    3    3    0  502  0.20758353894E+02  0.66178526210E+02  0.44662037116E+03  0.45197374097E+03  0.00000000000E+00 0.  1.
         11    1    5    5    0    0  0.28257815275E+03  0.94624975216E+02 -0.55148340416E+03  0.62684786305E+03  0.00000000000E+00 0. -1.
        -11    1    5    5    0    0  0.56348464722E+02  0.34213647037E+02 -0.23576021645E+03  0.24480319193E+03  0.00000000000E+00 0.  1.
          1    1    6    6  503    0 -0.34213399599E+03 -0.19568631828E+03 -0.26051837752E+03  0.47246019028E+03  0.00000000000E+00 0. -1.
         -1    1    6    6    0  503 -0.46224416322E+02  0.48632808267E+01 -0.20209615355E+02  0.50683100907E+02  0.00000000000E+00 0.  1.
<mgrwt>
<rscale>  0 0.18249435E+04</rscale>
<asrwt>0</asrwt>
<pdfrwt beam="1">  1        1 0.19039298E+00 0.18249435E+04</pdfrwt>
<pdfrwt beam="2">  1       -2 0.10350498E+00 0.18249435E+04</pdfrwt>
<totfact> 0.63051071E+00</totfact>
</mgrwt>
</event>
<event>
12    4  0.4183215E-008  0.1492121E+04  0.7818608E-02  0.8889710E-01
          3   -1    0    0  501    0  0.00000000000E+00  0.00000000000E+00  0.82193014767E+03  0.82193014767E+03  0.00000000000E+00 0. -1.
         -4   -1    0    0    0  501 -0.00000000000E+00 -0.00000000000E+00 -0.67719373703E+03  0.67719373703E+03  0.00000000000E+00 0.  1.
        -24    2    1    2    0    0  0.22426357443E+03 -0.39559218081E+03 -0.33175569815E+02  0.46300733032E+03  0.80547161108E+02 0.  0.
        254    2    1    2    0    0 -0.22426357443E+03  0.39559218081E+03  0.17791198045E+03  0.10361165544E+04  0.91383670157E+03 0.  0.
         23    2    4    4    0    0 -0.71359554946E+02 -0.20966631976E+03 -0.19015339087E+03  0.30565601144E+03  0.90637373881E+02 0.  0.
         23    2    4    4    0    0 -0.15290401949E+03  0.60525850057E+03  0.36806537132E+03  0.73046054294E+03  0.91558699962E+02 0.  0.
          3    1    3    3  502    0  0.20343018070E+03 -0.32389918976E+03 -0.30419423312E+01  0.38249676725E+03  0.00000000000E+00 0. -1.
         -4    1    3    3    0  502  0.20833393738E+02 -0.71692991053E+02 -0.30133627483E+02  0.80510563071E+02  0.00000000000E+00 0.  1.
         11    1    5    5    0    0 -0.11175303813E+02 -0.12279183024E+03 -0.14605220520E+03  0.19113860843E+03  0.00000000000E+00 0. -1.
        -11    1    5    5    0    0 -0.60184251133E+02 -0.86874489523E+02 -0.44101185670E+02  0.11451740301E+03  0.00000000000E+00 0.  1.
          2    1    6    6  503    0 -0.14452851201E+03  0.59301388624E+03  0.33991103507E+03  0.69863686692E+03  0.00000000000E+00 0. -1.
         -2    1    6    6    0  503 -0.83755074778E+01  0.12244614329E+02  0.28154336253E+02  0.31823676020E+02  0.00000000000E+00 0.  1.
<mgrwt>
<rscale>  0 0.14921206E+04</rscale>
<asrwt>0</asrwt>
<pdfrwt beam="1">  1        3 0.12645079E+00 0.14921206E+04</pdfrwt>
<pdfrwt beam="2">  1       -4 0.10418365E+00 0.14921206E+04</pdfrwt>
<totfact> 0.82512099E-01</totfact>
</mgrwt>
</event>
<event>
12    4  0.4183215E-008  0.1241166E+04  0.7818608E-02  0.9077568E-01
          1   -1    0    0  501    0  0.00000000000E+00  0.00000000000E+00  0.32577511947E+03  0.32577511947E+03  0.00000000000E+00 0. -1.
         -2   -1    0    0    0  501 -0.00000000000E+00 -0.00000000000E+00 -0.11821749028E+04  0.11821749028E+04  0.00000000000E+00 0.  1.
        -24    2    1    2    0    0  0.13532086382E+03  0.18370995645E+03 -0.46822633645E+03  0.52728329722E+03  0.82040777024E+02 0.  0.
        254    2    1    2    0    0 -0.13532086382E+03 -0.18370995645E+03 -0.38817344686E+03  0.98066672505E+03  0.87118741754E+03 0.  0.
         23    2    4    4    0    0  0.99380886735E+02  0.22684600660E+03 -0.42243231137E+03  0.49762217914E+03  0.88561301536E+02 0.  0.
         23    2    4    4    0    0 -0.23470175055E+03 -0.41055596304E+03  0.34258864504E+02  0.48304454591E+03  0.92288964824E+02 0.  0.
          3    1    3    3  502    0  0.38768394032E+02  0.37606795488E+02 -0.48908176181E+02  0.72864731799E+02  0.00000000000E+00 0. -1.
         -4    1    3    3    0  502  0.96552469783E+02  0.14610316096E+03 -0.41931816027E+03  0.45441856542E+03  0.00000000000E+00 0.  1.
         11    1    5    5    0    0 -0.17038675813E+01  0.67850159795E+02 -0.16663598370E+03  0.17992803676E+03  0.00000000000E+00 0. -1.
        -11    1    5    5    0    0  0.10108475432E+03  0.15899584680E+03 -0.25579632767E+03  0.31769414239E+03  0.00000000000E+00 0.  1.
          2    1    6    6  503    0 -0.11020257196E+02  0.31164405434E+01  0.23313475149E+01  0.11687320119E+02  0.00000000000E+00 0. -1.
         -2    1    6    6    0  503 -0.22368149335E+03 -0.41367240359E+03  0.31927516989E+02  0.47135722579E+03  0.00000000000E+00 0.  1.
<mgrwt>
<rscale>  0 0.12411659E+04</rscale>
<asrwt>0</asrwt>
<pdfrwt beam="1">  1        1 0.50119248E-01 0.12411659E+04</pdfrwt>
<pdfrwt beam="2">  1       -2 0.18187307E+00 0.12411659E+04</pdfrwt>
<totfact> 0.11921882E+01</totfact>
</mgrwt>
</event>
<event>
12    4  0.4183215E-008  0.1290050E+04  0.7818608E-02  0.9037493E-01
          3   -1    0    0  501    0  0.00000000000E+00  0.00000000000E+00  0.26042476169E+03  0.26042476169E+03  0.00000000000E+00 0. -1.
         -2   -1    0    0    0  501 -0.00000000000E+00 -0.00000000000E+00 -0.15976105018E+04  0.15976105018E+04  0.00000000000E+00 0.  1.
        -24    2    1    2    0    0 -0.21564507846E+03  0.24459356117E+03 -0.48433330377E+03  0.58929470013E+03  0.79753899171E+02 0.  0.
        254    2    1    2    0    0  0.21564507846E+03 -0.24459356117E+03 -0.85285243639E+03  0.12687405634E+04  0.88091800353E+03 0.  0.
         23    2    4    4    0    0  0.18761855340E+02  0.25782606294E+03 -0.23839180484E+02  0.27527068735E+03  0.91538837876E+02 0.  0.
         23    2    4    4    0    0  0.19688322312E+03 -0.50241962411E+03 -0.82901325591E+03  0.99346987606E+03  0.92363054988E+02 0.  0.
          1    1    3    3  502    0  0.55675827861E+01 -0.96639976822E-01 -0.53937275182E+01  0.77523940758E+01  0.00000000000E+00 0. -1.
         -2    1    3    3    0  502 -0.22121266125E+03  0.24469020115E+03 -0.47893957625E+03  0.58154230605E+03  0.00000000000E+00 0.  1.
         11    1    5    5    0    0  0.95329955180E+01  0.26315100275E+03 -0.25211478117E+02  0.26452778093E+03  0.00000000000E+00 0. -1.
        -11    1    5    5    0    0  0.92288598222E+01 -0.53249398108E+01  0.13722976332E+01  0.10742906422E+02  0.00000000000E+00 0.  1.
          4    1    6    6  503    0  0.13843279093E+03 -0.43283320258E+03 -0.65574556031E+03  0.79781605569E+03  0.00000000000E+00 0. -1.
         -4    1    6    6    0  503  0.58450432192E+02 -0.69586421536E+02 -0.17326769560E+03  0.19565382037E+03  0.00000000000E+00 0.  1.
<mgrwt>
<rscale>  0 0.12900501E+04</rscale>
<asrwt>0</asrwt>
<pdfrwt beam="1">  1        3 0.40065348E-01 0.12900501E+04</pdfrwt>
<pdfrwt beam="2">  1       -2 0.24578623E+00 0.12900501E+04</pdfrwt>
<totfact> 0.17528078E+00</totfact>
</mgrwt>
</event>
<event>
12    4  0.4183215E-008  0.2101846E+04  0.7818608E-02  0.8560431E-01
         -2   -1    0    0    0  501 -0.00000000000E+00  0.00000000000E+00  0.72388891458E+03  0.72388891458E+03  0.00000000000E+00 0.  1.
          1   -1    0    0  501    0  0.00000000000E+00 -0.00000000000E+00 -0.15257018505E+04  0.15257018505E+04  0.00000000000E+00 0. -1.
        -24    2    1    2    0    0 -0.63058185621E+03 -0.70536717822E+01 -0.95200381568E+03  0.11446871720E+04  0.79462097922E+02 0.  0.
        254    2    1    2    0    0  0.63058185621E+03  0.70536717822E+01  0.15019087975E+03  0.11049035931E+04  0.89474656635E+03 0.  0.
         23    2    4    4    0    0 -0.19234748309E+03 -0.52522475670E+02  0.16680427487E+03  0.27461842083E+03  0.88518056040E+02 0.  0.
         23    2    4    4    0    0  0.82292933929E+03  0.59576147452E+02 -0.16613395122E+02  0.83028517225E+03  0.91298672209E+02 0.  0.
          3    1    3    3  502    0 -0.40351384746E+03  0.30345167969E+02 -0.57846045450E+03  0.70594670601E+03  0.00000000000E+00 0. -1.
         -4    1    3    3    0  502 -0.22706800875E+03 -0.37398839752E+02 -0.37354336118E+03  0.43874046599E+03  0.00000000000E+00 0.  1.
         11    1    5    5    0    0 -0.13573197924E+03 -0.12190353179E+01  0.74647018971E+02  0.15490911425E+03  0.00000000000E+00 0. -1.
        -11    1    5    5    0    0 -0.56615503842E+02 -0.51303440352E+02  0.92157255901E+02  0.11970930658E+03  0.00000000000E+00 0.  1.
          4    1    6    6  503    0  0.65389844095E+03  0.21445373672E+02  0.13605727138E+02  0.65439146613E+03  0.00000000000E+00 0. -1.
         -4    1    6    6    0  503  0.16903089834E+03  0.38130773780E+02 -0.30219122260E+02  0.17589370612E+03  0.00000000000E+00 0.  1.
<mgrwt>
<rscale>  0 0.21018455E+04</rscale>
<asrwt>0</asrwt>
<pdfrwt beam="1">  1        1 0.23472336E+00 0.21018455E+04</pdfrwt>
<pdfrwt beam="2">  1       -2 0.11136753E+00 0.21018455E+04</pdfrwt>
<totfact> 0.32316595E+00</totfact>
</mgrwt>
</event>
<event>
12    4  0.5956263E-008  0.1449537E+04  0.7818608E-02  0.8918721E-01
         -2   -1    0    0    0  501 -0.00000000000E+00  0.00000000000E+00  0.46281588510E+03  0.46281588510E+03  0.00000000000E+00 0.  1.
          1   -1    0    0  501    0  0.00000000000E+00 -0.00000000000E+00 -0.11349863162E+04  0.11349863162E+04  0.00000000000E+00 0. -1.
        -24    2    1    2    0    0 -0.23877086273E+03 -0.28329088401E+03 -0.43964858878E+03  0.58030964556E+03  0.78760099464E+02 0.  0.
        254    2    1    2    0    0  0.23877086273E+03  0.28329088401E+03 -0.23252184231E+03  0.10174925557E+04  0.91867265332E+03 0.  0.
         23    2    4    4    0    0  0.26109066598E+03 -0.48518671341E+02  0.28203258731E+03  0.39830249973E+03  0.92628848969E+02 0.  0.
         23    2    4    4    0    0 -0.22319803249E+02  0.33180955535E+03 -0.51455442961E+03  0.61919005599E+03  0.89634311322E+02 0.  0.
          3    1    3    3  502    0 -0.23957008894E+03 -0.26230639035E+03 -0.39676714424E+03  0.53256233126E+03  0.00000000000E+00 0. -1.
         -4    1    3    3    0  502  0.79922621854E+00 -0.20984493663E+02 -0.42881444544E+02  0.47747314302E+02  0.00000000000E+00 0.  1.
         11    1    5    5    0    0 -0.49297407000E+01 -0.29269853139E+01 -0.23828191456E+01  0.62086563343E+01  0.00000000000E+00 0. -1.
        -11    1    5    5    0    0  0.26602040668E+03 -0.45591686027E+02  0.28441540645E+03  0.39209384340E+03  0.00000000000E+00 0.  1.
          3    1    6    6  503    0 -0.10836206779E+02  0.68993172189E+01 -0.32066873531E+01  0.13240347398E+02  0.00000000000E+00 0. -1.
         -3    1    6    6    0  503 -0.11483596470E+02  0.32491023813E+03 -0.51134774226E+03  0.60594970860E+03  0.00000000000E+00 0.  1.
<mgrwt>
<rscale>  0 0.14495374E+04</rscale>
<asrwt>0</asrwt>
<pdfrwt beam="1">  1        1 0.17461328E+00 0.14495374E+04</pdfrwt>
<pdfrwt beam="2">  1       -2 0.71202445E-01 0.14495374E+04</pdfrwt>
<totfact> 0.18206068E+01</totfact>
</mgrwt>
</event>
<event>
12    4  0.4183215E-008  0.3569339E+04  0.7818608E-02  0.8097551E-01
         -2   -1    0    0    0  501 -0.00000000000E+00  0.00000000000E+00  0.10096312294E+04  0.10096312294E+04  0.00000000000E+00 0.  1.
          1   -1    0    0  501    0  0.00000000000E+00 -0.00000000000E+00 -0.31546611293E+04  0.31546611293E+04  0.00000000000E+00 0. -1.
        -24    2    1    2    0    0  0.16347047632E+04  0.23675404720E+03 -0.12881896138E+04  0.20961684795E+04  0.78598166110E+02 0.  0.
        254    2    1    2    0    0 -0.16347047632E+04 -0.23675404720E+03 -0.85684028609E+03  0.20681238791E+04  0.90257906130E+03 0.  0.
         23    2    4    4    0    0 -0.31480430102E+03 -0.12132981655E+03  0.17068126828E+03  0.38866354088E+03  0.90025442761E+02 0.  0.
         23    2    4    4    0    0 -0.13199004621E+04 -0.11542423065E+03 -0.10275215544E+04  0.16794603382E+04  0.96573806010E+02 0.  0.
          3    1    3    3  502    0  0.99151313075E+03  0.17781513961E+03 -0.80765837530E+03  0.12911346032E+04  0.00000000000E+00 0. -1.
         -2    1    3    3    0  502  0.64319163242E+03  0.58938907583E+02 -0.48053123853E+03  0.80503387633E+03  0.00000000000E+00 0.  1.
         11    1    5    5    0    0 -0.30357958100E+03 -0.10144349358E+03  0.17591473939E+03  0.36523600578E+03  0.00000000000E+00 0.  1.
        -11    1    5    5    0    0 -0.11224720027E+02 -0.19886322972E+02 -0.52334711085E+01  0.23427535100E+02  0.00000000000E+00 0. -1.
          1    1    6    6  503    0 -0.38086153472E+03  0.10405424516E+02 -0.29856064389E+03  0.48404776579E+03  0.00000000000E+00 0. -1.
         -1    1    6    6    0  503 -0.93903892743E+03 -0.12582965516E+03 -0.72896091048E+03  0.11954125724E+04  0.00000000000E+00 0.  1.
<mgrwt>
<rscale>  0 0.35693385E+04</rscale>
<asrwt>0</asrwt>
<pdfrwt beam="1">  1        1 0.48533248E+00 0.35693385E+04</pdfrwt>
<pdfrwt beam="2">  1       -2 0.15532788E+00 0.35693385E+04</pdfrwt>
<totfact> 0.89540589E-02</totfact>
</mgrwt>
</event>
<event>
12    4  0.4183215E-008  0.1417157E+04  0.7818608E-02  0.8941492E-01
         -2   -1    0    0    0  501 -0.00000000000E+00  0.00000000000E+00  0.72634573085E+03  0.72634573085E+03  0.00000000000E+00 0.  1.
          1   -1    0    0  501    0  0.00000000000E+00 -0.00000000000E+00 -0.69124571687E+03  0.69124571687E+03  0.00000000000E+00 0. -1.
        -24    2    1    2    0    0 -0.20451797216E+01 -0.34735374579E+03 -0.22807035987E+03  0.42300522282E+03  0.79110821066E+02 0.  0.
        254    2    1    2    0    0  0.20451797216E+01  0.34735374579E+03  0.26317037384E+03  0.99458622490E+03  0.89402701615E+03 0.  0.
         23    2    4    4    0    0  0.37296044948E+02 -0.22478774458E+02  0.52170471653E+03  0.53095701892E+03  0.88562150023E+02 0.  0.
         23    2    4    4    0    0 -0.35250865226E+02  0.36983252025E+03 -0.25853434269E+03  0.46362920598E+03  0.10046550529E+03 0.  0.
          1    1    3    3  502    0 -0.70690687977E+01 -0.10958252515E+03 -0.30894172266E+02  0.11407344753E+03  0.00000000000E+00 0. -1.
         -2    1    3    3    0  502  0.50238890761E+01 -0.23777122064E+03 -0.19717618760E+03  0.30893177529E+03  0.00000000000E+00 0.  1.
         11    1    5    5    0    0  0.21781116170E+01 -0.26680135656E+02  0.45200634953E+03  0.45279831473E+03  0.00000000000E+00 0.  1.
        -11    1    5    5    0    0  0.35117933331E+02  0.42013611978E+01  0.69698367008E+02  0.78158704192E+02  0.00000000000E+00 0. -1.
          1    1    6    6  503    0  0.32802765902E+02  0.17948545549E+03 -0.11434549855E+03  0.21532752547E+03  0.00000000000E+00 0. -1.
         -1    1    6    6    0  503 -0.68053631129E+02  0.19034706476E+03 -0.14418884414E+03  0.24830168051E+03  0.00000000000E+00 0.  1.
<mgrwt>
<rscale>  0 0.14171568E+04</rscale>
<asrwt>0</asrwt>
<pdfrwt beam="1">  1        1 0.10634549E+00 0.14171568E+04</pdfrwt>
<pdfrwt beam="2">  1       -2 0.11174550E+00 0.14171568E+04</pdfrwt>
<totfact> 0.14971356E+01</totfact>
</mgrwt>
</event>
<event>
12    4  0.4183215E-008  0.2882080E+04  0.7818608E-02  0.8278229E-01
         -2   -1    0    0    0  501 -0.00000000000E+00  0.00000000000E+00  0.16368905157E+04  0.16368905157E+04  0.00000000000E+00 0.  1.
          1   -1    0    0  501    0  0.00000000000E+00 -0.00000000000E+00 -0.12686225775E+04  0.12686225775E+04  0.00000000000E+00 0. -1.
        -24    2    1    2    0    0 -0.71980355564E+03 -0.17505756341E+03  0.12431439332E+04  0.14492118302E+04  0.77754619338E+02 0.  0.
        254    2    1    2    0    0  0.71980355564E+03  0.17505756341E+03 -0.87487599496E+03  0.14563012630E+04  0.89813309308E+03 0.  0.
         23    2    4    4    0    0 -0.14829488875E+03  0.24811793310E+02 -0.42923257365E+03  0.46465984553E+03  0.95190181456E+02 0.  0.
         23    2    4    4    0    0  0.86809844439E+03  0.15024577010E+03 -0.44564342131E+03  0.99164141749E+03  0.92660354728E+02 0.  0.
          1    1    3    3  502    0 -0.29132979162E+03 -0.71516841015E+02  0.43042933254E+03  0.52464951762E+03  0.00000000000E+00 0. -1.
         -2    1    3    3    0  502 -0.42847376402E+03 -0.10354072240E+03  0.81271460067E+03  0.92456231255E+03  0.00000000000E+00 0.  1.
         11    1    5    5    0    0 -0.12847985829E+03 -0.85335642044E+01 -0.24924918619E+03  0.28054420779E+03  0.00000000000E+00 0. -1.
        -11    1    5    5    0    0 -0.19815030458E+02  0.33345357514E+02 -0.17998338746E+03  0.18411563774E+03  0.00000000000E+00 0.  1.
          3    1    6    6  503    0  0.62496067046E+03  0.13710163947E+03 -0.35583586708E+03  0.73211465186E+03  0.00000000000E+00 0. -1.
         -3    1    6    6    0  503  0.24313777393E+03  0.13144130635E+02 -0.89807554227E+02  0.25952676563E+03  0.00000000000E+00 0.  1.
<mgrwt>
<rscale>  0 0.28820800E+04</rscale>
<asrwt>0</asrwt>
<pdfrwt beam="1">  1        1 0.19517270E+00 0.28820800E+04</pdfrwt>
<pdfrwt beam="2">  1       -2 0.25182931E+00 0.28820800E+04</pdfrwt>
<totfact> 0.45019087E-01</totfact>
</mgrwt>
</event>
<event>
12    4  0.4183215E-008  0.1344002E+04  0.7818608E-02  0.8995381E-01
         -2   -1    0    0    0  501 -0.00000000000E+00  0.00000000000E+00  0.25981174031E+03  0.25981174031E+03  0.00000000000E+00 0.  1.
          1   -1    0    0  501    0  0.00000000000E+00 -0.00000000000E+00 -0.17381239845E+04  0.17381239845E+04  0.00000000000E+00 0. -1.
        -24    2    1    2    0    0  0.20201604918E+03 -0.24872137448E+03 -0.16476218494E+03  0.36891500432E+03  0.79239488754E+02 0.  0.
        254    2    1    2    0    0 -0.20201604918E+03  0.24872137448E+03 -0.13135500593E+04  0.16290207205E+04  0.90863741028E+03 0.  0.
         23    2    4    4    0    0 -0.50605776557E+03  0.11417467127E+03 -0.42746329260E+03  0.67823943553E+03  0.90296997331E+02 0.  0.
         23    2    4    4    0    0  0.30404171639E+03  0.13454670321E+03 -0.88608676666E+03  0.95078128497E+03  0.91055549754E+02 0.  0.
          3    1    3    3  502    0  0.37056962554E+02 -0.74589429010E+02 -0.11024887678E+02  0.84013984205E+02  0.00000000000E+00 0. -1.
         -4    1    3    3    0  502  0.16495908662E+03 -0.17413194547E+03 -0.15373729727E+03  0.28490102012E+03  0.00000000000E+00 0.  1.
         11    1    5    5    0    0 -0.39786735684E+03  0.67288665779E+02 -0.28878355981E+03  0.49620776153E+03  0.00000000000E+00 0. -1.
        -11    1    5    5    0    0 -0.10819040873E+03  0.46886005489E+02 -0.13867973280E+03  0.18203167400E+03  0.00000000000E+00 0.  1.
          1    1    6    6  503    0  0.24138185366E+02  0.27362670706E+02 -0.18087915455E+03  0.18452272568E+03  0.00000000000E+00 0. -1.
         -1    1    6    6    0  503  0.27990353103E+03  0.10718403251E+03 -0.70520761211E+03  0.76625855929E+03  0.00000000000E+00 0.  1.
<mgrwt>
<rscale>  0 0.13440015E+04</rscale>
<asrwt>0</asrwt>
<pdfrwt beam="1">  1        1 0.26740368E+00 0.13440015E+04</pdfrwt>
<pdfrwt beam="2">  1       -2 0.39971039E-01 0.13440015E+04</pdfrwt>
<totfact> 0.22857808E+01</totfact>
</mgrwt>
</event>
<event>
12    4  0.4183215E-008  0.1316711E+04  0.7818608E-02  0.9016417E-01
          1   -1    0    0  501    0  0.00000000000E+00  0.00000000000E+00  0.24284764267E+04  0.24284764267E+04  0.00000000000E+00 0. -1.
         -2   -1    0    0    0  501 -0.00000000000E+00 -0.00000000000E+00 -0.17847896781E+03  0.17847896781E+03  0.00000000000E+00 0.  1.
        -24    2    1    2    0    0 -0.21347870380E+03 -0.27444643557E+02  0.77754655072E+02  0.24249877386E+03  0.80209123554E+02 0.  0.
        254    2    1    2    0    0  0.21347870380E+03  0.27444643557E+02  0.21722428039E+04  0.23644566207E+04  0.90867483005E+03 0.  0.
         23    2    4    4    0    0  0.24604957396E+03  0.39266642705E+03  0.16707727119E+04  0.17361477186E+04  0.89443446683E+02 0.  0.
         23    2    4    4    0    0 -0.32570870159E+02 -0.36522178349E+03  0.50147009192E+03  0.62830890207E+03  0.94085124248E+02 0.  0.
          3    1    3    3  502    0 -0.18232127587E+02 -0.26839640426E+02  0.29635333108E+00  0.32447875121E+02  0.00000000000E+00 0. -1.
         -4    1    3    3    0  502 -0.19524657622E+03 -0.60500313076E+00  0.77458301741E+02  0.21005089874E+03  0.00000000000E+00 0.  1.
         11    1    5    5    0    0  0.22817058276E+03  0.38576013578E+03  0.16377212687E+04  0.16979410034E+04  0.00000000000E+00 0.  1.
        -11    1    5    5    0    0  0.17878991199E+02  0.69062912693E+01  0.33051443221E+02  0.38206715174E+02  0.00000000000E+00 0. -1.
          2    1    6    6  503    0 -0.12066482933E+02  0.13620712097E+00  0.22699849673E+02  0.25708009218E+02  0.00000000000E+00 0. -1.
         -2    1    6    6    0  503 -0.20504387225E+02 -0.36535799061E+03  0.47877024225E+03  0.60260089285E+03  0.00000000000E+00 0.  1.
<mgrwt>
<rscale>  0 0.13167110E+04</rscale>
<asrwt>0</asrwt>
<pdfrwt beam="1">  1        1 0.37361173E+00 0.13167110E+04</pdfrwt>
<pdfrwt beam="2">  1       -2 0.27458304E-01 0.13167110E+04</pdfrwt>
<totfact> 0.15870794E+01</totfact>
</mgrwt>
</event>
<event>
12    4  0.4183215E-008  0.3223098E+04  0.7818608E-02  0.8182744E-01
         -2   -1    0    0    0  501 -0.00000000000E+00  0.00000000000E+00  0.16448798311E+04  0.16448798311E+04  0.00000000000E+00 0.  1.
          1   -1    0    0  501    0  0.00000000000E+00 -0.00000000000E+00 -0.15788934077E+04  0.15788934077E+04  0.00000000000E+00 0. -1.
        -24    2    1    2    0    0  0.12780155201E+04  0.61528492625E+03  0.44910957534E+03  0.14900423737E+04  0.81410407904E+02 0.  0.
        254    2    1    2    0    0 -0.12780155201E+04 -0.61528492625E+03 -0.38312315185E+03  0.17337308652E+04  0.92040216927E+03 0.  0.
         23    2    4    4    0    0 -0.34674165239E+03 -0.32735968975E+03 -0.55854539829E+03  0.73909399515E+03  0.83023079524E+02 0.  0.
         23    2    4    4    0    0 -0.93127386772E+03 -0.28792523650E+03  0.17542224644E+03  0.99463687001E+03  0.91419801548E+02 0.  0.
          3    1    3    3  502    0  0.25121531743E+03  0.11947147478E+03  0.12243097485E+03  0.30392747918E+03  0.00000000000E+00 0. -1.
         -4    1    3    3    0  502  0.10268002027E+04  0.49581345147E+03  0.32667860049E+03  0.11861148945E+04  0.00000000000E+00 0.  1.
         11    1    5    5    0    0 -0.30945667274E+03 -0.24999674393E+03 -0.44867176438E+03  0.59964002237E+03  0.00000000000E+00 0.  1.
        -11    1    5    5    0    0 -0.37284979647E+02 -0.77362945818E+02 -0.10987363391E+03  0.13945397277E+03  0.00000000000E+00 0. -1.
          3    1    6    6  503    0 -0.50916215664E+03 -0.15061470793E+03  0.49700075598E+02  0.53329259278E+03  0.00000000000E+00 0. -1.
         -3    1    6    6    0  503 -0.42211171108E+03 -0.13731052857E+03  0.12572217085E+03  0.46134427723E+03  0.00000000000E+00 0.  1.
<mgrwt>
<rscale>  0 0.32230978E+04</rscale>
<asrwt>0</asrwt>
<pdfrwt beam="1">  1        1 0.24290668E+00 0.32230978E+04</pdfrwt>
<pdfrwt beam="2">  1       -2 0.25305844E+00 0.32230978E+04</pdfrwt>
<totfact> 0.26045333E-01</totfact>
</mgrwt>
</event>
<event>
12    4  0.4183215E-008  0.1837745E+04  0.7818608E-02  0.8686481E-01
         -2   -1    0    0    0  501 -0.00000000000E+00  0.00000000000E+00  0.77181886060E+03  0.77181886060E+03  0.00000000000E+00 0.  1.
          1   -1    0    0  501    0  0.00000000000E+00 -0.00000000000E+00 -0.10939439115E+04  0.10939439115E+04  0.00000000000E+00 0. -1.
        -24    2    1    2    0    0 -0.34715077812E+03  0.47274880078E+03  0.26087848378E+03  0.64706479742E+03  0.81425901131E+02 0.  0.
        254    2    1    2    0    0  0.34715077812E+03 -0.47274880078E+03 -0.58300353468E+03  0.12186979747E+04  0.89516844262E+03 0.  0.
         23    2    4    4    0    0  0.14513439655E+03 -0.70373657956E+03 -0.27543928298E+03  0.77502593694E+03  0.92137060181E+02 0.  0.
         23    2    4    4    0    0  0.20201638158E+03  0.23098777878E+03 -0.30756425170E+03  0.44367203775E+03  0.89906261090E+02 0.  0.
          3    1    3    3  502    0 -0.14038431338E+03  0.24380907946E+03  0.95912983573E+02  0.29723714958E+03  0.00000000000E+00 0. -1.
         -4    1    3    3    0  502 -0.20676646474E+03  0.22893972132E+03  0.16496550020E+03  0.34982764785E+03  0.00000000000E+00 0.  1.
         11    1    5    5    0    0  0.12884439718E+03 -0.69084644341E+03 -0.26070406388E+03  0.74955740006E+03  0.00000000000E+00 0.  1.
        -11    1    5    5    0    0  0.16289999364E+02 -0.12890136145E+02 -0.14735219097E+02  0.25468536882E+02  0.00000000000E+00 0. -1.
          3    1    6    6  503    0  0.92644435644E+02  0.17201136405E+03 -0.19415487857E+03  0.27543968068E+03  0.00000000000E+00 0. -1.
         -3    1    6    6    0  503  0.10937194593E+03  0.58976414724E+02 -0.11340937313E+03  0.16823235707E+03  0.00000000000E+00 0.  1.
<mgrwt>
<rscale>  0 0.18377449E+04</rscale>
<asrwt>0</asrwt>
<pdfrwt beam="1">  1        1 0.16829906E+00 0.18377449E+04</pdfrwt>
<pdfrwt beam="2">  1       -2 0.11874136E+00 0.18377449E+04</pdfrwt>
<totfact> 0.57605298E+00</totfact>
</mgrwt>
</event>
<event>
12    4  0.4183215E-008  0.1126288E+04  0.7818608E-02  0.9179942E-01
         -2   -1    0    0    0  501 -0.00000000000E+00  0.00000000000E+00  0.17551039861E+03  0.17551039861E+03  0.00000000000E+00 0.  1.
          1   -1    0    0  501    0  0.00000000000E+00 -0.00000000000E+00 -0.18069092992E+04  0.18069092992E+04  0.00000000000E+00 0. -1.
        -24    2    1    2    0    0 -0.83319011597E+02 -0.22169036823E+02 -0.65274498793E+03  0.66321513729E+03  0.79654097052E+02 0.  0.
        254    2    1    2    0    0  0.83319011597E+02  0.22169036823E+02 -0.97865391267E+03  0.13192045605E+04  0.88039972049E+03 0.  0.
         23    2    4    4    0    0  0.23559156251E+03  0.21221270041E+03 -0.24857320243E+02  0.33056319507E+03  0.90091758921E+02 0.  0.
         23    2    4    4    0    0 -0.15227255091E+03 -0.19004366359E+03 -0.95379659242E+03  0.98864136545E+03  0.91543901672E+02 0.  0.
          1    1    3    3  502    0 -0.46051143763E+02  0.27263116407E+02 -0.36359582984E+03  0.36751314648E+03  0.00000000000E+00 0. -1.
         -2    1    3    3    0  502 -0.37267867834E+02 -0.49432153230E+02 -0.28914915809E+03  0.29570199081E+03  0.00000000000E+00 0.  1.
         11    1    5    5    0    0  0.27231911644E+02  0.82871819349E+00  0.14978689876E+02  0.31090592404E+02  0.00000000000E+00 0.  1.
        -11    1    5    5    0    0  0.20835965086E+03  0.21138398222E+03 -0.39836010119E+02  0.29947260267E+03  0.00000000000E+00 0. -1.
          3    1    6    6  503    0 -0.86983334995E+02 -0.17020038653E+03 -0.66771825440E+03  0.69453721239E+03  0.00000000000E+00 0. -1.
         -3    1    6    6    0  503 -0.65289215917E+02 -0.19843277058E+02 -0.28607833802E+03  0.29410415306E+03  0.00000000000E+00 0.  1.
<mgrwt>
<rscale>  0 0.11262884E+04</rscale>
<asrwt>0</asrwt>
<pdfrwt beam="1">  1        1 0.27798604E+00 0.11262884E+04</pdfrwt>
<pdfrwt beam="2">  1       -2 0.27001601E-01 0.11262884E+04</pdfrwt>
<totfact> 0.43911993E+01</totfact>
</mgrwt>
</event>
<event>
12    4  0.4183215E-008  0.1545798E+04  0.7818608E-02  0.8854556E-01
          1   -1    0    0  501    0  0.00000000000E+00  0.00000000000E+00  0.37401711173E+03  0.37401711173E+03  0.00000000000E+00 0. -1.
         -2   -1    0    0    0  501 -0.00000000000E+00 -0.00000000000E+00 -0.15971797956E+04  0.15971797956E+04  0.00000000000E+00 0.  1.
        -24    2    1    2    0    0  0.28419574961E+03  0.42140179558E+03 -0.38427648609E+03  0.64250962114E+03  0.82483320083E+02 0.  0.
        254    2    1    2    0    0 -0.28419574961E+03 -0.42140179558E+03 -0.83888619777E+03  0.13286872862E+04  0.89628854405E+03 0.  0.
         23    2    4    4    0    0 -0.30681412530E+03 -0.11674326841E+03 -0.93533991000E+03  0.99536486206E+03  0.90147452454E+02 0.  0.
         23    2    4    4    0    0  0.22618375685E+02 -0.30465852717E+03  0.96453712237E+02  0.33332242410E+03  0.92044069383E+02 0.  0.
          1    1    3    3  502    0  0.75506331215E+01  0.50206955820E+02 -0.51900031127E+02  0.72604157624E+02  0.00000000000E+00 0. -1.
         -4    1    3    3    0  502  0.27664511649E+03  0.37119483976E+03 -0.33237645496E+03  0.56990546352E+03  0.00000000000E+00 0.  1.
         11    1    5    5    0    0 -0.96779947847E+02 -0.52210296569E+02 -0.20425373671E+03  0.23197383976E+03  0.00000000000E+00 0. -1.
        -11    1    5    5    0    0 -0.21003417745E+03 -0.64532971839E+02 -0.73108617329E+03  0.76339102230E+03  0.00000000000E+00 0.  1.
          1    1    6    6  503    0  0.48448307813E+01  0.51710379238E+01  0.78662316806E+01  0.10587238514E+02  0.00000000000E+00 0. -1.
         -1    1    6    6    0  503  0.17773544904E+02 -0.30982956509E+03  0.88587480557E+02  0.32273518559E+03  0.00000000000E+00 0.  1.
<mgrwt>
<rscale>  0 0.15457976E+04</rscale>
<asrwt>0</asrwt>
<pdfrwt beam="1">  1        1 0.57541092E-01 0.15457976E+04</pdfrwt>
<pdfrwt beam="2">  1       -2 0.24571998E+00 0.15457976E+04</pdfrwt>
<totfact> 0.37743464E+00</totfact>
</mgrwt>
</event>
<event>
12    4  0.4183215E-008  0.2535243E+04  0.7818608E-02  0.8390536E-01
         -2   -1    0    0    0  501 -0.00000000000E+00  0.00000000000E+00  0.12253551855E+04  0.12253551855E+04  0.00000000000E+00 0.  1.
          1   -1    0    0  501    0  0.00000000000E+00 -0.00000000000E+00 -0.13113459707E+04  0.13113459707E+04  0.00000000000E+00 0. -1.
        -24    2    1    2    0    0  0.55875623923E+03  0.89608315282E+03 -0.37942219036E+03  0.11247854130E+04  0.77507904163E+02 0.  0.
        254    2    1    2    0    0 -0.55875623923E+03 -0.89608315282E+03  0.29343140515E+03  0.14119157432E+04  0.89007332550E+03 0.  0.
         23    2    4    4    0    0 -0.23184003487E+03 -0.74745079593E+02  0.44043376819E+03  0.51112058283E+03  0.89026497937E+02 0.  0.
         23    2    4    4    0    0 -0.32691620436E+03 -0.82133807322E+03 -0.14700236304E+03  0.90079516039E+03  0.91388134008E+02 0.  0.
          3    1    3    3  502    0  0.52121250721E+03  0.83966712045E+03 -0.37442933228E+03  0.10568352169E+04  0.00000000000E+00 0. -1.
         -4    1    3    3    0  502  0.37543732022E+02  0.56416032368E+02 -0.49928580882E+01  0.67950196130E+02  0.00000000000E+00 0.  1.
         11    1    5    5    0    0 -0.65100275666E+02 -0.21683984737E+02  0.21538754766E+03  0.22605317244E+03  0.00000000000E+00 0.  1.
        -11    1    5    5    0    0 -0.16673975920E+03 -0.53061094856E+02  0.22504622053E+03  0.28506741038E+03  0.00000000000E+00 0. -1.
          1    1    6    6  503    0 -0.16307447518E+03 -0.52708762185E+03 -0.82198230457E+02  0.55782720860E+03  0.00000000000E+00 0. -1.
         -1    1    6    6    0  503 -0.16384172918E+03 -0.29425045137E+03 -0.64804132581E+02  0.34296795179E+03  0.00000000000E+00 0.  1.
<mgrwt>
<rscale>  0 0.25352433E+04</rscale>
<asrwt>0</asrwt>
<pdfrwt beam="1">  1        1 0.20174553E+00 0.25352433E+04</pdfrwt>
<pdfrwt beam="2">  1       -2 0.18851618E+00 0.25352433E+04</pdfrwt>
<totfact> 0.10946812E+00</totfact>
</mgrwt>
</event>
<event>
12    4  0.4183215E-008  0.1181422E+04  0.7818608E-02  0.9129275E-01
          1   -1    0    0  501    0  0.00000000000E+00  0.00000000000E+00  0.51157216173E+03  0.51157216173E+03  0.00000000000E+00 0. -1.
         -2   -1    0    0    0  501 -0.00000000000E+00 -0.00000000000E+00 -0.68209258072E+03  0.68209258072E+03  0.00000000000E+00 0.  1.
        -24    2    1    2    0    0 -0.10107753690E+03  0.19556799004E+03 -0.13393276791E+03  0.26972074177E+03  0.79672988044E+02 0.  0.
        254    2    1    2    0    0  0.10107753690E+03 -0.19556799004E+03 -0.36587651078E+02  0.92394400067E+03  0.89658817356E+03 0.  0.
         23    2    4    4    0    0 -0.32999612631E+02 -0.52752113768E+03 -0.10766206536E+03  0.54656459888E+03  0.88171510684E+02 0.  0.
         23    2    4    4    0    0  0.13407714953E+03  0.33195314763E+03  0.71074414281E+02  0.37737940180E+03  0.95885693840E+02 0.  0.
          1    1    3    3  502    0 -0.17440764593E+02  0.43538450323E+02 -0.71103488824E+02  0.85179123317E+02  0.00000000000E+00 0. -1.
         -2    1    3    3    0  502 -0.83636772310E+02  0.15202953972E+03 -0.62829279088E+02  0.18454161845E+03  0.00000000000E+00 0.  1.
         11    1    5    5    0    0  0.10281847935E+02 -0.11214466589E+03  0.89331430551E+01  0.11296877237E+03  0.00000000000E+00 0. -1.
        -11    1    5    5    0    0 -0.43281460566E+02 -0.41537647179E+03 -0.11659520841E+03  0.43359582651E+03  0.00000000000E+00 0.  1.
          4    1    6    6  503    0  0.11162578892E+03  0.28308990737E+03  0.94622960778E+02  0.31867493958E+03  0.00000000000E+00 0.  1.
         -4    1    6    6    0  503  0.22451360613E+02  0.48863240261E+02 -0.23548546497E+02  0.58704462218E+02  0.00000000000E+00 0. -1.
<mgrwt>
<rscale>  0 0.11814222E+04</rscale>
<asrwt>0</asrwt>
<pdfrwt beam="1">  1        1 0.78703410E-01 0.11814222E+04</pdfrwt>
<pdfrwt beam="2">  1       -2 0.10493732E+00 0.11814222E+04</pdfrwt>
<totfact> 0.27396125E+01</totfact>
</mgrwt>
</event>
<event>
12    4  0.4183215E-008  0.1918407E+04  0.7818608E-02  0.8645748E-01
         -2   -1    0    0    0  501 -0.00000000000E+00  0.00000000000E+00  0.60081805481E+03  0.60081805481E+03  0.00000000000E+00 0.  1.
          1   -1    0    0  501    0  0.00000000000E+00 -0.00000000000E+00 -0.15313642052E+04  0.15313642052E+04  0.00000000000E+00 0. -1.
        -24    2    1    2    0    0  0.12771150699E+03  0.73785379893E+03 -0.33264070544E+03  0.82262678394E+03  0.72983074285E+02 0.  0.
        254    2    1    2    0    0 -0.12771150699E+03 -0.73785379893E+03 -0.59790544499E+03  0.13095554761E+04  0.89258398275E+03 0.  0.
         23    2    4    4    0    0 -0.40013390279E+03 -0.55358149308E+03 -0.87048756144E+02  0.69459842331E+03  0.91268143826E+02 0.  0.
         23    2    4    4    0    0  0.27242239580E+03 -0.18427230585E+03 -0.51085668885E+03  0.61495705281E+03  0.95012503485E+02 0.  0.
          3    1    3    3  502    0  0.18396578334E+02  0.13943721228E+03 -0.32771139655E+02  0.14441301138E+03  0.00000000000E+00 0. -1.
         -4    1    3    3    0  502  0.10931492865E+03  0.59841658665E+03 -0.29986956579E+03  0.67821377256E+03  0.00000000000E+00 0.  1.
         11    1    5    5    0    0 -0.27763838929E+03 -0.42465680929E+03 -0.31726745818E+02  0.50835328983E+03  0.00000000000E+00 0. -1.
        -11    1    5    5    0    0 -0.12249551349E+03 -0.12892468379E+03 -0.55322010325E+02  0.18624513347E+03  0.00000000000E+00 0.  1.
          2    1    6    6  503    0  0.18138888065E+03 -0.88091177269E+02 -0.24006762060E+03  0.31351944755E+03  0.00000000000E+00 0. -1.
         -2    1    6    6    0  503  0.91033515151E+02 -0.96181128581E+02 -0.27078906825E+03  0.30143760525E+03  0.00000000000E+00 0.  1.
<mgrwt>
<rscale>  0 0.19184069E+04</rscale>
<asrwt>0</asrwt>
<pdfrwt beam="1">  1        1 0.23559449E+00 0.19184069E+04</pdfrwt>
<pdfrwt beam="2">  1       -2 0.92433547E-01 0.19184069E+04</pdfrwt>
<totfact> 0.50684403E+00</totfact>
</mgrwt>
</event>
<event>
12    4  0.4310732E-008  0.2135172E+04  0.7818608E-02  0.8545906E-01
         -4   -1    0    0    0  501 -0.00000000000E+00  0.00000000000E+00  0.92751010014E+03  0.92751010014E+03  0.00000000000E+00 0.  1.
          1   -1    0    0  501    0  0.00000000000E+00 -0.00000000000E+00 -0.12288164658E+04  0.12288164658E+04  0.00000000000E+00 0. -1.
        -24    2    1    2    0    0  0.79670864299E+03  0.28297553067E+03  0.15135265459E+03  0.86263711214E+03  0.80095870112E+02 0.  0.
        254    2    1    2    0    0 -0.79670864299E+03 -0.28297553067E+03 -0.45265902029E+03  0.12936894538E+04  0.86828129172E+03 0.  0.
         23    2    4    4    0    0 -0.86680024994E+03 -0.19008537590E+03 -0.84443541087E+02  0.89593437104E+03  0.89958669114E+02 0.  0.
         23    2    4    4    0    0  0.70091606946E+02 -0.92890154770E+02 -0.36821547920E+03  0.39775508280E+03  0.95315542035E+02 0.  0.
          3    1    3    3  502    0  0.25640381420E+03  0.87969380600E+02  0.10886154313E+02  0.27129326607E+03  0.00000000000E+00 0. -1.
         -4    1    3    3    0  502  0.54030482879E+03  0.19500615007E+03  0.14046650028E+03  0.59134384607E+03  0.00000000000E+00 0.  1.
         11    1    5    5    0    0 -0.66738510513E+02 -0.38440283986E+02 -0.16759634764E+02  0.78819855213E+02  0.00000000000E+00 0. -1.
        -11    1    5    5    0    0 -0.80006173943E+03 -0.15164509191E+03 -0.67683906324E+02  0.81711451582E+03  0.00000000000E+00 0.  1.
          1    1    6    6  503    0  0.23760789838E+01 -0.40218929601E+02 -0.34041143739E+02  0.52744739232E+02  0.00000000000E+00 0. -1.
         -1    1    6    6    0  503  0.67715527962E+02 -0.52671225169E+02 -0.33417433546E+03  0.34501034357E+03  0.00000000000E+00 0.  1.
<mgrwt>
<rscale>  0 0.21351718E+04</rscale>
<asrwt>0</asrwt>
<pdfrwt beam="1">  1        1 0.18904869E+00 0.21351718E+04</pdfrwt>
<pdfrwt beam="2">  1       -4 0.14269386E+00 0.21351718E+04</pdfrwt>
<totfact> 0.15437100E+00</totfact>
</mgrwt>
</event>
<event>
12    4  0.4183215E-008  0.2627156E+04  0.7818608E-02  0.8359035E-01
          1   -1    0    0  501    0  0.00000000000E+00  0.00000000000E+00  0.19404807985E+04  0.19404807985E+04  0.00000000000E+00 0. -1.
         -2   -1    0    0    0  501 -0.00000000000E+00 -0.00000000000E+00 -0.88920606954E+03  0.88920606954E+03  0.00000000000E+00 0.  1.
        -24    2    1    2    0    0  0.20264039751E+03 -0.11416169060E+04  0.45987006871E+03  0.12500205695E+04  0.81967391331E+02 0.  0.
        254    2    1    2    0    0 -0.20264039751E+03  0.11416169060E+04  0.59140466026E+03  0.15796662986E+04  0.89511666946E+03 0.  0.
         23    2    4    4    0    0  0.13274401083E+03  0.87898948864E+03  0.65754842904E+02  0.89636937595E+03  0.94397379305E+02 0.  0.
         23    2    4    4    0    0 -0.33538440834E+03  0.26262741736E+03  0.52564981736E+03  0.68329692264E+03  0.95556749033E+02 0.  0.
          3    1    3    3  502    0  0.18796495221E+02 -0.71635679763E+02  0.50990741098E+02  0.89916820036E+02  0.00000000000E+00 0. -1.
         -2    1    3    3    0  502  0.18384390229E+03 -0.10699812262E+04  0.40887932762E+03  0.11601037494E+04  0.00000000000E+00 0.  1.
         11    1    5    5    0    0  0.11475498231E+03  0.81928009861E+03  0.83639302726E+02  0.83149511057E+03  0.00000000000E+00 0. -1.
        -11    1    5    5    0    0  0.17989028523E+02  0.59709390031E+02 -0.17884459823E+02  0.64874265377E+02  0.00000000000E+00 0.  1.
          4    1    6    6  503    0 -0.21265385600E+03  0.10732730195E+03  0.27216316536E+03  0.36168162905E+03  0.00000000000E+00 0. -1.
         -4    1    6    6    0  503 -0.12273055234E+03  0.15530011541E+03  0.25348665200E+03  0.32161529358E+03  0.00000000000E+00 0.  1.
<mgrwt>
<rscale>  0 0.26271561E+04</rscale>
<asrwt>0</asrwt>
<pdfrwt beam="1">  1        1 0.29853551E+00 0.26271561E+04</pdfrwt>
<pdfrwt beam="2">  1       -2 0.13680093E+00 0.26271561E+04</pdfrwt>
<totfact> 0.96304732E-01</totfact>
</mgrwt>
</event>
<event>
12    4  0.4183215E-008  0.1413166E+04  0.7818608E-02  0.8944343E-01
         -2   -1    0    0    0  501 -0.00000000000E+00  0.00000000000E+00  0.30764268744E+03  0.30764268744E+03  0.00000000000E+00 0.  1.
          1   -1    0    0  501    0  0.00000000000E+00 -0.00000000000E+00 -0.16228557448E+04  0.16228557448E+04  0.00000000000E+00 0. -1.
        -24    2    1    2    0    0  0.13583423484E+03  0.57092145167E+02 -0.96147201296E+03  0.97617940149E+03  0.82385313030E+02 0.  0.
        254    2    1    2    0    0 -0.13583423484E+03 -0.57092145167E+02 -0.35374104445E+03  0.95431903079E+03  0.87400322288E+03 0.  0.
         23    2    4    4    0    0  0.25847347577E+03  0.16093472152E+03 -0.37842248649E+03  0.49423130650E+03  0.91391924017E+02 0.  0.
         23    2    4    4    0    0 -0.39430771060E+03 -0.21802686669E+03  0.24681442036E+02  0.46008772429E+03  0.89762214895E+02 0.  0.
          3    1    3    3  502    0  0.12311163546E+03  0.53771697589E+02 -0.94756371271E+03  0.95703963339E+03  0.00000000000E+00 0. -1.
         -4    1    3    3    0  502  0.12722599375E+02  0.33204475782E+01 -0.13908300250E+02  0.19139768097E+02  0.00000000000E+00 0.  1.
         11    1    5    5    0    0  0.25670129440E+03  0.13474042641E+03 -0.33089202774E+03  0.43993189368E+03  0.00000000000E+00 0.  1.
        -11    1    5    5    0    0  0.17721813663E+01  0.26194295116E+02 -0.47530458752E+02  0.54299412820E+02  0.00000000000E+00 0. -1.
          1    1    6    6  503    0 -0.15332268497E+03 -0.13554808354E+03  0.14922240732E+02  0.20519210985E+03  0.00000000000E+00 0. -1.
         -1    1    6    6    0  503 -0.24098502564E+03 -0.82478783153E+02  0.97592013038E+01  0.25489561444E+03  0.00000000000E+00 0.  1.
<mgrwt>
<rscale>  0 0.14131662E+04</rscale>
<asrwt>0</asrwt>
<pdfrwt beam="1">  1        1 0.24967011E+00 0.14131662E+04</pdfrwt>
<pdfrwt beam="2">  1       -2 0.47329645E-01 0.14131662E+04</pdfrwt>
<totfact> 0.19466138E+01</totfact>
</mgrwt>
</event>
<event>
12    4  0.4183215E-008  0.1800097E+04  0.7818608E-02  0.8706248E-01
          1   -1    0    0  501    0  0.00000000000E+00  0.00000000000E+00  0.19128903350E+04  0.19128903350E+04  0.00000000000E+00 0. -1.
         -2   -1    0    0    0  501 -0.00000000000E+00 -0.00000000000E+00 -0.42348850770E+03  0.42348850770E+03  0.00000000000E+00 0.  1.
        -24    2    1    2    0    0  0.11330989649E+03 -0.30965555561E+03  0.13146517389E+04  0.13584872333E+04  0.91938417164E+02 0.  0.
        254    2    1    2    0    0 -0.11330989649E+03  0.30965555561E+03  0.17475008841E+03  0.97789160946E+03  0.90388534156E+03 0.  0.
         23    2    4    4    0    0  0.10197866570E+03  0.52225531020E+03 -0.11180179326E+03  0.55159660346E+03  0.92784237275E+02 0.  0.
         23    2    4    4    0    0 -0.21528856219E+03 -0.21259975458E+03  0.28655188167E+03  0.42629500600E+03  0.89819989920E+02 0.  0.
          1    1    3    3  502    0  0.12666942098E+03 -0.25564425691E+03  0.11415782783E+04  0.11766903134E+04  0.00000000000E+00 0. -1.
         -2    1    3    3    0  502 -0.13359524491E+02 -0.54011298707E+02  0.17307346067E+03  0.18179691986E+03  0.00000000000E+00 0.  1.
         11    1    5    5    0    0  0.75962263867E+02  0.49083945157E+03 -0.88146018691E+02  0.50444360771E+03  0.00000000000E+00 0. -1.
        -11    1    5    5    0    0  0.26016401833E+02  0.31415858627E+02 -0.23655774574E+02  0.47152995751E+02  0.00000000000E+00 0.  1.
          1    1    6    6  503    0 -0.83116571339E+02 -0.12757139188E+03  0.99059242735E+02  0.18164679471E+03  0.00000000000E+00 0. -1.
         -1    1    6    6    0  503 -0.13217199085E+03 -0.85028362702E+02  0.18749263894E+03  0.24464821129E+03  0.00000000000E+00 0.  1.
<mgrwt>
<rscale>  0 0.18000967E+04</rscale>
<asrwt>0</asrwt>
<pdfrwt beam="1">  1        1 0.29429081E+00 0.18000967E+04</pdfrwt>
<pdfrwt beam="2">  1       -2 0.65152079E-01 0.18000967E+04</pdfrwt>
<totfact> 0.61453200E+00</totfact>
</mgrwt>
</event>
<event>
12    4  0.4183215E-008  0.1514965E+04  0.7818608E-02  0.8874562E-01
         -2   -1    0    0    0  501 -0.00000000000E+00  0.00000000000E+00  0.71639318442E+03  0.71639318442E+03  0.00000000000E+00 0.  1.
          1   -1    0    0  501    0  0.00000000000E+00 -0.00000000000E+00 -0.80092845883E+03  0.80092845883E+03  0.00000000000E+00 0. -1.
        -24    2    1    2    0    0  0.17123249529E+03  0.39358690726E+03  0.18189979910E+03  0.47299335189E+03  0.80024702479E+02 0.  0.
        254    2    1    2    0    0 -0.17123249529E+03 -0.39358690726E+03 -0.26643507351E+03  0.10443282914E+04  0.91400367107E+03 0.  0.
         23    2    4    4    0    0 -0.12124541381E+03  0.26748014277E+03 -0.21326042911E+03  0.37414913767E+03  0.90892735945E+02 0.  0.
         23    2    4    4    0    0 -0.49987081489E+02 -0.66106705004E+03 -0.53174644401E+02  0.67017915369E+03  0.82487588630E+02 0.  0.
          3    1    3    3  502    0  0.13809514120E+02  0.10548880489E+03  0.25816031314E+02  0.10947629018E+03  0.00000000000E+00 0. -1.
         -4    1    3    3    0  502  0.15742298117E+03  0.28809810237E+03  0.15608376779E+03  0.36351706171E+03  0.00000000000E+00 0.  1.
         11    1    5    5    0    0 -0.13092060567E+02 -0.43498932843E+01 -0.37038390152E+01  0.14284328648E+02  0.00000000000E+00 0. -1.
        -11    1    5    5    0    0 -0.10815335324E+03  0.27183003606E+03 -0.20955659010E+03  0.35986480902E+03  0.00000000000E+00 0.  1.
          1    1    6    6  503    0  0.10675724565E+02 -0.21373320329E+03  0.10632882734E+02  0.21426364946E+03  0.00000000000E+00 0. -1.
         -1    1    6    6    0  503 -0.60662806054E+02 -0.44733384675E+03 -0.63807527136E+02  0.45591550424E+03  0.00000000000E+00 0.  1.
<mgrwt>
<rscale>  0 0.15149649E+04</rscale>
<asrwt>0</asrwt>
<pdfrwt beam="1">  1        1 0.12321976E+00 0.15149649E+04</pdfrwt>
<pdfrwt beam="2">  1       -2 0.11021434E+00 0.15149649E+04</pdfrwt>
<totfact> 0.12213682E+01</totfact>
</mgrwt>
</event>
<event>
12    4  0.4183215E-008  0.1416781E+04  0.7818608E-02  0.8941760E-01
         -4   -1    0    0    0  501 -0.00000000000E+00  0.00000000000E+00  0.16414093455E+04  0.16414093455E+04  0.00000000000E+00 0.  1.
          3   -1    0    0  501    0  0.00000000000E+00 -0.00000000000E+00 -0.30572342356E+03  0.30572342356E+03  0.00000000000E+00 0. -1.
        -24    2    1    2    0    0 -0.33861477605E+03  0.19873644204E+03  0.50579029212E+03  0.64510881622E+03  0.78647474232E+02 0.  0.
        254    2    1    2    0    0  0.33861477605E+03 -0.19873644204E+03  0.82989562980E+03  0.13020239528E+04  0.92324616295E+03 0.  0.
         23    2    4    4    0    0 -0.13360186076E+03 -0.39107927492E+03  0.60445270899E+03  0.73708183644E+03  0.84463600075E+02 0.  0.
         23    2    4    4    0    0  0.47221663681E+03  0.19234283288E+03  0.22544292081E+03  0.56494211638E+03  0.91382530489E+02 0.  0.
          3    1    3    3  502    0 -0.17394439255E+02 -0.39458324553E+01  0.42058438708E+02  0.45684224600E+02  0.00000000000E+00 0. -1.
         -4    1    3    3    0  502 -0.32122033679E+03  0.20268227450E+03  0.46373185341E+03  0.59942459162E+03  0.00000000000E+00 0.  1.
         11    1    5    5    0    0 -0.19510682854E+01 -0.20483800927E+02  0.73569729656E+02  0.76393048699E+02  0.00000000000E+00 0.  1.
        -11    1    5    5    0    0 -0.13165079248E+03 -0.37059547400E+03  0.53088297933E+03  0.66068878774E+03  0.00000000000E+00 0. -1.
          2    1    6    6  503    0  0.43407191858E+03  0.19782627892E+03  0.22229128362E+03  0.52627662109E+03  0.00000000000E+00 0. -1.
         -2    1    6    6    0  503  0.38144718227E+02 -0.54834460441E+01  0.31516371951E+01  0.38665495292E+02  0.00000000000E+00 0.  1.
<mgrwt>
<rscale>  0 0.14167813E+04</rscale>
<asrwt>0</asrwt>
<pdfrwt beam="1">  1        3 0.47034374E-01 0.14167813E+04</pdfrwt>
<pdfrwt beam="2">  1       -4 0.25252451E+00 0.14167813E+04</pdfrwt>
<totfact> 0.61031140E-01</totfact>
</mgrwt>
</event>
<event>
12    4  0.4183215E-008  0.2781759E+04  0.7818608E-02  0.8308954E-01
         -2   -1    0    0    0  501 -0.00000000000E+00  0.00000000000E+00  0.11512028627E+04  0.11512028627E+04  0.00000000000E+00 0.  1.
          1   -1    0    0  501    0  0.00000000000E+00 -0.00000000000E+00 -0.16804556354E+04  0.16804556354E+04  0.00000000000E+00 0. -1.
        -24    2    1    2    0    0 -0.42073642288E+03 -0.78128080751E+03 -0.11242129322E+04  0.14346347249E+04  0.83085734089E+02 0.  0.
        254    2    1    2    0    0  0.42073642288E+03  0.78128080751E+03  0.59496015947E+03  0.13970237733E+04  0.90015498337E+03 0.  0.
         23    2    4    4    0    0 -0.15688167750E+03 -0.44610451865E+02 -0.56069284457E+02  0.19386878426E+03  0.88540316800E+02 0.  0.
         23    2    4    4    0    0  0.57761810038E+03  0.82589125937E+03  0.65102944393E+03  0.12031549890E+04  0.89462554172E+02 0.  0.
          3    1    3    3  502    0 -0.41265689597E+03 -0.77727342942E+03 -0.10993959577E+04  0.14082298001E+04  0.00000000000E+00 0. -1.
         -4    1    3    3    0  502 -0.80795269104E+01 -0.40073780937E+01 -0.24816974440E+02  0.26404924818E+02  0.00000000000E+00 0.  1.
         11    1    5    5    0    0 -0.12760500678E+03 -0.35319371445E+02 -0.80208541780E+02  0.15480279690E+03  0.00000000000E+00 0. -1.
        -11    1    5    5    0    0 -0.29276670720E+02 -0.92910804197E+01  0.24139257323E+02  0.39065987354E+02  0.00000000000E+00 0.  1.
          2    1    6    6  503    0  0.81875900661E+02  0.74018423040E+02  0.56263863055E+02  0.12388709515E+03  0.00000000000E+00 0.  1.
         -2    1    6    6    0  503  0.49574219972E+03  0.75187283633E+03  0.59476558087E+03  0.10792678939E+04  0.00000000000E+00 0. -1.
<mgrwt>
<rscale>  0 0.27817587E+04</rscale>
<asrwt>0</asrwt>
<pdfrwt beam="1">  1        1 0.25853164E+00 0.27817587E+04</pdfrwt>
<pdfrwt beam="2">  1       -2 0.17710813E+00 0.27817587E+04</pdfrwt>
<totfact> 0.71104873E-01</totfact>
</mgrwt>
</event>
<event>
12    4  0.4183215E-008  0.1800071E+04  0.7818608E-02  0.8706262E-01
          3   -1    0    0  501    0  0.00000000000E+00  0.00000000000E+00  0.38188115425E+03  0.38188115425E+03  0.00000000000E+00 0. -1.
         -4   -1    0    0    0  501 -0.00000000000E+00 -0.00000000000E+00 -0.21212456190E+04  0.21212456190E+04  0.00000000000E+00 0.  1.
        -24    2    1    2    0    0 -0.64061538630E+03  0.14598264995E+03 -0.72372779923E+03  0.98073694266E+03  0.79774783348E+02 0.  0.
        254    2    1    2    0    0  0.64061538630E+03 -0.14598264995E+03 -0.10156366655E+04  0.15223898306E+04  0.92436678470E+03 0.  0.
         23    2    4    4    0    0  0.59385869098E+03 -0.44156536789E+03 -0.94100506402E+03  0.12006035052E+04  0.91159899517E+02 0.  0.
         23    2    4    4    0    0  0.46756695317E+02  0.29558271794E+03 -0.74631601486E+02  0.32178632535E+03  0.91767268340E+02 0.  0.
          3    1    3    3  502    0 -0.38224953956E+03  0.87530207601E+02 -0.48892610608E+03  0.62675751687E+03  0.00000000000E+00 0. -1.
         -4    1    3    3    0  502 -0.25836584674E+03  0.58452442350E+02 -0.23480169315E+03  0.35397942579E+03  0.00000000000E+00 0.  1.
         11    1    5    5    0    0  0.36464769160E+02 -0.43491360985E+02 -0.43054293395E+02  0.71237981793E+02  0.00000000000E+00 0.  1.
        -11    1    5    5    0    0  0.55739392182E+03 -0.39807400691E+03 -0.89795077062E+03  0.11293655234E+04  0.00000000000E+00 0. -1.
          4    1    6    6  503    0  0.38888929168E+02  0.29968048194E+03 -0.65810643713E+02  0.30927622103E+03  0.00000000000E+00 0. -1.
         -4    1    6    6    0  503  0.78677661492E+01 -0.40977640023E+01 -0.88209577729E+01  0.12510104317E+02  0.00000000000E+00 0.  1.
<mgrwt>
<rscale>  0 0.18000708E+04</rscale>
<asrwt>0</asrwt>
<pdfrwt beam="1">  1        3 0.58750948E-01 0.18000708E+04</pdfrwt>
<pdfrwt beam="2">  1       -4 0.32634547E+00 0.18000708E+04</pdfrwt>
<totfact> 0.12952878E-01</totfact>
</mgrwt>
</event>
<event>
12    4  0.4183215E-008  0.1764610E+04  0.7818608E-02  0.8725349E-01
          1   -1    0    0  501    0  0.00000000000E+00  0.00000000000E+00  0.23319473785E+04  0.23319473785E+04  0.00000000000E+00 0. -1.
         -2   -1    0    0    0  501 -0.00000000000E+00 -0.00000000000E+00 -0.33382488249E+03  0.33382488249E+03  0.00000000000E+00 0.  1.
        -24    2    1    2    0    0  0.57739655834E+03  0.27826365061E+03  0.90079466528E+03  0.11083635940E+04  0.78875741454E+02 0.  0.
        254    2    1    2    0    0 -0.57739655834E+03 -0.27826365061E+03  0.10973278307E+04  0.15574086670E+04  0.90031991156E+03 0.  0.
         23    2    4    4    0    0 -0.62077671575E+02 -0.51646806227E+03  0.57648134576E+03  0.78188322217E+03  0.91748212234E+02 0.  0.
         23    2    4    4    0    0 -0.51531888676E+03  0.23820441166E+03  0.52084648493E+03  0.77552544481E+03  0.88677832085E+02 0.  0.
          3    1    3    3  502    0  0.58875025379E+02  0.44757507541E+02  0.71875859315E+02  0.10312925020E+03  0.00000000000E+00 0. -1.
         -4    1    3    3    0  502  0.51852153296E+03  0.23350614307E+03  0.82891880597E+03  0.10052343438E+04  0.00000000000E+00 0.  1.
         11    1    5    5    0    0 -0.61798595504E+02 -0.39037953462E+03  0.37906485379E+03  0.54763620300E+03  0.00000000000E+00 0.  1.
        -11    1    5    5    0    0 -0.27907607107E+00 -0.12608852765E+03  0.19741649197E+03  0.23424701917E+03  0.00000000000E+00 0. -1.
          4    1    6    6  503    0 -0.13288646008E+03  0.21028430086E+02  0.13199722509E+03  0.18847884119E+03  0.00000000000E+00 0. -1.
         -4    1    6    6    0  503 -0.38243242668E+03  0.21717598157E+03  0.38884925984E+03  0.58704660362E+03  0.00000000000E+00 0.  1.
<mgrwt>
<rscale>  0 0.17646099E+04</rscale>
<asrwt>0</asrwt>
<pdfrwt beam="1">  1        1 0.35876113E+00 0.17646099E+04</pdfrwt>
<pdfrwt beam="2">  1       -2 0.51357676E-01 0.17646099E+04</pdfrwt>
<totfact> 0.52726837E+00</totfact>
</mgrwt>
</event>
<event>
12    4  0.4183215E-008  0.1602763E+04  0.7818608E-02  0.8818852E-01
          1   -1    0    0  501    0  0.00000000000E+00  0.00000000000E+00  0.46167333431E+04  0.46167333431E+04  0.00000000000E+00 0. -1.
         -4   -1    0    0    0  501 -0.00000000000E+00 -0.00000000000E+00 -0.13910538666E+03  0.13910538666E+03  0.00000000000E+00 0.  1.
        -24    2    1    2    0    0 -0.22894580541E+03  0.36957181511E+03  0.25092402242E+04  0.25480126105E+04  0.84156115404E+02 0.  0.
        254    2    1    2    0    0  0.22894580541E+03 -0.36957181511E+03  0.19683877322E+04  0.22078261193E+04  0.90052562455E+03 0.  0.
         23    2    4    4    0    0 -0.83989032407E+01 -0.50724696579E+03  0.18009076874E+04  0.18731600763E+04  0.89945245949E+02 0.  0.
         23    2    4    4    0    0  0.23734470865E+03  0.13767515068E+03  0.16748004479E+03  0.33466604294E+03  0.93085106511E+02 0.  0.
          1    1    3    3  502    0 -0.12367668842E+03  0.16964188684E+03  0.14342004385E+04  0.14494844569E+04  0.00000000000E+00 0. -1.
         -2    1    3    3    0  502 -0.10526911699E+03  0.19992992827E+03  0.10750397858E+04  0.10985281536E+04  0.00000000000E+00 0.  1.
         11    1    5    5    0    0 -0.65054944680E+01 -0.10807785919E+03  0.53357048354E+03  0.54444522774E+03  0.00000000000E+00 0.  1.
        -11    1    5    5    0    0 -0.18934087727E+01 -0.39916910660E+03  0.12673372038E+04  0.13287148486E+04  0.00000000000E+00 0. -1.
          4    1    6    6  503    0  0.19686527726E+03  0.69940186921E+02  0.10389971930E+03  0.23332963551E+03  0.00000000000E+00 0.  1.
         -4    1    6    6    0  503  0.40479431392E+02  0.67734963759E+02  0.63580325489E+02  0.10133640743E+03  0.00000000000E+00 0. -1.
<mgrwt>
<rscale>  0 0.16027632E+04</rscale>
<asrwt>0</asrwt>
<pdfrwt beam="1">  1        1 0.71026655E+00 0.16027632E+04</pdfrwt>
<pdfrwt beam="2">  1       -4 0.21400832E-01 0.16027632E+04</pdfrwt>
<totfact> 0.24685753E-01</totfact>
</mgrwt>
</event>
<event>
12    4  0.4183215E-008  0.1439992E+04  0.7818608E-02  0.8925369E-01
         -2   -1    0    0    0  501 -0.00000000000E+00  0.00000000000E+00  0.26912806199E+03  0.26912806199E+03  0.00000000000E+00 0.  1.
          1   -1    0    0  501    0  0.00000000000E+00 -0.00000000000E+00 -0.19261981978E+04  0.19261981978E+04  0.00000000000E+00 0. -1.
        -24    2    1    2    0    0  0.36220406238E+03  0.19075465276E+03 -0.70336134783E+03  0.81782369674E+03  0.80865894972E+02 0.  0.
        254    2    1    2    0    0 -0.36220406238E+03 -0.19075465276E+03 -0.95370878794E+03  0.13775025630E+04  0.90574485291E+03 0.  0.
         23    2    4    4    0    0 -0.51130509179E+03 -0.40925634804E+03 -0.44405735076E+03  0.79655972315E+03  0.91634090139E+02 0.  0.
         23    2    4    4    0    0  0.14910102941E+03  0.21850169528E+03 -0.50965143718E+03  0.58094283987E+03  0.88180995488E+02 0.  0.
          1    1    3    3  502    0  0.22914745017E+03  0.85095829115E+02 -0.36644624547E+03  0.44049143564E+03  0.00000000000E+00 0. -1.
         -2    1    3    3    0  502  0.13305661221E+03  0.10565882365E+03 -0.33691510236E+03  0.37733226110E+03  0.00000000000E+00 0.  1.
         11    1    5    5    0    0 -0.20537784096E+03 -0.20711497318E+03 -0.23426545767E+03  0.37410823879E+03  0.00000000000E+00 0.  1.
        -11    1    5    5    0    0 -0.30592725083E+03 -0.20214137487E+03 -0.20979189309E+03  0.42245148436E+03  0.00000000000E+00 0. -1.
          4    1    6    6  503    0  0.10465252922E+03  0.11456770174E+03 -0.37037590269E+03  0.40156720415E+03  0.00000000000E+00 0. -1.
         -4    1    6    6    0  503  0.44448500195E+02  0.10393399355E+03 -0.13927553448E+03  0.17937563572E+03  0.00000000000E+00 0.  1.
<mgrwt>
<rscale>  0 0.14399916E+04</rscale>
<asrwt>0</asrwt>
<pdfrwt beam="1">  1        1 0.29633818E+00 0.14399916E+04</pdfrwt>
<pdfrwt beam="2">  1       -2 0.41404317E-01 0.14399916E+04</pdfrwt>
<totfact> 0.15778771E+01</totfact>
</mgrwt>
</event>
<event>
12    4  0.4183215E-008  0.3809754E+04  0.7818608E-02  0.8044065E-01
         -2   -1    0    0    0  501 -0.00000000000E+00  0.00000000000E+00  0.16081039971E+04  0.16081039971E+04  0.00000000000E+00 0.  1.
          1   -1    0    0  501    0  0.00000000000E+00 -0.00000000000E+00 -0.22564194157E+04  0.22564194157E+04  0.00000000000E+00 0. -1.
        -24    2    1    2    0    0 -0.12270080323E+04  0.18888587530E+03  0.10109189379E+04  0.16029820310E+04  0.79797915784E+02 0.  0.
        254    2    1    2    0    0  0.12270080323E+04 -0.18888587530E+03 -0.16592343565E+04  0.22615413818E+04  0.90569541604E+03 0.  0.
         23    2    4    4    0    0  0.69221315270E+03  0.33200044013E+03 -0.98505682800E+03  0.12524535846E+04  0.94444089819E+02 0.  0.
         23    2    4    4    0    0  0.53479487961E+03 -0.52088631542E+03 -0.67417752854E+03  0.10090877973E+04  0.80091983135E+02 0.  0.
          3    1    3    3  502    0 -0.62739262979E+03  0.70236740424E+02  0.47465809797E+03  0.78984493515E+03  0.00000000000E+00 0. -1.
         -4    1    3    3    0  502 -0.59961540252E+03  0.11864913487E+03  0.53626083996E+03  0.81313709583E+03  0.00000000000E+00 0.  1.
         11    1    5    5    0    0  0.51485620614E+03  0.27590405016E+03 -0.69492919445E+03  0.90781415675E+03  0.00000000000E+00 0.  1.
        -11    1    5    5    0    0  0.17735694656E+03  0.56096389967E+02 -0.29012763355E+03  0.34463942782E+03  0.00000000000E+00 0. -1.
          3    1    6    6  503    0  0.15932536405E+03 -0.11136614773E+03 -0.15411655193E+03  0.24807035709E+03  0.00000000000E+00 0. -1.
         -3    1    6    6    0  503  0.37546951557E+03 -0.40952016770E+03 -0.52006097662E+03  0.76101744019E+03  0.00000000000E+00 0.  1.
<mgrwt>
<rscale>  0 0.38097544E+04</rscale>
<asrwt>0</asrwt>
<pdfrwt beam="1">  1        1 0.34714145E+00 0.38097544E+04</pdfrwt>
<pdfrwt beam="2">  1       -2 0.24740062E+00 0.38097544E+04</pdfrwt>
<totfact> 0.92948730E-02</totfact>
</mgrwt>
</event>
<event>
12    4  0.4183215E-008  0.2158796E+04  0.7818608E-02  0.8535777E-01
         -2   -1    0    0    0  501 -0.00000000000E+00  0.00000000000E+00  0.11330930040E+04  0.11330930040E+04  0.00000000000E+00 0.  1.
          1   -1    0    0  501    0  0.00000000000E+00 -0.00000000000E+00 -0.10282471111E+04  0.10282471111E+04  0.00000000000E+00 0. -1.
        -24    2    1    2    0    0 -0.80550673662E+03  0.30627268302E+03  0.26068277830E+03  0.90376497211E+03  0.78686433450E+02 0.  0.
        254    2    1    2    0    0  0.80550673662E+03 -0.30627268302E+03 -0.15583688536E+03  0.12575751430E+04  0.90253312755E+03 0.  0.
         23    2    4    4    0    0  0.94660160011E+03 -0.24525347738E+03 -0.30154801824E+03  0.10268825963E+04  0.85748479164E+02 0.  0.
         23    2    4    4    0    0 -0.14109486349E+03 -0.61019205642E+02  0.14571113288E+03  0.23069254674E+03  0.91412323665E+02 0.  0.
          1    1    3    3  502    0 -0.45155994077E+03  0.19614572125E+03  0.11567175621E+03  0.50572668434E+03  0.00000000000E+00 0. -1.
         -2    1    3    3    0  502 -0.35394679586E+03  0.11012696177E+03  0.14501102209E+03  0.39803828778E+03  0.00000000000E+00 0.  1.
         11    1    5    5    0    0  0.30332457290E+03 -0.75647909151E+02 -0.13856543335E+03  0.34194850782E+03  0.00000000000E+00 0. -1.
        -11    1    5    5    0    0  0.64327702721E+03 -0.16960556823E+03 -0.16298258489E+03  0.68493408843E+03  0.00000000000E+00 0.  1.
          2    1    6    6  503    0 -0.78605167646E+02 -0.80393465775E+02  0.10359172492E+03  0.15288272365E+03  0.00000000000E+00 0. -1.
         -2    1    6    6    0  503 -0.62489695845E+02  0.19374260133E+02  0.42119407957E+02  0.77809823089E+02  0.00000000000E+00 0.  1.
<mgrwt>
<rscale>  0 0.21587956E+04</rscale>
<asrwt>0</asrwt>
<pdfrwt beam="1">  1        1 0.15819186E+00 0.21587956E+04</pdfrwt>
<pdfrwt beam="2">  1       -2 0.17432200E+00 0.21587956E+04</pdfrwt>
<totfact> 0.22921693E+00</totfact>
</mgrwt>
</event>
<event>
12    4  0.4183215E-008  0.2023378E+04  0.7818608E-02  0.8595768E-01
         -2   -1    0    0    0  501 -0.00000000000E+00  0.00000000000E+00  0.11804261771E+04  0.11804261771E+04  0.00000000000E+00 0.  1.
          1   -1    0    0  501    0  0.00000000000E+00 -0.00000000000E+00 -0.86707229369E+03  0.86707229369E+03  0.00000000000E+00 0. -1.
        -24    2    1    2    0    0 -0.27151366789E+03 -0.49110080191E+03  0.72075693021E+03  0.91693063647E+03  0.79822115811E+02 0.  0.
        254    2    1    2    0    0  0.27151366789E+03  0.49110080191E+03 -0.40740304682E+03  0.11305678343E+04  0.89292033009E+03 0.  0.
         23    2    4    4    0    0  0.74011297496E+02 -0.10772614718E+03  0.19614045297E+03  0.25268781867E+03  0.91090402712E+02 0.  0.
         23    2    4    4    0    0  0.19750237039E+03  0.59882694909E+03 -0.60354349980E+03  0.87788001563E+03  0.93849157827E+02 0.  0.
          3    1    3    3  502    0 -0.46209214269E+02 -0.53934498538E+02  0.13103512267E+03  0.14904504349E+03  0.00000000000E+00 0. -1.
         -4    1    3    3    0  502 -0.22530445362E+03 -0.43716630337E+03  0.58972180754E+03  0.76788559299E+03  0.00000000000E+00 0.  1.
         11    1    5    5    0    0  0.86779911645E+02 -0.59430474460E+02  0.15813286603E+03  0.18991771291E+03  0.00000000000E+00 0. -1.
        -11    1    5    5    0    0 -0.12768614149E+02 -0.48295672722E+02  0.38007586945E+02  0.62770105754E+02  0.00000000000E+00 0.  1.
          4    1    6    6  503    0  0.15174804047E+03  0.49160711100E+03 -0.53682698776E+03  0.74356454606E+03  0.00000000000E+00 0. -1.
         -4    1    6    6    0  503  0.45754329918E+02  0.10721983810E+03 -0.66716512042E+02  0.13431546957E+03  0.00000000000E+00 0.  1.
<mgrwt>
<rscale>  0 0.20233782E+04</rscale>
<asrwt>0</asrwt>
<pdfrwt beam="1">  1        1 0.13339574E+00 0.20233782E+04</pdfrwt>
<pdfrwt beam="2">  1       -2 0.18160403E+00 0.20233782E+04</pdfrwt>
<totfact> 0.27778859E+00</totfact>
</mgrwt>
</event>
<event>
12    4  0.4183215E-008  0.1872187E+04  0.7818608E-02  0.8668826E-01
         -4   -1    0    0    0  501 -0.00000000000E+00  0.00000000000E+00  0.19912461478E+04  0.19912461478E+04  0.00000000000E+00 0.  1.
          3   -1    0    0  501    0  0.00000000000E+00 -0.00000000000E+00 -0.44006172648E+03  0.44006172648E+03  0.00000000000E+00 0. -1.
        -24    2    1    2    0    0  0.59079648297E+03 -0.20189221570E+02  0.95934689420E+02  0.60401849053E+03  0.78656107943E+02 0.  0.
        254    2    1    2    0    0 -0.59079648297E+03  0.20189221570E+02  0.14552497319E+04  0.18272893838E+04  0.93369514344E+03 0.  0.
         23    2    4    4    0    0 -0.18720804510E+02  0.75951310572E+02  0.11756230940E+04  0.11816817416E+04  0.90349372320E+02 0.  0.
         23    2    4    4    0    0 -0.57207567846E+03 -0.55762089002E+02  0.27962663794E+03  0.64560764224E+03  0.90764412775E+02 0.  0.
          3    1    3    3  502    0  0.19544496532E+03  0.57452624392E+01 -0.33830684750E+01  0.19555865530E+03  0.00000000000E+00 0. -1.
         -4    1    3    3    0  502  0.39535151765E+03 -0.25934484009E+02  0.99317757895E+02  0.40845983523E+03  0.00000000000E+00 0.  1.
         11    1    5    5    0    0 -0.59478600420E+01  0.91005990911E+02  0.10901455577E+04  0.10939537487E+04  0.00000000000E+00 0.  1.
        -11    1    5    5    0    0 -0.12772944468E+02 -0.15054680338E+02  0.85477536302E+02  0.87727992812E+02  0.00000000000E+00 0. -1.
          2    1    6    6  503    0 -0.13433218540E+02 -0.13922045632E+02 -0.31654783984E+00  0.19348770438E+02  0.00000000000E+00 0. -1.
         -2    1    6    6    0  503 -0.55864245992E+03 -0.41840043370E+02  0.27994318578E+03  0.62625887181E+03  0.00000000000E+00 0.  1.
<mgrwt>
<rscale>  0 0.18721872E+04</rscale>
<asrwt>0</asrwt>
<pdfrwt beam="1">  1        3 0.67701805E-01 0.18721872E+04</pdfrwt>
<pdfrwt beam="2">  1       -4 0.30634556E+00 0.18721872E+04</pdfrwt>
<totfact> 0.12712604E-01</totfact>
</mgrwt>
</event>
<event>
12    4  0.4183215E-008  0.1737521E+04  0.7818608E-02  0.8740249E-01
         -2   -1    0    0    0  501 -0.00000000000E+00  0.00000000000E+00  0.20080175984E+03  0.20080175984E+03  0.00000000000E+00 0.  1.
          1   -1    0    0  501    0  0.00000000000E+00 -0.00000000000E+00 -0.37586568055E+04  0.37586568055E+04  0.00000000000E+00 0. -1.
        -24    2    1    2    0    0 -0.61625769308E+02 -0.56215695151E+03 -0.19043370632E+04  0.19881669854E+04  0.80561393212E+02 0.  0.
        254    2    1    2    0    0  0.61625769308E+02  0.56215695151E+03 -0.16535179824E+04  0.19712915799E+04  0.91216807724E+03 0.  0.
         23    2    4    4    0    0 -0.40408522743E+03  0.15592598844E+03 -0.58780878664E+03  0.73605030040E+03  0.93021987562E+02 0.  0.
         23    2    4    4    0    0  0.46571099674E+03  0.40623096307E+03 -0.10657091958E+04  0.12352412795E+04  0.90413498492E+02 0.  0.
          1    1    3    3  502    0 -0.50182766692E+02 -0.37507637976E+03 -0.11391770317E+04  0.12003853174E+04  0.00000000000E+00 0. -1.
         -2    1    3    3    0  502 -0.11443002615E+02 -0.18708057176E+03 -0.76516003155E+03  0.78778166805E+03  0.00000000000E+00 0.  1.
         11    1    5    5    0    0 -0.13016073261E+03  0.83875367905E+02 -0.26199184153E+03  0.30432978606E+03  0.00000000000E+00 0.  1.
        -11    1    5    5    0    0 -0.27392449482E+03  0.72050620536E+02 -0.32581694511E+03  0.43172051435E+03  0.00000000000E+00 0. -1.
          1    1    6    6  503    0  0.41874685984E+03  0.39055267615E+03 -0.94754394885E+03  0.11071223331E+04  0.00000000000E+00 0. -1.
         -1    1    6    6    0  503  0.46964136905E+02  0.15678286920E+02 -0.11816524691E+03  0.12811894635E+03  0.00000000000E+00 0.  1.
<mgrwt>
<rscale>  0 0.17375211E+04</rscale>
<asrwt>0</asrwt>
<pdfrwt beam="1">  1        1 0.57825487E+00 0.17375211E+04</pdfrwt>
<pdfrwt beam="2">  1       -2 0.30892579E-01 0.17375211E+04</pdfrwt>
<totfact> 0.12607334E+00</totfact>
</mgrwt>
</event>
<event>
12    4  0.4183215E-008  0.1492274E+04  0.7818608E-02  0.8889607E-01
         -2   -1    0    0    0  501 -0.00000000000E+00  0.00000000000E+00  0.70967786890E+03  0.70967786890E+03  0.00000000000E+00 0.  1.
          1   -1    0    0  501    0  0.00000000000E+00 -0.00000000000E+00 -0.78446916146E+03  0.78446916146E+03  0.00000000000E+00 0. -1.
        -24    2    1    2    0    0  0.28825074175E+03 -0.96254322342E+02  0.33166939814E+03  0.45883363905E+03  0.90389899748E+02 0.  0.
        254    2    1    2    0    0 -0.28825074175E+03  0.96254322342E+02 -0.40646069070E+03  0.10353133913E+04  0.90239134551E+03 0.  0.
         23    2    4    4    0    0  0.28031578724E+03  0.11782431940E+03  0.20440332526E+02  0.31810819558E+03  0.91189396765E+02 0.  0.
         23    2    4    4    0    0 -0.56856652899E+03 -0.21569997062E+02 -0.42690102323E+03  0.71720519573E+03  0.91682312830E+02 0.  0.
          3    1    3    3  502    0  0.84709524414E+02 -0.15473289072E+02  0.15562367800E+03  0.17785908848E+03  0.00000000000E+00 0. -1.
         -4    1    3    3    0  502  0.20354121733E+03 -0.80781033270E+02  0.17604572014E+03  0.28097455057E+03  0.00000000000E+00 0.  1.
         11    1    5    5    0    0  0.11973851295E+03  0.75105002987E+02  0.48824023344E+02  0.14953881841E+03  0.00000000000E+00 0. -1.
        -11    1    5    5    0    0  0.16057727430E+03  0.42719316417E+02 -0.28383690818E+02  0.16856937717E+03  0.00000000000E+00 0.  1.
          3    1    6    6  503    0 -0.25976082886E+02 -0.88086812297E+01 -0.48015554966E+02  0.55297769085E+02  0.00000000000E+00 0. -1.
         -3    1    6    6    0  503 -0.54259044610E+03 -0.12761315832E+02 -0.37888546826E+03  0.66190742664E+03  0.00000000000E+00 0.  1.
<mgrwt>
<rscale>  0 0.14922740E+04</rscale>
<asrwt>0</asrwt>
<pdfrwt beam="1">  1        1 0.12068756E+00 0.14922740E+04</pdfrwt>
<pdfrwt beam="2">  1       -2 0.10918121E+00 0.14922740E+04</pdfrwt>
<totfact> 0.12941226E+01</totfact>
</mgrwt>
</event>
<event>
12    4  0.4183215E-008  0.1334951E+04  0.7818608E-02  0.9002299E-01
         -2   -1    0    0    0  501 -0.00000000000E+00  0.00000000000E+00  0.17121928364E+03  0.17121928364E+03  0.00000000000E+00 0.  1.
          1   -1    0    0  501    0  0.00000000000E+00 -0.00000000000E+00 -0.26020644013E+04  0.26020644013E+04  0.00000000000E+00 0. -1.
        -24    2    1    2    0    0 -0.24999104749E+03 -0.24700349191E+03 -0.91847982689E+03  0.98668855335E+03  0.80267428359E+02 0.  0.
        254    2    1    2    0    0  0.24999104749E+03  0.24700349191E+03 -0.15123652908E+04  0.17865951316E+04  0.88383660405E+03 0.  0.
         23    2    4    4    0    0 -0.15952180019E+03  0.81999141352E+02  0.50492574106E+01  0.20353202189E+03  0.96066253267E+02 0.  0.
         23    2    4    4    0    0  0.40951284768E+03  0.16500435056E+03 -0.15174145482E+04  0.15830631097E+04  0.92815355128E+02 0.  0.
          3    1    3    3  502    0 -0.11647313525E+03 -0.10260908070E+03 -0.51409078708E+03  0.53701392164E+03  0.00000000000E+00 0. -1.
         -4    1    3    3    0  502 -0.13351791225E+03 -0.14439441121E+03 -0.40438903981E+03  0.44967463171E+03  0.00000000000E+00 0.  1.
         11    1    5    5    0    0 -0.16358796012E+03  0.87393182679E+02 -0.11330225840E+02  0.18581432424E+03  0.00000000000E+00 0.  1.
        -11    1    5    5    0    0  0.40661599339E+01 -0.53940413264E+01  0.16379483251E+02  0.17717697649E+02  0.00000000000E+00 0. -1.
          4    1    6    6  503    0  0.11337662469E+03  0.76022634863E+02 -0.35859807935E+03  0.38370077215E+03  0.00000000000E+00 0. -1.
         -4    1    6    6    0  503  0.29613622300E+03  0.88981715698E+02 -0.11588164688E+04  0.11993623376E+04  0.00000000000E+00 0.  1.
<mgrwt>
<rscale>  0 0.13349511E+04</rscale>
<asrwt>0</asrwt>
<pdfrwt beam="1">  1        1 0.40031760E+00 0.13349511E+04</pdfrwt>
<pdfrwt beam="2">  1       -2 0.26341428E-01 0.13349511E+04</pdfrwt>
<totfact> 0.12971022E+01</totfact>
</mgrwt>
</event>
<event>
12    4  0.4183215E-008  0.1506233E+04  0.7818608E-02  0.8880319E-01
          1   -1    0    0  501    0  0.00000000000E+00  0.00000000000E+00  0.12572845307E+04  0.12572845307E+04  0.00000000000E+00 0. -1.
         -2   -1    0    0    0  501 -0.00000000000E+00 -0.00000000000E+00 -0.45111863095E+03  0.45111863095E+03  0.00000000000E+00 0.  1.
        -24    2    1    2    0    0  0.10844961968E+03 -0.45227277162E+02  0.76751759816E+03  0.78111717603E+03  0.85170139148E+02 0.  0.
        254    2    1    2    0    0 -0.10844961968E+03  0.45227277162E+02  0.38648301628E+02  0.92728598566E+03  0.91899879291E+03 0.  0.
         23    2    4    4    0    0 -0.36916321256E+03 -0.27420496287E+03  0.14927299597E+03  0.49087771374E+03  0.84903847716E+02 0.  0.
         23    2    4    4    0    0  0.26071359288E+03  0.31943224003E+03 -0.11062469434E+03  0.43640827192E+03  0.90585999576E+02 0.  0.
          3    1    3    3  502    0  0.98822354927E+02 -0.26656873747E+02  0.73727218769E+03  0.74434315036E+03  0.00000000000E+00 0. -1.
         -4    1    3    3    0  502  0.96272647479E+01 -0.18570403415E+02  0.30245410470E+02  0.36774025671E+02  0.00000000000E+00 0.  1.
         11    1    5    5    0    0 -0.19446199274E+03 -0.15974289875E+03  0.38904069943E+02  0.25465032295E+03  0.00000000000E+00 0. -1.
        -11    1    5    5    0    0 -0.17470121982E+03 -0.11446206411E+03  0.11036892602E+03  0.23622739079E+03  0.00000000000E+00 0.  1.
          1    1    6    6  503    0  0.22867025872E+03  0.26505609933E+03 -0.59283859378E+02  0.35504844599E+03  0.00000000000E+00 0. -1.
         -1    1    6    6    0  503  0.32043334166E+02  0.54376140696E+02 -0.51340834960E+02  0.81359825932E+02  0.00000000000E+00 0.  1.
<mgrwt>
<rscale>  0 0.15062330E+04</rscale>
<asrwt>0</asrwt>
<pdfrwt beam="1">  1        1 0.19342839E+00 0.15062330E+04</pdfrwt>
<pdfrwt beam="2">  1       -2 0.69402867E-01 0.15062330E+04</pdfrwt>
<totfact> 0.15594552E+01</totfact>
</mgrwt>
</event>
<event>
12    4  0.4183215E-008  0.2806900E+04  0.7818608E-02  0.8301129E-01
          1   -1    0    0  501    0  0.00000000000E+00  0.00000000000E+00  0.22894178864E+04  0.22894178864E+04  0.00000000000E+00 0. -1.
         -2   -1    0    0    0  501 -0.00000000000E+00 -0.00000000000E+00 -0.86033749235E+03  0.86033749235E+03  0.00000000000E+00 0.  1.
        -24    2    1    2    0    0  0.87625460667E+03 -0.89880853028E+03  0.56648202229E+03  0.13796446423E+04  0.82695512335E+02 0.  0.
        254    2    1    2    0    0 -0.87625460667E+03  0.89880853028E+03  0.86259837179E+03  0.17701107364E+04  0.90196294737E+03 0.  0.
         23    2    4    4    0    0  0.16801130709E+03  0.18931632895E+03  0.74400418510E+02  0.27912533009E+03  0.91143051887E+02 0.  0.
         23    2    4    4    0    0 -0.10442659138E+04  0.70949220133E+03  0.78819795328E+03  0.14909854063E+04  0.88943723788E+02 0.  0.
          3    1    3    3  502    0  0.28666744892E+03 -0.26184130293E+03  0.14149005583E+03  0.41322939161E+03  0.00000000000E+00 0. -1.
         -4    1    3    3    0  502  0.58958715775E+03 -0.63696722735E+03  0.42499196646E+03  0.96641525073E+03  0.00000000000E+00 0.  1.
         11    1    5    5    0    0  0.11181061826E+03  0.17966527891E+03  0.52414383688E+02  0.21801030805E+03  0.00000000000E+00 0. -1.
        -11    1    5    5    0    0  0.56200688826E+02  0.96510500463E+01  0.21986034823E+02  0.61115022038E+02  0.00000000000E+00 0.  1.
          3    1    6    6  503    0 -0.67025182417E+03  0.42698537248E+03  0.53782077011E+03  0.95958595075E+03  0.00000000000E+00 0. -1.
         -3    1    6    6    0  503 -0.37401408959E+03  0.28250682885E+03  0.25037718317E+03  0.53139945560E+03  0.00000000000E+00 0.  1.
<mgrwt>
<rscale>  0 0.28069001E+04</rscale>
<asrwt>0</asrwt>
<pdfrwt beam="1">  1        1 0.35221813E+00 0.28069001E+04</pdfrwt>
<pdfrwt beam="2">  1       -2 0.13235962E+00 0.28069001E+04</pdfrwt>
<totfact> 0.59730410E-01</totfact>
</mgrwt>
</event>
<event>
12    4  0.4183215E-008  0.1214645E+04  0.7818608E-02  0.9100133E-01
          1   -1    0    0  501    0  0.00000000000E+00  0.00000000000E+00  0.13165210086E+04  0.13165210086E+04  0.00000000000E+00 0. -1.
         -2   -1    0    0    0  501 -0.00000000000E+00 -0.00000000000E+00 -0.28016330527E+03  0.28016330527E+03  0.00000000000E+00 0.  1.
        -24    2    1    2    0    0 -0.47356437226E+02  0.13253149956E+03  0.55305101375E+03  0.57633923603E+03  0.80586975667E+02 0.  0.
        254    2    1    2    0    0  0.47356437226E+02 -0.13253149956E+03  0.48330668956E+03  0.10203450778E+04  0.88753112123E+03 0.  0.
         23    2    4    4    0    0  0.32175240503E+03  0.25106208807E+03  0.22579630916E+03  0.47523603190E+03  0.91151141428E+02 0.  0.
         23    2    4    4    0    0 -0.27439596780E+03 -0.38359358763E+03  0.25751038041E+03  0.54510904593E+03  0.91624714579E+02 0.  0.
          3    1    3    3  502    0 -0.22900652276E+02  0.92278455786E+02  0.48066937127E+03  0.48998244638E+03  0.00000000000E+00 0. -1.
         -4    1    3    3    0  502 -0.24455784950E+02  0.40253043772E+02  0.72381642482E+02  0.86356789651E+02  0.00000000000E+00 0.  1.
         11    1    5    5    0    0  0.15040755377E+03  0.61277938728E+02  0.91905561507E+02  0.18661203134E+03  0.00000000000E+00 0.  1.
        -11    1    5    5    0    0  0.17134485126E+03  0.18978414934E+03  0.13389074765E+03  0.28862400056E+03  0.00000000000E+00 0. -1.
          1    1    6    6  503    0 -0.19681424787E+03 -0.33190386913E+03  0.22318514261E+03  0.44576634506E+03  0.00000000000E+00 0. -1.
         -1    1    6    6    0  503 -0.77581719928E+02 -0.51689718495E+02  0.34325237796E+02  0.99342700864E+02  0.00000000000E+00 0.  1.
<mgrwt>
<rscale>  0 0.12146454E+04</rscale>
<asrwt>0</asrwt>
<pdfrwt beam="1">  1        1 0.20254169E+00 0.12146454E+04</pdfrwt>
<pdfrwt beam="2">  1       -2 0.43102047E-01 0.12146454E+04</pdfrwt>
<totfact> 0.38956674E+01</totfact>
</mgrwt>
</event>
<event>
12    4  0.4183215E-008  0.1062494E+04  0.7818608E-02  0.9242539E-01
         -2   -1    0    0    0  501 -0.00000000000E+00  0.00000000000E+00  0.10947863265E+03  0.10947863265E+03  0.00000000000E+00 0.  1.
          1   -1    0    0  501    0  0.00000000000E+00 -0.00000000000E+00 -0.25778830768E+04  0.25778830768E+04  0.00000000000E+00 0. -1.
        -24    2    1    2    0    0  0.77583847656E+02 -0.11662794209E+03 -0.33178527557E+03  0.36905069762E+03  0.80595397110E+02 0.  0.
        254    2    1    2    0    0 -0.77583847656E+02  0.11662794209E+03 -0.21366191686E+04  0.23183110119E+04  0.88870869565E+03 0.  0.
         23    2    4    4    0    0  0.11429742219E+03  0.16559775424E+03 -0.20826867132E+04  0.20942234509E+04  0.87757620602E+02 0.  0.
         23    2    4    4    0    0 -0.19188126984E+03 -0.48969812151E+02 -0.53932455376E+02  0.22408756093E+03  0.89944766402E+02 0.  0.
          3    1    3    3  502    0  0.46634473015E+02 -0.93318526066E+02 -0.30391905119E+03  0.32132524186E+03  0.00000000000E+00 0. -1.
         -4    1    3    3    0  502  0.30949374641E+02 -0.23309416026E+02 -0.27866224376E+02  0.47725455756E+02  0.00000000000E+00 0.  1.
         11    1    5    5    0    0  0.18571305291E+02 -0.74984431352E+01 -0.12848879866E+03  0.13004034532E+03  0.00000000000E+00 0.  1.
        -11    1    5    5    0    0  0.95726116898E+02  0.17309619738E+03 -0.19541979146E+04  0.19641831056E+04  0.00000000000E+00 0. -1.
          2    1    6    6  503    0 -0.10212922090E+03 -0.62177206805E+02 -0.20587947418E+01  0.11958520579E+03  0.00000000000E+00 0. -1.
         -2    1    6    6    0  503 -0.89752048947E+02  0.13207394655E+02 -0.51873660634E+02  0.10450235515E+03  0.00000000000E+00 0.  1.
<mgrwt>
<rscale>  0 0.10624935E+04</rscale>
<asrwt>0</asrwt>
<pdfrwt beam="1">  1        1 0.39659739E+00 0.10624935E+04</pdfrwt>
<pdfrwt beam="2">  1       -2 0.16842867E-01 0.10624935E+04</pdfrwt>
<totfact> 0.30557349E+01</totfact>
</mgrwt>
</event>
<event>
12    4  0.4183215E-008  0.2002372E+04  0.7818608E-02  0.8605512E-01
         -2   -1    0    0    0  501 -0.00000000000E+00  0.00000000000E+00  0.47715622586E+03  0.47715622586E+03  0.00000000000E+00 0.  1.
          1   -1    0    0  501    0  0.00000000000E+00 -0.00000000000E+00 -0.21007236790E+04  0.21007236790E+04  0.00000000000E+00 0. -1.
        -24    2    1    2    0    0 -0.49987580045E+03 -0.56539819830E+03 -0.96560056312E+03  0.12284697582E+04  0.84867901855E+02 0.  0.
        254    2    1    2    0    0  0.49987580045E+03  0.56539819830E+03 -0.65796688999E+03  0.13494101466E+04  0.90467473549E+03 0.  0.
         23    2    4    4    0    0  0.39685965890E+03  0.68739667353E+03 -0.79046518131E+03  0.11239588898E+04  0.91851006360E+02 0.  0.
         23    2    4    4    0    0  0.10301614155E+03 -0.12199847524E+03  0.13249829132E+03  0.22545125688E+03  0.88184571488E+02 0.  0.
          3    1    3    3  502    0 -0.50330212839E+03 -0.56272765175E+03 -0.96164822819E+03  0.12225967272E+04  0.00000000000E+00 0. -1.
         -4    1    3    3    0  502  0.34263279395E+01 -0.26705465437E+01 -0.39523349316E+01  0.58730310234E+01  0.00000000000E+00 0.  1.
         11    1    5    5    0    0  0.27534963140E+03  0.54268676593E+03 -0.57283782531E+03  0.83574488902E+03  0.00000000000E+00 0. -1.
        -11    1    5    5    0    0  0.12151002750E+03  0.14470990760E+03 -0.21762735600E+03  0.28821400074E+03  0.00000000000E+00 0.  1.
          3    1    6    6  503    0  0.64951204304E+02 -0.20525780299E+02  0.24334535212E+02  0.72333506768E+02  0.00000000000E+00 0. -1.
         -3    1    6    6    0  503  0.38064937243E+02 -0.10147269494E+03  0.10816375611E+03  0.15311775011E+03  0.00000000000E+00 0.  1.
<mgrwt>
<rscale>  0 0.20023720E+04</rscale>
<asrwt>0</asrwt>
<pdfrwt beam="1">  1        1 0.32318826E+00 0.20023720E+04</pdfrwt>
<pdfrwt beam="2">  1       -2 0.73408649E-01 0.20023720E+04</pdfrwt>
<totfact> 0.34722304E+00</totfact>
</mgrwt>
</event>
<event>
12    4  0.4183215E-008  0.2404068E+04  0.7818608E-02  0.8437982E-01
          3   -1    0    0  501    0  0.00000000000E+00  0.00000000000E+00  0.11714187706E+04  0.11714187706E+04  0.00000000000E+00 0. -1.
         -4   -1    0    0    0  501 -0.00000000000E+00 -0.00000000000E+00 -0.12334490279E+04  0.12334490279E+04  0.00000000000E+00 0.  1.
        -24    2    1    2    0    0 -0.88996352380E+03  0.50892051875E+03 -0.14043253536E+03  0.10379824378E+04  0.81554129544E+02 0.  0.
        254    2    1    2    0    0  0.88996352380E+03 -0.50892051875E+03  0.78402278089E+02  0.13668853607E+04  0.90066281375E+03 0.  0.
         23    2    4    4    0    0  0.75167904415E+03 -0.84087922516E+02  0.34763373668E+03  0.83732387517E+03  0.90387459952E+02 0.  0.
         23    2    4    4    0    0  0.13828447965E+03 -0.42483259623E+03 -0.26923145859E+03  0.52956148557E+03  0.91347997048E+02 0.  0.
          1    1    3    3  502    0 -0.22510659460E+03  0.89373961568E+02 -0.38396610362E+02  0.24522435365E+03  0.00000000000E+00 0. -1.
         -2    1    3    3    0  502 -0.66485692921E+03  0.41954655718E+03 -0.10203592500E+03  0.79275808413E+03  0.00000000000E+00 0.  1.
         11    1    5    5    0    0  0.40027985307E+03 -0.35445186652E+02  0.13596774099E+03  0.42422582267E+03  0.00000000000E+00 0.  1.
        -11    1    5    5    0    0  0.35139919108E+03 -0.48642735864E+02  0.21166599569E+03  0.41309805250E+03  0.00000000000E+00 0. -1.
          3    1    6    6  503    0  0.99839263907E+02 -0.28082407117E+03 -0.22699094219E+03  0.37463972747E+03  0.00000000000E+00 0. -1.
         -3    1    6    6    0  503  0.38445215745E+02 -0.14400852507E+03 -0.42240516406E+02  0.15492175810E+03  0.00000000000E+00 0.  1.
<mgrwt>
<rscale>  0 0.24040677E+04</rscale>
<asrwt>0</asrwt>
<pdfrwt beam="1">  1        3 0.18021827E+00 0.24040677E+04</pdfrwt>
<pdfrwt beam="2">  1       -4 0.18976139E+00 0.24040677E+04</pdfrwt>
<totfact> 0.62541437E-02</totfact>
</mgrwt>
</event>
<event>
12    4  0.4183215E-008  0.1449876E+04  0.7818608E-02  0.8918487E-01
          1   -1    0    0  501    0  0.00000000000E+00  0.00000000000E+00  0.13847718702E+04  0.13847718702E+04  0.00000000000E+00 0. -1.
         -2   -1    0    0    0  501 -0.00000000000E+00 -0.00000000000E+00 -0.37951012057E+03  0.37951012057E+03  0.00000000000E+00 0.  1.
        -24    2    1    2    0    0  0.54288813548E+02 -0.35300615647E+03  0.61475583413E+03  0.71538652743E+03  0.79325445163E+02 0.  0.
        254    2    1    2    0    0 -0.54288813548E+02  0.35300615647E+03  0.39050591545E+03  0.10488954633E+04  0.90560819406E+03 0.  0.
         23    2    4    4    0    0 -0.25878393696E+03  0.38155090916E+03 -0.12497575803E+03  0.48625851624E+03  0.90984516322E+02 0.  0.
         23    2    4    4    0    0  0.20449512342E+03 -0.28544752692E+02  0.51548167348E+03  0.56263694706E+03  0.90586533723E+02 0.  0.
          1    1    3    3  502    0  0.56263476404E+01 -0.18697840867E+03  0.38230200134E+03  0.42561414606E+03  0.00000000000E+00 0. -1.
         -2    1    3    3    0  502  0.48662465908E+02 -0.16602774780E+03  0.23245383279E+03  0.28977238137E+03  0.00000000000E+00 0.  1.
         11    1    5    5    0    0 -0.24782941272E+03  0.30925892069E+03 -0.11354187288E+03  0.41225265885E+03  0.00000000000E+00 0. -1.
        -11    1    5    5    0    0 -0.10954524249E+02  0.72291988465E+02 -0.11433885152E+02  0.74005857386E+02  0.00000000000E+00 0.  1.
          4    1    6    6  503    0 -0.45784986529E+01  0.49811666225E+01  0.59569449301E+02  0.59952430817E+02  0.00000000000E+00 0.  1.
         -4    1    6    6    0  503  0.20907362207E+03 -0.33525919314E+02  0.45591222418E+03  0.50268451624E+03  0.00000000000E+00 0. -1.
<mgrwt>
<rscale>  0 0.14498758E+04</rscale>
<asrwt>0</asrwt>
<pdfrwt beam="1">  1        1 0.21304182E+00 0.14498758E+04</pdfrwt>
<pdfrwt beam="2">  1       -2 0.58386173E-01 0.14498758E+04</pdfrwt>
<totfact> 0.18407892E+01</totfact>
</mgrwt>
</event>
<event>
12    4  0.4183215E-008  0.1108141E+04  0.7818608E-02  0.9197294E-01
          1   -1    0    0  501    0  0.00000000000E+00  0.00000000000E+00  0.11103698874E+04  0.11103698874E+04  0.00000000000E+00 0. -1.
         -2   -1    0    0    0  501 -0.00000000000E+00 -0.00000000000E+00 -0.27647890551E+03  0.27647890551E+03  0.00000000000E+00 0.  1.
        -24    2    1    2    0    0 -0.10802291716E+03  0.13000407535E+02 -0.28198894821E+02  0.13414063025E+03  0.73215912124E+02 0.  0.
        254    2    1    2    0    0  0.10802291716E+03 -0.13000407535E+02  0.86208987673E+03  0.12527081627E+04  0.90235293763E+03 0.  0.
         23    2    4    4    0    0  0.35571147893E+03  0.24233505135E+03  0.74652545265E+03  0.86710359769E+03  0.96495928962E+02 0.  0.
         23    2    4    4    0    0 -0.24768856178E+03 -0.25533545888E+03  0.11556442408E+03  0.38560456500E+03  0.93754595800E+02 0.  0.
          1    1    3    3  502    0  0.35409226581E+01  0.17488596302E+01  0.13837688849E+02  0.14390214590E+02  0.00000000000E+00 0. -1.
         -2    1    3    3    0  502 -0.11156383981E+03  0.11251547905E+02 -0.42036583670E+02  0.11975041566E+03  0.00000000000E+00 0.  1.
         11    1    5    5    0    0  0.10098072766E+03  0.10735713150E+03  0.31977097763E+03  0.35210245551E+03  0.00000000000E+00 0. -1.
        -11    1    5    5    0    0  0.25473075127E+03  0.13497791985E+03  0.42675447503E+03  0.51500114218E+03  0.00000000000E+00 0.  1.
          1    1    6    6  503    0 -0.97534398937E+02 -0.11331579106E+03  0.14541704654E+01  0.14951769826E+03  0.00000000000E+00 0. -1.
         -1    1    6    6    0  503 -0.15015416284E+03 -0.14201966782E+03  0.11411025362E+03  0.23608686674E+03  0.00000000000E+00 0.  1.
<mgrwt>
<rscale>  0 0.11081405E+04</rscale>
<asrwt>0</asrwt>
<pdfrwt beam="1">  1        1 0.17082613E+00 0.11081405E+04</pdfrwt>
<pdfrwt beam="2">  1       -2 0.42535217E-01 0.11081405E+04</pdfrwt>
<totfact> 0.56962557E+01</totfact>
</mgrwt>
</event>
<event>
12    4  0.4183215E-008  0.2354981E+04  0.7818608E-02  0.8456553E-01
          1   -1    0    0  501    0  0.00000000000E+00  0.00000000000E+00  0.25880682250E+04  0.25880682250E+04  0.00000000000E+00 0. -1.
         -2   -1    0    0    0  501 -0.00000000000E+00 -0.00000000000E+00 -0.53572141074E+03  0.53572141074E+03  0.00000000000E+00 0.  1.
        -24    2    1    2    0    0  0.76685381479E+03  0.74198904774E+02  0.25477221638E+02  0.77478870105E+03  0.77962758554E+02 0.  0.
        254    2    1    2    0    0 -0.76685381479E+03 -0.74198904774E+02  0.20268695926E+04  0.23490009347E+04  0.90334644235E+03 0.  0.
         23    2    4    4    0    0 -0.63768410024E+03 -0.15860402909E+03  0.20618991155E+04  0.21658514352E+04  0.87682537197E+02 0.  0.
         23    2    4    4    0    0 -0.12916971455E+03  0.84405124312E+02 -0.35029522896E+02  0.18314949942E+03  0.92236822883E+02 0.  0.
          3    1    3    3  502    0  0.15970137224E+02 -0.58141678328E+00 -0.10851107629E+02  0.19316569705E+02  0.00000000000E+00 0. -1.
         -4    1    3    3    0  502  0.75088367757E+03  0.74780321557E+02  0.36328329267E+02  0.75547213135E+03  0.00000000000E+00 0.  1.
         11    1    5    5    0    0 -0.63928850355E+03 -0.15435835126E+03  0.20367477543E+04  0.21402938364E+04  0.00000000000E+00 0.  1.
        -11    1    5    5    0    0  0.16044033053E+01 -0.42456778232E+01  0.25151361172E+02  0.25557598849E+02  0.00000000000E+00 0. -1.
          2    1    6    6  503    0 -0.13233189029E+01 -0.15411297897E+02 -0.11455018434E+02  0.19247771900E+02  0.00000000000E+00 0. -1.
         -2    1    6    6    0  503 -0.12784639565E+03  0.99816422209E+02 -0.23574504462E+02  0.16390172752E+03  0.00000000000E+00 0.  1.
<mgrwt>
<rscale>  0 0.23549807E+04</rscale>
<asrwt>0</asrwt>
<pdfrwt beam="1">  1        1 0.39816434E+00 0.23549807E+04</pdfrwt>
<pdfrwt beam="2">  1       -2 0.82418680E-01 0.23549807E+04</pdfrwt>
<totfact> 0.12019347E+00</totfact>
</mgrwt>
</event>
<event>
12    4  0.4183215E-008  0.1765084E+04  0.7818608E-02  0.8725091E-01
          1   -1    0    0  501    0  0.00000000000E+00  0.00000000000E+00  0.81861515639E+03  0.81861515639E+03  0.00000000000E+00 0. -1.
         -4   -1    0    0    0  501 -0.00000000000E+00 -0.00000000000E+00 -0.95146065609E+03  0.95146065609E+03  0.00000000000E+00 0.  1.
        -24    2    1    2    0    0 -0.18879294438E+03 -0.15547586617E+02  0.57397613633E+03  0.60864425180E+03  0.71517248822E+02 0.  0.
        254    2    1    2    0    0  0.18879294438E+03  0.15547586617E+02 -0.70682163603E+03  0.11614315607E+04  0.90191016275E+03 0.  0.
         23    2    4    4    0    0 -0.30063750262E+03 -0.74444414918E+02 -0.53948876999E+03  0.62897658648E+03  0.92943716815E+02 0.  0.
         23    2    4    4    0    0  0.48943044701E+03  0.89992001535E+02 -0.16733286604E+03  0.53245497420E+03  0.88697737836E+02 0.  0.
          1    1    3    3  502    0 -0.17715134332E+03  0.40909611806E+01  0.47256071073E+03  0.50469095467E+03  0.00000000000E+00 0. -1.
         -2    1    3    3    0  502 -0.11641601068E+02 -0.19638547798E+02  0.10141542560E+03  0.10395329713E+03  0.00000000000E+00 0.  1.
         11    1    5    5    0    0 -0.21927728893E+03 -0.58230669404E+02 -0.46537430028E+03  0.51773215049E+03  0.00000000000E+00 0. -1.
        -11    1    5    5    0    0 -0.81360213693E+02 -0.16213745513E+02 -0.74114469713E+02  0.11124443598E+03  0.00000000000E+00 0.  1.
          2    1    6    6  503    0  0.34051052511E+03  0.68835938247E+02 -0.73243196793E+02  0.35503573057E+03  0.00000000000E+00 0. -1.
         -2    1    6    6    0  503  0.14891992189E+03  0.21156063288E+02 -0.94089669246E+02  0.17741924363E+03  0.00000000000E+00 0.  1.
<mgrwt>
<rscale>  0 0.17650837E+04</rscale>
<asrwt>0</asrwt>
<pdfrwt beam="1">  1        1 0.12594079E+00 0.17650837E+04</pdfrwt>
<pdfrwt beam="2">  1       -4 0.14637856E+00 0.17650837E+04</pdfrwt>
<totfact> 0.30961983E+00</totfact>
</mgrwt>
</event>
<event>
12    4  0.4183215E-008  0.1874758E+04  0.7818608E-02  0.8667524E-01
         -2   -1    0    0    0  501 -0.00000000000E+00  0.00000000000E+00  0.39955715999E+03  0.39955715999E+03  0.00000000000E+00 0.  1.
          1   -1    0    0  501    0  0.00000000000E+00 -0.00000000000E+00 -0.21991336735E+04  0.21991336735E+04  0.00000000000E+00 0. -1.
        -24    2    1    2    0    0  0.51185693595E+03 -0.34147393876E+03 -0.18194293688E+03  0.64639373846E+03  0.78228250054E+02 0.  0.
        254    2    1    2    0    0 -0.51185693595E+03  0.34147393876E+03 -0.16176335766E+04  0.19522970950E+04  0.90339558623E+03 0.  0.
         23    2    4    4    0    0  0.37960166811E+02 -0.10861883031E+03 -0.98620570537E+03  0.99738990402E+03  0.94582782615E+02 0.  0.
         23    2    4    4    0    0 -0.54981710276E+03  0.45009276907E+03 -0.63142787124E+03  0.95490719098E+03  0.90907862964E+02 0.  0.
          1    1    3    3  502    0  0.75129413750E+02 -0.34168354703E+02 -0.49367681432E+02  0.96172102210E+02  0.00000000000E+00 0. -1.
         -2    1    3    3    0  502  0.43672752220E+03 -0.30730558406E+03 -0.13257525545E+03  0.55022163625E+03  0.00000000000E+00 0.  1.
         11    1    5    5    0    0  0.45257321465E+02 -0.25607124429E+02 -0.19521987311E+03  0.20202660425E+03  0.00000000000E+00 0.  1.
        -11    1    5    5    0    0 -0.72971546535E+01 -0.83011705880E+02 -0.79098583226E+03  0.79536329977E+03  0.00000000000E+00 0. -1.
          1    1    6    6  503    0 -0.14460297279E+03  0.14699037876E+03 -0.13791514629E+03  0.24806607742E+03  0.00000000000E+00 0. -1.
         -1    1    6    6    0  503 -0.40521412997E+03  0.30310239031E+03 -0.49351272494E+03  0.70684111356E+03  0.00000000000E+00 0.  1.
<mgrwt>
<rscale>  0 0.18747582E+04</rscale>
<asrwt>0</asrwt>
<pdfrwt beam="1">  1        1 0.33832825E+00 0.18747582E+04</pdfrwt>
<pdfrwt beam="2">  1       -2 0.61470334E-01 0.18747582E+04</pdfrwt>
<totfact> 0.44205970E+00</totfact>
</mgrwt>
</event>
<event>
12    4  0.4183215E-008  0.1586144E+04  0.7818608E-02  0.8829106E-01
         -2   -1    0    0    0  501 -0.00000000000E+00  0.00000000000E+00  0.66615294871E+03  0.66615294871E+03  0.00000000000E+00 0.  1.
          1   -1    0    0  501    0  0.00000000000E+00 -0.00000000000E+00 -0.94417180736E+03  0.94417180736E+03  0.00000000000E+00 0. -1.
        -24    2    1    2    0    0  0.21950995709E+03  0.12913287996E+03 -0.56250285767E+03  0.62317376745E+03  0.84119900184E+02 0.  0.
        254    2    1    2    0    0 -0.21950995709E+03 -0.12913287996E+03  0.28448399901E+03  0.98715098862E+03  0.91031643217E+03 0.  0.
         23    2    4    4    0    0  0.30277586862E+03  0.13620260120E+03  0.43584661458E+02  0.34709499510E+03  0.91383465248E+02 0.  0.
         23    2    4    4    0    0 -0.52228582571E+03 -0.26533548116E+03  0.24089933756E+03  0.64005599352E+03  0.91944454427E+02 0.  0.
          1    1    3    3  502    0  0.60392622157E+02  0.43485939555E+02 -0.26350479590E+03  0.27381211298E+03  0.00000000000E+00 0. -1.
         -4    1    3    3    0  502  0.15911733494E+03  0.85646940406E+02 -0.29899806177E+03  0.34936165448E+03  0.00000000000E+00 0.  1.
         11    1    5    5    0    0  0.22052137134E+03  0.52642482625E+02  0.36417136191E+02  0.22962385330E+03  0.00000000000E+00 0.  1.
        -11    1    5    5    0    0  0.82254497274E+02  0.83560118575E+02  0.71675252669E+01  0.11747114180E+03  0.00000000000E+00 0. -1.
          1    1    6    6  503    0 -0.40346813032E+03 -0.23824818478E+03  0.21469013465E+03  0.51540332134E+03  0.00000000000E+00 0. -1.
         -1    1    6    6    0  503 -0.11881769539E+03 -0.27087296382E+02  0.26209202910E+02  0.12465267218E+03  0.00000000000E+00 0.  1.
<mgrwt>
<rscale>  0 0.15861435E+04</rscale>
<asrwt>0</asrwt>
<pdfrwt beam="1">  1        1 0.14525720E+00 0.15861435E+04</pdfrwt>
<pdfrwt beam="2">  1       -2 0.10248507E+00 0.15861435E+04</pdfrwt>
<totfact> 0.10989951E+01</totfact>
</mgrwt>
</event>
<event>
12    4  0.4183215E-008  0.2074100E+04  0.7818608E-02  0.8572739E-01
         -2   -1    0    0    0  501 -0.00000000000E+00  0.00000000000E+00  0.16003985673E+04  0.16003985673E+04  0.00000000000E+00 0.  1.
          1   -1    0    0  501    0  0.00000000000E+00 -0.00000000000E+00 -0.67200329595E+03  0.67200329595E+03  0.00000000000E+00 0. -1.
        -24    2    1    2    0    0 -0.11726820795E+03 -0.70120784508E+03 -0.11185743924E+03  0.72414088884E+03  0.80147773398E+02 0.  0.
        254    2    1    2    0    0  0.11726820795E+03  0.70120784508E+03  0.10402527106E+04  0.15482609744E+04  0.89974555762E+03 0.  0.
         23    2    4    4    0    0 -0.25707390861E+03  0.70810841280E+03  0.62775439486E+03  0.98502645915E+03  0.93257847791E+02 0.  0.
         23    2    4    4    0    0  0.37434211656E+03 -0.69005677264E+01  0.41249831576E+03  0.56323451530E+03  0.83057935563E+02 0.  0.
          1    1    3    3  502    0 -0.99096589250E+02 -0.64899418466E+03 -0.82896026154E+02  0.66172905096E+03  0.00000000000E+00 0. -1.
         -2    1    3    3    0  502 -0.18171618698E+02 -0.52213660415E+02 -0.28961413083E+02  0.62411837882E+02  0.00000000000E+00 0.  1.
         11    1    5    5    0    0 -0.21980537918E+03  0.61693594458E+03  0.58307923804E+03  0.87687271725E+03  0.00000000000E+00 0.  1.
        -11    1    5    5    0    0 -0.37268529438E+02  0.91172468225E+02  0.44675156827E+02  0.10815374190E+03  0.00000000000E+00 0. -1.
          4    1    6    6  503    0  0.14181089355E+03  0.37641501696E+02  0.16110374601E+03  0.21790279750E+03  0.00000000000E+00 0. -1.
         -4    1    6    6    0  503  0.23253122301E+03 -0.44542069422E+02  0.25139456975E+03  0.34533171780E+03  0.00000000000E+00 0.  1.
<mgrwt>
<rscale>  0 0.20741004E+04</rscale>
<asrwt>0</asrwt>
<pdfrwt beam="1">  1        1 0.10338512E+00 0.20741004E+04</pdfrwt>
<pdfrwt beam="2">  1       -2 0.24621516E+00 0.20741004E+04</pdfrwt>
<totfact> 0.15862040E+00</totfact>
</mgrwt>
</event>
<event>
12    4  0.4183215E-008  0.2123773E+04  0.7818608E-02  0.8550843E-01
         -2   -1    0    0    0  501 -0.00000000000E+00  0.00000000000E+00  0.53275323826E+03  0.53275323826E+03  0.00000000000E+00 0.  1.
          1   -1    0    0  501    0  0.00000000000E+00 -0.00000000000E+00 -0.21165569570E+04  0.21165569570E+04  0.00000000000E+00 0. -1.
        -24    2    1    2    0    0  0.23366827640E+03  0.12000323967E+03 -0.16843358062E+04  0.17065880874E+04  0.80337731276E+02 0.  0.
        254    2    1    2    0    0 -0.23366827640E+03 -0.12000323967E+03  0.10053208750E+03  0.94272210783E+03  0.89978699204E+03 0.  0.
         23    2    4    4    0    0 -0.31374840237E+01 -0.24986309566E+03 -0.33329017925E+03  0.42659607505E+03  0.91980744103E+02 0.  0.
         23    2    4    4    0    0 -0.23053079238E+03  0.12985985599E+03  0.43382226675E+03  0.51612603278E+03  0.90422863006E+02 0.  0.
          3    1    3    3  502    0  0.21407080648E+03  0.87138435862E+02 -0.15408426538E+04  0.15580807107E+04  0.00000000000E+00 0. -1.
         -4    1    3    3    0  502  0.19597469927E+02  0.32864803804E+02 -0.14349315241E+03  0.14850737673E+03  0.00000000000E+00 0.  1.
         11    1    5    5    0    0 -0.45153908441E+02 -0.90587158809E+02 -0.13729424475E+03  0.17057144671E+03  0.00000000000E+00 0.  1.
        -11    1    5    5    0    0  0.42016424417E+02 -0.15927593685E+03 -0.19599593449E+03  0.25602462834E+03  0.00000000000E+00 0. -1.
          1    1    6    6  503    0 -0.18198417352E+03  0.87868864827E+02  0.38729766012E+03  0.43685083765E+03  0.00000000000E+00 0. -1.
         -1    1    6    6    0  503 -0.48546618859E+02  0.41990991166E+02  0.46524606628E+02  0.79275195135E+02  0.00000000000E+00 0.  1.
<mgrwt>
<rscale>  0 0.21237727E+04</rscale>
<asrwt>0</asrwt>
<pdfrwt beam="1">  1        1 0.32562415E+00 0.21237727E+04</pdfrwt>
<pdfrwt beam="2">  1       -2 0.81962035E-01 0.21237727E+04</pdfrwt>
<totfact> 0.26199717E+00</totfact>
</mgrwt>
</event>
<event>
12    4  0.4183215E-008  0.1278465E+04  0.7818608E-02  0.9046819E-01
         -2   -1    0    0    0  501 -0.00000000000E+00  0.00000000000E+00  0.71123434332E+03  0.71123434332E+03  0.00000000000E+00 0.  1.
          1   -1    0    0  501    0  0.00000000000E+00 -0.00000000000E+00 -0.57451961719E+03  0.57451961719E+03  0.00000000000E+00 0. -1.
        -24    2    1    2    0    0 -0.54862516851E+02 -0.27008955014E+03 -0.11489438902E+03  0.30923251366E+03  0.80409987086E+02 0.  0.
        254    2    1    2    0    0  0.54862516851E+02  0.27008955014E+03  0.25160911514E+03  0.97652144685E+03  0.90240164477E+03 0.  0.
         23    2    4    4    0    0  0.12987754711E+03  0.89062437787E+02  0.56610450486E+03  0.59462310349E+03  0.91115474599E+02 0.  0.
         23    2    4    4    0    0 -0.75015030263E+02  0.18102711236E+03 -0.31449538972E+03  0.38189834336E+03  0.92417121439E+02 0.  0.
          3    1    3    3  502    0 -0.23690522936E+02 -0.18351326488E+03 -0.11375910998E+03  0.21720841228E+03  0.00000000000E+00 0. -1.
         -4    1    3    3    0  502 -0.31171993914E+02 -0.86576285268E+02 -0.11352790361E+01  0.92024101375E+02  0.00000000000E+00 0.  1.
         11    1    5    5    0    0  0.19539760496E+02  0.42607701371E+01  0.22973190500E+03  0.23060074713E+03  0.00000000000E+00 0. -1.
        -11    1    5    5    0    0  0.11033778662E+03  0.84801667650E+02  0.33637259986E+03  0.36402235635E+03  0.00000000000E+00 0.  1.
          3    1    6    6  503    0 -0.33098745232E+02  0.24092458360E+02 -0.12896880368E+03  0.13531047930E+03  0.00000000000E+00 0. -1.
         -3    1    6    6    0  503 -0.41916285030E+02  0.15693465400E+03 -0.18552658604E+03  0.24658786406E+03  0.00000000000E+00 0.  1.
<mgrwt>
<rscale>  0 0.12784648E+04</rscale>
<asrwt>0</asrwt>
<pdfrwt beam="1">  1        1 0.88387634E-01 0.12784648E+04</pdfrwt>
<pdfrwt beam="2">  1       -2 0.10942067E+00 0.12784648E+04</pdfrwt>
<totfact> 0.20888813E+01</totfact>
</mgrwt>
</event>
<event>
12    4  0.4183215E-008  0.2166213E+04  0.7818608E-02  0.8532624E-01
          1   -1    0    0  501    0  0.00000000000E+00  0.00000000000E+00  0.21744144276E+04  0.21744144276E+04  0.00000000000E+00 0. -1.
         -4   -1    0    0    0  501 -0.00000000000E+00 -0.00000000000E+00 -0.53951074866E+03  0.53951074866E+03  0.00000000000E+00 0.  1.
        -24    2    1    2    0    0 -0.34429415631E+03 -0.80279593720E+01 -0.35234622119E+03  0.49908256835E+03  0.79577862730E+02 0.  0.
        254    2    1    2    0    0  0.34429415631E+03  0.80279593720E+01  0.19872499002E+04  0.22148426080E+04  0.91529377692E+03 0.  0.
         23    2    4    4    0    0  0.11215939227E+03 -0.31234645593E+03  0.23696257411E+03  0.41802061058E+03  0.91923509147E+02 0.  0.
         23    2    4    4    0    0  0.23213476404E+03  0.32037441530E+03  0.17502873261E+04  0.17968219974E+04  0.92397250076E+02 0.  0.
          3    1    3    3  502    0 -0.10679389726E+03 -0.38616548858E+02 -0.10188252203E+03  0.15256546999E+03  0.00000000000E+00 0. -1.
         -4    1    3    3    0  502 -0.23750025906E+03  0.30588589486E+02 -0.25046369916E+03  0.34651709836E+03  0.00000000000E+00 0.  1.
         11    1    5    5    0    0  0.85246336387E+02 -0.27087676065E+03  0.15830714292E+03  0.32511891490E+03  0.00000000000E+00 0.  1.
        -11    1    5    5    0    0  0.26913055885E+02 -0.41469695278E+02  0.78655431196E+02  0.92901695679E+02  0.00000000000E+00 0. -1.
          1    1    6    6  503    0  0.14358194922E+03  0.26596515747E+03  0.12847623207E+04  0.13198361496E+04  0.00000000000E+00 0. -1.
         -1    1    6    6    0  503  0.88552814816E+02  0.54409257833E+02  0.46552500532E+03  0.47698584772E+03  0.00000000000E+00 0.  1.
<mgrwt>
<rscale>  0 0.21662132E+04</rscale>
<asrwt>0</asrwt>
<pdfrwt beam="1">  1        1 0.33452529E+00 0.21662132E+04</pdfrwt>
<pdfrwt beam="2">  1       -4 0.83001655E-01 0.21662132E+04</pdfrwt>
<totfact> 0.13045658E+00</totfact>
</mgrwt>
</event>
<event>
12    4  0.4183215E-008  0.1225310E+04  0.7818608E-02  0.9090987E-01
          1   -1    0    0  501    0  0.00000000000E+00  0.00000000000E+00  0.78116112574E+03  0.78116112574E+03  0.00000000000E+00 0. -1.
         -2   -1    0    0    0  501 -0.00000000000E+00 -0.00000000000E+00 -0.48049773596E+03  0.48049773596E+03  0.00000000000E+00 0.  1.
        -24    2    1    2    0    0 -0.30061013974E+03 -0.25958977830E+01  0.53812564621E+02  0.31564291552E+03  0.79758781387E+02 0.  0.
        254    2    1    2    0    0  0.30061013974E+03  0.25958977830E+01  0.24685082516E+03  0.94601594617E+03  0.86234427332E+03 0.  0.
         23    2    4    4    0    0  0.58953536734E+03  0.64355915808E+02  0.12001194645E+03  0.61203258659E+03  0.92127012935E+02 0.  0.
         23    2    4    4    0    0 -0.28892522760E+03 -0.61760018025E+02  0.12683887871E+03  0.33398335958E+03  0.90358709339E+02 0.  0.
          3    1    3    3  502    0  0.24575556145E+01  0.51832621364E+01 -0.40250699033E+01  0.70076368128E+01  0.00000000000E+00 0. -1.
         -4    1    3    3    0  502 -0.30306769536E+03 -0.77791599194E+01  0.57837634524E+02  0.30863527871E+03  0.00000000000E+00 0.  1.
         11    1    5    5    0    0  0.80066110867E+02  0.35367377038E+02 -0.12122400945E+01  0.87538008854E+02  0.00000000000E+00 0. -1.
        -11    1    5    5    0    0  0.50946925648E+03  0.28988538770E+02  0.12122418654E+03  0.52449457774E+03  0.00000000000E+00 0.  1.
          4    1    6    6  503    0 -0.34811569883E+02  0.14398882399E+02  0.39768749490E+02  0.54778888708E+02  0.00000000000E+00 0. -1.
         -4    1    6    6    0  503 -0.25411365772E+03 -0.76158900424E+02  0.87070129218E+02  0.27920447087E+03  0.00000000000E+00 0.  1.
<mgrwt>
<rscale>  0 0.12253100E+04</rscale>
<asrwt>0</asrwt>
<pdfrwt beam="1">  1        1 0.12017863E+00 0.12253100E+04</pdfrwt>
<pdfrwt beam="2">  1       -2 0.73922729E-01 0.12253100E+04</pdfrwt>
<totfact> 0.32785080E+01</totfact>
</mgrwt>
</event>
<event>
12    4  0.4183215E-008  0.1828260E+04  0.7818608E-02  0.8691414E-01
         -2   -1    0    0    0  501 -0.00000000000E+00  0.00000000000E+00  0.60280437513E+03  0.60280437513E+03  0.00000000000E+00 0.  1.
          1   -1    0    0  501    0  0.00000000000E+00 -0.00000000000E+00 -0.13862441644E+04  0.13862441644E+04  0.00000000000E+00 0. -1.
        -24    2    1    2    0    0 -0.62544236332E+02  0.67658091297E+03 -0.12095639849E+03  0.69481349868E+03  0.80385535524E+02 0.  0.
        254    2    1    2    0    0  0.62544236332E+02 -0.67658091297E+03 -0.66248339080E+03  0.12942350409E+04  0.88004919443E+03 0.  0.
         23    2    4    4    0    0  0.18516040258E+03  0.15786753389E+03 -0.19939729936E+03  0.32775250957E+03  0.91955922031E+02 0.  0.
         23    2    4    4    0    0 -0.12261616625E+03 -0.83444844685E+03 -0.46308609144E+03  0.96648253129E+03  0.91108838909E+02 0.  0.
          1    1    3    3  502    0 -0.41103313724E+02  0.64180141012E+03 -0.11797413039E+03  0.65384740411E+03  0.00000000000E+00 0. -1.
         -2    1    3    3    0  502 -0.21440922608E+02  0.34779502850E+02 -0.29822680986E+01  0.40966094564E+02  0.00000000000E+00 0.  1.
         11    1    5    5    0    0  0.99812267949E+01 -0.80032048771E+01 -0.31022906108E+02  0.33557367001E+02  0.00000000000E+00 0. -1.
        -11    1    5    5    0    0  0.17517917579E+03  0.16587073876E+03 -0.16837439325E+03  0.29419514257E+03  0.00000000000E+00 0.  1.
          1    1    6    6  503    0 -0.72610751758E+02 -0.35576844164E+03 -0.15343624459E+03  0.39419054592E+03  0.00000000000E+00 0. -1.
         -1    1    6    6    0  503 -0.50005414492E+02 -0.47868000522E+03 -0.30964984685E+03  0.57229198538E+03  0.00000000000E+00 0.  1.
<mgrwt>
<rscale>  0 0.18282604E+04</rscale>
<asrwt>0</asrwt>
<pdfrwt beam="1">  1        1 0.21326833E+00 0.18282604E+04</pdfrwt>
<pdfrwt beam="2">  1       -2 0.92739136E-01 0.18282604E+04</pdfrwt>
<totfact> 0.63973282E+00</totfact>
</mgrwt>
</event>
<event>
12    4  0.4183215E-008  0.1398670E+04  0.7818608E-02  0.8954782E-01
         -2   -1    0    0    0  501 -0.00000000000E+00  0.00000000000E+00  0.23115991925E+03  0.23115991925E+03  0.00000000000E+00 0.  1.
          1   -1    0    0  501    0  0.00000000000E+00 -0.00000000000E+00 -0.21157203932E+04  0.21157203932E+04  0.00000000000E+00 0. -1.
        -24    2    1    2    0    0  0.10564079796E+03 -0.28853446986E+03 -0.11630966889E+03  0.33746010866E+03  0.77066642394E+02 0.  0.
        254    2    1    2    0    0 -0.10564079796E+03  0.28853446986E+03 -0.17682508050E+04  0.20094202037E+04  0.90368497127E+03 0.  0.
         23    2    4    4    0    0  0.56239153717E+02 -0.30138553842E+03 -0.78452926464E+03  0.84746197674E+03  0.93324968528E+02 0.  0.
         23    2    4    4    0    0 -0.16187995167E+03  0.58992000829E+03 -0.98372154037E+03  0.11619582270E+04  0.90708970857E+02 0.  0.
          1    1    3    3  502    0  0.59105597161E+01 -0.55180793042E+02  0.58736127101E+01  0.55806397152E+02  0.00000000000E+00 0. -1.
         -2    1    3    3    0  502  0.99730238242E+02 -0.23335367682E+03 -0.12218328160E+03  0.28165371151E+03  0.00000000000E+00 0.  1.
         11    1    5    5    0    0  0.21330407518E+02 -0.36587284377E+02 -0.20525134322E+03  0.20957511674E+03  0.00000000000E+00 0.  1.
        -11    1    5    5    0    0  0.34908746199E+02 -0.26479825405E+03 -0.57927792142E+03  0.63788685999E+03  0.00000000000E+00 0. -1.
          2    1    6    6  503    0 -0.12365235429E+03  0.54545315906E+03 -0.90322422651E+03  0.10623667243E+04  0.00000000000E+00 0. -1.
         -2    1    6    6    0  503 -0.38227597387E+02  0.44466849231E+02 -0.80497313857E+02  0.99591502753E+02  0.00000000000E+00 0.  1.
<mgrwt>
<rscale>  0 0.13986704E+04</rscale>
<asrwt>0</asrwt>
<pdfrwt beam="1">  1        1 0.32549543E+00 0.13986704E+04</pdfrwt>
<pdfrwt beam="2">  1       -2 0.35563066E-01 0.13986704E+04</pdfrwt>
<totfact> 0.15837755E+01</totfact>
</mgrwt>
</event>
<event>
12    4  0.4183215E-008  0.2547141E+04  0.7818608E-02  0.8386381E-01
         -2   -1    0    0    0  501 -0.00000000000E+00  0.00000000000E+00  0.79882648543E+03  0.79882648543E+03  0.00000000000E+00 0.  1.
          3   -1    0    0  501    0  0.00000000000E+00 -0.00000000000E+00 -0.20304563664E+04  0.20304563664E+04  0.00000000000E+00 0. -1.
        -24    2    1    2    0    0 -0.11598385394E+03 -0.11076524598E+04 -0.59331049389E+03  0.12644121722E+04  0.79840922418E+02 0.  0.
        254    2    1    2    0    0  0.11598385394E+03  0.11076524598E+04 -0.63831938713E+03  0.15648706797E+04  0.89499853525E+03 0.  0.
         23    2    4    4    0    0 -0.22644076763E+03  0.10389046620E+04 -0.49287970521E+03  0.11756213192E+04  0.92502781343E+02 0.  0.
         23    2    4    4    0    0  0.34242462157E+03  0.68747797842E+02 -0.14543968192E+03  0.38924936046E+03  0.91550436213E+02 0.  0.
          1    1    3    3  502    0 -0.10404206871E+03 -0.66026882769E+03 -0.37574990771E+03  0.76679049944E+03  0.00000000000E+00 0. -1.
         -2    1    3    3    0  502 -0.11941785231E+02 -0.44738363212E+03 -0.21756058617E+03  0.49762167274E+03  0.00000000000E+00 0.  1.
         11    1    5    5    0    0 -0.41478036095E+02  0.40080464763E+03 -0.18659493014E+03  0.44405231786E+03  0.00000000000E+00 0.  1.
        -11    1    5    5    0    0 -0.18496273154E+03  0.63810001434E+03 -0.30628477507E+03  0.73156900139E+03  0.00000000000E+00 0. -1.
          1    1    6    6  503    0  0.23364636794E+03  0.59304311132E+02 -0.14249505769E+03  0.28002226346E+03  0.00000000000E+00 0. -1.
         -1    1    6    6    0  503  0.10877825364E+03  0.94434867100E+01 -0.29446242280E+01  0.10922709699E+03  0.00000000000E+00 0.  1.
<mgrwt>
<rscale>  0 0.25471414E+04</rscale>
<asrwt>0</asrwt>
<pdfrwt beam="1">  1        3 0.31237790E+00 0.25471414E+04</pdfrwt>
<pdfrwt beam="2">  1       -2 0.12289638E+00 0.25471414E+04</pdfrwt>
<totfact> 0.60139833E-02</totfact>
</mgrwt>
</event>
<event>
12    4  0.4183215E-008  0.1529035E+04  0.7818608E-02  0.8865371E-01
         -2   -1    0    0    0  501 -0.00000000000E+00  0.00000000000E+00  0.83033438181E+03  0.83033438181E+03  0.00000000000E+00 0.  1.
          1   -1    0    0  501    0  0.00000000000E+00 -0.00000000000E+00 -0.70391746044E+03  0.70391746044E+03  0.00000000000E+00 0. -1.
        -24    2    1    2    0    0 -0.49007542559E+03 -0.19098199167E+02  0.14889469580E+03  0.51865585934E+03  0.79344855007E+02 0.  0.
        254    2    1    2    0    0  0.49007542559E+03  0.19098199167E+02 -0.22477774425E+02  0.10155959829E+04  0.88903953016E+03 0.  0.
         23    2    4    4    0    0 -0.13812990839E+03 -0.46350578823E+02  0.26499582346E+03  0.31564122351E+03  0.90434217957E+02 0.  0.
         23    2    4    4    0    0  0.62820533398E+03  0.65448777990E+02 -0.28747359788E+03  0.69995475941E+03  0.91488313749E+02 0.  0.
          3    1    3    3  502    0 -0.94001203608E+02  0.42344661094E+01 -0.21377670402E+01  0.94120810828E+02  0.00000000000E+00 0. -1.
         -4    1    3    3    0  502 -0.39607422198E+03 -0.23332665277E+02  0.15103246284E+03  0.42453504852E+03  0.00000000000E+00 0.  1.
         11    1    5    5    0    0 -0.17918942354E+02  0.23074090849E+02  0.73743087154E+02  0.79319260376E+02  0.00000000000E+00 0.  1.
        -11    1    5    5    0    0 -0.12021096603E+03 -0.69424669672E+02  0.19125273630E+03  0.23632196313E+03  0.00000000000E+00 0. -1.
          3    1    6    6  503    0  0.46452785842E+03  0.24230729459E+02 -0.24575373903E+03  0.52608759703E+03  0.00000000000E+00 0. -1.
         -3    1    6    6    0  503  0.16367747556E+03  0.41218048532E+02 -0.41719858851E+02  0.17386716238E+03  0.00000000000E+00 0.  1.
<mgrwt>
<rscale>  0 0.15290348E+04</rscale>
<asrwt>0</asrwt>
<pdfrwt beam="1">  1        1 0.10829499E+00 0.15290348E+04</pdfrwt>
<pdfrwt beam="2">  1       -2 0.12774375E+00 0.15290348E+04</pdfrwt>
<totfact> 0.10359722E+01</totfact>
</mgrwt>
</event>
<event>
12    4  0.4183215E-008  0.1818520E+04  0.7818608E-02  0.8696512E-01
         -2   -1    0    0    0  501 -0.00000000000E+00  0.00000000000E+00  0.26640473523E+03  0.26640473523E+03  0.00000000000E+00 0.  1.
          1   -1    0    0  501    0  0.00000000000E+00 -0.00000000000E+00 -0.31033740670E+04  0.31033740670E+04  0.00000000000E+00 0. -1.
        -24    2    1    2    0    0  0.43921811072E+01 -0.60090949937E+03 -0.16732661757E+04  0.17796503504E+04  0.78893328371E+02 0.  0.
        254    2    1    2    0    0 -0.43921811072E+01  0.60090949937E+03 -0.11637031561E+04  0.15901284518E+04  0.90177155654E+03 0.  0.
         23    2    4    4    0    0 -0.15494408795E+01 -0.20272056202E+03 -0.48716178627E+03  0.53552505828E+03  0.91446459813E+02 0.  0.
         23    2    4    4    0    0 -0.28427402277E+01  0.80363006138E+03 -0.67654136981E+03  0.10546033936E+04  0.93009332384E+02 0.  0.
          3    1    3    3  502    0  0.24670995345E+02 -0.47207679046E+03 -0.12345826092E+04  0.13219906857E+04  0.00000000000E+00 0. -1.
         -4    1    3    3    0  502 -0.20278814238E+02 -0.12883270890E+03 -0.43868356648E+03  0.45765966470E+03  0.00000000000E+00 0.  1.
         11    1    5    5    0    0  0.16282984606E+02 -0.30022612746E-01 -0.18780885076E+02  0.24856752268E+02  0.00000000000E+00 0. -1.
        -11    1    5    5    0    0 -0.17832425485E+02 -0.20269053940E+03 -0.46838090119E+03  0.51066830601E+03  0.00000000000E+00 0.  1.
          4    1    6    6  503    0  0.53445405346E+01  0.40520471483E+01 -0.16319365637E+02  0.17643834459E+02  0.00000000000E+00 0. -1.
         -4    1    6    6    0  503 -0.81872807624E+01  0.79957801424E+03 -0.66022200417E+03  0.10369595591E+04  0.00000000000E+00 0.  1.
<mgrwt>
<rscale>  0 0.18185198E+04</rscale>
<asrwt>0</asrwt>
<pdfrwt beam="1">  1        1 0.47744216E+00 0.18185198E+04</pdfrwt>
<pdfrwt beam="2">  1       -2 0.40985344E-01 0.18185198E+04</pdfrwt>
<totfact> 0.23495202E+00</totfact>
</mgrwt>
</event>
<event>
12    4  0.4183215E-008  0.1794329E+04  0.7818608E-02  0.8709321E-01
         -2   -1    0    0    0  501 -0.00000000000E+00  0.00000000000E+00  0.23140111979E+03  0.23140111979E+03  0.00000000000E+00 0.  1.
          1   -1    0    0  501    0  0.00000000000E+00 -0.00000000000E+00 -0.34783947640E+04  0.34783947640E+04  0.00000000000E+00 0. -1.
        -24    2    1    2    0    0 -0.44616188119E+03  0.29980292247E+03 -0.20589574051E+04  0.21295696256E+04  0.82577101192E+02 0.  0.
        254    2    1    2    0    0  0.44616188119E+03 -0.29980292247E+03 -0.11880362391E+04  0.15802262582E+04  0.89260445056E+03 0.  0.
         23    2    4    4    0    0 -0.18989078813E+03  0.10787555782E+03 -0.11324516310E+03  0.26327879412E+03  0.93784908566E+02 0.  0.
         23    2    4    4    0    0  0.63605266931E+03 -0.40767848029E+03 -0.10747910760E+04  0.13169474641E+04  0.91706186785E+02 0.  0.
          1    1    3    3  502    0 -0.37273935606E+03  0.26145533674E+03 -0.18392806448E+04  0.18947946620E+04  0.00000000000E+00 0. -1.
         -2    1    3    3    0  502 -0.73422525122E+02  0.38347585728E+02 -0.21967676031E+03  0.23477496363E+03  0.00000000000E+00 0.  1.
         11    1    5    5    0    0 -0.11854704398E+03  0.44361058434E+02 -0.11001584764E+03  0.16770447780E+03  0.00000000000E+00 0. -1.
        -11    1    5    5    0    0 -0.71343744146E+02  0.63514499386E+02 -0.32293154607E+01  0.95574316316E+02  0.00000000000E+00 0.  1.
          3    1    6    6  503    0  0.23638940586E+03 -0.10259644555E+03 -0.34087978248E+03  0.42732307210E+03  0.00000000000E+00 0. -1.
         -3    1    6    6    0  503  0.39966326345E+03 -0.30508203474E+03 -0.73391129352E+03  0.88962439199E+03  0.00000000000E+00 0.  1.
<mgrwt>
<rscale>  0 0.17943293E+04</rscale>
<asrwt>0</asrwt>
<pdfrwt beam="1">  1        1 0.53513758E+00 0.17943293E+04</pdfrwt>
<pdfrwt beam="2">  1       -2 0.35600177E-01 0.17943293E+04</pdfrwt>
<totfact> 0.16083414E+00</totfact>
</mgrwt>
</event>
<event>
12    4  0.4183215E-008  0.1722293E+04  0.7818608E-02  0.8748751E-01
          3   -1    0    0  501    0  0.00000000000E+00  0.00000000000E+00  0.25730353198E+04  0.25730353198E+04  0.00000000000E+00 0. -1.
         -4   -1    0    0    0  501 -0.00000000000E+00 -0.00000000000E+00 -0.28820947018E+03  0.28820947018E+03  0.00000000000E+00 0.  1.
        -24    2    1    2    0    0  0.38846201241E+03  0.13925016044E+03  0.16053827723E+04  0.16596765128E+04  0.83540044255E+02 0.  0.
        254    2    1    2    0    0 -0.38846201241E+03 -0.13925016044E+03  0.67944307723E+03  0.12015682772E+04  0.90101614151E+03 0.  0.
         23    2    4    4    0    0 -0.46273520509E+03  0.27647744646E+03  0.47042593601E+03  0.72128801339E+03  0.91608889031E+02 0.  0.
         23    2    4    4    0    0  0.74273192686E+02 -0.41572760690E+03  0.20901714122E+03  0.48028026379E+03  0.92924787703E+02 0.  0.
          3    1    3    3  502    0  0.31909451713E+03  0.14305655876E+03  0.13928676073E+04  0.14360942384E+04  0.00000000000E+00 0. -1.
         -4    1    3    3    0  502  0.69367495276E+02 -0.38063983201E+01  0.21251516500E+03  0.22358227439E+03  0.00000000000E+00 0.  1.
         11    1    5    5    0    0 -0.13546614427E+03  0.11082800644E+03  0.19875260162E+03  0.26483300381E+03  0.00000000000E+00 0.  1.
        -11    1    5    5    0    0 -0.32726906082E+03  0.16564944003E+03  0.27167333439E+03  0.45645500958E+03  0.00000000000E+00 0. -1.
          3    1    6    6  503    0  0.63949724197E+02 -0.37515349415E+03  0.21636863999E+03  0.43777288606E+03  0.00000000000E+00 0. -1.
         -3    1    6    6    0  503  0.10323468489E+02 -0.40574112757E+02 -0.73514987700E+01  0.42507377734E+02  0.00000000000E+00 0.  1.
<mgrwt>
<rscale>  0 0.17222928E+04</rscale>
<asrwt>0</asrwt>
<pdfrwt beam="1">  1        3 0.39585157E+00 0.17222928E+04</pdfrwt>
<pdfrwt beam="2">  1       -4 0.44339920E-01 0.17222928E+04</pdfrwt>
<totfact> 0.12697866E-01</totfact>
</mgrwt>
</event>
<event>
12    4  0.4183215E-008  0.2055841E+04  0.7818608E-02  0.8580949E-01
          1   -1    0    0  501    0  0.00000000000E+00  0.00000000000E+00  0.22461525245E+04  0.22461525245E+04  0.00000000000E+00 0. -1.
         -2   -1    0    0    0  501 -0.00000000000E+00 -0.00000000000E+00 -0.47041330929E+03  0.47041330929E+03  0.00000000000E+00 0.  1.
        -24    2    1    2    0    0  0.40511562297E+03  0.39945084501E+02  0.16862009401E+04  0.17364899325E+04  0.80058712870E+02 0.  0.
        254    2    1    2    0    0 -0.40511562297E+03 -0.39945084501E+02  0.89538275152E+02  0.98007590133E+03  0.88702727799E+03 0.  0.
         23    2    4    4    0    0  0.84299065693E+02 -0.35269685373E+03 -0.44085231159E+02  0.37681843524E+03  0.92451189387E+02 0.  0.
         23    2    4    4    0    0 -0.48941468867E+03  0.31275176923E+03  0.13362350631E+03  0.60325746610E+03  0.93401939607E+02 0.  0.
          1    1    3    3  502    0  0.16319002590E+03  0.34276895969E+01  0.83596069087E+03  0.85174703421E+03  0.00000000000E+00 0. -1.
         -2    1    3    3    0  502  0.24192559707E+03  0.36517394904E+02  0.85024024923E+03  0.88474289829E+03  0.00000000000E+00 0.  1.
         11    1    5    5    0    0  0.82826340693E+02 -0.35488828631E+03 -0.33560411083E+02  0.36596748444E+03  0.00000000000E+00 0.  1.
        -11    1    5    5    0    0  0.14727249998E+01  0.21914325771E+01 -0.10524820076E+02  0.10850950802E+02  0.00000000000E+00 0. -1.
          2    1    6    6  503    0 -0.30320392011E+03  0.13993796397E+03  0.85229806865E+02  0.34464383196E+03  0.00000000000E+00 0.  1.
         -2    1    6    6    0  503 -0.18621076856E+03  0.17281380526E+03  0.48393699446E+02  0.25861363414E+03  0.00000000000E+00 0. -1.
<mgrwt>
<rscale>  0 0.20558405E+04</rscale>
<asrwt>0</asrwt>
<pdfrwt beam="1">  1        1 0.34556192E+00 0.20558405E+04</pdfrwt>
<pdfrwt beam="2">  1       -2 0.72371279E-01 0.20558405E+04</pdfrwt>
<totfact> 0.28391571E+00</totfact>
</mgrwt>
</event>
<event>
12    4  0.4183215E-008  0.1582432E+04  0.7818608E-02  0.8831414E-01
         -2   -1    0    0    0  501 -0.00000000000E+00  0.00000000000E+00  0.25966319456E+03  0.25966319456E+03  0.00000000000E+00 0.  1.
          1   -1    0    0  501    0  0.00000000000E+00 -0.00000000000E+00 -0.24109031730E+04  0.24109031730E+04  0.00000000000E+00 0. -1.
        -24    2    1    2    0    0  0.32375457791E+03 -0.61902002300E+02 -0.24954526863E+02  0.34086330586E+03  0.83163575317E+02 0.  0.
        254    2    1    2    0    0 -0.32375457791E+03  0.61902002300E+02 -0.21262854515E+04  0.23297030617E+04  0.89318399531E+03 0.  0.
         23    2    4    4    0    0 -0.34348629000E+03 -0.31374620231E+03 -0.16428565580E+04  0.17099987807E+04  0.93266547737E+02 0.  0.
         23    2    4    4    0    0  0.19731712082E+02  0.37564820461E+03 -0.48342889357E+03  0.61970428100E+03  0.93962687608E+02 0.  0.
          3    1    3    3  502    0  0.31305229646E+03 -0.45759930417E+02 -0.36239433348E+02  0.31844781060E+03  0.00000000000E+00 0. -1.
         -4    1    3    3    0  502  0.10702281457E+02 -0.16142071882E+02  0.11284906486E+02  0.22415495253E+02  0.00000000000E+00 0.  1.
         11    1    5    5    0    0 -0.59983259542E+02 -0.13444550718E+02 -0.21689023711E+03  0.22543318816E+03  0.00000000000E+00 0. -1.
        -11    1    5    5    0    0 -0.28350303045E+03 -0.30030165159E+03 -0.14259663209E+04  0.14845655925E+04  0.00000000000E+00 0.  1.
          2    1    6    6  503    0  0.13853111012E+02  0.14482045670E+03 -0.26258084845E+03  0.30018923255E+03  0.00000000000E+00 0. -1.
         -2    1    6    6    0  503  0.58786010697E+01  0.23082774791E+03 -0.22084804512E+03  0.31951504845E+03  0.00000000000E+00 0.  1.
<mgrwt>
<rscale>  0 0.15824321E+04</rscale>
<asrwt>0</asrwt>
<pdfrwt beam="1">  1        1 0.37090816E+00 0.15824321E+04</pdfrwt>
<pdfrwt beam="2">  1       -2 0.39948186E-01 0.15824321E+04</pdfrwt>
<totfact> 0.78252515E+00</totfact>
</mgrwt>
</event>
<event>
12    4  0.4183215E-008  0.2167288E+04  0.7818608E-02  0.8532168E-01
         -2   -1    0    0    0  501 -0.00000000000E+00  0.00000000000E+00  0.11089341320E+04  0.11089341320E+04  0.00000000000E+00 0.  1.
          1   -1    0    0  501    0  0.00000000000E+00 -0.00000000000E+00 -0.10589301762E+04  0.10589301762E+04  0.00000000000E+00 0. -1.
        -24    2    1    2    0    0 -0.71605244028E+02  0.62195578485E+03 -0.61894351286E+03  0.88337861910E+03  0.72872513890E+02 0.  0.
        254    2    1    2    0    0  0.71605244028E+02 -0.62195578485E+03  0.66894746864E+03  0.12844856891E+04  0.90025355337E+03 0.  0.
         23    2    4    4    0    0  0.31233050723E+03 -0.41829573073E+03  0.77545697430E+03  0.93925217803E+03  0.91320703222E+02 0.  0.
         23    2    4    4    0    0 -0.24072526320E+03 -0.20366005412E+03 -0.10650950566E+03  0.34523351105E+03  0.91737845875E+02 0.  0.
          3    1    3    3  502    0 -0.86252586753E+02  0.56076333758E+03 -0.55551235987E+03  0.79403338184E+03  0.00000000000E+00 0. -1.
         -4    1    3    3    0  502  0.14647342725E+02  0.61192447270E+02 -0.63431152982E+02  0.89345237256E+02  0.00000000000E+00 0.  1.
         11    1    5    5    0    0  0.43252964858E+02 -0.24717093931E+02  0.10872549260E+03  0.11959509373E+03  0.00000000000E+00 0.  1.
        -11    1    5    5    0    0  0.26907754237E+03 -0.39357863680E+03  0.66673148170E+03  0.81965708430E+03  0.00000000000E+00 0. -1.
          1    1    6    6  503    0 -0.25283230506E+02 -0.74571520342E+01 -0.37399465003E+02  0.45755555332E+02  0.00000000000E+00 0. -1.
         -1    1    6    6    0  503 -0.21544203269E+03 -0.19620290209E+03 -0.69110040661E+02  0.29947795572E+03  0.00000000000E+00 0.  1.
<mgrwt>
<rscale>  0 0.21672875E+04</rscale>
<asrwt>0</asrwt>
<pdfrwt beam="1">  1        1 0.16291234E+00 0.21672875E+04</pdfrwt>
<pdfrwt beam="2">  1       -2 0.17060525E+00 0.21672875E+04</pdfrwt>
<totfact> 0.23047876E+00</totfact>
</mgrwt>
</event>
<event>
12    4  0.4183215E-008  0.2055329E+04  0.7818608E-02  0.8581181E-01
         -2   -1    0    0    0  501 -0.00000000000E+00  0.00000000000E+00  0.39568128954E+03  0.39568128954E+03  0.00000000000E+00 0.  1.
          1   -1    0    0  501    0  0.00000000000E+00 -0.00000000000E+00 -0.26690519512E+04  0.26690519512E+04  0.00000000000E+00 0. -1.
        -24    2    1    2    0    0 -0.40597955884E+03 -0.71798185597E+03 -0.83634741351E+03  0.11773163764E+04  0.79243336940E+02 0.  0.
        254    2    1    2    0    0  0.40597955884E+03  0.71798185597E+03 -0.14370232481E+04  0.18874168643E+04  0.90387457991E+03 0.  0.
         23    2    4    4    0    0  0.11034782139E+03  0.46883848999E+02 -0.10346183218E+04  0.10460747663E+04  0.97275936326E+02 0.  0.
         23    2    4    4    0    0  0.29563173746E+03  0.67109800697E+03 -0.40240492626E+03  0.84134209797E+03  0.90311361332E+02 0.  0.
          3    1    3    3  502    0 -0.14309242072E+03 -0.18893101728E+03 -0.26382116361E+03  0.35464344986E+03  0.00000000000E+00 0. -1.
         -4    1    3    3    0  502 -0.26288713813E+03 -0.52905083869E+03 -0.57252624990E+03  0.82267292658E+03  0.00000000000E+00 0.  1.
         11    1    5    5    0    0  0.54053235896E+02 -0.11152721600E+02 -0.19768408733E+03  0.20524408370E+03  0.00000000000E+00 0. -1.
        -11    1    5    5    0    0  0.56294585492E+02  0.58036570599E+02 -0.83693423452E+03  0.84083068259E+03  0.00000000000E+00 0.  1.
          2    1    6    6  503    0  0.22958920290E+03  0.41836134186E+03 -0.24630808448E+03  0.53703359945E+03  0.00000000000E+00 0.  1.
         -2    1    6    6    0  503  0.66042534561E+02  0.25273666511E+03 -0.15609684178E+03  0.30430849853E+03  0.00000000000E+00 0. -1.
<mgrwt>
<rscale>  0 0.20553286E+04</rscale>
<asrwt>0</asrwt>
<pdfrwt beam="1">  1        1 0.41062339E+00 0.20553286E+04</pdfrwt>
<pdfrwt beam="2">  1       -2 0.60874042E-01 0.20553286E+04</pdfrwt>
<totfact> 0.21039296E+00</totfact>
</mgrwt>
</event>
<event>
12    4  0.4183215E-008  0.1371312E+04  0.7818608E-02  0.8974850E-01
          1   -1    0    0  501    0  0.00000000000E+00  0.00000000000E+00  0.10398440787E+04  0.10398440787E+04  0.00000000000E+00 0. -1.
         -2   -1    0    0    0  501 -0.00000000000E+00 -0.00000000000E+00 -0.45211015649E+03  0.45211015649E+03  0.00000000000E+00 0.  1.
        -24    2    1    2    0    0 -0.15496005625E+03  0.10549853261E+03  0.52432115286E+03  0.56296366479E+03  0.82902696730E+02 0.  0.
        254    2    1    2    0    0  0.15496005625E+03 -0.10549853261E+03  0.63412769390E+02  0.92899057043E+03  0.90766719739E+03 0.  0.
         23    2    4    4    0    0  0.25122469456E+03  0.35325790989E+03  0.85626974111E+02  0.45115703998E+03  0.91135602113E+02 0.  0.
         23    2    4    4    0    0 -0.96264638310E+02 -0.45875644250E+03 -0.22214204722E+02  0.47783353045E+03  0.90039201491E+02 0.  0.
          1    1    3    3  502    0 -0.55852669275E+02  0.86945915790E+02  0.29032419002E+03  0.30816756521E+03  0.00000000000E+00 0. -1.
         -2    1    3    3    0  502 -0.99107386973E+02  0.18552616822E+02  0.23399696284E+03  0.25479609958E+03  0.00000000000E+00 0.  1.
         11    1    5    5    0    0 -0.25298694020E+01  0.13896411386E+02  0.16655144165E+02  0.21838139018E+02  0.00000000000E+00 0. -1.
        -11    1    5    5    0    0  0.25375456396E+03  0.33936149851E+03  0.68971829946E+02  0.42931890096E+03  0.00000000000E+00 0.  1.
          4    1    6    6  503    0 -0.14280796171E+02 -0.27269455066E+03  0.19829285044E+01  0.27307543117E+03  0.00000000000E+00 0. -1.
         -4    1    6    6    0  503 -0.81983842138E+02 -0.18606189184E+03 -0.24197133226E+02  0.20475809928E+03  0.00000000000E+00 0.  1.
<mgrwt>
<rscale>  0 0.13713119E+04</rscale>
<asrwt>0</asrwt>
<pdfrwt beam="1">  1        1 0.15997601E+00 0.13713119E+04</pdfrwt>
<pdfrwt beam="2">  1       -2 0.69555409E-01 0.13713119E+04</pdfrwt>
<totfact> 0.22757743E+01</totfact>
</mgrwt>
</event>
<event>
12    4  0.4183215E-008  0.1848125E+04  0.7818608E-02  0.8681118E-01
         -2   -1    0    0    0  501 -0.00000000000E+00  0.00000000000E+00  0.13862343342E+04  0.13862343342E+04  0.00000000000E+00 0.  1.
          1   -1    0    0  501    0  0.00000000000E+00 -0.00000000000E+00 -0.61597935978E+03  0.61597935978E+03  0.00000000000E+00 0. -1.
        -24    2    1    2    0    0  0.24363567311E+03  0.23744134518E+03  0.95931649289E+03  0.10210031914E+04  0.80141435924E+02 0.  0.
        254    2    1    2    0    0 -0.24363567311E+03 -0.23744134518E+03 -0.18906151848E+03  0.98121050255E+03  0.90071807961E+03 0.  0.
         23    2    4    4    0    0 -0.22185003878E+03  0.24032830573E+03 -0.33078605195E+03  0.47415462906E+03  0.91804497969E+02 0.  0.
         23    2    4    4    0    0 -0.21785634329E+02 -0.47776965091E+03  0.14172453347E+03  0.50705587349E+03  0.91001990403E+02 0.  0.
          3    1    3    3  502    0  0.14943771307E+03  0.15073298302E+03  0.47909055664E+03  0.52400364858E+03  0.00000000000E+00 0. -1.
         -4    1    3    3    0  502  0.94197960045E+02  0.86708362157E+02  0.48022593625E+03  0.49699954285E+03  0.00000000000E+00 0.  1.
         11    1    5    5    0    0 -0.21490506772E+03  0.19184425178E+03 -0.25987965895E+03  0.38797660008E+03  0.00000000000E+00 0. -1.
        -11    1    5    5    0    0 -0.69449710675E+01  0.48484053956E+02 -0.70906392996E+02  0.86178028980E+02  0.00000000000E+00 0.  1.
          4    1    6    6  503    0 -0.53263073333E+02 -0.33940920893E+03  0.82720516507E+02  0.35338116806E+03  0.00000000000E+00 0. -1.
         -4    1    6    6    0  503  0.31477439003E+02 -0.13836044199E+03  0.59004016962E+02  0.15367470543E+03  0.00000000000E+00 0.  1.
<mgrwt>
<rscale>  0 0.18481253E+04</rscale>
<asrwt>0</asrwt>
<pdfrwt beam="1">  1        1 0.94766056E-01 0.18481253E+04</pdfrwt>
<pdfrwt beam="2">  1       -2 0.21326682E+00 0.18481253E+04</pdfrwt>
<totfact> 0.29571083E+00</totfact>
</mgrwt>
</event>
<event>
12    4  0.4183215E-008  0.1316159E+04  0.7818608E-02  0.9016848E-01
          1   -1    0    0  501    0  0.00000000000E+00  0.00000000000E+00  0.12035798203E+04  0.12035798203E+04  0.00000000000E+00 0. -1.
         -2   -1    0    0    0  501 -0.00000000000E+00 -0.00000000000E+00 -0.35981736249E+03  0.35981736249E+03  0.00000000000E+00 0.  1.
        -24    2    1    2    0    0 -0.55362297166E+02  0.40679136219E+02  0.59689203405E+03  0.60621375766E+03  0.80593074131E+02 0.  0.
        254    2    1    2    0    0  0.55362297166E+02 -0.40679136219E+02  0.24687042375E+03  0.95718342511E+03  0.92224472192E+03 0.  0.
         23    2    4    4    0    0 -0.20603258336E+03 -0.32044573898E+03 -0.12900404843E+03  0.41279872056E+03  0.92875411992E+02 0.  0.
         23    2    4    4    0    0  0.26139488053E+03  0.27976660276E+03  0.37587447218E+03  0.54438470454E+03  0.92067649701E+02 0.  0.
          3    1    3    3  502    0 -0.66917188505E+02  0.52742343123E+01  0.43074606605E+03  0.43594483720E+03  0.00000000000E+00 0. -1.
         -4    1    3    3    0  502  0.11554891339E+02  0.35404901907E+02  0.16614596800E+03  0.17026892046E+03  0.00000000000E+00 0.  1.
         11    1    5    5    0    0 -0.19768657316E+03 -0.23875206529E+03 -0.10414739154E+03  0.32700031965E+03  0.00000000000E+00 0.  1.
        -11    1    5    5    0    0 -0.83460101972E+01 -0.81693673691E+02 -0.24856656887E+02  0.85798400911E+02  0.00000000000E+00 0. -1.
          3    1    6    6  503    0  0.22866698789E+03  0.26835370849E+03  0.36634075248E+03  0.50843667367E+03  0.00000000000E+00 0.  1.
         -3    1    6    6    0  503  0.32727892637E+02  0.11412894274E+02  0.95337196963E+01  0.35948030870E+02  0.00000000000E+00 0. -1.
<mgrwt>
<rscale>  0 0.13161594E+04</rscale>
<asrwt>0</asrwt>
<pdfrwt beam="1">  1        1 0.18516612E+00 0.13161594E+04</pdfrwt>
<pdfrwt beam="2">  1       -2 0.55356518E-01 0.13161594E+04</pdfrwt>
<totfact> 0.28039707E+01</totfact>
</mgrwt>
</event>
<event>
12    4  0.4183215E-008  0.2008373E+04  0.7818608E-02  0.8602716E-01
         -4   -1    0    0    0  501 -0.00000000000E+00  0.00000000000E+00  0.53470674596E+03  0.53470674596E+03  0.00000000000E+00 0.  1.
          3   -1    0    0  501    0  0.00000000000E+00 -0.00000000000E+00 -0.18858763334E+04  0.18858763334E+04  0.00000000000E+00 0. -1.
        -24    2    1    2    0    0  0.46755679390E+03  0.55631261296E+03 -0.14184035844E+03  0.74455721586E+03  0.78445404903E+02 0.  0.
        254    2    1    2    0    0 -0.46755679390E+03 -0.55631261296E+03 -0.12093292290E+04  0.16760258635E+04  0.90470571576E+03 0.  0.
         23    2    4    4    0    0 -0.10187423599E+02 -0.27652805969E+03  0.58177099256E+02  0.29681451124E+03  0.90237064483E+02 0.  0.
         23    2    4    4    0    0 -0.45736937030E+03 -0.27978455327E+03 -0.12675063283E+04  0.13792113523E+04  0.90473890648E+02 0.  0.
          1    1    3    3  502    0  0.12638560257E+03  0.10569471398E+03 -0.48094309383E+02  0.17163261839E+03  0.00000000000E+00 0. -1.
         -2    1    3    3    0  502  0.34117119133E+03  0.45061789899E+03 -0.93746049056E+02  0.57292459747E+03  0.00000000000E+00 0.  1.
         11    1    5    5    0    0  0.22761421535E+02 -0.65092895402E+02 -0.15168988636E+02  0.70606413011E+02  0.00000000000E+00 0.  1.
        -11    1    5    5    0    0 -0.32948845133E+02 -0.21143516429E+03  0.73346087892E+02  0.22620809823E+03  0.00000000000E+00 0. -1.
          1    1    6    6  503    0 -0.26838373758E+03 -0.14400023150E+03 -0.82154393521E+03  0.87618510302E+03  0.00000000000E+00 0. -1.
         -1    1    6    6    0  503 -0.18898563272E+03 -0.13578432177E+03 -0.44596239304E+03  0.50302624924E+03  0.00000000000E+00 0.  1.
<mgrwt>
<rscale>  0 0.20083733E+04</rscale>
<asrwt>0</asrwt>
<pdfrwt beam="1">  1        3 0.29013482E+00 0.20083733E+04</pdfrwt>
<pdfrwt beam="2">  1       -4 0.82262577E-01 0.20083733E+04</pdfrwt>
<totfact> 0.12164629E-01</totfact>
</mgrwt>
</event>
<event>
12    4  0.4183215E-008  0.1867858E+04  0.7818608E-02  0.8671023E-01
         -2   -1    0    0    0  501 -0.00000000000E+00  0.00000000000E+00  0.58075841010E+03  0.58075841010E+03  0.00000000000E+00 0.  1.
          1   -1    0    0  501    0  0.00000000000E+00 -0.00000000000E+00 -0.15018689307E+04  0.15018689307E+04  0.00000000000E+00 0. -1.
        -24    2    1    2    0    0 -0.42294818902E+03  0.22714119653E+03 -0.96433198812E+03  0.10808660728E+04  0.88639665216E+02 0.  0.
        254    2    1    2    0    0  0.42294818902E+03 -0.22714119653E+03  0.43221467482E+02  0.10017612680E+04  0.87816812123E+03 0.  0.
         23    2    4    4    0    0  0.49157946110E+03  0.19440850411E+03 -0.86701530538E+02  0.54356520420E+03  0.92200557388E+02 0.  0.
         23    2    4    4    0    0 -0.68631272079E+02 -0.42154970064E+03  0.12992299802E+03  0.45819606384E+03  0.10319518344E+03 0.  0.
          3    1    3    3  502    0 -0.27995879177E+03  0.11764979291E+03 -0.67335314101E+03  0.73866288073E+03  0.00000000000E+00 0. -1.
         -4    1    3    3    0  502 -0.14298939725E+03  0.10949140362E+03 -0.29097884711E+03  0.34220319207E+03  0.00000000000E+00 0.  1.
         11    1    5    5    0    0  0.29047697168E+03  0.12339204276E+03 -0.96631421874E+02  0.33006075045E+03  0.00000000000E+00 0. -1.
        -11    1    5    5    0    0  0.20110248942E+03  0.71016461350E+02  0.99298913361E+01  0.21350445376E+03  0.00000000000E+00 0.  1.
          4    1    6    6  503    0  0.28256767499E+01 -0.28645787685E+03  0.89179846946E+02  0.30003190623E+03  0.00000000000E+00 0. -1.
         -4    1    6    6    0  503 -0.71456948829E+02 -0.13509182379E+03  0.40743151074E+02  0.15816415761E+03  0.00000000000E+00 0.  1.
<mgrwt>
<rscale>  0 0.18678576E+04</rscale>
<asrwt>0</asrwt>
<pdfrwt beam="1">  1        1 0.23105676E+00 0.18678576E+04</pdfrwt>
<pdfrwt beam="2">  1       -2 0.89347447E-01 0.18678576E+04</pdfrwt>
<totfact> 0.57713059E+00</totfact>
</mgrwt>
</event>
<event>
12    4  0.4183215E-008  0.1240636E+04  0.7818608E-02  0.9078013E-01
         -2   -1    0    0    0  501 -0.00000000000E+00  0.00000000000E+00  0.63929619995E+03  0.63929619995E+03  0.00000000000E+00 0.  1.
          1   -1    0    0  501    0  0.00000000000E+00 -0.00000000000E+00 -0.60190294071E+03  0.60190294071E+03  0.00000000000E+00 0. -1.
        -24    2    1    2    0    0 -0.87596028908E+02 -0.48202552891E+02  0.27602162455E+03  0.30436455718E+03  0.80332409794E+02 0.  0.
        254    2    1    2    0    0  0.87596028908E+02  0.48202552891E+02 -0.23862836530E+03  0.93683458348E+03  0.90039935012E+03 0.  0.
         23    2    4    4    0    0  0.31237668012E+03  0.14749719911E+03 -0.46742678638E+03  0.58844437516E+03  0.91893242425E+02 0.  0.
         23    2    4    4    0    0 -0.22478065121E+03 -0.99294646218E+02  0.22879842108E+03  0.34839020832E+03  0.92958333894E+02 0.  0.
          1    1    3    3  502    0  0.15412364232E+02 -0.94578448064E+01  0.34549885527E+02  0.38995979146E+02  0.00000000000E+00 0. -1.
         -2    1    3    3    0  502 -0.10300839314E+03 -0.38744708085E+02  0.24147173902E+03  0.26536857803E+03  0.00000000000E+00 0.  1.
         11    1    5    5    0    0  0.13450314486E+03  0.10865495587E+03 -0.26241819052E+03  0.31426151869E+03  0.00000000000E+00 0. -1.
        -11    1    5    5    0    0  0.17787353527E+03  0.38842243239E+02 -0.20500859586E+03  0.27418285647E+03  0.00000000000E+00 0.  1.
          2    1    6    6  503    0 -0.99364812680E+02 -0.93142005334E+02  0.13394668264E+03  0.19102490138E+03  0.00000000000E+00 0. -1.
         -2    1    6    6    0  503 -0.12541583853E+03 -0.61526408842E+01  0.94851738435E+02  0.15736530694E+03  0.00000000000E+00 0.  1.
<mgrwt>
<rscale>  0 0.12406357E+04</rscale>
<asrwt>0</asrwt>
<pdfrwt beam="1">  1        1 0.92600453E-01 0.12406357E+04</pdfrwt>
<pdfrwt beam="2">  1       -2 0.98353261E-01 0.12406357E+04</pdfrwt>
<totfact> 0.25296864E+01</totfact>
</mgrwt>
</event>
<event>
12    4  0.4183215E-008  0.1418429E+04  0.7818608E-02  0.8940586E-01
          1   -1    0    0  501    0  0.00000000000E+00  0.00000000000E+00  0.19065035738E+04  0.19065035738E+04  0.00000000000E+00 0. -1.
         -2   -1    0    0    0  501 -0.00000000000E+00 -0.00000000000E+00 -0.26382586702E+03  0.26382586702E+03  0.00000000000E+00 0.  1.
        -24    2    1    2    0    0  0.26628278708E+03  0.91021545873E+02  0.96354984045E+03  0.10070489478E+04  0.80795072268E+02 0.  0.
        254    2    1    2    0    0 -0.26628278708E+03 -0.91021545873E+02  0.67912786631E+03  0.11632804930E+04  0.90156275550E+03 0.  0.
         23    2    4    4    0    0 -0.36491675799E+03  0.16559729602E+03 -0.15204833299E+02  0.41125262867E+03  0.91163769765E+02 0.  0.
         23    2    4    4    0    0  0.98633970911E+02 -0.25661884190E+03  0.69433269961E+03  0.75202786434E+03  0.88691153786E+02 0.  0.
          1    1    3    3  502    0  0.10003631683E+03  0.80309523791E+01  0.44609813907E+03  0.45724753751E+03  0.00000000000E+00 0. -1.
         -2    1    3    3    0  502  0.16624647025E+03  0.82990593493E+02  0.51745170138E+03  0.54980141028E+03  0.00000000000E+00 0.  1.
         11    1    5    5    0    0 -0.97220739927E+02  0.34265593938E+02 -0.43192060847E+02  0.11176563569E+03  0.00000000000E+00 0.  1.
        -11    1    5    5    0    0 -0.26769601806E+03  0.13133170209E+03  0.27987227548E+02  0.29948699298E+03  0.00000000000E+00 0. -1.
          1    1    6    6  503    0  0.74077167291E+02 -0.10736089845E+03  0.23970587230E+03  0.27289685679E+03  0.00000000000E+00 0. -1.
         -1    1    6    6    0  503  0.24556803620E+02 -0.14925794345E+03  0.45462682731E+03  0.47913100755E+03  0.00000000000E+00 0.  1.
<mgrwt>
<rscale>  0 0.14184286E+04</rscale>
<asrwt>0</asrwt>
<pdfrwt beam="1">  1        1 0.29330823E+00 0.14184286E+04</pdfrwt>
<pdfrwt beam="2">  1       -2 0.40588596E-01 0.14184286E+04</pdfrwt>
<totfact> 0.16950639E+01</totfact>
</mgrwt>
</event>
<event>
12    4  0.4183215E-008  0.1527175E+04  0.7818608E-02  0.8866580E-01
         -2   -1    0    0    0  501 -0.00000000000E+00  0.00000000000E+00  0.18770048091E+04  0.18770048091E+04  0.00000000000E+00 0.  1.
          1   -1    0    0  501    0  0.00000000000E+00 -0.00000000000E+00 -0.31063621041E+03  0.31063621041E+03  0.00000000000E+00 0. -1.
        -24    2    1    2    0    0  0.30646496220E+03 -0.22399792030E+03  0.95840636583E+03  0.10359841051E+04  0.10307503337E+03 0.  0.
        254    2    1    2    0    0 -0.30646496220E+03  0.22399792030E+03  0.60796223283E+03  0.11516569144E+04  0.90144313778E+03 0.  0.
         23    2    4    4    0    0 -0.38288822600E+03  0.49516078817E+03  0.57181731140E+03  0.85272127745E+03  0.91492839266E+02 0.  0.
         23    2    4    4    0    0  0.76423263798E+02 -0.27116286787E+03  0.36144921429E+02  0.29893563698E+03  0.93200019062E+02 0.  0.
          3    1    3    3  502    0  0.46777494901E+01  0.91661469232E+01  0.44963717021E+02  0.46126298768E+02  0.00000000000E+00 0. -1.
         -4    1    3    3    0  502  0.30178721271E+03 -0.23316406723E+03  0.91344264881E+03  0.98985780629E+03  0.00000000000E+00 0.  1.
         11    1    5    5    0    0 -0.21494966730E+03  0.34554760406E+03  0.34865957945E+03  0.53588245771E+03  0.00000000000E+00 0.  1.
        -11    1    5    5    0    0 -0.16793855870E+03  0.14961318411E+03  0.22315773195E+03  0.31683881973E+03  0.00000000000E+00 0. -1.
          3    1    6    6  503    0  0.94821449391E+02 -0.23720668815E+03  0.44805778119E+02  0.25935627604E+03  0.00000000000E+00 0. -1.
         -3    1    6    6    0  503 -0.18398185593E+02 -0.33956179718E+02 -0.86608566902E+01  0.39579360944E+02  0.00000000000E+00 0.  1.
<mgrwt>
<rscale>  0 0.15271747E+04</rscale>
<asrwt>0</asrwt>
<pdfrwt beam="1">  1        1 0.47790187E-01 0.15271747E+04</pdfrwt>
<pdfrwt beam="2">  1       -2 0.28876996E+00 0.15271747E+04</pdfrwt>
<totfact> 0.26364184E+00</totfact>
</mgrwt>
</event>
<event>
12    4  0.4183215E-008  0.1105799E+04  0.7818608E-02  0.9199558E-01
         -2   -1    0    0    0  501 -0.00000000000E+00  0.00000000000E+00  0.33556217700E+03  0.33556217700E+03  0.00000000000E+00 0.  1.
          1   -1    0    0  501    0  0.00000000000E+00 -0.00000000000E+00 -0.91100221782E+03  0.91100221782E+03  0.00000000000E+00 0. -1.
        -24    2    1    2    0    0  0.87264449490E+02  0.40611002329E+02 -0.25953389185E+03  0.28806515770E+03  0.79745572948E+02 0.  0.
        254    2    1    2    0    0 -0.87264449490E+02 -0.40611002329E+02 -0.31590614897E+03  0.95849923713E+03  0.89981095512E+03 0.  0.
         23    2    4    4    0    0  0.24551831761E+03  0.17277016072E+03 -0.43482777887E+03  0.53587765929E+03  0.89223851791E+02 0.  0.
         23    2    4    4    0    0 -0.33278276710E+03 -0.21338116305E+03  0.11892162990E+03  0.42262157784E+03  0.90502779909E+02 0.  0.
          3    1    3    3  502    0  0.50269771892E+02  0.14686738528E+02 -0.22551078475E+03  0.23151212558E+03  0.00000000000E+00 0. -1.
         -4    1    3    3    0  502  0.36994677598E+02  0.25924263801E+02 -0.34023107101E+02  0.56553032111E+02  0.00000000000E+00 0.  1.
         11    1    5    5    0    0  0.12481782313E+03  0.14027196795E+03 -0.24719578328E+03  0.31042143810E+03  0.00000000000E+00 0.  1.
        -11    1    5    5    0    0  0.12070049448E+03  0.32498192774E+02 -0.18763199559E+03  0.22545622119E+03  0.00000000000E+00 0. -1.
          3    1    6    6  503    0 -0.22701220060E+03 -0.11133677628E+03  0.10893099347E+03  0.27531142060E+03  0.00000000000E+00 0. -1.
         -3    1    6    6    0  503 -0.10577056650E+03 -0.10204438677E+03  0.99906364298E+01  0.14731015724E+03  0.00000000000E+00 0.  1.
<mgrwt>
<rscale>  0 0.11057991E+04</rscale>
<asrwt>0</asrwt>
<pdfrwt beam="1">  1        1 0.14015419E+00 0.11057991E+04</pdfrwt>
<pdfrwt beam="2">  1       -2 0.51624950E-01 0.11057991E+04</pdfrwt>
<totfact> 0.55146751E+01</totfact>
</mgrwt>
</event>
<event>
12    4  0.4183215E-008  0.1686402E+04  0.7818608E-02  0.8769158E-01
          1   -1    0    0  501    0  0.00000000000E+00  0.00000000000E+00  0.10554227570E+04  0.10554227570E+04  0.00000000000E+00 0. -1.
         -2   -1    0    0    0  501 -0.00000000000E+00 -0.00000000000E+00 -0.67365199422E+03  0.67365199422E+03  0.00000000000E+00 0.  1.
        -24    2    1    2    0    0  0.49037832028E+02  0.50290418763E+02 -0.47064190009E+03  0.48240429618E+03  0.79222923881E+02 0.  0.
        254    2    1    2    0    0 -0.49037832028E+02 -0.50290418763E+02  0.85241266290E+03  0.12466704551E+04  0.90699836853E+03 0.  0.
         23    2    4    4    0    0 -0.69618635469E+02  0.39223945150E+03  0.60433426802E+03  0.73112073771E+03  0.10304893930E+03 0.  0.
         23    2    4    4    0    0  0.20580803441E+02 -0.44252987027E+03  0.24807839489E+03  0.51554971737E+03  0.89400030897E+02 0.  0.
          1    1    3    3  502    0 -0.65489716042E+01  0.44567389725E+02 -0.13985191937E+03  0.14692753523E+03  0.00000000000E+00 0. -1.
         -2    1    3    3    0  502  0.55586803632E+02  0.57230290382E+01 -0.33078998072E+03  0.33547676096E+03  0.00000000000E+00 0.  1.
         11    1    5    5    0    0 -0.22036262539E+02  0.99385841733E+01  0.55851696367E+02  0.60858724183E+02  0.00000000000E+00 0. -1.
        -11    1    5    5    0    0 -0.47582372930E+02  0.38230086733E+03  0.54848257165E+03  0.67026201353E+03  0.00000000000E+00 0.  1.
          3    1    6    6  503    0 -0.33439595419E+02 -0.16465338365E+03  0.10775739428E+03  0.19960110048E+03  0.00000000000E+00 0. -1.
         -3    1    6    6    0  503  0.54020398860E+02 -0.27787648662E+03  0.14032100061E+03  0.31594861690E+03  0.00000000000E+00 0.  1.
<mgrwt>
<rscale>  0 0.16864017E+04</rscale>
<asrwt>0</asrwt>
<pdfrwt beam="1">  1        1 0.16237273E+00 0.16864017E+04</pdfrwt>
<pdfrwt beam="2">  1       -2 0.10363877E+00 0.16864017E+04</pdfrwt>
<totfact> 0.86844292E+00</totfact>
</mgrwt>
</event>
<event>
12    4  0.4183215E-008  0.1589979E+04  0.7818608E-02  0.8826728E-01
         -2   -1    0    0    0  501 -0.00000000000E+00  0.00000000000E+00  0.77871633504E+03  0.77871633504E+03  0.00000000000E+00 0.  1.
          1   -1    0    0  501    0  0.00000000000E+00 -0.00000000000E+00 -0.81160312843E+03  0.81160312843E+03  0.00000000000E+00 0. -1.
        -24    2    1    2    0    0 -0.20334950336E+03  0.29870395147E+03  0.35327955672E+03  0.51099334490E+03  0.75714478083E+02 0.  0.
        254    2    1    2    0    0  0.20334950336E+03 -0.29870395147E+03 -0.38616635011E+03  0.10793261186E+04  0.94087477867E+03 0.  0.
         23    2    4    4    0    0  0.45089022908E+03 -0.11951082290E+03 -0.54528882630E+03  0.72335058023E+03  0.91166454142E+02 0.  0.
         23    2    4    4    0    0 -0.24754072572E+03 -0.17919312857E+03  0.15912247620E+03  0.35597553834E+03  0.89509961726E+02 0.  0.
          1    1    3    3  502    0 -0.48494877278E+02  0.26896799079E+02  0.40886199805E+02  0.68897548995E+02  0.00000000000E+00 0. -1.
         -2    1    3    3    0  502 -0.15485462608E+03  0.27180715239E+03  0.31239335692E+03  0.44209579590E+03  0.00000000000E+00 0.  1.
         11    1    5    5    0    0  0.18984922040E+03 -0.30266942766E+02 -0.16381225658E+03  0.25257329573E+03  0.00000000000E+00 0.  1.
        -11    1    5    5    0    0  0.26104100869E+03 -0.89243880130E+02 -0.38147656973E+03  0.47077728450E+03  0.00000000000E+00 0. -1.
          1    1    6    6  503    0 -0.11613312004E+03 -0.62807447849E+02  0.11472508985E+03  0.17491004350E+03  0.00000000000E+00 0. -1.
         -1    1    6    6    0  503 -0.13140760568E+03 -0.11638568072E+03  0.44397386346E+02  0.18106549484E+03  0.00000000000E+00 0.  1.
<mgrwt>
<rscale>  0 0.15899794E+04</rscale>
<asrwt>0</asrwt>
<pdfrwt beam="1">  1        1 0.12486202E+00 0.15899794E+04</pdfrwt>
<pdfrwt beam="2">  1       -2 0.11980251E+00 0.15899794E+04</pdfrwt>
<totfact> 0.96880708E+00</totfact>
</mgrwt>
</event>
<event>
12    4  0.4183215E-008  0.1037552E+04  0.7818608E-02  0.9268291E-01
         -4   -1    0    0    0  501 -0.00000000000E+00  0.00000000000E+00  0.16037778016E+04  0.16037778016E+04  0.00000000000E+00 0.  1.
          3   -1    0    0  501    0  0.00000000000E+00 -0.00000000000E+00 -0.16780914706E+03  0.16780914706E+03  0.00000000000E+00 0. -1.
        -24    2    1    2    0    0  0.45346445058E+02  0.90286230879E+02  0.95315518150E+02  0.15722108977E+03  0.73658125837E+02 0.  0.
        254    2    1    2    0    0 -0.45346445058E+02 -0.90286230879E+02  0.13406531364E+04  0.16143658589E+04  0.89365451417E+03 0.  0.
         23    2    4    4    0    0  0.11068401390E+03 -0.44726559507E+03  0.51979662310E+03  0.70130366943E+03  0.96648041381E+02 0.  0.
         23    2    4    4    0    0 -0.15603045895E+03  0.35697936419E+03  0.82085651328E+03  0.91306218946E+03  0.89985420242E+02 0.  0.
          3    1    3    3  502    0  0.41250325181E+02  0.19441626652E+02  0.10798772949E+02  0.46863415066E+02  0.00000000000E+00 0. -1.
         -4    1    3    3    0  502  0.40961198765E+01  0.70844604227E+02  0.84516745201E+02  0.11035767470E+03  0.00000000000E+00 0.  1.
         11    1    5    5    0    0  0.91708400805E+02 -0.18937819054E+03  0.20306053533E+03  0.29241769926E+03  0.00000000000E+00 0. -1.
        -11    1    5    5    0    0  0.18975613092E+02 -0.25788740453E+03  0.31673608777E+03  0.40888597017E+03  0.00000000000E+00 0.  1.
          4    1    6    6  503    0 -0.10849025771E+03  0.14598470657E+03  0.41689940064E+03  0.45484808544E+03  0.00000000000E+00 0. -1.
         -4    1    6    6    0  503 -0.47540201241E+02  0.21099465762E+03  0.40395711264E+03  0.45821410402E+03  0.00000000000E+00 0.  1.
<mgrwt>
<rscale>  0 0.10375521E+04</rscale>
<asrwt>0</asrwt>
<pdfrwt beam="1">  1        3 0.25816793E-01 0.10375521E+04</pdfrwt>
<pdfrwt beam="2">  1       -4 0.24673504E+00 0.10375521E+04</pdfrwt>
<totfact> 0.21834707E+00</totfact>
</mgrwt>
</event>
<event>
12    4  0.4183215E-008  0.1313241E+04  0.7818608E-02  0.9019130E-01
         -2   -1    0    0    0  501 -0.00000000000E+00  0.00000000000E+00  0.28623579677E+03  0.28623579677E+03  0.00000000000E+00 0.  1.
          1   -1    0    0  501    0  0.00000000000E+00 -0.00000000000E+00 -0.15062779931E+04  0.15062779931E+04  0.00000000000E+00 0. -1.
        -24    2    1    2    0    0 -0.17645813169E+03  0.19754180575E+03 -0.29980044498E+02  0.27756288051E+03  0.77344116217E+02 0.  0.
        254    2    1    2    0    0  0.17645813169E+03 -0.19754180575E+03 -0.11900621518E+04  0.15149509094E+04  0.89925974850E+03 0.  0.
         23    2    4    4    0    0  0.20430823837E+03  0.18867005282E+03 -0.10547521723E+04  0.10949395321E+04  0.95142991967E+02 0.  0.
         23    2    4    4    0    0 -0.27850106684E+02 -0.38621185857E+03 -0.13530997953E+03  0.42001137723E+03  0.90363368167E+02 0.  0.
          1    1    3    3  502    0 -0.10305250376E+03  0.88216853180E+02 -0.49577743228E+02  0.14442985959E+03  0.00000000000E+00 0. -1.
         -2    1    3    3    0  502 -0.73405627921E+02  0.10932495257E+03  0.19597698730E+02  0.13313302093E+03  0.00000000000E+00 0.  1.
         11    1    5    5    0    0  0.14936144480E+03  0.96541935380E+02 -0.52109274352E+03  0.55060587885E+03  0.00000000000E+00 0. -1.
        -11    1    5    5    0    0  0.54946793570E+02  0.92128117436E+02 -0.53365942879E+03  0.54433365327E+03  0.00000000000E+00 0.  1.
          1    1    6    6  503    0  0.43703470334E+01 -0.34627946995E+03 -0.11746691821E+03  0.36568709044E+03  0.00000000000E+00 0. -1.
         -1    1    6    6    0  503 -0.32220453718E+02 -0.39932388620E+02 -0.17843061313E+02  0.54324286794E+02  0.00000000000E+00 0.  1.
<mgrwt>
<rscale>  0 0.13132413E+04</rscale>
<asrwt>0</asrwt>
<pdfrwt beam="1">  1        1 0.23173508E+00 0.13132413E+04</pdfrwt>
<pdfrwt beam="2">  1       -2 0.44036276E-01 0.13132413E+04</pdfrwt>
<totfact> 0.27276443E+01</totfact>
</mgrwt>
</event>
<event>
12    4  0.4183215E-008  0.1695344E+04  0.7818608E-02  0.8764024E-01
         -2   -1    0    0    0  501 -0.00000000000E+00  0.00000000000E+00  0.37038491017E+03  0.37038491017E+03  0.00000000000E+00 0.  1.
          1   -1    0    0  501    0  0.00000000000E+00 -0.00000000000E+00 -0.19400027174E+04  0.19400027174E+04  0.00000000000E+00 0. -1.
        -24    2    1    2    0    0  0.47712930119E+03  0.18255071831E+03 -0.10388686523E+04  0.11604629268E+04  0.80305622388E+02 0.  0.
        254    2    1    2    0    0 -0.47712930119E+03 -0.18255071831E+03 -0.53074915496E+03  0.11499247008E+04  0.88298075696E+03 0.  0.
         23    2    4    4    0    0 -0.25286413287E+03  0.30807224042E+03 -0.43133478855E+03  0.59418010699E+03  0.90285794684E+02 0.  0.
         23    2    4    4    0    0 -0.22426516832E+03 -0.49062295873E+03 -0.99414366412E+02  0.55574459379E+03  0.89236113351E+02 0.  0.
          3    1    3    3  502    0  0.43422941546E+03  0.17854106197E+03 -0.90056367616E+03  0.10156018072E+04  0.00000000000E+00 0. -1.
         -4    1    3    3    0  502  0.42899885726E+02  0.40096563400E+01 -0.13830497616E+03  0.14486111959E+03  0.00000000000E+00 0.  1.
         11    1    5    5    0    0  0.45899453789E+01 -0.18829727782E+01 -0.19093285827E+01  0.53158932177E+01  0.00000000000E+00 0.  1.
        -11    1    5    5    0    0 -0.25745407825E+03  0.30995521319E+03 -0.42942545997E+03  0.58886421377E+03  0.00000000000E+00 0. -1.
          4    1    6    6  503    0 -0.18853638072E+03 -0.31378476015E+03 -0.75225694417E+02  0.37371880828E+03  0.00000000000E+00 0. -1.
         -4    1    6    6    0  503 -0.35728787594E+02 -0.17683819858E+03 -0.24188671995E+02  0.18202578551E+03  0.00000000000E+00 0.  1.
<mgrwt>
<rscale>  0 0.16953439E+04</rscale>
<asrwt>0</asrwt>
<pdfrwt beam="1">  1        1 0.29846197E+00 0.16953439E+04</pdfrwt>
<pdfrwt beam="2">  1       -2 0.56982292E-01 0.16953439E+04</pdfrwt>
<totfact> 0.78998108E+00</totfact>
</mgrwt>
</event>
<event>
12    4  0.4183215E-008  0.2342788E+04  0.7818608E-02  0.8461239E-01
         -2   -1    0    0    0  501 -0.00000000000E+00  0.00000000000E+00  0.13181708228E+04  0.13181708228E+04  0.00000000000E+00 0.  1.
          1   -1    0    0  501    0  0.00000000000E+00 -0.00000000000E+00 -0.10409609907E+04  0.10409609907E+04  0.00000000000E+00 0. -1.
        -24    2    1    2    0    0 -0.60758677889E+03 -0.45262180420E+03  0.77448515584E+03  0.10860998921E+04  0.75878373430E+02 0.  0.
        254    2    1    2    0    0  0.60758677889E+03  0.45262180420E+03 -0.49727532374E+03  0.12730319213E+04  0.89403542074E+03 0.  0.
         23    2    4    4    0    0  0.20300424405E+03  0.54496537021E+03 -0.59443388972E+03  0.83643322524E+03  0.89838261313E+02 0.  0.
         23    2    4    4    0    0  0.40458253483E+03 -0.92343566012E+02  0.97158565981E+02  0.43659869607E+03  0.94679843632E+02 0.  0.
          1    1    3    3  502    0 -0.86556861808E+02 -0.83677363918E+02  0.15765362061E+03  0.19836495570E+03  0.00000000000E+00 0. -1.
         -2    1    3    3    0  502 -0.52102991708E+03 -0.36894444028E+03  0.61683153523E+03  0.88773493643E+03  0.00000000000E+00 0.  1.
         11    1    5    5    0    0  0.44853272681E+02  0.19392286217E+03 -0.25230611523E+03  0.32136625262E+03  0.00000000000E+00 0. -1.
        -11    1    5    5    0    0  0.15815097137E+03  0.35104250804E+03 -0.34212777449E+03  0.51506697261E+03  0.00000000000E+00 0.  1.
          4    1    6    6  503    0  0.36673604045E+02 -0.34389161124E+02 -0.46486486829E+01  0.50489380774E+02  0.00000000000E+00 0. -1.
         -4    1    6    6    0  503  0.36790893079E+03 -0.57954404888E+02  0.10180721466E+03  0.38610931529E+03  0.00000000000E+00 0.  1.
<mgrwt>
<rscale>  0 0.23427884E+04</rscale>
<asrwt>0</asrwt>
<pdfrwt beam="1">  1        1 0.16014785E+00 0.23427884E+04</pdfrwt>
<pdfrwt beam="2">  1       -2 0.20279551E+00 0.23427884E+04</pdfrwt>
<totfact> 0.14159727E+00</totfact>
</mgrwt>
</event>
<event>
12    4  0.4183215E-008  0.2034178E+04  0.7818608E-02  0.8590806E-01
         -2   -1    0    0    0  501 -0.00000000000E+00  0.00000000000E+00  0.64561370674E+03  0.64561370674E+03  0.00000000000E+00 0.  1.
          1   -1    0    0  501    0  0.00000000000E+00 -0.00000000000E+00 -0.16023052773E+04  0.16023052773E+04  0.00000000000E+00 0. -1.
        -24    2    1    2    0    0  0.28033524742E+02 -0.33544646135E+03 -0.12034258265E+04  0.12521866474E+04  0.80171521884E+02 0.  0.
        254    2    1    2    0    0 -0.28033524742E+02  0.33544646135E+03  0.24673425599E+03  0.99573233666E+03  0.90404363072E+03 0.  0.
         23    2    4    4    0    0  0.46200057120E+02  0.38975197195E+03 -0.25531115601E+03  0.47711338103E+03  0.91718847909E+02 0.  0.
         23    2    4    4    0    0 -0.74233581862E+02 -0.54305510598E+02  0.50204541199E+03  0.51861895562E+03  0.91958209365E+02 0.  0.
          1    1    3    3  502    0 -0.27551848398E+01 -0.26270530094E+03 -0.10008107649E+04  0.10347192148E+04  0.00000000000E+00 0. -1.
         -2    1    3    3    0  502  0.30788709582E+02 -0.72741160410E+02 -0.20261506160E+03  0.21746743261E+03  0.00000000000E+00 0.  1.
         11    1    5    5    0    0 -0.66507650022E+01  0.87566645283E+02 -0.10059534123E+03  0.13353491198E+03  0.00000000000E+00 0.  1.
        -11    1    5    5    0    0  0.52850822122E+02  0.30218532667E+03 -0.15471581478E+03  0.34357846905E+03  0.00000000000E+00 0. -1.
          1    1    6    6  503    0 -0.68658176897E+02 -0.64591096472E+02  0.26467708340E+03  0.28096247699E+03  0.00000000000E+00 0. -1.
         -1    1    6    6    0  503 -0.55754049652E+01  0.10285585874E+02  0.23736832860E+03  0.23765647864E+03  0.00000000000E+00 0.  1.
<mgrwt>
<rscale>  0 0.20341782E+04</rscale>
<asrwt>0</asrwt>
<pdfrwt beam="1">  1        1 0.24650850E+00 0.20341782E+04</pdfrwt>
<pdfrwt beam="2">  1       -2 0.99325186E-01 0.20341782E+04</pdfrwt>
<totfact> 0.37892105E+00</totfact>
</mgrwt>
</event>
<event>
12    4  0.4183215E-008  0.1920193E+04  0.7818608E-02  0.8644870E-01
         -2   -1    0    0    0  501 -0.00000000000E+00  0.00000000000E+00  0.26705066465E+03  0.26705066465E+03  0.00000000000E+00 0.  1.
          1   -1    0    0  501    0  0.00000000000E+00 -0.00000000000E+00 -0.34517249709E+04  0.34517249709E+04  0.00000000000E+00 0. -1.
        -24    2    1    2    0    0  0.78990798658E+02  0.16599748046E+03 -0.26518576494E+04  0.26594277563E+04  0.80076766349E+02 0.  0.
        254    2    1    2    0    0 -0.78990798658E+02 -0.16599748046E+03 -0.53281665689E+03  0.10593478793E+04  0.89695575684E+03 0.  0.
         23    2    4    4    0    0 -0.39536670585E+02 -0.20857782060E+03 -0.76662332115E+03  0.80136887853E+03  0.97020139044E+02 0.  0.
         23    2    4    4    0    0 -0.39454128072E+02  0.42580340138E+02  0.23380666426E+03  0.25797900077E+03  0.92292442787E+02 0.  0.
          1    1    3    3  502    0  0.50082651229E+02  0.11578071984E+03 -0.22356427970E+04  0.22391990003E+04  0.00000000000E+00 0. -1.
         -2    1    3    3    0  502  0.28908147429E+02  0.50216760620E+02 -0.41621485238E+03  0.42022875600E+03  0.00000000000E+00 0.  1.
         11    1    5    5    0    0 -0.52260591537E+02 -0.92218652241E+02 -0.24804013752E+03  0.26973942809E+03  0.00000000000E+00 0.  1.
        -11    1    5    5    0    0  0.12723920951E+02 -0.11635916836E+03 -0.51858318363E+03  0.53162945044E+03  0.00000000000E+00 0. -1.
          1    1    6    6  503    0 -0.51424849555E+02  0.32881665354E+02  0.23473818424E+03  0.24254429329E+03  0.00000000000E+00 0. -1.
         -1    1    6    6    0  503  0.11970721483E+02  0.96986747839E+01 -0.93151997863E+00  0.15434707475E+02  0.00000000000E+00 0.  1.
<mgrwt>
<rscale>  0 0.19201932E+04</rscale>
<asrwt>0</asrwt>
<pdfrwt beam="1">  1        1 0.53103459E+00 0.19201932E+04</pdfrwt>
<pdfrwt beam="2">  1       -2 0.41084720E-01 0.19201932E+04</pdfrwt>
<totfact> 0.12616897E+00</totfact>
</mgrwt>
</event>
<event>
12    4  0.4183215E-008  0.2254304E+04  0.7818608E-02  0.8496159E-01
         -2   -1    0    0    0  501 -0.00000000000E+00  0.00000000000E+00  0.81878530781E+03  0.81878530781E+03  0.00000000000E+00 0.  1.
          1   -1    0    0  501    0  0.00000000000E+00 -0.00000000000E+00 -0.15516545014E+04  0.15516545014E+04  0.00000000000E+00 0. -1.
        -24    2    1    2    0    0  0.44467995940E+03 -0.75603560159E+03 -0.57957332364E+03  0.10544322833E+04  0.81191782236E+02 0.  0.
        254    2    1    2    0    0 -0.44467995940E+03  0.75603560159E+03 -0.15329586991E+03  0.13160075258E+04  0.96904390364E+03 0.  0.
         23    2    4    4    0    0 -0.30592223514E+03  0.18857193948E+03  0.37163873159E+03  0.52530653560E+03  0.93187012070E+02 0.  0.
         23    2    4    4    0    0 -0.13875772425E+03  0.56746366211E+03 -0.52493460150E+03  0.79070099024E+03  0.91558758477E+02 0.  0.
          3    1    3    3  502    0  0.13829077490E+03 -0.20198142839E+03 -0.12376434354E+03  0.27429627880E+03  0.00000000000E+00 0. -1.
         -4    1    3    3    0  502  0.30638918450E+03 -0.55405417320E+03 -0.45580898011E+03  0.78013600453E+03  0.00000000000E+00 0.  1.
         11    1    5    5    0    0 -0.11003597251E+03  0.82199908469E+02  0.82503455615E+02  0.16022347015E+03  0.00000000000E+00 0.  1.
        -11    1    5    5    0    0 -0.19588626263E+03  0.10637203101E+03  0.28913527597E+03  0.36508306545E+03  0.00000000000E+00 0. -1.
          3    1    6    6  503    0 -0.96121285940E+02  0.24295893449E+03 -0.19554023367E+03  0.32635000911E+03  0.00000000000E+00 0. -1.
         -3    1    6    6    0  503 -0.42636438313E+02  0.32450472762E+03 -0.32939436783E+03  0.46435098113E+03  0.00000000000E+00 0.  1.
<mgrwt>
<rscale>  0 0.22543042E+04</rscale>
<asrwt>0</asrwt>
<pdfrwt beam="1">  1        1 0.23871607E+00 0.22543042E+04</pdfrwt>
<pdfrwt beam="2">  1       -2 0.12596697E+00 0.22543042E+04</pdfrwt>
<totfact> 0.22575222E+00</totfact>
</mgrwt>
</event>
<event>
12    4  0.4183215E-008  0.1316032E+04  0.7818608E-02  0.9016947E-01
          1   -1    0    0  501    0  0.00000000000E+00  0.00000000000E+00  0.10015166959E+04  0.10015166959E+04  0.00000000000E+00 0. -1.
         -2   -1    0    0    0  501 -0.00000000000E+00 -0.00000000000E+00 -0.43232963905E+03  0.43232963905E+03  0.00000000000E+00 0.  1.
        -24    2    1    2    0    0  0.17368933608E+03  0.39936131734E+02 -0.16585879415E+03  0.25402804344E+03  0.72513634389E+02 0.  0.
        254    2    1    2    0    0 -0.17368933608E+03 -0.39936131734E+02  0.73504585096E+03  0.11798182915E+04  0.90549208599E+03 0.  0.
         23    2    4    4    0    0  0.13672296962E+03 -0.44552321919E+02  0.82532814496E+03  0.84285403129E+03  0.92511033878E+02 0.  0.
         23    2    4    4    0    0 -0.31041230570E+03  0.46161901852E+01 -0.90282293993E+02  0.33696426019E+03  0.94957418313E+02 0.  0.
          1    1    3    3  502    0  0.74054309099E+02  0.33946450205E+02 -0.11785539889E+03  0.14327001510E+03  0.00000000000E+00 0. -1.
         -2    1    3    3    0  502  0.99635026982E+02  0.59896815287E+01 -0.48003395252E+02  0.11075802834E+03  0.00000000000E+00 0.  1.
         11    1    5    5    0    0  0.40088138658E+01 -0.95408381255E+01  0.57034047573E+01  0.11816387205E+02  0.00000000000E+00 0. -1.
        -11    1    5    5    0    0  0.13271415575E+03 -0.35011483794E+02  0.81962474020E+03  0.83103764408E+03  0.00000000000E+00 0.  1.
          4    1    6    6  503    0 -0.19089729201E+03  0.38910077409E+02 -0.24674472519E+02  0.19637871528E+03  0.00000000000E+00 0. -1.
         -4    1    6    6    0  503 -0.11951501369E+03 -0.34293887223E+02 -0.65607821474E+02  0.14058554490E+03  0.00000000000E+00 0.  1.
<mgrwt>
<rscale>  0 0.13160324E+04</rscale>
<asrwt>0</asrwt>
<pdfrwt beam="1">  1        1 0.15407949E+00 0.13160324E+04</pdfrwt>
<pdfrwt beam="2">  1       -2 0.66512253E-01 0.13160324E+04</pdfrwt>
<totfact> 0.26971538E+01</totfact>
</mgrwt>
</event>
<event>
12    4  0.4183215E-008  0.2765387E+04  0.7818608E-02  0.8314096E-01
         -2   -1    0    0    0  501 -0.00000000000E+00  0.00000000000E+00  0.52903897056E+03  0.52903897056E+03  0.00000000000E+00 0.  1.
          1   -1    0    0  501    0  0.00000000000E+00 -0.00000000000E+00 -0.36138009293E+04  0.36138009293E+04  0.00000000000E+00 0. -1.
        -24    2    1    2    0    0 -0.25760191724E+03  0.64470561265E+02 -0.31885585566E+04  0.32005700245E+04  0.78915216645E+02 0.  0.
        254    2    1    2    0    0  0.25760191724E+03 -0.64470561265E+02  0.10379659788E+03  0.94226987539E+03  0.89809998514E+03 0.  0.
         23    2    4    4    0    0 -0.13797156523E+03 -0.37174612414E+03  0.14723589483E+03  0.43117339322E+03  0.83670500592E+02 0.  0.
         23    2    4    4    0    0  0.39557348247E+03  0.30727556288E+03 -0.43439296948E+02  0.51109648217E+03  0.91847645563E+02 0.  0.
          1    1    3    3  502    0 -0.22127191046E+03  0.81703977671E+02 -0.28097607240E+04  0.28196439712E+04  0.00000000000E+00 0. -1.
         -2    1    3    3    0  502 -0.36330006777E+02 -0.17233416407E+02 -0.37879783261E+03  0.38092605322E+03  0.00000000000E+00 0.  1.
         11    1    5    5    0    0  0.69960947704E+01 -0.94501434604E+00  0.35920855756E+01  0.79209515170E+01  0.00000000000E+00 0. -1.
        -11    1    5    5    0    0 -0.14496766000E+03 -0.37080110980E+03  0.14364380925E+03  0.42325244171E+03  0.00000000000E+00 0.  1.
          1    1    6    6  503    0  0.20090062934E+03  0.10284661500E+03 -0.14598637457E+01  0.22570028863E+03  0.00000000000E+00 0. -1.
         -1    1    6    6    0  503  0.19467285313E+03  0.20442894788E+03 -0.41979433203E+02  0.28539619354E+03  0.00000000000E+00 0.  1.
<mgrwt>
<rscale>  0 0.27653872E+04</rscale>
<asrwt>0</asrwt>
<pdfrwt beam="1">  1        1 0.55596939E+00 0.27653872E+04</pdfrwt>
<pdfrwt beam="2">  1       -2 0.81390609E-01 0.27653872E+04</pdfrwt>
<totfact> 0.20593773E-01</totfact>
</mgrwt>
</event>
<event>
12    4  0.4183215E-008  0.1212437E+04  0.7818608E-02  0.9102040E-01
          1   -1    0    0  501    0  0.00000000000E+00  0.00000000000E+00  0.21734341546E+04  0.21734341546E+04  0.00000000000E+00 0. -1.
         -2   -1    0    0    0  501 -0.00000000000E+00 -0.00000000000E+00 -0.16908761646E+03  0.16908761646E+03  0.00000000000E+00 0.  1.
        -24    2    1    2    0    0  0.20034039974E+03 -0.15599425452E+03  0.53336025043E+03  0.59593350517E+03  0.78696268208E+02 0.  0.
        254    2    1    2    0    0 -0.20034039974E+03  0.15599425452E+03  0.14709862877E+04  0.17465882659E+04  0.90680727209E+03 0.  0.
         23    2    4    4    0    0 -0.25522483021E+03  0.12557338981E+03  0.28643546945E+02  0.30003304158E+03  0.91054835519E+02 0.  0.
         23    2    4    4    0    0  0.54884430472E+02  0.30420864705E+02  0.14423427407E+04  0.14465552243E+04  0.90728746565E+02 0.  0.
          3    1    3    3  502    0  0.43536044029E+02 -0.31794292515E+02  0.20023109664E+03  0.20736141451E+03  0.00000000000E+00 0. -1.
         -4    1    3    3    0  502  0.15680435571E+03 -0.12419996200E+03  0.33312915379E+03  0.38857209066E+03  0.00000000000E+00 0.  1.
         11    1    5    5    0    0 -0.16824195541E+03  0.12753733047E+03  0.12069827983E+02  0.21146348851E+03  0.00000000000E+00 0. -1.
        -11    1    5    5    0    0 -0.86982874800E+02 -0.19639406526E+01  0.16573718963E+02  0.88569553073E+02  0.00000000000E+00 0.  1.
          3    1    6    6  503    0  0.33850002373E+02 -0.16530118142E+02  0.10713672772E+04  0.10720293421E+04  0.00000000000E+00 0. -1.
         -3    1    6    6    0  503  0.21034428099E+02  0.46950982847E+02  0.37097546349E+03  0.37452588224E+03  0.00000000000E+00 0.  1.
<mgrwt>
<rscale>  0 0.12124369E+04</rscale>
<asrwt>0</asrwt>
<pdfrwt beam="1">  1        1 0.33437447E+00 0.12124369E+04</pdfrwt>
<pdfrwt beam="2">  1       -2 0.26013481E-01 0.12124369E+04</pdfrwt>
<totfact> 0.26392394E+01</totfact>
</mgrwt>
</event>
<event>
12    4  0.4183215E-008  0.2115870E+04  0.7818608E-02  0.8554284E-01
          1   -1    0    0  501    0  0.00000000000E+00  0.00000000000E+00  0.10134443906E+04  0.10134443906E+04  0.00000000000E+00 0. -1.
         -2   -1    0    0    0  501 -0.00000000000E+00 -0.00000000000E+00 -0.11043789787E+04  0.11043789787E+04  0.00000000000E+00 0.  1.
        -24    2    1    2    0    0 -0.57176209654E+03  0.22537659175E+03  0.57443753154E+03  0.84501206112E+03  0.79752132540E+02 0.  0.
        254    2    1    2    0    0  0.57176209654E+03 -0.22537659175E+03 -0.66537211966E+03  0.12728113082E+04  0.89421589428E+03 0.  0.
         23    2    4    4    0    0 -0.57728572552E+02 -0.27477046151E+03  0.66040004089E+02  0.30286646104E+03  0.92387317735E+02 0.  0.
         23    2    4    4    0    0  0.62949066909E+03  0.49393869760E+02 -0.73141212375E+03  0.96994484719E+03  0.84445574002E+02 0.  0.
          3    1    3    3  502    0 -0.54241078665E+03  0.21701141051E+03  0.51770311907E+03  0.78058947806E+03  0.00000000000E+00 0. -1.
         -4    1    3    3    0  502 -0.29351309893E+02  0.83651812393E+01  0.56734412469E+02  0.64422583058E+02  0.00000000000E+00 0.  1.
         11    1    5    5    0    0  0.14104725883E+02 -0.65419578089E+02  0.44764975774E+02  0.80514393406E+02  0.00000000000E+00 0. -1.
        -11    1    5    5    0    0 -0.71833298435E+02 -0.20935088342E+03  0.21275028315E+02  0.22235206764E+03  0.00000000000E+00 0.  1.
          3    1    6    6  503    0  0.20608220060E+03  0.56114670527E+02 -0.24494447850E+03  0.32498696466E+03  0.00000000000E+00 0. -1.
         -3    1    6    6    0  503  0.42340846849E+03 -0.67208007676E+01 -0.48646764526E+03  0.64495788253E+03  0.00000000000E+00 0.  1.
<mgrwt>
<rscale>  0 0.21158702E+04</rscale>
<asrwt>0</asrwt>
<pdfrwt beam="1">  1        1 0.15591452E+00 0.21158702E+04</pdfrwt>
<pdfrwt beam="2">  1       -2 0.16990446E+00 0.21158702E+04</pdfrwt>
<totfact> 0.25384456E+00</totfact>
</mgrwt>
</event>
<event>
12    4  0.4183215E-008  0.2093633E+04  0.7818608E-02  0.8564053E-01
         -2   -1    0    0    0  501 -0.00000000000E+00  0.00000000000E+00  0.58457165612E+03  0.58457165612E+03  0.00000000000E+00 0.  1.
          1   -1    0    0  501    0  0.00000000000E+00 -0.00000000000E+00 -0.18745771680E+04  0.18745771680E+04  0.00000000000E+00 0. -1.
        -24    2    1    2    0    0  0.12600949100E+03  0.37682531271E+03 -0.14258267433E+04  0.14823579955E+04  0.80793667548E+02 0.  0.
        254    2    1    2    0    0 -0.12600949100E+03 -0.37682531271E+03  0.13582123145E+03  0.97679082861E+03  0.88192811942E+03 0.  0.
         23    2    4    4    0    0 -0.33686781840E+03  0.63743762940E+02  0.28808282462E+03  0.45694621811E+03  0.90911704498E+02 0.  0.
         23    2    4    4    0    0  0.21085832740E+03 -0.44056907565E+03 -0.15226159317E+03  0.51984461050E+03  0.92154661638E+02 0.  0.
          3    1    3    3  502    0  0.13528632815E+03  0.33485653267E+03 -0.13077135199E+04  0.13566672171E+04  0.00000000000E+00 0. -1.
         -4    1    3    3    0  502 -0.92768371434E+01  0.41968780044E+02 -0.11811322347E+03  0.12569077836E+03  0.00000000000E+00 0.  1.
         11    1    5    5    0    0 -0.17120085517E+03 -0.91735406896E+01  0.16583406330E+03  0.23852635748E+03  0.00000000000E+00 0. -1.
        -11    1    5    5    0    0 -0.16566696323E+03  0.72917303629E+02  0.12224876132E+03  0.21841986063E+03  0.00000000000E+00 0.  1.
          1    1    6    6  503    0  0.51594294638E+02 -0.82193524276E+02 -0.68616232753E+02  0.11885257283E+03  0.00000000000E+00 0. -1.
         -1    1    6    6    0  503  0.15926403276E+03 -0.35837555138E+03 -0.83645360415E+02  0.40099203767E+03  0.00000000000E+00 0.  1.
<mgrwt>
<rscale>  0 0.20936329E+04</rscale>
<asrwt>0</asrwt>
<pdfrwt beam="1">  1        1 0.28839649E+00 0.20936329E+04</pdfrwt>
<pdfrwt beam="2">  1       -2 0.89934101E-01 0.20936329E+04</pdfrwt>
<totfact> 0.31012791E+00</totfact>
</mgrwt>
</event>
<event>
12    4  0.4183215E-008  0.1596545E+04  0.7818608E-02  0.8822674E-01
         -2   -1    0    0    0  501 -0.00000000000E+00  0.00000000000E+00  0.82136316975E+03  0.82136316975E+03  0.00000000000E+00 0.  1.
          1   -1    0    0  501    0  0.00000000000E+00 -0.00000000000E+00 -0.77583063195E+03  0.77583063195E+03  0.00000000000E+00 0. -1.
        -24    2    1    2    0    0  0.30531684135E+03 -0.43272856336E+03 -0.21898791823E+03  0.57855196301E+03  0.79336513771E+02 0.  0.
        254    2    1    2    0    0 -0.30531684135E+03  0.43272856336E+03  0.26452045602E+03  0.10186418387E+04  0.82896787677E+03 0.  0.
         23    2    4    4    0    0  0.12644841110E+02  0.83251948891E+02  0.47670186212E+03  0.49243852916E+03  0.90334161040E+02 0.  0.
         23    2    4    4    0    0 -0.31796168246E+03  0.34947661447E+03 -0.21218140610E+03  0.52620330953E+03  0.92927059003E+02 0.  0.
          1    1    3    3  502    0  0.21699001276E+03 -0.34745074729E+03 -0.14161659740E+03  0.43343044204E+03  0.00000000000E+00 0. -1.
         -2    1    3    3    0  502  0.88326828587E+02 -0.85277816072E+02 -0.77371320828E+02  0.14512152097E+03  0.00000000000E+00 0.  1.
         11    1    5    5    0    0 -0.33927278290E+02  0.29433514029E+02  0.10864032168E+03  0.11755897012E+03  0.00000000000E+00 0.  1.
        -11    1    5    5    0    0  0.46572119400E+02  0.53818434862E+02  0.36806154044E+03  0.37487955904E+03  0.00000000000E+00 0. -1.
          4    1    6    6  503    0 -0.23085110201E+03  0.23884202319E+03 -0.10222475185E+03  0.34754516718E+03  0.00000000000E+00 0. -1.
         -4    1    6    6    0  503 -0.87110580445E+02  0.11063459128E+03 -0.10995665425E+03  0.17865814235E+03  0.00000000000E+00 0.  1.
<mgrwt>
<rscale>  0 0.15965447E+04</rscale>
<asrwt>0</asrwt>
<pdfrwt beam="1">  1        1 0.11935856E+00 0.15965447E+04</pdfrwt>
<pdfrwt beam="2">  1       -2 0.12636357E+00 0.15965447E+04</pdfrwt>
<totfact> 0.91061027E+00</totfact>
</mgrwt>
</event>
<event>
12    4  0.4183215E-008  0.1029033E+04  0.7818608E-02  0.9277263E-01
          1   -1    0    0  501    0  0.00000000000E+00  0.00000000000E+00  0.14775883178E+04  0.14775883178E+04  0.00000000000E+00 0. -1.
         -2   -1    0    0    0  501 -0.00000000000E+00 -0.00000000000E+00 -0.17916155869E+03  0.17916155869E+03  0.00000000000E+00 0.  1.
        -24    2    1    2    0    0  0.60630394187E+02 -0.12929380504E+02  0.29406477607E+03  0.31160900912E+03  0.82358171793E+02 0.  0.
        254    2    1    2    0    0 -0.60630394187E+02  0.12929380504E+02  0.10043619831E+04  0.13451408674E+04  0.89264648463E+03 0.  0.
         23    2    4    4    0    0 -0.48114003894E+02 -0.10519908657E+03  0.11365994769E+04  0.11460558122E+04  0.90574547760E+02 0.  0.
         23    2    4    4    0    0 -0.12516390293E+02  0.11812846707E+03 -0.13223749384E+03  0.19908505515E+03  0.89649928333E+02 0.  0.
          1    1    3    3  502    0  0.46147497935E+02  0.30758474676E+01  0.28409065192E+03  0.28783076783E+03  0.00000000000E+00 0. -1.
         -2    1    3    3    0  502  0.14482896253E+02 -0.16005227972E+02  0.99741241542E+01  0.23778241292E+02  0.00000000000E+00 0.  1.
         11    1    5    5    0    0  0.20603944711E+02 -0.19354614814E+02  0.43237346526E+03  0.43329659255E+03  0.00000000000E+00 0. -1.
        -11    1    5    5    0    0 -0.68717948605E+02 -0.85844471753E+02  0.70422601163E+03  0.71275921969E+03  0.00000000000E+00 0.  1.
          3    1    6    6  503    0  0.11065453980E+02 -0.12057210526E+02 -0.11833838641E+02  0.20195552343E+02  0.00000000000E+00 0. -1.
         -3    1    6    6    0  503 -0.23581844273E+02  0.13018567760E+03 -0.12040365519E+03  0.17888950281E+03  0.00000000000E+00 0.  1.
<mgrwt>
<rscale>  0 0.10290326E+04</rscale>
<asrwt>0</asrwt>
<pdfrwt beam="1">  1        1 0.22732127E+00 0.10290326E+04</pdfrwt>
<pdfrwt beam="2">  1       -2 0.27563318E-01 0.10290326E+04</pdfrwt>
<totfact> 0.71458473E+01</totfact>
</mgrwt>
</event>
<event>
12    4  0.4183215E-008  0.1571551E+04  0.7818608E-02  0.8838219E-01
          1   -1    0    0  501    0  0.00000000000E+00  0.00000000000E+00  0.45151150412E+03  0.45151150412E+03  0.00000000000E+00 0. -1.
         -2   -1    0    0    0  501 -0.00000000000E+00 -0.00000000000E+00 -0.13675018814E+04  0.13675018814E+04  0.00000000000E+00 0.  1.
        -24    2    1    2    0    0  0.34395969031E+03  0.38798664305E+03 -0.36200208087E+03  0.63746373249E+03  0.80452470084E+02 0.  0.
        254    2    1    2    0    0 -0.34395969031E+03 -0.38798664305E+03 -0.55398829644E+03  0.11815496531E+04  0.90571223151E+03 0.  0.
         23    2    4    4    0    0 -0.73832431799E+02  0.26055566939E+03 -0.33466851640E+03  0.44056019583E+03  0.93540287814E+02 0.  0.
         23    2    4    4    0    0 -0.27012725852E+03 -0.64854231244E+03 -0.21931978005E+03  0.74098945723E+03  0.85955470945E+02 0.  0.
          1    1    3    3  502    0  0.14924066244E+03  0.12110957254E+03 -0.10576786033E+03  0.21937899664E+03  0.00000000000E+00 0. -1.
         -2    1    3    3    0  502  0.19471902788E+03  0.26687707051E+03 -0.25623422054E+03  0.41808473586E+03  0.00000000000E+00 0.  1.
         11    1    5    5    0    0 -0.18172226508E+02  0.20647240838E+02 -0.33136967598E+01  0.27704132484E+02  0.00000000000E+00 0. -1.
        -11    1    5    5    0    0 -0.55660205291E+02  0.23990842855E+03 -0.33135481964E+03  0.41285606334E+03  0.00000000000E+00 0.  1.
          2    1    6    6  503    0 -0.59600502031E+02 -0.24830227149E+03 -0.87653292445E+02  0.26998025399E+03  0.00000000000E+00 0. -1.
         -2    1    6    6    0  503 -0.21052675648E+03 -0.40024004096E+03 -0.13166648760E+03  0.47100920324E+03  0.00000000000E+00 0.  1.
<mgrwt>
<rscale>  0 0.15715506E+04</rscale>
<asrwt>0</asrwt>
<pdfrwt beam="1">  1        1 0.69463308E-01 0.15715506E+04</pdfrwt>
<pdfrwt beam="2">  1       -2 0.21038490E+00 0.15715506E+04</pdfrwt>
<totfact> 0.48769027E+00</totfact>
</mgrwt>
</event>
<event>
12    4  0.4183215E-008  0.1194579E+04  0.7818608E-02  0.9117614E-01
          1   -1    0    0  501    0  0.00000000000E+00  0.00000000000E+00  0.16328343822E+04  0.16328343822E+04  0.00000000000E+00 0. -1.
         -2   -1    0    0    0  501 -0.00000000000E+00 -0.00000000000E+00 -0.21848815927E+03  0.21848815927E+03  0.00000000000E+00 0.  1.
        -24    2    1    2    0    0 -0.23043314680E+03 -0.20554020551E+03  0.62935389324E+03  0.70545080475E+03  0.78919603140E+02 0.  0.
        254    2    1    2    0    0  0.23043314680E+03  0.20554020551E+03  0.78499232966E+03  0.11458717367E+04  0.77554037169E+03 0.  0.
         23    2    4    4    0    0  0.47171621984E+03  0.25501477160E+03  0.38925954595E+03  0.66867813096E+03  0.89770389956E+02 0.  0.
         23    2    4    4    0    0 -0.24128307304E+03 -0.49474566097E+02  0.39573278370E+03  0.47719360573E+03  0.10219612140E+03 0.  0.
          1    1    3    3  502    0 -0.13633977346E+03 -0.12590952166E+03  0.28894268042E+03  0.34340881474E+03  0.00000000000E+00 0. -1.
         -2    1    3    3    0  502 -0.94093373338E+02 -0.79630683845E+02  0.34041121282E+03  0.36204199001E+03  0.00000000000E+00 0.  1.
         11    1    5    5    0    0  0.67971420081E+02  0.71681323933E+02  0.90755204996E+02  0.13414482242E+03  0.00000000000E+00 0. -1.
        -11    1    5    5    0    0  0.40374479976E+03  0.18333344767E+03  0.29850434096E+03  0.53453330854E+03  0.00000000000E+00 0.  1.
          2    1    6    6  503    0 -0.15387953632E+03 -0.29489842665E+02  0.33223604328E+03  0.36732730769E+03  0.00000000000E+00 0. -1.
         -2    1    6    6    0  503 -0.87403536719E+02 -0.19984723433E+02  0.63496740418E+02  0.10986629804E+03  0.00000000000E+00 0.  1.
<mgrwt>
<rscale>  0 0.11945794E+04</rscale>
<asrwt>0</asrwt>
<pdfrwt beam="1">  1        1 0.25120528E+00 0.11945794E+04</pdfrwt>
<pdfrwt beam="2">  1       -2 0.33613564E-01 0.11945794E+04</pdfrwt>
<totfact> 0.38102735E+01</totfact>
</mgrwt>
</event>
<event>
12    4  0.4183215E-008  0.1649578E+04  0.7818608E-02  0.8790656E-01
          1   -1    0    0  501    0  0.00000000000E+00  0.00000000000E+00  0.24960148820E+04  0.24960148820E+04  0.00000000000E+00 0. -1.
         -2   -1    0    0    0  501 -0.00000000000E+00 -0.00000000000E+00 -0.27254515847E+03  0.27254515847E+03  0.00000000000E+00 0.  1.
        -24    2    1    2    0    0  0.11549421452E+03  0.23297546751E+03 -0.84394282867E+02  0.28400093518E+03  0.76926290393E+02 0.  0.
        254    2    1    2    0    0 -0.11549421452E+03 -0.23297546751E+03  0.23078640064E+04  0.24845591053E+04  0.88271240704E+03 0.  0.
         23    2    4    4    0    0 -0.37380570740E+03  0.48372702140E+02  0.49076514586E+03  0.62549795755E+03  0.91250431880E+02 0.  0.
         23    2    4    4    0    0  0.25831149287E+03 -0.28134816965E+03  0.18170988606E+04  0.18590611477E+04  0.91533939570E+02 0.  0.
          1    1    3    3  502    0 -0.37275214414E+01  0.31397925612E+02  0.73760887810E+01  0.32467381086E+02  0.00000000000E+00 0. -1.
         -2    1    3    3    0  502  0.11922173596E+03  0.20157754190E+03 -0.91770371648E+02  0.25153355410E+03  0.00000000000E+00 0.  1.
         11    1    5    5    0    0 -0.23260482140E+03  0.12334046680E+02  0.36507077571E+03  0.43305173239E+03  0.00000000000E+00 0. -1.
        -11    1    5    5    0    0 -0.14120088599E+03  0.36038655460E+02  0.12569437015E+03  0.19244622516E+03  0.00000000000E+00 0.  1.
          3    1    6    6  503    0  0.25439996310E+03 -0.27094374901E+03  0.16387591225E+04  0.16803753503E+04  0.00000000000E+00 0. -1.
         -3    1    6    6    0  503  0.39115297686E+01 -0.10404420640E+02  0.17833973801E+03  0.17868579739E+03  0.00000000000E+00 0.  1.
<mgrwt>
<rscale>  0 0.16495779E+04</rscale>
<asrwt>0</asrwt>
<pdfrwt beam="1">  1        1 0.38400227E+00 0.16495779E+04</pdfrwt>
<pdfrwt beam="2">  1       -2 0.41930026E-01 0.16495779E+04</pdfrwt>
<totfact> 0.61779906E+00</totfact>
</mgrwt>
</event>
<event>
12    4  0.4183215E-008  0.1231795E+04  0.7818608E-02  0.9085473E-01
         -2   -1    0    0    0  501 -0.00000000000E+00  0.00000000000E+00  0.12901201458E+04  0.12901201458E+04  0.00000000000E+00 0.  1.
          1   -1    0    0  501    0  0.00000000000E+00 -0.00000000000E+00 -0.29402654055E+03  0.29402654055E+03  0.00000000000E+00 0. -1.
        -24    2    1    2    0    0 -0.37848744964E+02 -0.26694650745E+03  0.34581685616E+03  0.44584824421E+03  0.80612613910E+02 0.  0.
        254    2    1    2    0    0  0.37848744964E+02  0.26694650745E+03  0.65027674905E+03  0.11382984421E+04  0.89452251375E+03 0.  0.
         23    2    4    4    0    0 -0.14337687621E+03  0.54582978065E+03  0.30263249994E+03  0.64681509151E+03  0.91083777407E+02 0.  0.
         23    2    4    4    0    0  0.18122562118E+03 -0.27888327319E+03  0.34764424911E+03  0.49148335060E+03  0.10040295880E+03 0.  0.
          1    1    3    3  502    0  0.15275874644E+02 -0.97963731777E+02  0.16655514795E+03  0.19383204688E+03  0.00000000000E+00 0. -1.
         -4    1    3    3    0  502 -0.53124619609E+02 -0.16898277568E+03  0.17926170821E+03  0.25201619732E+03  0.00000000000E+00 0.  1.
         11    1    5    5    0    0 -0.12611031284E+03  0.34880915800E+03  0.16554234380E+03  0.40617226309E+03  0.00000000000E+00 0.  1.
        -11    1    5    5    0    0 -0.17266563367E+02  0.19702062265E+03  0.13709015614E+03  0.24064282842E+03  0.00000000000E+00 0. -1.
          1    1    6    6  503    0  0.15246945867E+03 -0.27905318893E+03  0.32671348569E+03  0.45591591309E+03  0.00000000000E+00 0. -1.
         -1    1    6    6    0  503  0.28756162508E+02  0.16991573143E+00  0.20930763422E+02  0.35567437509E+02  0.00000000000E+00 0.  1.
<mgrwt>
<rscale>  0 0.12317947E+04</rscale>
<asrwt>0</asrwt>
<pdfrwt beam="1">  1        1 0.45234853E-01 0.12317947E+04</pdfrwt>
<pdfrwt beam="2">  1       -2 0.19848002E+00 0.12317947E+04</pdfrwt>
<totfact> 0.10549728E+01</totfact>
</mgrwt>
</event>
<event>
12    4  0.4183215E-008  0.1941548E+04  0.7818608E-02  0.8634447E-01
         -2   -1    0    0    0  501 -0.00000000000E+00  0.00000000000E+00  0.19575086295E+04  0.19575086295E+04  0.00000000000E+00 0.  1.
          1   -1    0    0  501    0  0.00000000000E+00 -0.00000000000E+00 -0.48142961879E+03  0.48142961879E+03  0.00000000000E+00 0. -1.
        -24    2    1    2    0    0  0.56302064292E+03 -0.72700808301E+02 -0.53480163828E+02  0.57522985693E+03  0.75839359883E+02 0.  0.
        254    2    1    2    0    0 -0.56302064292E+03  0.72700808301E+02  0.15295591746E+04  0.18637083914E+04  0.90087737665E+03 0.  0.
         23    2    4    4    0    0 -0.42927345690E+03  0.80450782324E+02  0.16184356291E+04  0.16788041815E+04  0.91112923756E+02 0.  0.
         23    2    4    4    0    0 -0.13374718602E+03 -0.77499740224E+01 -0.88876454582E+02  0.18490420991E+03  0.91335484886E+02 0.  0.
          1    1    3    3  502    0  0.44457068219E+03 -0.48949563642E+02 -0.71984456728E+02  0.45301314910E+03  0.00000000000E+00 0. -1.
         -2    1    3    3    0  502  0.11844996072E+03 -0.23751244659E+02  0.18504292900E+02  0.12221670783E+03  0.00000000000E+00 0.  1.
         11    1    5    5    0    0 -0.36420523885E+03  0.57699176025E+02  0.12221356374E+04  0.12765540205E+04  0.00000000000E+00 0.  1.
        -11    1    5    5    0    0 -0.65068218049E+02  0.22751606299E+02  0.39629999171E+03  0.40225016099E+03  0.00000000000E+00 0. -1.
          4    1    6    6  503    0 -0.98003748893E+02  0.35365210551E+02 -0.43837333265E+02  0.11303603276E+03  0.00000000000E+00 0. -1.
         -4    1    6    6    0  503 -0.35743437127E+02 -0.43115184573E+02 -0.45039121317E+02  0.71868177154E+02  0.00000000000E+00 0.  1.
<mgrwt>
<rscale>  0 0.19415485E+04</rscale>
<asrwt>0</asrwt>
<pdfrwt beam="1">  1        1 0.74066096E-01 0.19415485E+04</pdfrwt>
<pdfrwt beam="2">  1       -2 0.30115517E+00 0.19415485E+04</pdfrwt>
<totfact> 0.11929326E+00</totfact>
</mgrwt>
</event>
<event>
12    4  0.4183215E-008  0.2279044E+04  0.7818608E-02  0.8486230E-01
         -2   -1    0    0    0  501 -0.00000000000E+00  0.00000000000E+00  0.11070590416E+04  0.11070590416E+04  0.00000000000E+00 0.  1.
          1   -1    0    0  501    0  0.00000000000E+00 -0.00000000000E+00 -0.11729367813E+04  0.11729367813E+04  0.00000000000E+00 0. -1.
        -24    2    1    2    0    0 -0.60954184308E+03  0.30993909147E+03 -0.70018388272E+03  0.98194224655E+03  0.79684421680E+02 0.  0.
        254    2    1    2    0    0  0.60954184308E+03 -0.30993909147E+03  0.63430614298E+03  0.12980535763E+04  0.90277090395E+03 0.  0.
         23    2    4    4    0    0 -0.21853082006E+03 -0.13670357544E+03  0.91074226117E+02  0.28837691145E+03  0.91777674520E+02 0.  0.
         23    2    4    4    0    0  0.82807266314E+03 -0.17323551603E+03  0.54323191687E+03  0.10096766649E+04  0.92904104253E+02 0.  0.
          3    1    3    3  502    0 -0.43461166873E+03  0.19087171140E+03 -0.44756210727E+03  0.65240413294E+03  0.00000000000E+00 0. -1.
         -4    1    3    3    0  502 -0.17493017435E+03  0.11906738007E+03 -0.25262177544E+03  0.32953811361E+03  0.00000000000E+00 0.  1.
         11    1    5    5    0    0 -0.21153576924E+03 -0.10688869699E+03  0.98826633304E+02  0.25678644564E+03  0.00000000000E+00 0. -1.
        -11    1    5    5    0    0 -0.69950508135E+01 -0.29814878448E+02 -0.77524071872E+01  0.31590465808E+02  0.00000000000E+00 0.  1.
          2    1    6    6  503    0  0.45121144006E+03 -0.74854103737E+02  0.24314772982E+03  0.51799200670E+03  0.00000000000E+00 0. -1.
         -2    1    6    6    0  503  0.37686122308E+03 -0.98381412295E+02  0.30008418705E+03  0.49168465815E+03  0.00000000000E+00 0.  1.
<mgrwt>
<rscale>  0 0.22790439E+04</rscale>
<asrwt>0</asrwt>
<pdfrwt beam="1">  1        1 0.18045181E+00 0.22790439E+04</pdfrwt>
<pdfrwt beam="2">  1       -2 0.17031678E+00 0.22790439E+04</pdfrwt>
<totfact> 0.18841018E+00</totfact>
</mgrwt>
</event>
<event>
12    4  0.4183215E-008  0.1681846E+04  0.7818608E-02  0.8771786E-01
          1   -1    0    0  501    0  0.00000000000E+00  0.00000000000E+00  0.95012161468E+03  0.95012161468E+03  0.00000000000E+00 0. -1.
         -2   -1    0    0    0  501 -0.00000000000E+00 -0.00000000000E+00 -0.74427493028E+03  0.74427493028E+03  0.00000000000E+00 0.  1.
        -24    2    1    2    0    0  0.40709451396E+03 -0.30137352146E+01 -0.33763242093E+03  0.53498622916E+03  0.80495887070E+02 0.  0.
        254    2    1    2    0    0 -0.40709451396E+03  0.30137352146E+01  0.54347910533E+03  0.11594103158E+04  0.93974875182E+03 0.  0.
         23    2    4    4    0    0  0.17916210866E+03 -0.28518752607E+03  0.94689655649E+02  0.36158099755E+03  0.91343859671E+02 0.  0.
         23    2    4    4    0    0 -0.58625662262E+03  0.28820126128E+03  0.44878944968E+03  0.79782931824E+03  0.91448654073E+02 0.  0.
          1    1    3    3  502    0  0.15589181857E+03 -0.21407158527E+01 -0.80301637919E+02  0.17537159067E+03  0.00000000000E+00 0. -1.
         -2    1    3    3    0  502  0.25120269539E+03 -0.87301936187E+00 -0.25733078302E+03  0.35961463850E+03  0.00000000000E+00 0.  1.
         11    1    5    5    0    0  0.31557236861E+02 -0.12594871267E+02  0.29081721168E+02  0.44724003473E+02  0.00000000000E+00 0. -1.
        -11    1    5    5    0    0  0.14760487180E+03 -0.27259265480E+03  0.65607934481E+02  0.31685699408E+03  0.00000000000E+00 0.  1.
          1    1    6    6  503    0 -0.52343073338E+02  0.43121678348E+02  0.76928089081E+02  0.10255343661E+03  0.00000000000E+00 0. -1.
         -1    1    6    6    0  503 -0.53391354928E+03  0.24507958294E+03  0.37186136060E+03  0.69527588164E+03  0.00000000000E+00 0.  1.
<mgrwt>
<rscale>  0 0.16818462E+04</rscale>
<asrwt>0</asrwt>
<pdfrwt beam="1">  1        1 0.14617256E+00 0.16818462E+04</pdfrwt>
<pdfrwt beam="2">  1       -2 0.11450383E+00 0.16818462E+04</pdfrwt>
<totfact> 0.82485954E+00</totfact>
</mgrwt>
</event>
<event>
12    4  0.4183215E-008  0.1822511E+04  0.7818608E-02  0.8694419E-01
         -2   -1    0    0    0  501 -0.00000000000E+00  0.00000000000E+00  0.16155800957E+04  0.16155800957E+04  0.00000000000E+00 0.  1.
          1   -1    0    0  501    0  0.00000000000E+00 -0.00000000000E+00 -0.51398646774E+03  0.51398646774E+03  0.00000000000E+00 0. -1.
        -24    2    1    2    0    0 -0.57713010511E+02 -0.25545367241E+03 -0.32210871017E+03  0.42257527432E+03  0.78920662512E+02 0.  0.
        254    2    1    2    0    0  0.57713010511E+02  0.25545367241E+03  0.14237023381E+04  0.17069912891E+04  0.90460131724E+03 0.  0.
         23    2    4    4    0    0 -0.39617764029E+03  0.23295390685E+03  0.58768381188E+03  0.75185890058E+03  0.93248583148E+02 0.  0.
         23    2    4    4    0    0  0.45389065080E+03  0.22499765564E+02  0.83601852622E+03  0.95513238849E+03  0.82631356245E+02 0.  0.
          3    1    3    3  502    0 -0.49656276013E+02 -0.25870191069E+03 -0.30245794181E+03  0.40109005336E+03  0.00000000000E+00 0. -1.
         -4    1    3    3    0  502 -0.80567344977E+01  0.32482382753E+01 -0.19650768366E+02  0.21485220967E+02  0.00000000000E+00 0.  1.
         11    1    5    5    0    0 -0.26347083991E+03  0.19671182933E+03  0.44899692136E+03  0.55651654303E+03  0.00000000000E+00 0. -1.
        -11    1    5    5    0    0 -0.13270680038E+03  0.36242077516E+02  0.13868689052E+03  0.19534235755E+03  0.00000000000E+00 0.  1.
          3    1    6    6  503    0  0.30348734429E+03 -0.18093874720E+02  0.59451495082E+03  0.66774245274E+03  0.00000000000E+00 0. -1.
         -3    1    6    6    0  503  0.15040330651E+03  0.40593640284E+02  0.24150357540E+03  0.28738993575E+03  0.00000000000E+00 0.  1.
<mgrwt>
<rscale>  0 0.18225107E+04</rscale>
<asrwt>0</asrwt>
<pdfrwt beam="1">  1        1 0.79074842E-01 0.18225107E+04</pdfrwt>
<pdfrwt beam="2">  1       -2 0.24855078E+00 0.18225107E+04</pdfrwt>
<totfact> 0.23060084E+00</totfact>
</mgrwt>
</event>
<event>
12    4  0.4183215E-008  0.1480462E+04  0.7818608E-02  0.8897550E-01
         -2   -1    0    0    0  501 -0.00000000000E+00  0.00000000000E+00  0.52380776001E+03  0.52380776001E+03  0.00000000000E+00 0.  1.
          1   -1    0    0  501    0  0.00000000000E+00 -0.00000000000E+00 -0.10460751219E+04  0.10460751219E+04  0.00000000000E+00 0. -1.
        -24    2    1    2    0    0 -0.38630974722E+01  0.48495682124E+02 -0.63711838017E+03  0.64392311948E+03  0.79689389159E+02 0.  0.
        254    2    1    2    0    0  0.38630974722E+01 -0.48495682124E+02  0.11485101833E+03  0.92595976238E+03  0.91752055587E+03 0.  0.
         23    2    4    4    0    0  0.62926622457E+02 -0.31618350538E+03  0.39893033584E+03  0.52079856808E+03  0.90299317677E+02 0.  0.
         23    2    4    4    0    0 -0.59063524985E+02  0.26768782326E+03 -0.28407931750E+03  0.40516119430E+03  0.91155164592E+02 0.  0.
          1    1    3    3  502    0 -0.36874947701E+02  0.15520930618E+02 -0.41693504748E+03  0.41885020577E+03  0.00000000000E+00 0. -1.
         -2    1    3    3    0  502  0.33011850228E+02  0.32974751507E+02 -0.22018333269E+03  0.22507291371E+03  0.00000000000E+00 0.  1.
         11    1    5    5    0    0  0.39597333600E+02 -0.13075725993E+03  0.23679823401E+03  0.27338400371E+03  0.00000000000E+00 0. -1.
        -11    1    5    5    0    0  0.23329288857E+02 -0.18542624545E+03  0.16213210183E+03  0.24741456437E+03  0.00000000000E+00 0.  1.
          1    1    6    6  503    0 -0.91326364909E+01  0.10601385749E+03 -0.53338015769E+02  0.11902641285E+03  0.00000000000E+00 0. -1.
         -1    1    6    6    0  503 -0.49930888494E+02  0.16167396577E+03 -0.23074130173E+03  0.28613478146E+03  0.00000000000E+00 0.  1.
<mgrwt>
<rscale>  0 0.14804624E+04</rscale>
<asrwt>0</asrwt>
<pdfrwt beam="1">  1        1 0.16093463E+00 0.14804624E+04</pdfrwt>
<pdfrwt beam="2">  1       -2 0.80585810E-01 0.14804624E+04</pdfrwt>
<totfact> 0.16097571E+01</totfact>
</mgrwt>
</event>
<event>
12    4  0.4183215E-008  0.2354609E+04  0.7818608E-02  0.8456695E-01
         -2   -1    0    0    0  501 -0.00000000000E+00  0.00000000000E+00  0.11526073153E+04  0.11526073153E+04  0.00000000000E+00 0.  1.
          1   -1    0    0  501    0  0.00000000000E+00 -0.00000000000E+00 -0.12025311926E+04  0.12025311926E+04  0.00000000000E+00 0. -1.
        -24    2    1    2    0    0 -0.33712668013E+03 -0.66547532512E+03 -0.69080212274E+03  0.10194441667E+04  0.74478381971E+02 0.  0.
        254    2    1    2    0    0  0.33712668013E+03  0.66547532512E+03  0.64087824539E+03  0.13356943413E+04  0.90379347256E+03 0.  0.
         23    2    4    4    0    0  0.54194379562E+03  0.53304819553E+03  0.15008095312E+03  0.78013392460E+03  0.90781008206E+02 0.  0.
         23    2    4    4    0    0 -0.20481711549E+03  0.13242712959E+03  0.49079729226E+03  0.55556041665E+03  0.90985707698E+02 0.  0.
          1    1    3    3  502    0 -0.33457269653E+03 -0.64848299841E+03 -0.65870444872E+03  0.98303643841E+03  0.00000000000E+00 0. -1.
         -4    1    3    3    0  502 -0.25539836006E+01 -0.16992326709E+02 -0.32097674023E+02  0.36407728258E+02  0.00000000000E+00 0.  1.
         11    1    5    5    0    0  0.35583288106E+03  0.40659660610E+03  0.11490823071E+03  0.55239636207E+03  0.00000000000E+00 0. -1.
        -11    1    5    5    0    0  0.18611091456E+03  0.12645158943E+03  0.35172722411E+02  0.22773756254E+03  0.00000000000E+00 0.  1.
          3    1    6    6  503    0 -0.14351853196E+02  0.37261763860E+02  0.37632556852E+02  0.54869154097E+02  0.00000000000E+00 0. -1.
         -3    1    6    6    0  503 -0.19046526230E+03  0.95165365726E+02  0.45316473541E+03  0.50069126255E+03  0.00000000000E+00 0.  1.
<mgrwt>
<rscale>  0 0.23546093E+04</rscale>
<asrwt>0</asrwt>
<pdfrwt beam="1">  1        1 0.18500480E+00 0.23546093E+04</pdfrwt>
<pdfrwt beam="2">  1       -2 0.17732420E+00 0.23546093E+04</pdfrwt>
<totfact> 0.15894165E+00</totfact>
</mgrwt>
</event>
<event>
12    4  0.4183215E-008  0.1301044E+04  0.7818608E-02  0.9028738E-01
         -2   -1    0    0    0  501 -0.00000000000E+00  0.00000000000E+00  0.11207842353E+03  0.11207842353E+03  0.00000000000E+00 0.  1.
          1   -1    0    0  501    0  0.00000000000E+00 -0.00000000000E+00 -0.37757377600E+04  0.37757377600E+04  0.00000000000E+00 0. -1.
        -24    2    1    2    0    0  0.66075435374E+02 -0.21135752171E+03 -0.22342364546E+03  0.32413119087E+03  0.78134105224E+02 0.  0.
        254    2    1    2    0    0 -0.66075435374E+02  0.21135752171E+03 -0.34402356911E+04  0.35636849927E+04  0.90310085381E+03 0.  0.
         23    2    4    4    0    0  0.33276091894E+03  0.21968406503E+03 -0.25690154782E+04  0.26013988107E+04  0.91893021169E+02 0.  0.
         23    2    4    4    0    0 -0.39883635432E+03 -0.83265433194E+01 -0.87122021283E+03  0.96228618201E+03  0.88488801601E+02 0.  0.
          1    1    3    3  502    0  0.54420528751E+02 -0.55052585936E+02 -0.85647452546E+02  0.11544638277E+03  0.00000000000E+00 0. -1.
         -2    1    3    3    0  502  0.11654906623E+02 -0.15630493577E+03 -0.13777619292E+03  0.20868480809E+03  0.00000000000E+00 0.  1.
         11    1    5    5    0    0  0.11131082240E+03  0.26089581380E+02 -0.65175652667E+03  0.66170789288E+03  0.00000000000E+00 0. -1.
        -11    1    5    5    0    0  0.22145009655E+03  0.19359448365E+03 -0.19172589516E+04  0.19396909178E+04  0.00000000000E+00 0.  1.
          2    1    6    6  503    0 -0.10478973894E+03  0.35896550184E+02 -0.21580210984E+03  0.24256958242E+03  0.00000000000E+00 0. -1.
         -2    1    6    6    0  503 -0.29404661537E+03 -0.44223093503E+02 -0.65541810299E+03  0.71971659960E+03  0.00000000000E+00 0.  1.
<mgrwt>
<rscale>  0 0.13010438E+04</rscale>
<asrwt>0</asrwt>
<pdfrwt beam="1">  1        1 0.58088269E+00 0.13010438E+04</pdfrwt>
<pdfrwt beam="2">  1       -2 0.17242836E-01 0.13010438E+04</pdfrwt>
<totfact> 0.36492256E+00</totfact>
</mgrwt>
</event>
<event>
12    4  0.4183215E-008  0.2209442E+04  0.7818608E-02  0.8514508E-01
          1   -1    0    0  501    0  0.00000000000E+00  0.00000000000E+00  0.48029192000E+03  0.48029192000E+03  0.00000000000E+00 0. -1.
         -2   -1    0    0    0  501 -0.00000000000E+00 -0.00000000000E+00 -0.25409724032E+04  0.25409724032E+04  0.00000000000E+00 0.  1.
        -24    2    1    2    0    0  0.97685184543E+02  0.10014398891E+03 -0.21013868331E+04  0.21075523005E+04  0.79867786255E+02 0.  0.
        254    2    1    2    0    0 -0.97685184543E+02 -0.10014398891E+03  0.40706349919E+02  0.91371202267E+03  0.90202075345E+03 0.  0.
         23    2    4    4    0    0 -0.40092847930E+03  0.21002175140E+03 -0.42450882419E+02  0.46301197365E+03  0.87893280446E+02 0.  0.
         23    2    4    4    0    0  0.30324329476E+03 -0.31016574031E+03  0.83157232338E+02  0.45070004902E+03  0.89755928025E+02 0.  0.
          3    1    3    3  502    0  0.56571755816E+02  0.42426989054E+02 -0.54711161563E+03  0.55166251723E+03  0.00000000000E+00 0. -1.
         -4    1    3    3    0  502  0.41113428727E+02  0.57716999855E+02 -0.15542752175E+04  0.15558897833E+04  0.00000000000E+00 0.  1.
         11    1    5    5    0    0 -0.72243113564E+01  0.38476445906E+01 -0.15797050127E+02  0.17791622640E+02  0.00000000000E+00 0.  1.
        -11    1    5    5    0    0 -0.39370416794E+03  0.20617410681E+03 -0.26653832292E+02  0.44522035101E+03  0.00000000000E+00 0. -1.
          3    1    6    6  503    0  0.15951178689E+03 -0.10607513315E+03  0.56141923863E+02  0.19961928676E+03  0.00000000000E+00 0. -1.
         -3    1    6    6    0  503  0.14373150786E+03 -0.20409060716E+03  0.27015308475E+02  0.25108076226E+03  0.00000000000E+00 0.  1.
<mgrwt>
<rscale>  0 0.22094420E+04</rscale>
<asrwt>0</asrwt>
<pdfrwt beam="1">  1        1 0.73891065E-01 0.22094420E+04</pdfrwt>
<pdfrwt beam="2">  1       -2 0.39091883E+00 0.22094420E+04</pdfrwt>
<totfact> 0.31842264E-01</totfact>
</mgrwt>
</event>
<event>
12    4  0.4183215E-008  0.2033802E+04  0.7818608E-02  0.8590978E-01
         -4   -1    0    0    0  501 -0.00000000000E+00  0.00000000000E+00  0.11711431279E+04  0.11711431279E+04  0.00000000000E+00 0.  1.
          3   -1    0    0  501    0  0.00000000000E+00 -0.00000000000E+00 -0.88297260006E+03  0.88297260006E+03  0.00000000000E+00 0. -1.
        -24    2    1    2    0    0 -0.24554200721E+03  0.71403818655E+03 -0.19836876342E+03  0.78479762343E+03  0.80098278959E+02 0.  0.
        254    2    1    2    0    0  0.24554200721E+03 -0.71403818655E+03  0.48653929123E+03  0.12693181045E+04  0.89683139961E+03 0.  0.
         23    2    4    4    0    0  0.26723996634E+03 -0.76028110834E+03  0.67403821110E+03  0.10547368332E+04  0.93261535743E+02 0.  0.
         23    2    4    4    0    0 -0.21697959130E+02  0.46242921790E+02 -0.18749891987E+03  0.21458127126E+03  0.90994877754E+02 0.  0.
          1    1    3    3  502    0 -0.69517237484E+02  0.23329267515E+03 -0.27014591328E+02  0.24492428775E+03  0.00000000000E+00 0. -1.
         -2    1    3    3    0  502 -0.17602476972E+03  0.48074551140E+03 -0.17135417210E+03  0.53987333568E+03  0.00000000000E+00 0.  1.
         11    1    5    5    0    0  0.15211601174E+03 -0.51503965334E+03  0.40217994319E+03  0.67093504324E+03  0.00000000000E+00 0.  1.
        -11    1    5    5    0    0  0.11512395460E+03 -0.24524145500E+03  0.27185826791E+03  0.38380179000E+03  0.00000000000E+00 0. -1.
          4    1    6    6  503    0  0.21326133140E+02 -0.64545029709E+01 -0.98683899380E+01  0.24369031234E+02  0.00000000000E+00 0. -1.
         -4    1    6    6    0  503 -0.43024092270E+02  0.52697424761E+02 -0.17763052993E+03  0.19021224003E+03  0.00000000000E+00 0.  1.
<mgrwt>
<rscale>  0 0.20338017E+04</rscale>
<asrwt>0</asrwt>
<pdfrwt beam="1">  1        3 0.13584194E+00 0.20338017E+04</pdfrwt>
<pdfrwt beam="2">  1       -4 0.18017587E+00 0.20338017E+04</pdfrwt>
<totfact> 0.15822138E-01</totfact>
</mgrwt>
</event>
<event>
12    4  0.4183215E-008  0.3845109E+04  0.7818608E-02  0.8036543E-01
         -2   -1    0    0    0  501 -0.00000000000E+00  0.00000000000E+00  0.11978221207E+04  0.11978221207E+04  0.00000000000E+00 0.  1.
          1   -1    0    0  501    0  0.00000000000E+00 -0.00000000000E+00 -0.30857805180E+04  0.30857805180E+04  0.00000000000E+00 0. -1.
        -24    2    1    2    0    0 -0.22968084928E+03  0.12412845182E+04 -0.23519750843E+04  0.26705379716E+04  0.80285196885E+02 0.  0.
        254    2    1    2    0    0  0.22968084928E+03 -0.12412845182E+04  0.46401668699E+03  0.16130646672E+04  0.89057598612E+03 0.  0.
         23    2    4    4    0    0  0.35323052292E+03 -0.12198101004E+04  0.59920883066E+03  0.14071346106E+04  0.90929128247E+02 0.  0.
         23    2    4    4    0    0 -0.12354967364E+03 -0.21474417789E+02 -0.13519214367E+03  0.20593005653E+03  0.91676605513E+02 0.  0.
          1    1    3    3  502    0 -0.14271133659E+03  0.93788976271E+03 -0.17284786461E+04  0.19717104662E+04  0.00000000000E+00 0. -1.
         -2    1    3    3    0  502 -0.86969512694E+02  0.30339475547E+03 -0.62349643820E+03  0.69882750535E+03  0.00000000000E+00 0.  1.
         11    1    5    5    0    0  0.61850028206E+02 -0.34371998051E+03  0.14436606800E+03  0.37790264960E+03  0.00000000000E+00 0.  1.
        -11    1    5    5    0    0  0.29138049471E+03 -0.87609011988E+03  0.45484276266E+03  0.10292319610E+04  0.00000000000E+00 0. -1.
          4    1    6    6  503    0 -0.87990862560E+02 -0.33088765687E+02 -0.13956000910E+03  0.16826840003E+03  0.00000000000E+00 0. -1.
         -4    1    6    6    0  503 -0.35558811077E+02  0.11614347899E+02  0.43678654269E+01  0.37661656506E+02  0.00000000000E+00 0.  1.
<mgrwt>
<rscale>  0 0.38451092E+04</rscale>
<asrwt>0</asrwt>
<pdfrwt beam="1">  1        1 0.47473547E+00 0.38451092E+04</pdfrwt>
<pdfrwt beam="2">  1       -2 0.18428033E+00 0.38451092E+04</pdfrwt>
<totfact> 0.61119301E-02</totfact>
</mgrwt>
</event>
<event>
12    4  0.5419142E-008  0.1806170E+04  0.7818608E-02  0.8703025E-01
         -2   -1    0    0    0  501 -0.00000000000E+00  0.00000000000E+00  0.37685052688E+03  0.37685052688E+03  0.00000000000E+00 0.  1.
          1   -1    0    0  501    0  0.00000000000E+00 -0.00000000000E+00 -0.21641530943E+04  0.21641530943E+04  0.00000000000E+00 0. -1.
        -24    2    1    2    0    0 -0.11120887831E+03  0.39818894165E+03 -0.14362093906E+04  0.14966850626E+04  0.80292684096E+02 0.  0.
        254    2    1    2    0    0  0.11120887831E+03 -0.39818894165E+03 -0.35109317685E+03  0.10443185586E+04  0.89241973596E+03 0.  0.
         23    2    4    4    0    0  0.37349880265E+03 -0.48039438454E+03 -0.35769028536E+02  0.61628330519E+03  0.90805113143E+02 0.  0.
         23    2    4    4    0    0 -0.26228992435E+03  0.82205442889E+02 -0.31532414832E+03  0.42803525341E+03  0.90725522293E+02 0.  0.
          3    1    3    3  502    0 -0.40621911181E+02  0.28129196429E+03 -0.93963319044E+03  0.98167501823E+03  0.00000000000E+00 0. -1.
         -4    1    3    3    0  502 -0.70586967128E+02  0.11689697736E+03 -0.49657620017E+03  0.51501004439E+03  0.00000000000E+00 0.  1.
         11    1    5    5    0    0  0.95858871138E+02 -0.12593483962E+03 -0.49487851235E+02  0.16582386567E+03  0.00000000000E+00 0. -1.
        -11    1    5    5    0    0  0.27763993152E+03 -0.35445954491E+03  0.13718822699E+02  0.45045943952E+03  0.00000000000E+00 0.  1.
          3    1    6    6  503    0 -0.11046937239E+03  0.45440062577E+02 -0.73834858156E+02  0.14042744676E+03  0.00000000000E+00 0. -1.
         -3    1    6    6    0  503 -0.15182055195E+03  0.36765380311E+02 -0.24148929016E+03  0.28760780665E+03  0.00000000000E+00 0.  1.
<mgrwt>
<rscale>  0 0.18061697E+04</rscale>
<asrwt>0</asrwt>
<pdfrwt beam="1">  1        1 0.33294663E+00 0.18061697E+04</pdfrwt>
<pdfrwt beam="2">  1       -2 0.57977004E-01 0.18061697E+04</pdfrwt>
<totfact> 0.53162214E+00</totfact>
</mgrwt>
</event>
<event>
12    4  0.4183215E-008  0.2202071E+04  0.7818608E-02  0.8517567E-01
          1   -1    0    0  501    0  0.00000000000E+00  0.00000000000E+00  0.24680134131E+04  0.24680134131E+04  0.00000000000E+00 0. -1.
         -2   -1    0    0    0  501 -0.00000000000E+00 -0.00000000000E+00 -0.49119639314E+03  0.49119639314E+03  0.00000000000E+00 0.  1.
        -24    2    1    2    0    0  0.23875198415E+03  0.32678554554E+03 -0.28029533966E+03  0.49824568639E+03  0.76759259174E+02 0.  0.
        254    2    1    2    0    0 -0.23875198415E+03 -0.32678554554E+03  0.22571123596E+04  0.24609641198E+04  0.89330671805E+03 0.  0.
         23    2    4    4    0    0 -0.50044175711E+03 -0.35328423057E+03  0.10212986136E+04  0.11942411281E+04  0.88934324480E+02 0.  0.
         23    2    4    4    0    0  0.26168977296E+03  0.26498685034E+02  0.12358137460E+04  0.12667229917E+04  0.90375911601E+02 0.  0.
          1    1    3    3  502    0  0.12945935792E+03  0.16456810711E+03 -0.99245954090E+02  0.23171565902E+03  0.00000000000E+00 0. -1.
         -2    1    3    3    0  502  0.10929262622E+03  0.16221743842E+03 -0.18104938557E+03  0.26653002737E+03  0.00000000000E+00 0.  1.
         11    1    5    5    0    0 -0.26082747709E+03 -0.13414255003E+03  0.51844373088E+03  0.59565854197E+03  0.00000000000E+00 0. -1.
        -11    1    5    5    0    0 -0.23961428002E+03 -0.21914168054E+03  0.50285488274E+03  0.59858258614E+03  0.00000000000E+00 0.  1.
          2    1    6    6  503    0  0.34566516850E+02 -0.17888077835E+02  0.30956653164E+03  0.31200362967E+03  0.00000000000E+00 0. -1.
         -2    1    6    6    0  503  0.22712325611E+03  0.44386762869E+02  0.92624721432E+03  0.95471936202E+03  0.00000000000E+00 0.  1.
<mgrwt>
<rscale>  0 0.22020711E+04</rscale>
<asrwt>0</asrwt>
<pdfrwt beam="1">  1        1 0.37969436E+00 0.22020711E+04</pdfrwt>
<pdfrwt beam="2">  1       -2 0.75568677E-01 0.22020711E+04</pdfrwt>
<totfact> 0.17933048E+00</totfact>
</mgrwt>
</event>
<event>
12    4  0.4183215E-008  0.1502125E+04  0.7818608E-02  0.8883041E-01
         -2   -1    0    0    0  501 -0.00000000000E+00  0.00000000000E+00  0.31640247460E+03  0.31640247460E+03  0.00000000000E+00 0.  1.
          1   -1    0    0  501    0  0.00000000000E+00 -0.00000000000E+00 -0.17828395919E+04  0.17828395919E+04  0.00000000000E+00 0. -1.
        -24    2    1    2    0    0 -0.56844461653E+02  0.42508949579E+03 -0.17381467487E+03  0.46869449408E+03  0.74368106920E+02 0.  0.
        254    2    1    2    0    0  0.56844461653E+02 -0.42508949579E+03 -0.12926224425E+04  0.16305475724E+04  0.89659368445E+03 0.  0.
         23    2    4    4    0    0 -0.24781531758E+03 -0.56971650335E+03 -0.68208977024E+03  0.92691918198E+03  0.89125694602E+02 0.  0.
         23    2    4    4    0    0  0.30465977923E+03  0.14462700756E+03 -0.61053267223E+03  0.70362839047E+03  0.92780470030E+02 0.  0.
          1    1    3    3  502    0 -0.61163382721E+02  0.38916186961E+03 -0.13702164738E+03  0.41708854215E+03  0.00000000000E+00 0. -1.
         -2    1    3    3    0  502  0.43189210673E+01  0.35927626183E+02 -0.36793027494E+02  0.51605951929E+02  0.00000000000E+00 0.  1.
         11    1    5    5    0    0 -0.20232370829E+03 -0.51287845565E+03 -0.63123244171E+03  0.83811311210E+03  0.00000000000E+00 0.  1.
        -11    1    5    5    0    0 -0.45491609290E+02 -0.56838047700E+02 -0.50857328528E+02  0.88806069878E+02  0.00000000000E+00 0. -1.
          2    1    6    6  503    0  0.28724477555E+03  0.13411164271E+03 -0.60421284279E+03  0.68232591419E+03  0.00000000000E+00 0. -1.
         -2    1    6    6    0  503  0.17415003685E+02  0.10515364849E+02 -0.63198294364E+01  0.21302476273E+02  0.00000000000E+00 0.  1.
<mgrwt>
<rscale>  0 0.15021250E+04</rscale>
<asrwt>0</asrwt>
<pdfrwt beam="1">  1        1 0.27428301E+00 0.15021250E+04</pdfrwt>
<pdfrwt beam="2">  1       -2 0.48677304E-01 0.15021250E+04</pdfrwt>
<totfact> 0.14202629E+01</totfact>
</mgrwt>
</event>
<event>
12    4  0.4183215E-008  0.2996554E+04  0.7818608E-02  0.8244716E-01
         -2   -1    0    0    0  501 -0.00000000000E+00  0.00000000000E+00  0.13467189377E+04  0.13467189377E+04  0.00000000000E+00 0.  1.
          1   -1    0    0  501    0  0.00000000000E+00 -0.00000000000E+00 -0.16668910114E+04  0.16668910114E+04  0.00000000000E+00 0. -1.
        -24    2    1    2    0    0  0.28012356247E+03  0.60435954997E+03 -0.13435332688E+04  0.15016696325E+04  0.78805867907E+02 0.  0.
        254    2    1    2    0    0 -0.28012356247E+03 -0.60435954997E+03  0.10233611951E+04  0.15119403166E+04  0.89161410343E+03 0.  0.
         23    2    4    4    0    0 -0.15221998811E+03 -0.73955973199E+03  0.40825142872E+03  0.86306701766E+03  0.89977363556E+02 0.  0.
         23    2    4    4    0    0 -0.12790357436E+03  0.13520018202E+03  0.61510976639E+03  0.64887329895E+03  0.89655562211E+02 0.  0.
          1    1    3    3  502    0  0.63362319780E+02  0.20675500061E+03 -0.38585007024E+03  0.44231514845E+03  0.00000000000E+00 0. -1.
         -2    1    3    3    0  502  0.21676124269E+03  0.39760454936E+03 -0.95768319860E+03  0.10593544841E+04  0.00000000000E+00 0.  1.
         11    1    5    5    0    0 -0.48705587083E+02 -0.13860463257E+03  0.11413932138E+03  0.18604102523E+03  0.00000000000E+00 0. -1.
        -11    1    5    5    0    0 -0.10351440103E+03 -0.60095509942E+03  0.29411210734E+03  0.67702599243E+03  0.00000000000E+00 0.  1.
          3    1    6    6  503    0 -0.59531528585E+02  0.83800925784E+02  0.19810879854E+03  0.22318981634E+03  0.00000000000E+00 0. -1.
         -3    1    6    6    0  503 -0.68372045773E+02  0.51399256236E+02  0.41700096785E+03  0.42568348261E+03  0.00000000000E+00 0.  1.
<mgrwt>
<rscale>  0 0.29965538E+04</rscale>
<asrwt>0</asrwt>
<pdfrwt beam="1">  1        1 0.25644477E+00 0.29965538E+04</pdfrwt>
<pdfrwt beam="2">  1       -2 0.20718753E+00 0.29965538E+04</pdfrwt>
<totfact> 0.44839685E-01</totfact>
</mgrwt>
</event>
<event>
12    4  0.4183215E-008  0.2815313E+04  0.7818608E-02  0.8298530E-01
         -2   -1    0    0    0  501 -0.00000000000E+00  0.00000000000E+00  0.70838494557E+03  0.70838494557E+03  0.00000000000E+00 0.  1.
          1   -1    0    0  501    0  0.00000000000E+00 -0.00000000000E+00 -0.27972036609E+04  0.27972036609E+04  0.00000000000E+00 0. -1.
        -24    2    1    2    0    0  0.88494456676E+03 -0.74820782685E+01 -0.20692421643E+04  0.22519602890E+04  0.79869524088E+02 0.  0.
        254    2    1    2    0    0 -0.88494456676E+03  0.74820782685E+01 -0.19576551049E+02  0.12536283175E+04  0.88770369458E+03 0.  0.
         23    2    4    4    0    0  0.14303105221E+03 -0.56881743783E+02  0.11206569584E+03  0.21104061150E+03  0.91027495006E+02 0.  0.
         23    2    4    4    0    0 -0.10279756190E+04  0.64363822051E+02 -0.13164224688E+03  0.10425877060E+04  0.93716961024E+02 0.  0.
          3    1    3    3  502    0  0.75237672780E+03  0.21384257874E+02 -0.17349071688E+04  0.18911453966E+04  0.00000000000E+00 0. -1.
         -4    1    3    3    0  502  0.13256783896E+03 -0.28866336143E+02 -0.33433499554E+03  0.36081489234E+03  0.00000000000E+00 0.  1.
         11    1    5    5    0    0  0.12048664342E+03 -0.28329959586E+02  0.12151748231E+03  0.17345349913E+03  0.00000000000E+00 0.  1.
        -11    1    5    5    0    0  0.22544408787E+02 -0.28551784197E+02 -0.94517864795E+01  0.37587112366E+02  0.00000000000E+00 0. -1.
          3    1    6    6  503    0 -0.23026327911E+03 -0.12977415428E+02 -0.57661091927E+02  0.23772755948E+03  0.00000000000E+00 0. -1.
         -3    1    6    6    0  503 -0.79771233986E+03  0.77341237479E+02 -0.73981154958E+02  0.80486014653E+03  0.00000000000E+00 0.  1.
<mgrwt>
<rscale>  0 0.28153131E+04</rscale>
<asrwt>0</asrwt>
<pdfrwt beam="1">  1        1 0.43033902E+00 0.28153131E+04</pdfrwt>
<pdfrwt beam="2">  1       -2 0.10898230E+00 0.28153131E+04</pdfrwt>
<totfact> 0.42770915E-01</totfact>
</mgrwt>
</event>
<event>
12    4  0.4183215E-008  0.1715811E+04  0.7818608E-02  0.8752398E-01
          1   -1    0    0  501    0  0.00000000000E+00  0.00000000000E+00  0.10939023414E+04  0.10939023414E+04  0.00000000000E+00 0. -1.
         -2   -1    0    0    0  501 -0.00000000000E+00 -0.00000000000E+00 -0.67282219997E+03  0.67282219997E+03  0.00000000000E+00 0.  1.
        -24    2    1    2    0    0  0.13845472972E+03  0.50227074844E+03  0.48217986729E+03  0.71417388621E+03  0.78110808419E+02 0.  0.
        254    2    1    2    0    0 -0.13845472972E+03 -0.50227074844E+03 -0.61099725856E+02  0.10525506552E+04  0.91251525371E+03 0.  0.
         23    2    4    4    0    0 -0.34214326238E+03  0.12884897535E+03 -0.72291907694E+02  0.38341144317E+03  0.90078545713E+02 0.  0.
         23    2    4    4    0    0  0.20368853265E+03 -0.63111972379E+03  0.11192181839E+02  0.66913921199E+03  0.88435829807E+02 0.  0.
          3    1    3    3  502    0  0.83212616798E+02  0.17394322487E+03  0.19894372327E+03  0.27705448941E+03  0.00000000000E+00 0. -1.
         -4    1    3    3    0  502  0.55242112927E+02  0.32832752357E+03  0.28323614402E+03  0.43711939679E+03  0.00000000000E+00 0.  1.
         11    1    5    5    0    0 -0.21592904962E+03  0.41830616626E+02 -0.67362153292E+02  0.23002785625E+03  0.00000000000E+00 0. -1.
        -11    1    5    5    0    0 -0.12621421276E+03  0.87018358723E+02 -0.49297544020E+01  0.15338358692E+03  0.00000000000E+00 0.  1.
          3    1    6    6  503    0  0.10616640681E+03 -0.19380168662E+03  0.19989164837E+01  0.22098505683E+03  0.00000000000E+00 0. -1.
         -3    1    6    6    0  503  0.97522125840E+02 -0.43731803717E+03  0.91932653551E+01  0.44815415516E+03  0.00000000000E+00 0.  1.
<mgrwt>
<rscale>  0 0.17158109E+04</rscale>
<asrwt>0</asrwt>
<pdfrwt beam="1">  1        1 0.16829267E+00 0.17158109E+04</pdfrwt>
<pdfrwt beam="2">  1       -2 0.10351111E+00 0.17158109E+04</pdfrwt>
<totfact> 0.81232277E+00</totfact>
</mgrwt>
</event>
<event>
12    4  0.4183215E-008  0.1347170E+04  0.7818608E-02  0.8992973E-01
          3   -1    0    0  501    0  0.00000000000E+00  0.00000000000E+00  0.24145182216E+03  0.24145182216E+03  0.00000000000E+00 0. -1.
         -4   -1    0    0    0  501 -0.00000000000E+00 -0.00000000000E+00 -0.18791195918E+04  0.18791195918E+04  0.00000000000E+00 0.  1.
        -24    2    1    2    0    0 -0.31790604484E+03  0.13583245937E+03 -0.70529321160E+03  0.78874318348E+03  0.71851129399E+02 0.  0.
        254    2    1    2    0    0  0.31790604484E+03 -0.13583245937E+03 -0.93237455805E+03  0.13318282305E+04  0.88596241945E+03 0.  0.
         23    2    4    4    0    0 -0.27040271116E+03  0.25510920331E+02 -0.50740574162E+03  0.58277705076E+03  0.91651901311E+02 0.  0.
         23    2    4    4    0    0  0.58830875600E+03 -0.16134337970E+03 -0.42496881643E+03  0.74905117973E+03  0.91325222987E+02 0.  0.
          1    1    3    3  502    0 -0.77493582987E+02  0.16250383805E+02 -0.10842002977E+03  0.13425436020E+03  0.00000000000E+00 0. -1.
         -2    1    3    3    0  502 -0.24041246185E+03  0.11958207557E+03 -0.59687318182E+03  0.65448882327E+03  0.00000000000E+00 0.  1.
         11    1    5    5    0    0 -0.21833549462E+03 -0.11707608339E+02 -0.34782334014E+03  0.41083881542E+03  0.00000000000E+00 0. -1.
        -11    1    5    5    0    0 -0.52067216536E+02  0.37218528670E+02 -0.15958240147E+03  0.17193823535E+03  0.00000000000E+00 0.  1.
          1    1    6    6  503    0  0.49700352147E+03 -0.14412317791E+03 -0.39635804875E+03  0.65183103145E+03  0.00000000000E+00 0. -1.
         -1    1    6    6    0  503  0.91305234531E+02 -0.17220201793E+02 -0.28610767685E+02  0.97220148272E+02  0.00000000000E+00 0.  1.
<mgrwt>
<rscale>  0 0.13471701E+04</rscale>
<asrwt>0</asrwt>
<pdfrwt beam="1">  1        3 0.37146433E-01 0.13471701E+04</pdfrwt>
<pdfrwt beam="2">  1       -4 0.28909533E+00 0.13471701E+04</pdfrwt>
<totfact> 0.58431770E-01</totfact>
</mgrwt>
</event>
<event>
12    4  0.4183215E-008  0.1879122E+04  0.7818608E-02  0.8665319E-01
         -2   -1    0    0    0  501 -0.00000000000E+00  0.00000000000E+00  0.40496586347E+03  0.40496586347E+03  0.00000000000E+00 0.  1.
          1   -1    0    0  501    0  0.00000000000E+00 -0.00000000000E+00 -0.21798749704E+04  0.21798749704E+04  0.00000000000E+00 0. -1.
        -24    2    1    2    0    0  0.43520768964E+02 -0.15694474857E+03 -0.16471736082E+04  0.16571172674E+04  0.79567775230E+02 0.  0.
        254    2    1    2    0    0 -0.43520768964E+02  0.15694474857E+03 -0.12773549873E+03  0.92772356649E+03  0.90433895568E+03 0.  0.
         23    2    4    4    0    0  0.11338028698E+03 -0.24413768360E+03  0.22584834169E+03  0.36313740215E+03  0.91667886250E+02 0.  0.
         23    2    4    4    0    0 -0.15690105594E+03  0.40108243217E+03 -0.35358384041E+03  0.56458616434E+03  0.90834718066E+02 0.  0.
          3    1    3    3  502    0  0.53697458921E+02 -0.12846371562E+03 -0.15214168156E+04  0.15277746791E+04  0.00000000000E+00 0. -1.
         -4    1    3    3    0  502 -0.10176689957E+02 -0.28481032945E+02 -0.12575679266E+03  0.12934258833E+03  0.00000000000E+00 0.  1.
         11    1    5    5    0    0  0.45604348850E+02 -0.18985856881E+03  0.13447043336E+03  0.23708296065E+03  0.00000000000E+00 0. -1.
        -11    1    5    5    0    0  0.67775938126E+02 -0.54279114796E+02  0.91377908325E+02  0.12605444150E+03  0.00000000000E+00 0.  1.
          1    1    6    6  503    0 -0.12301352933E+03  0.38137488164E+03 -0.32712761321E+03  0.51729257105E+03  0.00000000000E+00 0. -1.
         -1    1    6    6    0  503 -0.33887526608E+02  0.19707550532E+02 -0.26456227208E+02  0.47293593283E+02  0.00000000000E+00 0.  1.
<mgrwt>
<rscale>  0 0.18791221E+04</rscale>
<asrwt>0</asrwt>
<pdfrwt beam="1">  1        1 0.33536538E+00 0.18791221E+04</pdfrwt>
<pdfrwt beam="2">  1       -2 0.62302441E-01 0.18791221E+04</pdfrwt>
<totfact> 0.44258526E+00</totfact>
</mgrwt>
</event>
<event>
12    4  0.4183215E-008  0.1522312E+04  0.7818608E-02  0.8869750E-01
          1   -1    0    0  501    0  0.00000000000E+00  0.00000000000E+00  0.21961047586E+04  0.21961047586E+04  0.00000000000E+00 0. -1.
         -2   -1    0    0    0  501 -0.00000000000E+00 -0.00000000000E+00 -0.26381176446E+03  0.26381176446E+03  0.00000000000E+00 0.  1.
        -24    2    1    2    0    0  0.40083015717E+03 -0.23386035054E+02  0.17489557125E+03  0.44523359335E+03  0.80204552714E+02 0.  0.
        254    2    1    2    0    0 -0.40083015717E+03  0.23386035054E+02  0.17573974229E+04  0.20146829297E+04  0.89960540447E+03 0.  0.
         23    2    4    4    0    0 -0.28981621641E+03 -0.32160286244E+03  0.36692248144E+03  0.57486724570E+03  0.91751852112E+02 0.  0.
         23    2    4    4    0    0 -0.11101394075E+03  0.34498889750E+03  0.13904749415E+04  0.14398156840E+04  0.91143878980E+02 0.  0.
          1    1    3    3  502    0  0.18135387809E+03 -0.23025113835E+02  0.12103087218E+03  0.21924382999E+03  0.00000000000E+00 0. -1.
         -2    1    3    3    0  502  0.21947627907E+03 -0.36092121952E+00  0.53864699073E+02  0.22598976337E+03  0.00000000000E+00 0.  1.
         11    1    5    5    0    0 -0.38660488023E+02 -0.94319149932E+02  0.63382537344E+02  0.12003366785E+03  0.00000000000E+00 0.  1.
        -11    1    5    5    0    0 -0.25115572839E+03 -0.22728371251E+03  0.30353994410E+03  0.45483357785E+03  0.00000000000E+00 0. -1.
          4    1    6    6  503    0 -0.69082710402E+02  0.22327699317E+03  0.10528889561E+04  0.10785175893E+04  0.00000000000E+00 0. -1.
         -4    1    6    6    0  503 -0.41931230353E+02  0.12171190433E+03  0.33758598537E+03  0.36129809473E+03  0.00000000000E+00 0.  1.
<mgrwt>
<rscale>  0 0.15223118E+04</rscale>
<asrwt>0</asrwt>
<pdfrwt beam="1">  1        1 0.33786226E+00 0.15223118E+04</pdfrwt>
<pdfrwt beam="2">  1       -2 0.40586427E-01 0.15223118E+04</pdfrwt>
<totfact> 0.10693129E+01</totfact>
</mgrwt>
</event>
<event>
12    4  0.4183215E-008  0.1332694E+04  0.7818608E-02  0.9004033E-01
          1   -1    0    0  501    0  0.00000000000E+00  0.00000000000E+00  0.14644991438E+04  0.14644991438E+04  0.00000000000E+00 0. -1.
         -2   -1    0    0    0  501 -0.00000000000E+00 -0.00000000000E+00 -0.30318799301E+03  0.30318799301E+03  0.00000000000E+00 0.  1.
        -24    2    1    2    0    0  0.10834078563E+03 -0.18652782247E+03  0.62639915765E+03  0.66737846536E+03  0.80546613434E+02 0.  0.
        254    2    1    2    0    0 -0.10834078563E+03  0.18652782247E+03  0.53491199313E+03  0.11003086714E+04  0.93702613500E+03 0.  0.
         23    2    4    4    0    0  0.20201518091E+03  0.39523465939E+03  0.55310227320E+03  0.71501838428E+03  0.91151499925E+02 0.  0.
         23    2    4    4    0    0 -0.31035596654E+03 -0.20870683692E+03 -0.18190280063E+02  0.38529028717E+03  0.90765353290E+02 0.  0.
          3    1    3    3  502    0  0.96538344680E+02 -0.19178224087E+03  0.56033247463E+03  0.60006046531E+03  0.00000000000E+00 0. -1.
         -4    1    3    3    0  502  0.11802440952E+02  0.52544183993E+01  0.66066683025E+02  0.67318000052E+02  0.00000000000E+00 0.  1.
         11    1    5    5    0    0  0.16764981997E+03  0.35246302821E+03  0.52253478008E+03  0.65221104314E+03  0.00000000000E+00 0.  1.
        -11    1    5    5    0    0  0.34365360933E+02  0.42771631181E+02  0.30567493112E+02  0.62807341140E+02  0.00000000000E+00 0. -1.
          2    1    6    6  503    0 -0.24921547084E+02 -0.55499883602E+02 -0.20196110487E+00  0.60838814726E+02  0.00000000000E+00 0. -1.
         -2    1    6    6    0  503 -0.28543441945E+03 -0.15320695332E+03 -0.17988318958E+02  0.32445147245E+03  0.00000000000E+00 0.  1.
<mgrwt>
<rscale>  0 0.13326943E+04</rscale>
<asrwt>0</asrwt>
<pdfrwt beam="1">  1        1 0.22530756E+00 0.13326943E+04</pdfrwt>
<pdfrwt beam="2">  1       -2 0.46644307E-01 0.13326943E+04</pdfrwt>
<totfact> 0.25944586E+01</totfact>
</mgrwt>
</event>
<event>
12    4  0.4183215E-008  0.2068933E+04  0.7818608E-02  0.8575053E-01
          1   -1    0    0  501    0  0.00000000000E+00  0.00000000000E+00  0.14280029859E+04  0.14280029859E+04  0.00000000000E+00 0. -1.
         -2   -1    0    0    0  501 -0.00000000000E+00 -0.00000000000E+00 -0.74938300672E+03  0.74938300672E+03  0.00000000000E+00 0.  1.
        -24    2    1    2    0    0 -0.49897419160E+03  0.36120760826E+03 -0.32694107174E+03  0.70148432183E+03  0.75786603329E+02 0.  0.
        254    2    1    2    0    0  0.49897419160E+03 -0.36120760826E+03  0.10055610509E+04  0.14759016708E+04  0.88751706155E+03 0.  0.
         23    2    4    4    0    0  0.30677226426E+03 -0.13713681218E+03  0.10986708657E+04  0.11527606381E+04  0.94147174337E+02 0.  0.
         23    2    4    4    0    0  0.19220192733E+03 -0.22407079608E+03 -0.93109814768E+02  0.32314103261E+03  0.92743661926E+02 0.  0.
          3    1    3    3  502    0 -0.45332351351E+02  0.53120549188E+02 -0.18163811725E+02  0.72157736116E+02  0.00000000000E+00 0. -1.
         -4    1    3    3    0  502 -0.45364184024E+03  0.30808705907E+03 -0.30877726001E+03  0.62932658572E+03  0.00000000000E+00 0.  1.
         11    1    5    5    0    0  0.81849567274E+02  0.52314686550E+01  0.22776828505E+03  0.24208492642E+03  0.00000000000E+00 0. -1.
        -11    1    5    5    0    0  0.22492269699E+03 -0.14236828084E+03  0.87090258061E+03  0.91067571172E+03  0.00000000000E+00 0.  1.
          4    1    6    6  503    0  0.39129587918E+02 -0.11188232492E+03 -0.22472375856E+02  0.12063907724E+03  0.00000000000E+00 0. -1.
         -4    1    6    6    0  503  0.15307233942E+03 -0.11218847115E+03 -0.70637438913E+02  0.20250195537E+03  0.00000000000E+00 0.  1.
<mgrwt>
<rscale>  0 0.20689332E+04</rscale>
<asrwt>0</asrwt>
<pdfrwt beam="1">  1        1 0.21969277E+00 0.20689332E+04</pdfrwt>
<pdfrwt beam="2">  1       -2 0.11528969E+00 0.20689332E+04</pdfrwt>
<totfact> 0.34829038E+00</totfact>
</mgrwt>
</event>
<event>
12    4  0.4315698E-008  0.1656552E+04  0.7818608E-02  0.8786540E-01
          1   -1    0    0  501    0  0.00000000000E+00  0.00000000000E+00  0.13337728501E+04  0.13337728501E+04  0.00000000000E+00 0. -1.
         -2   -1    0    0    0  501 -0.00000000000E+00 -0.00000000000E+00 -0.51436122545E+03  0.51436122545E+03  0.00000000000E+00 0.  1.
        -24    2    1    2    0    0 -0.17343900352E+03 -0.29628090501E+03  0.81086766148E+03  0.88420694517E+03  0.80324932786E+02 0.  0.
        254    2    1    2    0    0  0.17343900352E+03  0.29628090501E+03  0.85439632152E+01  0.96392713042E+03  0.90067699585E+03 0.  0.
         23    2    4    4    0    0  0.11234513820E+03 -0.30516810395E+03 -0.77764431033E+02  0.34664529183E+03  0.91469393068E+02 0.  0.
         23    2    4    4    0    0  0.61093865319E+02  0.60144900895E+03  0.86308394248E+02  0.61728183860E+03  0.90079734643E+02 0.  0.
          1    1    3    3  502    0 -0.12009862978E+03 -0.22952477003E+03  0.51852569741E+03  0.57963281464E+03  0.00000000000E+00 0. -1.
         -2    1    3    3    0  502 -0.53340373745E+02 -0.66756134976E+02  0.29234196408E+03  0.30457413053E+03  0.00000000000E+00 0.  1.
         11    1    5    5    0    0  0.81576108019E+02 -0.20370759200E+03 -0.95204079898E+02  0.23919711802E+03  0.00000000000E+00 0. -1.
        -11    1    5    5    0    0  0.30769030184E+02 -0.10146051195E+03  0.17439648865E+02  0.10744817381E+03  0.00000000000E+00 0.  1.
          1    1    6    6  503    0  0.55785689675E+02  0.60247203287E+03  0.88424665209E+02  0.61147650403E+03  0.00000000000E+00 0. -1.
         -1    1    6    6    0  503  0.53081756438E+01 -0.10230239214E+01 -0.21162709601E+01  0.58053345628E+01  0.00000000000E+00 0.  1.
<mgrwt>
<rscale>  0 0.16565519E+04</rscale>
<asrwt>0</asrwt>
<pdfrwt beam="1">  1        1 0.20519582E+00 0.16565519E+04</pdfrwt>
<pdfrwt beam="2">  1       -2 0.79132497E-01 0.16565519E+04</pdfrwt>
<totfact> 0.10157161E+01</totfact>
</mgrwt>
</event>
<event>
12    4  0.4183215E-008  0.1702561E+04  0.7818608E-02  0.8759905E-01
          1   -1    0    0  501    0  0.00000000000E+00  0.00000000000E+00  0.14627937710E+04  0.14627937710E+04  0.00000000000E+00 0. -1.
         -2   -1    0    0    0  501 -0.00000000000E+00 -0.00000000000E+00 -0.49540720567E+03  0.49540720567E+03  0.00000000000E+00 0.  1.
        -24    2    1    2    0    0  0.58161854535E+03 -0.65471344832E+02  0.15669577473E+03  0.61070463542E+03  0.76419608839E+02 0.  0.
        254    2    1    2    0    0 -0.58161854535E+03  0.65471344832E+02  0.81069079062E+03  0.13474963413E+04  0.90330515465E+03 0.  0.
         23    2    4    4    0    0 -0.11251297642E+03  0.31349203546E+02 -0.18878541110E+03  0.23901261966E+03  0.88572899275E+02 0.  0.
         23    2    4    4    0    0 -0.46910556893E+03  0.34122141287E+02  0.99947620172E+03  0.11084837216E+04  0.92515555025E+02 0.  0.
          1    1    3    3  502    0  0.75134310805E+02 -0.31987767890E+02  0.95488486922E+01  0.82216558344E+02  0.00000000000E+00 0. -1.
         -2    1    3    3    0  502  0.50648423455E+03 -0.33483576943E+02  0.14714692604E+03  0.52848807708E+03  0.00000000000E+00 0.  1.
         11    1    5    5    0    0  0.15705946953E+01  0.20512081665E+02 -0.30893650921E+01  0.20802798816E+02  0.00000000000E+00 0. -1.
        -11    1    5    5    0    0 -0.11408357112E+03  0.10837121881E+02 -0.18569604601E+03  0.21820982084E+03  0.00000000000E+00 0.  1.
          3    1    6    6  503    0 -0.10698130283E+03  0.45144082956E+02  0.21369166479E+03  0.24320179889E+03  0.00000000000E+00 0. -1.
         -3    1    6    6    0  503 -0.36212426610E+03 -0.11021941669E+02  0.78578453693E+03  0.86528192271E+03  0.00000000000E+00 0.  1.
<mgrwt>
<rscale>  0 0.17025611E+04</rscale>
<asrwt>0</asrwt>
<pdfrwt beam="1">  1        1 0.22504519E+00 0.17025611E+04</pdfrwt>
<pdfrwt beam="2">  1       -2 0.76216494E-01 0.17025611E+04</pdfrwt>
<totfact> 0.89305888E+00</totfact>
</mgrwt>
</event>
<event>
12    4  0.4183215E-008  0.1082524E+04  0.7818608E-02  0.9222395E-01
         -2   -1    0    0    0  501 -0.00000000000E+00  0.00000000000E+00  0.24800852523E+03  0.24800852523E+03  0.00000000000E+00 0.  1.
          1   -1    0    0  501    0  0.00000000000E+00 -0.00000000000E+00 -0.11812680005E+04  0.11812680005E+04  0.00000000000E+00 0. -1.
        -24    2    1    2    0    0  0.17166383147E+03 -0.65257548559E+01 -0.24928438623E+03  0.31300058276E+03  0.79470768742E+02 0.  0.
        254    2    1    2    0    0 -0.17166383147E+03  0.65257548559E+01 -0.68397508908E+03  0.11162759430E+04  0.86529705993E+03 0.  0.
         23    2    4    4    0    0  0.13019375292E+03 -0.61550968094E+02  0.14671343761E+03  0.22528111049E+03  0.92129316706E+02 0.  0.
         23    2    4    4    0    0 -0.30185758439E+03  0.68076722950E+02 -0.83068852669E+03  0.89099483251E+03  0.89866132225E+02 0.  0.
          3    1    3    3  502    0  0.57629879405E+02  0.19202506119E+02 -0.14152557003E+03  0.15401112367E+03  0.00000000000E+00 0. -1.
         -4    1    3    3    0  502  0.11403395206E+03 -0.25728260975E+02 -0.10775881620E+03  0.15898945910E+03  0.00000000000E+00 0.  1.
         11    1    5    5    0    0 -0.34432364963E+00  0.15554689344E+02  0.19896607987E+01  0.15685205432E+02  0.00000000000E+00 0. -1.
        -11    1    5    5    0    0  0.13053807657E+03 -0.77105657438E+02  0.14472377681E+03  0.20959590506E+03  0.00000000000E+00 0.  1.
          4    1    6    6  503    0 -0.45913462731E+01  0.18781513948E+02 -0.32412770881E+02  0.37741402239E+02  0.00000000000E+00 0. -1.
         -4    1    6    6    0  503 -0.29726623811E+03  0.49295209002E+02 -0.79827575581E+03  0.85325343027E+03  0.00000000000E+00 0.  1.
<mgrwt>
<rscale>  0 0.10825240E+04</rscale>
<asrwt>0</asrwt>
<pdfrwt beam="1">  1        1 0.18173354E+00 0.10825240E+04</pdfrwt>
<pdfrwt beam="2">  1       -2 0.38155158E-01 0.10825240E+04</pdfrwt>
<totfact> 0.62553100E+01</totfact>
</mgrwt>
</event>
<event>
12    4  0.4183215E-008  0.1242973E+04  0.7818608E-02  0.9076052E-01
          1   -1    0    0  501    0  0.00000000000E+00  0.00000000000E+00  0.14630369072E+04  0.14630369072E+04  0.00000000000E+00 0. -1.
         -2   -1    0    0    0  501 -0.00000000000E+00 -0.00000000000E+00 -0.26400260318E+03  0.26400260318E+03  0.00000000000E+00 0.  1.
        -24    2    1    2    0    0  0.52551722359E+01  0.11910308967E+03 -0.73193799855E+02  0.16110649563E+03  0.79904992304E+02 0.  0.
        254    2    1    2    0    0 -0.52551722359E+01 -0.11910308967E+03  0.12722281039E+04  0.15659330148E+04  0.90518986716E+03 0.  0.
         23    2    4    4    0    0  0.10482503096E+03  0.34353813995E+03  0.28785558345E+03  0.46909552268E+03  0.90460111412E+02 0.  0.
         23    2    4    4    0    0 -0.11008020320E+03 -0.46264122961E+03  0.98437252042E+03  0.10968374921E+04  0.88930684164E+02 0.  0.
          3    1    3    3  502    0 -0.46670940253E+01  0.10379193291E+02  0.16340303726E+02  0.19912683041E+02  0.00000000000E+00 0. -1.
         -4    1    3    3    0  502  0.99222662612E+01  0.10872389637E+03 -0.89534103581E+02  0.14119381259E+03  0.00000000000E+00 0.  1.
         11    1    5    5    0    0  0.25027448855E+02  0.16928337970E+03  0.88881928426E+02  0.19282954401E+03  0.00000000000E+00 0. -1.
        -11    1    5    5    0    0  0.79797582106E+02  0.17425476024E+03  0.19897365503E+03  0.27626597867E+03  0.00000000000E+00 0.  1.
          3    1    6    6  503    0 -0.53412106039E+02 -0.79660805412E+02  0.17212746019E+03  0.19704456232E+03  0.00000000000E+00 0. -1.
         -3    1    6    6    0  503 -0.56668097157E+02 -0.38298042420E+03  0.81224506023E+03  0.89979292975E+03  0.00000000000E+00 0.  1.
<mgrwt>
<rscale>  0 0.12429731E+04</rscale>
<asrwt>0</asrwt>
<pdfrwt beam="1">  1        1 0.22508260E+00 0.12429731E+04</pdfrwt>
<pdfrwt beam="2">  1       -2 0.40615786E-01 0.12429731E+04</pdfrwt>
<totfact> 0.34481622E+01</totfact>
</mgrwt>
</event>
<event>
12    4  0.4183215E-008  0.2299915E+04  0.7818608E-02  0.8477955E-01
          1   -1    0    0  501    0  0.00000000000E+00  0.00000000000E+00  0.17909096803E+04  0.17909096803E+04  0.00000000000E+00 0. -1.
         -2   -1    0    0    0  501 -0.00000000000E+00 -0.00000000000E+00 -0.73839702578E+03  0.73839702578E+03  0.00000000000E+00 0.  1.
        -24    2    1    2    0    0 -0.44724531295E+03  0.84688420127E+03  0.61712573711E+03  0.11421822203E+04  0.80590499209E+02 0.  0.
        254    2    1    2    0    0  0.44724531295E+03 -0.84688420127E+03  0.43538691740E+03  0.13871244858E+04  0.90405273681E+03 0.  0.
         23    2    4    4    0    0  0.55397429186E+03 -0.94292025132E+03  0.49912725314E+03  0.12054837345E+04  0.89871590916E+02 0.  0.
         23    2    4    4    0    0 -0.10672897891E+03  0.96036050049E+02 -0.63740335734E+02  0.18164075133E+03  0.91195034392E+02 0.  0.
          1    1    3    3  502    0 -0.30467769919E+03  0.61546245455E+03  0.47894104896E+03  0.83726164472E+03  0.00000000000E+00 0. -1.
         -2    1    3    3    0  502 -0.14256761376E+03  0.23142174673E+03  0.13818468815E+03  0.30492057554E+03  0.00000000000E+00 0.  1.
         11    1    5    5    0    0  0.37997503339E+03 -0.61601410354E+03  0.37320505425E+03  0.81433188214E+03  0.00000000000E+00 0.  1.
        -11    1    5    5    0    0  0.17399925847E+03 -0.32690614778E+03  0.12592219889E+03  0.39115185232E+03  0.00000000000E+00 0. -1.
          3    1    6    6  503    0 -0.27472098602E+01  0.55144515775E+02 -0.37868151119E+02  0.66951188573E+02  0.00000000000E+00 0. -1.
         -3    1    6    6    0  503 -0.10398176905E+03  0.40891534273E+02 -0.25872184614E+02  0.11468956276E+03  0.00000000000E+00 0.  1.
<mgrwt>
<rscale>  0 0.22999151E+04</rscale>
<asrwt>0</asrwt>
<pdfrwt beam="1">  1        1 0.27552456E+00 0.22999151E+04</pdfrwt>
<pdfrwt beam="2">  1       -2 0.11359954E+00 0.22999151E+04</pdfrwt>
<totfact> 0.19932801E+00</totfact>
</mgrwt>
</event>
<event>
12    4  0.4183215E-008  0.1785080E+04  0.7818608E-02  0.8714274E-01
          1   -1    0    0  501    0  0.00000000000E+00  0.00000000000E+00  0.91219543792E+03  0.91219543792E+03  0.00000000000E+00 0. -1.
         -2   -1    0    0    0  501 -0.00000000000E+00 -0.00000000000E+00 -0.87330825395E+03  0.87330825395E+03  0.00000000000E+00 0.  1.
        -24    2    1    2    0    0 -0.47527545566E+02 -0.11173084141E+03 -0.64079981622E+03  0.65665522839E+03  0.76348123694E+02 0.  0.
        254    2    1    2    0    0  0.47527545566E+02  0.11173084141E+03  0.67968700019E+03  0.11288484635E+04  0.89307434560E+03 0.  0.
         23    2    4    4    0    0  0.32505820557E+03 -0.20816961217E+03  0.54708883456E+03  0.67569854533E+03  0.90911532882E+02 0.  0.
         23    2    4    4    0    0 -0.27753066000E+03  0.31990045359E+03  0.13259816563E+03  0.45314991816E+03  0.91667918881E+02 0.  0.
          3    1    3    3  502    0 -0.28454546849E+02 -0.56327553349E+01 -0.70111983977E+02  0.75875420699E+02  0.00000000000E+00 0. -1.
         -4    1    3    3    0  502 -0.19072998717E+02 -0.10609808608E+03 -0.57068783224E+03  0.58077980769E+03  0.00000000000E+00 0.  1.
         11    1    5    5    0    0  0.19658624081E+02  0.15829225848E+01  0.73738293346E+01  0.21055652536E+02  0.00000000000E+00 0.  1.
        -11    1    5    5    0    0  0.30539958149E+03 -0.20975253476E+03  0.53971500523E+03  0.65464289279E+03  0.00000000000E+00 0. -1.
          2    1    6    6  503    0 -0.27088807195E+03  0.27497226837E+03  0.10505197285E+03  0.40003251479E+03  0.00000000000E+00 0. -1.
         -2    1    6    6    0  503 -0.66425880547E+01  0.44928185221E+02  0.27546192781E+02  0.53117403363E+02  0.00000000000E+00 0.  1.
<mgrwt>
<rscale>  0 0.17850802E+04</rscale>
<asrwt>0</asrwt>
<pdfrwt beam="1">  1        1 0.14033776E+00 0.17850802E+04</pdfrwt>
<pdfrwt beam="2">  1       -2 0.13435512E+00 0.17850802E+04</pdfrwt>
<totfact> 0.58796339E+00</totfact>
</mgrwt>
</event>
<event>
12    4  0.4183215E-008  0.1368549E+04  0.7818608E-02  0.8976904E-01
         -2   -1    0    0    0  501 -0.00000000000E+00  0.00000000000E+00  0.27502405172E+03  0.27502405172E+03  0.00000000000E+00 0.  1.
          1   -1    0    0  501    0  0.00000000000E+00 -0.00000000000E+00 -0.17025114065E+04  0.17025114065E+04  0.00000000000E+00 0. -1.
        -24    2    1    2    0    0 -0.32222477795E+03 -0.35910264746E+01 -0.65068782916E+03  0.73050351291E+03  0.79993926996E+02 0.  0.
        254    2    1    2    0    0  0.32222477795E+03  0.35910264746E+01 -0.77679952559E+03  0.12470319453E+04  0.92077655627E+03 0.  0.
         23    2    4    4    0    0  0.32119320319E+03 -0.40776557794E+03 -0.28461691184E+03  0.59903598422E+03  0.91648696453E+02 0.  0.
         23    2    4    4    0    0  0.10315747587E+01  0.41135660441E+03 -0.49218261375E+03  0.64799596105E+03  0.91867949389E+02 0.  0.
          3    1    3    3  502    0 -0.17678259340E+03 -0.28857895463E+02 -0.42032009014E+03  0.45689587614E+03  0.00000000000E+00 0. -1.
         -4    1    3    3    0  502 -0.14544218455E+03  0.25266868988E+02 -0.23036773902E+03  0.27360763677E+03  0.00000000000E+00 0.  1.
         11    1    5    5    0    0  0.27455449130E+03 -0.35369073252E+03 -0.27865950092E+03  0.52737882060E+03  0.00000000000E+00 0. -1.
        -11    1    5    5    0    0  0.46638711894E+02 -0.54074845413E+02 -0.59574109208E+01  0.71657163623E+02  0.00000000000E+00 0.  1.
          1    1    6    6  503    0 -0.44335555821E+02  0.16265404412E+03 -0.19013020065E+03  0.25410917492E+03  0.00000000000E+00 0. -1.
         -1    1    6    6    0  503  0.45367130580E+02  0.24870256029E+03 -0.30205241310E+03  0.39388678613E+03  0.00000000000E+00 0.  1.
<mgrwt>
<rscale>  0 0.13685490E+04</rscale>
<asrwt>0</asrwt>
<pdfrwt beam="1">  1        1 0.26192483E+00 0.13685490E+04</pdfrwt>
<pdfrwt beam="2">  1       -2 0.42311393E-01 0.13685490E+04</pdfrwt>
<totfact> 0.21565817E+01</totfact>
</mgrwt>
</event>
<event>
12    4  0.4183215E-008  0.1533398E+04  0.7818608E-02  0.8862542E-01
          1   -1    0    0  501    0  0.00000000000E+00  0.00000000000E+00  0.19341781282E+04  0.19341781282E+04  0.00000000000E+00 0. -1.
         -2   -1    0    0    0  501 -0.00000000000E+00 -0.00000000000E+00 -0.30391586646E+03  0.30391586646E+03  0.00000000000E+00 0.  1.
        -24    2    1    2    0    0 -0.83225552953E+02  0.15003911710E+03  0.12271186046E+04  0.12413563725E+04  0.75546968998E+02 0.  0.
        254    2    1    2    0    0  0.83225552953E+02 -0.15003911710E+03  0.40314365715E+03  0.99673762215E+03  0.89527808517E+03 0.  0.
         23    2    4    4    0    0 -0.19062572116E+03  0.27223253374E+03 -0.73193436505E+00  0.34508957941E+03  0.92938496322E+02 0.  0.
         23    2    4    4    0    0  0.27385127411E+03 -0.42227165084E+03  0.40387559151E+03  0.65164804274E+03  0.90674201135E+02 0.  0.
          3    1    3    3  502    0 -0.58879371829E+02  0.15155474417E+03  0.10949129060E+04  0.11069190994E+04  0.00000000000E+00 0. -1.
         -4    1    3    3    0  502 -0.24346181123E+02 -0.15156270669E+01  0.13220569860E+03  0.13443727312E+03  0.00000000000E+00 0.  1.
         11    1    5    5    0    0 -0.16226639703E+03  0.23488991390E+03 -0.34129386562E+02  0.28752125188E+03  0.00000000000E+00 0. -1.
        -11    1    5    5    0    0 -0.28359324127E+02  0.37342619841E+02  0.33397452197E+02  0.57568327532E+02  0.00000000000E+00 0.  1.
          3    1    6    6  503    0  0.94070263655E+02 -0.22446804962E+03  0.20977816599E+03  0.32131292960E+03  0.00000000000E+00 0. -1.
         -3    1    6    6    0  503  0.17978101046E+03 -0.19780360122E+03  0.19409742552E+03  0.33033511314E+03  0.00000000000E+00 0.  1.
<mgrwt>
<rscale>  0 0.15333981E+04</rscale>
<asrwt>0</asrwt>
<pdfrwt beam="1">  1        1 0.29756586E+00 0.15333981E+04</pdfrwt>
<pdfrwt beam="2">  1       -2 0.46756288E-01 0.15333981E+04</pdfrwt>
<totfact> 0.12134604E+01</totfact>
</mgrwt>
</event>
<event>
12    4  0.4183215E-008  0.1985574E+04  0.7818608E-02  0.8613395E-01
         -2   -1    0    0    0  501 -0.00000000000E+00  0.00000000000E+00  0.33832710545E+03  0.33832710545E+03  0.00000000000E+00 0.  1.
          1   -1    0    0  501    0  0.00000000000E+00 -0.00000000000E+00 -0.29132328465E+04  0.29132328465E+04  0.00000000000E+00 0. -1.
        -24    2    1    2    0    0 -0.20857254969E+03  0.51983062284E+03 -0.15445698131E+03  0.58708211282E+03  0.84154995021E+02 0.  0.
        254    2    1    2    0    0  0.20857254969E+03 -0.51983062284E+03 -0.24204487598E+04  0.26644778392E+04  0.96288294815E+03 0.  0.
         23    2    4    4    0    0  0.23931165253E+03 -0.69316402878E+03 -0.23334033510E+04  0.24476587012E+04  0.92279364756E+02 0.  0.
         23    2    4    4    0    0 -0.30739102834E+02  0.17333340593E+03 -0.87045408727E+02  0.21681913795E+03  0.91892727390E+02 0.  0.
          3    1    3    3  502    0 -0.14545283340E+02  0.10848922609E+02  0.61973391714E+01  0.19174759504E+02  0.00000000000E+00 0. -1.
         -4    1    3    3    0  502 -0.19402726635E+03  0.50898170023E+03 -0.16065432048E+03  0.56790735331E+03  0.00000000000E+00 0.  1.
         11    1    5    5    0    0  0.18056106895E+03 -0.59492987587E+03 -0.20431580344E+04  0.21356588235E+04  0.00000000000E+00 0. -1.
        -11    1    5    5    0    0  0.58750583574E+02 -0.98234152903E+02 -0.29024531664E+03  0.31199987772E+03  0.00000000000E+00 0.  1.
          3    1    6    6  503    0 -0.12628279758E+02  0.15322399609E+03 -0.10332429169E+03  0.18523761951E+03  0.00000000000E+00 0. -1.
         -3    1    6    6    0  503 -0.18110823076E+02  0.20109409841E+02  0.16278882965E+02  0.31581518444E+02  0.00000000000E+00 0.  1.
<mgrwt>
<rscale>  0 0.19855736E+04</rscale>
<asrwt>0</asrwt>
<pdfrwt beam="1">  1        1 0.44818968E+00 0.19855736E+04</pdfrwt>
<pdfrwt beam="2">  1       -2 0.52050323E-01 0.19855736E+04</pdfrwt>
<totfact> 0.19684708E+00</totfact>
</mgrwt>
</event>
<event>
12    4  0.4183215E-008  0.1158465E+04  0.7818608E-02  0.9150009E-01
          1   -1    0    0  501    0  0.00000000000E+00  0.00000000000E+00  0.16682637692E+04  0.16682637692E+04  0.00000000000E+00 0. -1.
         -2   -1    0    0    0  501 -0.00000000000E+00 -0.00000000000E+00 -0.20111347660E+03  0.20111347660E+03  0.00000000000E+00 0.  1.
        -24    2    1    2    0    0  0.53144626099E+02  0.30846974326E+02  0.55725859325E+03  0.56628852288E+03  0.79810176535E+02 0.  0.
        254    2    1    2    0    0 -0.53144626099E+02 -0.30846974326E+02  0.90989169936E+03  0.13030887229E+04  0.93078538245E+03 0.  0.
         23    2    4    4    0    0 -0.34250592794E+03 -0.97752872467E+02  0.29869092038E+02  0.36981448585E+03  0.94892868727E+02 0.  0.
         23    2    4    4    0    0  0.28936130184E+03  0.66905898141E+02  0.88002260733E+03  0.93327423709E+03  0.91403774574E+02 0.  0.
          3    1    3    3  502    0  0.47907307983E+02  0.24627057869E+02  0.55532387998E+03  0.55793029476E+03  0.00000000000E+00 0. -1.
         -4    1    3    3    0  502  0.52373181166E+01  0.62199164572E+01  0.19347132756E+01  0.83582281165E+01  0.00000000000E+00 0.  1.
         11    1    5    5    0    0 -0.77495365361E+02 -0.13484332736E+02  0.46245190465E+02  0.91246789111E+02  0.00000000000E+00 0. -1.
        -11    1    5    5    0    0 -0.26501056258E+03 -0.84268539731E+02 -0.16376098427E+02  0.27856769674E+03  0.00000000000E+00 0.  1.
          2    1    6    6  503    0  0.14404781246E+03 -0.13444854403E+02  0.40448669932E+03  0.42958122202E+03  0.00000000000E+00 0. -1.
         -2    1    6    6    0  503  0.14531348938E+03  0.80350752544E+02  0.47553590801E+03  0.50369301507E+03  0.00000000000E+00 0.  1.
<mgrwt>
<rscale>  0 0.11584651E+04</rscale>
<asrwt>0</asrwt>
<pdfrwt beam="1">  1        1 0.25665596E+00 0.11584651E+04</pdfrwt>
<pdfrwt beam="2">  1       -2 0.30940536E-01 0.11584651E+04</pdfrwt>
<totfact> 0.42257423E+01</totfact>
</mgrwt>
</event>
<event>
12    4  0.4183215E-008  0.2212525E+04  0.7818608E-02  0.8513233E-01
          1   -1    0    0  501    0  0.00000000000E+00  0.00000000000E+00  0.22797248229E+04  0.22797248229E+04  0.00000000000E+00 0. -1.
         -2   -1    0    0    0  501 -0.00000000000E+00 -0.00000000000E+00 -0.53682634838E+03  0.53682634838E+03  0.00000000000E+00 0.  1.
        -24    2    1    2    0    0  0.58925124031E+03  0.15221766059E+02 -0.18299867514E+03  0.62244210986E+03  0.80603589591E+02 0.  0.
        254    2    1    2    0    0 -0.58925124031E+03 -0.15221766059E+02  0.19258971496E+04  0.21941090614E+04  0.87039417277E+03 0.  0.
         23    2    4    4    0    0 -0.62436646184E+03  0.20155121318E+02  0.19747237653E+04  0.20731422004E+04  0.90249244740E+02 0.  0.
         23    2    4    4    0    0  0.35115221525E+02 -0.35376887377E+02 -0.48826615675E+02  0.12096686101E+03  0.98814675641E+02 0.  0.
          1    1    3    3  502    0  0.21683370200E+03  0.42266082255E+02 -0.81807833047E+02  0.23557546048E+03  0.00000000000E+00 0. -1.
         -4    1    3    3    0  502  0.37241753831E+03 -0.27044316195E+02 -0.10119084209E+03  0.38686664938E+03  0.00000000000E+00 0.  1.
         11    1    5    5    0    0 -0.20092784080E+02  0.58931868845E+01  0.13639508152E+03  0.13799299941E+03  0.00000000000E+00 0.  1.
        -11    1    5    5    0    0 -0.60427367776E+03  0.14261934434E+02  0.18383286838E+04  0.19351492010E+04  0.00000000000E+00 0. -1.
          3    1    6    6  503    0  0.50980804586E+02 -0.20928970232E+02  0.12056444839E+02  0.56412960332E+02  0.00000000000E+00 0. -1.
         -3    1    6    6    0  503 -0.15865583061E+02 -0.14447917145E+02 -0.60883060514E+02  0.64553900682E+02  0.00000000000E+00 0.  1.
<mgrwt>
<rscale>  0 0.22125247E+04</rscale>
<asrwt>0</asrwt>
<pdfrwt beam="1">  1        1 0.35072689E+00 0.22125247E+04</pdfrwt>
<pdfrwt beam="2">  1       -2 0.82588670E-01 0.22125247E+04</pdfrwt>
<totfact> 0.19778914E+00</totfact>
</mgrwt>
</event>
<event>
12    4  0.4183215E-008  0.2062131E+04  0.7818608E-02  0.8578111E-01
          1   -1    0    0  501    0  0.00000000000E+00  0.00000000000E+00  0.14952375877E+04  0.14952375877E+04  0.00000000000E+00 0. -1.
         -2   -1    0    0    0  501 -0.00000000000E+00 -0.00000000000E+00 -0.71098810227E+03  0.71098810227E+03  0.00000000000E+00 0.  1.
        -24    2    1    2    0    0  0.62615858191E+03  0.16490250003E+03 -0.24260148027E+03  0.69705128381E+03  0.88077294618E+02 0.  0.
        254    2    1    2    0    0 -0.62615858191E+03 -0.16490250003E+03  0.10268509657E+04  0.15091744062E+04  0.89661423048E+03 0.  0.
         23    2    4    4    0    0 -0.34819373865E+03 -0.26307303639E+03  0.96350240268E+01  0.44630665251E+03  0.93008022628E+02 0.  0.
         23    2    4    4    0    0 -0.27796484326E+03  0.98170536364E+02  0.10172159417E+04  0.10628677537E+04  0.89764589308E+02 0.  0.
          1    1    3    3  502    0  0.43143536666E+03  0.96446456361E+02 -0.12465324208E+03  0.45932213675E+03  0.00000000000E+00 0. -1.
         -2    1    3    3    0  502  0.19472321524E+03  0.68456043667E+02 -0.11794823819E+03  0.23772914706E+03  0.00000000000E+00 0.  1.
         11    1    5    5    0    0 -0.35194259848E+03 -0.24782910862E+03  0.10639417005E+02  0.43057642399E+03  0.00000000000E+00 0.  1.
        -11    1    5    5    0    0  0.37488598299E+01 -0.15243927768E+02 -0.10043929778E+01  0.15730228513E+02  0.00000000000E+00 0. -1.
          2    1    6    6  503    0 -0.25276615515E+03  0.56002498363E+02  0.86624317135E+03  0.90410410956E+03  0.00000000000E+00 0. -1.
         -2    1    6    6    0  503 -0.25198688109E+02  0.42168038001E+02  0.15097277034E+03  0.15876364413E+03  0.00000000000E+00 0.  1.
<mgrwt>
<rscale>  0 0.20621311E+04</rscale>
<asrwt>0</asrwt>
<pdfrwt beam="1">  1        1 0.23003655E+00 0.20621311E+04</pdfrwt>
<pdfrwt beam="2">  1       -2 0.10938279E+00 0.20621311E+04</pdfrwt>
<totfact> 0.35558056E+00</totfact>
</mgrwt>
</event>
<event>
12    4  0.4183215E-008  0.1300714E+04  0.7818608E-02  0.9028999E-01
          1   -1    0    0  501    0  0.00000000000E+00  0.00000000000E+00  0.10028072520E+04  0.10028072520E+04  0.00000000000E+00 0. -1.
         -2   -1    0    0    0  501 -0.00000000000E+00 -0.00000000000E+00 -0.42177995478E+03  0.42177995478E+03  0.00000000000E+00 0.  1.
        -24    2    1    2    0    0  0.13364959304E+02 -0.35219931018E+03  0.16240202794E+03  0.39648185500E+03  0.81243254727E+02 0.  0.
        254    2    1    2    0    0 -0.13364959304E+02  0.35219931018E+03  0.41862526931E+03  0.10281053518E+04  0.87036229357E+03 0.  0.
         23    2    4    4    0    0 -0.16808736342E+02  0.59513559503E+03  0.46958633536E+03  0.76361809655E+03  0.90179603743E+02 0.  0.
         23    2    4    4    0    0  0.34437770386E+01 -0.24293628485E+03 -0.50961066045E+02  0.26448725526E+03  0.91250095051E+02 0.  0.
          3    1    3    3  502    0 -0.18051814274E+02 -0.76899163893E+02  0.82967174753E+01  0.79424082789E+02  0.00000000000E+00 0. -1.
         -4    1    3    3    0  502  0.31416773577E+02 -0.27530014629E+03  0.15410531046E+03  0.31705777221E+03  0.00000000000E+00 0.  1.
         11    1    5    5    0    0 -0.39909867406E+02  0.38280493992E+03  0.34169090286E+03  0.51466988706E+03  0.00000000000E+00 0. -1.
        -11    1    5    5    0    0  0.23101131064E+02  0.21233065511E+03  0.12789543249E+03  0.24894820949E+03  0.00000000000E+00 0.  1.
          3    1    6    6  503    0  0.30558156716E+02 -0.24393666775E+02 -0.11545305098E+02  0.40769424701E+02  0.00000000000E+00 0. -1.
         -3    1    6    6    0  503 -0.27114379677E+02 -0.21854261807E+03 -0.39415760947E+02  0.22371783056E+03  0.00000000000E+00 0.  1.
<mgrwt>
<rscale>  0 0.13007136E+04</rscale>
<asrwt>0</asrwt>
<pdfrwt beam="1">  1        1 0.15427804E+00 0.13007136E+04</pdfrwt>
<pdfrwt beam="2">  1       -2 0.64889224E-01 0.13007136E+04</pdfrwt>
<totfact> 0.28414513E+01</totfact>
</mgrwt>
</event>
<event>
12    4  0.4183215E-008  0.1553366E+04  0.7818608E-02  0.8849720E-01
         -2   -1    0    0    0  501 -0.00000000000E+00  0.00000000000E+00  0.39077959129E+03  0.39077959129E+03  0.00000000000E+00 0.  1.
          1   -1    0    0  501    0  0.00000000000E+00 -0.00000000000E+00 -0.15436751133E+04  0.15436751133E+04  0.00000000000E+00 0. -1.
        -24    2    1    2    0    0 -0.15915699898E+03  0.30091956614E+03  0.91159422924E+02  0.36101890157E+03  0.78364987688E+02 0.  0.
        254    2    1    2    0    0  0.15915699898E+03 -0.30091956614E+03 -0.12440549449E+04  0.15734358030E+04  0.90119031539E+03 0.  0.
         23    2    4    4    0    0  0.47450922733E+03  0.34566871009E+02 -0.75210603911E+03  0.89462230879E+03  0.91278178808E+02 0.  0.
         23    2    4    4    0    0 -0.31535222835E+03 -0.33548643715E+03 -0.49194890580E+03  0.67881349420E+03  0.82315591173E+02 0.  0.
          1    1    3    3  502    0 -0.43682523832E+02  0.42166189250E+02  0.41004828635E+02  0.73263540561E+02  0.00000000000E+00 0. -1.
         -2    1    3    3    0  502 -0.11547447514E+03  0.25875337689E+03  0.50154594289E+02  0.28775536101E+03  0.00000000000E+00 0.  1.
         11    1    5    5    0    0  0.33835533132E+03  0.65149661609E+02 -0.52021489563E+03  0.62398104640E+03  0.00000000000E+00 0.  1.
        -11    1    5    5    0    0  0.13615389601E+03 -0.30582790600E+02 -0.23189114348E+03  0.27064126238E+03  0.00000000000E+00 0. -1.
          1    1    6    6  503    0 -0.73355694701E+02 -0.47191210254E+02 -0.59953262794E+02  0.10584168361E+03  0.00000000000E+00 0. -1.
         -1    1    6    6    0  503 -0.24199653365E+03 -0.28829522690E+03 -0.43199564301E+03  0.57297181059E+03  0.00000000000E+00 0.  1.
<mgrwt>
<rscale>  0 0.15533663E+04</rscale>
<asrwt>0</asrwt>
<pdfrwt beam="1">  1        1 0.23748848E+00 0.15533663E+04</pdfrwt>
<pdfrwt beam="2">  1       -2 0.60119937E-01 0.15533663E+04</pdfrwt>
<totfact> 0.13300518E+01</totfact>
</mgrwt>
</event>
<event>
12    4  0.4183215E-008  0.1094840E+04  0.7818608E-02  0.9210235E-01
          1   -1    0    0  501    0  0.00000000000E+00  0.00000000000E+00  0.14760994052E+04  0.14760994052E+04  0.00000000000E+00 0. -1.
         -2   -1    0    0    0  501 -0.00000000000E+00 -0.00000000000E+00 -0.20301402696E+03  0.20301402696E+03  0.00000000000E+00 0.  1.
        -24    2    1    2    0    0  0.71777177755E+02  0.13438244834E+03  0.35684778511E+03  0.39601522697E+03  0.79228230995E+02 0.  0.
        254    2    1    2    0    0 -0.71777177755E+02 -0.13438244834E+03  0.91623759311E+03  0.12830982052E+04  0.88523390773E+03 0.  0.
         23    2    4    4    0    0 -0.12579551389E+03 -0.40149697841E+03  0.13586504837E+03  0.45149155698E+03  0.91438392746E+02 0.  0.
         23    2    4    4    0    0  0.54018336136E+02  0.26711453007E+03  0.78037254473E+03  0.83160664818E+03  0.91214888647E+02 0.  0.
          3    1    3    3  502    0  0.39436793343E+01  0.48275645581E+02  0.19224643429E+03  0.19825433680E+03  0.00000000000E+00 0. -1.
         -4    1    3    3    0  502  0.67833498420E+02  0.86106802757E+02  0.16460135082E+03  0.19776089017E+03  0.00000000000E+00 0.  1.
         11    1    5    5    0    0 -0.41142165659E+02 -0.26126213957E+03  0.61187522913E+02  0.27146730251E+03  0.00000000000E+00 0. -1.
        -11    1    5    5    0    0 -0.84653348232E+02 -0.14023483884E+03  0.74677525458E+02  0.18002425447E+03  0.00000000000E+00 0.  1.
          4    1    6    6  503    0 -0.17382464423E+02  0.51864464973E+02  0.22846517503E+03  0.23492213391E+03  0.00000000000E+00 0. -1.
         -4    1    6    6    0  503  0.71400800559E+02  0.21525006510E+03  0.55190736970E+03  0.59668451428E+03  0.00000000000E+00 0.  1.
<mgrwt>
<rscale>  0 0.10948404E+04</rscale>
<asrwt>0</asrwt>
<pdfrwt beam="1">  1        1 0.22709221E+00 0.10948404E+04</pdfrwt>
<pdfrwt beam="2">  1       -2 0.31232928E-01 0.10948404E+04</pdfrwt>
<totfact> 0.56519615E+01</totfact>
</mgrwt>
</event>
<event>
12    4  0.4183215E-008  0.1274189E+04  0.7818608E-02  0.9050288E-01
         -2   -1    0    0    0  501 -0.00000000000E+00  0.00000000000E+00  0.42107289093E+03  0.42107289093E+03  0.00000000000E+00 0.  1.
          1   -1    0    0  501    0  0.00000000000E+00 -0.00000000000E+00 -0.96394092745E+03  0.96394092745E+03  0.00000000000E+00 0. -1.
        -24    2    1    2    0    0  0.23011185534E+03  0.73224087602E+02  0.77283684854E+02  0.26557052045E+03  0.79004432882E+02 0.  0.
        254    2    1    2    0    0 -0.23011185534E+03 -0.73224087602E+02 -0.62015172138E+03  0.11194432979E+04  0.90013993734E+03 0.  0.
         23    2    4    4    0    0 -0.42213190939E+02 -0.38506229365E+03 -0.35475844029E+01  0.39784933788E+03  0.90645390480E+02 0.  0.
         23    2    4    4    0    0 -0.18789866440E+03  0.31183820604E+03 -0.61660413697E+03  0.72159396006E+03  0.89152715240E+02 0.  0.
          1    1    3    3  502    0  0.34608649377E+02 -0.38203823160E+01  0.38455997296E+02  0.51876947296E+02  0.00000000000E+00 0. -1.
         -2    1    3    3    0  502  0.19550320596E+03  0.77044469918E+02  0.38827687558E+02  0.21369357315E+03  0.00000000000E+00 0.  1.
         11    1    5    5    0    0 -0.58911895834E+02 -0.21938860539E+03 -0.30397140783E+02  0.22918542234E+03  0.00000000000E+00 0.  1.
        -11    1    5    5    0    0  0.16698704895E+02 -0.16567368826E+03  0.26849556380E+02  0.16866391554E+03  0.00000000000E+00 0. -1.
          2    1    6    6  503    0  0.62883838558E+01  0.30928117047E+02 -0.34869123842E+02  0.47031351172E+02  0.00000000000E+00 0. -1.
         -2    1    6    6    0  503 -0.19418704825E+03  0.28091008900E+03 -0.58173501313E+03  0.67456260889E+03  0.00000000000E+00 0.  1.
<mgrwt>
<rscale>  0 0.12741890E+04</rscale>
<asrwt>0</asrwt>
<pdfrwt beam="1">  1        1 0.14829860E+00 0.12741890E+04</pdfrwt>
<pdfrwt beam="2">  1       -2 0.64780445E-01 0.12741890E+04</pdfrwt>
<totfact> 0.30660346E+01</totfact>
</mgrwt>
</event>
<event>
12    4  0.4183215E-008  0.2880678E+04  0.7818608E-02  0.8278650E-01
         -2   -1    0    0    0  501 -0.00000000000E+00  0.00000000000E+00  0.21769117443E+04  0.21769117443E+04  0.00000000000E+00 0.  1.
          1   -1    0    0  501    0  0.00000000000E+00 -0.00000000000E+00 -0.95299040376E+03  0.95299040376E+03  0.00000000000E+00 0. -1.
        -24    2    1    2    0    0 -0.10890855224E+04  0.29300335846E+03 -0.13077825411E+03  0.11380528658E+04  0.78122535298E+02 0.  0.
        254    2    1    2    0    0  0.10890855224E+04 -0.29300335846E+03  0.13546995946E+04  0.19918492822E+04  0.92752052710E+03 0.  0.
         23    2    4    4    0    0  0.79278258678E+03 -0.13259956096E+03  0.14220727783E+04  0.16360981694E+04  0.91865988291E+02 0.  0.
         23    2    4    4    0    0  0.29630293561E+03 -0.16040379750E+03 -0.67373183640E+02  0.35575111279E+03  0.92167784364E+02 0.  0.
          3    1    3    3  502    0 -0.41129778153E+03  0.14084221512E+03 -0.25813402173E+02  0.43550973168E+03  0.00000000000E+00 0. -1.
         -4    1    3    3    0  502 -0.67778774085E+03  0.15216114334E+03 -0.10496485194E+03  0.70254313415E+03  0.00000000000E+00 0.  1.
         11    1    5    5    0    0  0.45141917112E+03 -0.10416947347E+03  0.74485277752E+03  0.87717512929E+03  0.00000000000E+00 0. -1.
        -11    1    5    5    0    0  0.34136341565E+03 -0.28430087491E+02  0.67722000076E+03  0.75892304014E+03  0.00000000000E+00 0.  1.
          2    1    6    6  503    0 -0.26930562439E+01  0.33825480245E+01  0.56364255752E+01  0.71037649409E+01  0.00000000000E+00 0. -1.
         -2    1    6    6    0  503  0.29899599185E+03 -0.16378634552E+03 -0.73009609215E+02  0.34864734785E+03  0.00000000000E+00 0.  1.
<mgrwt>
<rscale>  0 0.28806777E+04</rscale>
<asrwt>0</asrwt>
<pdfrwt beam="1">  1        1 0.14661391E+00 0.28806777E+04</pdfrwt>
<pdfrwt beam="2">  1       -2 0.33490950E+00 0.28806777E+04</pdfrwt>
<totfact> 0.24053759E-01</totfact>
</mgrwt>
</event>
<event>
12    4  0.4183215E-008  0.1241685E+04  0.7818608E-02  0.9077133E-01
          1   -1    0    0  501    0  0.00000000000E+00  0.00000000000E+00  0.12076536396E+04  0.12076536396E+04  0.00000000000E+00 0. -1.
         -2   -1    0    0    0  501 -0.00000000000E+00 -0.00000000000E+00 -0.31916860987E+03  0.31916860987E+03  0.00000000000E+00 0.  1.
        -24    2    1    2    0    0 -0.92390703580E+02 -0.21350171303E+03  0.43520091766E+03  0.49980455215E+03  0.79282583491E+02 0.  0.
        254    2    1    2    0    0  0.92390703580E+02  0.21350171303E+03  0.45328411208E+03  0.10270176973E+04  0.89172856900E+03 0.  0.
         23    2    4    4    0    0  0.63082475809E+02  0.21774690842E+03 -0.23085698680E+03  0.33627343109E+03  0.91606534822E+02 0.  0.
         23    2    4    4    0    0  0.29308227772E+02 -0.42451953887E+01  0.68414109888E+03  0.69074426623E+03  0.90562708912E+02 0.  0.
          1    1    3    3  502    0 -0.69510063098E+02 -0.20605655834E+03  0.35732977854E+03  0.41830075871E+03  0.00000000000E+00 0. -1.
         -2    1    3    3    0  502 -0.22880640483E+02 -0.74451546881E+01  0.77871139123E+02  0.81503793443E+02  0.00000000000E+00 0.  1.
         11    1    5    5    0    0  0.43719889538E+02  0.38030065782E+02 -0.27331226523E+02  0.64068015326E+02  0.00000000000E+00 0.  1.
        -11    1    5    5    0    0  0.19362586271E+02  0.17971684264E+03 -0.20352576028E+03  0.27220541577E+03  0.00000000000E+00 0. -1.
          2    1    6    6  503    0  0.18953051394E+02  0.32599888996E+02  0.54884960262E+03  0.55014348785E+03  0.00000000000E+00 0. -1.
         -2    1    6    6    0  503  0.10355176378E+02 -0.36845084384E+02  0.13529149626E+03  0.14060077838E+03  0.00000000000E+00 0.  1.
<mgrwt>
<rscale>  0 0.12416846E+04</rscale>
<asrwt>0</asrwt>
<pdfrwt beam="1">  1        1 0.18579286E+00 0.12416846E+04</pdfrwt>
<pdfrwt beam="2">  1       -2 0.49102864E-01 0.12416846E+04</pdfrwt>
<totfact> 0.35842274E+01</totfact>
</mgrwt>
</event>
<event>
12    4  0.4183215E-008  0.3298240E+04  0.7818608E-02  0.8163343E-01
         -2   -1    0    0    0  501 -0.00000000000E+00  0.00000000000E+00  0.10357918740E+04  0.10357918740E+04  0.00000000000E+00 0.  1.
          1   -1    0    0  501    0  0.00000000000E+00 -0.00000000000E+00 -0.26256211584E+04  0.26256211584E+04  0.00000000000E+00 0. -1.
        -24    2    1    2    0    0 -0.75252579043E+03  0.90623677478E+03  0.33580151671E+03  0.12273176046E+04  0.77367220210E+02 0.  0.
        254    2    1    2    0    0  0.75252579043E+03 -0.90623677478E+03 -0.19256308010E+04  0.24340954278E+04  0.91060771589E+03 0.  0.
         23    2    4    4    0    0 -0.24744947757E+02 -0.48147183413E+03 -0.28448680782E+03  0.56701568110E+03  0.90258513669E+02 0.  0.
         23    2    4    4    0    0  0.77727073819E+03 -0.42476494065E+03 -0.16411439932E+04  0.18670797467E+04  0.89767024073E+02 0.  0.
          3    1    3    3  502    0 -0.23360084647E+03  0.24292794472E+03  0.70235026880E+02  0.34426196537E+03  0.00000000000E+00 0. -1.
         -4    1    3    3    0  502 -0.51892494397E+03  0.66330883006E+03  0.26556648983E+03  0.88305563926E+03  0.00000000000E+00 0.  1.
         11    1    5    5    0    0 -0.43613048025E+02 -0.45181878785E+03 -0.27455283705E+03  0.53049182401E+03  0.00000000000E+00 0.  1.
        -11    1    5    5    0    0  0.18868100268E+02 -0.29653046281E+02 -0.99339707781E+01  0.36523857092E+02  0.00000000000E+00 0. -1.
          1    1    6    6  503    0  0.54448361260E+03 -0.31560098600E+03 -0.10833880249E+04  0.12529150008E+04  0.00000000000E+00 0.  1.
         -1    1    6    6    0  503  0.23278712559E+03 -0.10916395465E+03 -0.55775596833E+03  0.61416474585E+03  0.00000000000E+00 0. -1.
<mgrwt>
<rscale>  0 0.32982402E+04</rscale>
<asrwt>0</asrwt>
<pdfrwt beam="1">  1        1 0.40394172E+00 0.32982402E+04</pdfrwt>
<pdfrwt beam="2">  1       -2 0.15935260E+00 0.32982402E+04</pdfrwt>
<totfact> 0.20583077E-01</totfact>
</mgrwt>
</event>
<event>
12    4  0.4183215E-008  0.2011357E+04  0.7818608E-02  0.8601329E-01
         -4   -1    0    0    0  501 -0.00000000000E+00  0.00000000000E+00  0.61531049688E+03  0.61531049688E+03  0.00000000000E+00 0.  1.
          1   -1    0    0  501    0  0.00000000000E+00 -0.00000000000E+00 -0.16437051349E+04  0.16437051349E+04  0.00000000000E+00 0. -1.
        -24    2    1    2    0    0  0.33947285950E+03  0.22443003633E+03 -0.11788449832E+04  0.12499010255E+04  0.83465056231E+02 0.  0.
        254    2    1    2    0    0 -0.33947285950E+03 -0.22443003633E+03  0.15045034516E+03  0.10091146063E+04  0.91107975432E+03 0.  0.
         23    2    4    4    0    0 -0.12480551236E+03 -0.27807842107E+03  0.49636692461E+03  0.58890995943E+03  0.86780137648E+02 0.  0.
         23    2    4    4    0    0 -0.21466734713E+03  0.53648384740E+02 -0.34591657945E+03  0.42020464686E+03  0.89182095697E+02 0.  0.
          1    1    3    3  502    0  0.13552129378E+03  0.13453673147E+03 -0.59858386341E+03  0.62830629053E+03  0.00000000000E+00 0. -1.
         -2    1    3    3    0  502  0.20395156571E+03  0.89893304855E+02 -0.58026111980E+03  0.62159473499E+03  0.00000000000E+00 0.  1.
         11    1    5    5    0    0 -0.11699871696E+03 -0.22876763957E+03  0.46084484830E+03  0.52763747676E+03  0.00000000000E+00 0.  1.
        -11    1    5    5    0    0 -0.78067954018E+01 -0.49310781498E+02  0.35522076312E+02  0.61272482665E+02  0.00000000000E+00 0. -1.
          3    1    6    6  503    0 -0.23133805189E+02 -0.72204416635E+01 -0.54384849755E+01  0.24837166488E+02  0.00000000000E+00 0. -1.
         -3    1    6    6    0  503 -0.19153354194E+03  0.60868826403E+02 -0.34047809448E+03  0.39536748037E+03  0.00000000000E+00 0.  1.
<mgrwt>
<rscale>  0 0.20113568E+04</rscale>
<asrwt>0</asrwt>
<pdfrwt beam="1">  1        1 0.25287771E+00 0.20113568E+04</pdfrwt>
<pdfrwt beam="2">  1       -4 0.94663155E-01 0.20113568E+04</pdfrwt>
<totfact> 0.22251930E+00</totfact>
</mgrwt>
</event>
<event>
12    4  0.4183215E-008  0.1900464E+04  0.7818608E-02  0.8654625E-01
          1   -1    0    0  501    0  0.00000000000E+00  0.00000000000E+00  0.56362555374E+03  0.56362555374E+03  0.00000000000E+00 0. -1.
         -2   -1    0    0    0  501 -0.00000000000E+00 -0.00000000000E+00 -0.16020228558E+04  0.16020228558E+04  0.00000000000E+00 0.  1.
        -24    2    1    2    0    0  0.54682701527E+03  0.15179526325E+03  0.12762050217E+03  0.58717136436E+03  0.80135085780E+02 0.  0.
        254    2    1    2    0    0 -0.54682701527E+03 -0.15179526325E+03 -0.11660178042E+04  0.15784770452E+04  0.89996148574E+03 0.  0.
         23    2    4    4    0    0 -0.58209579217E+03  0.16303882541E+03 -0.10741958481E+04  0.12360550027E+04  0.92293444161E+02 0.  0.
         23    2    4    4    0    0  0.35268776897E+02 -0.31483408866E+03 -0.91821956159E+02  0.34242204248E+03  0.91963000896E+02 0.  0.
          1    1    3    3  502    0  0.15790214479E+03  0.32028775079E+02  0.71876760097E+02  0.17642334994E+03  0.00000000000E+00 0. -1.
         -2    1    3    3    0  502  0.38892487048E+03  0.11976648817E+03  0.55743742074E+02  0.41074801442E+03  0.00000000000E+00 0.  1.
         11    1    5    5    0    0 -0.11827593829E+03  0.38708750606E+02 -0.30322029358E+03  0.32776532975E+03  0.00000000000E+00 0. -1.
        -11    1    5    5    0    0 -0.46381985388E+03  0.12433007481E+03 -0.77097555451E+03  0.90828967296E+03  0.00000000000E+00 0.  1.
          3    1    6    6  503    0 -0.30151513314E+02 -0.69946945687E+02 -0.15775356887E+02  0.77785286854E+02  0.00000000000E+00 0. -1.
         -3    1    6    6    0  503  0.65420290211E+02 -0.24488714298E+03 -0.76046599272E+02  0.26463675562E+03  0.00000000000E+00 0.  1.
<mgrwt>
<rscale>  0 0.19004642E+04</rscale>
<asrwt>0</asrwt>
<pdfrwt beam="1">  1        1 0.86711623E-01 0.19004642E+04</pdfrwt>
<pdfrwt beam="2">  1       -2 0.24646506E+00 0.19004642E+04</pdfrwt>
<totfact> 0.20729546E+00</totfact>
</mgrwt>
</event>
<event>
12    4  0.4183215E-008  0.1144954E+04  0.7818608E-02  0.9162452E-01
          1   -1    0    0  501    0  0.00000000000E+00  0.00000000000E+00  0.56971028365E+03  0.56971028365E+03  0.00000000000E+00 0. -1.
         -2   -1    0    0    0  501 -0.00000000000E+00 -0.00000000000E+00 -0.57525677668E+03  0.57525677668E+03  0.00000000000E+00 0.  1.
        -24    2    1    2    0    0  0.18113890006E+03  0.97696070178E+02  0.44955068588E+02  0.22551326559E+03  0.80495040358E+02 0.  0.
        254    2    1    2    0    0 -0.18113890006E+03 -0.97696070178E+02 -0.50501561615E+02  0.91945379474E+03  0.89470053632E+03 0.  0.
         23    2    4    4    0    0 -0.21179587040E+03  0.37015132388E+03  0.21334965400E+02  0.43703838094E+03  0.93155098492E+02 0.  0.
         23    2    4    4    0    0  0.30656970339E+02 -0.46784739406E+03 -0.71836527016E+02  0.48241541380E+03  0.87994948142E+02 0.  0.
          1    1    3    3  502    0  0.14976900316E+03  0.96693862865E+02  0.10022851845E+02  0.17855227521E+03  0.00000000000E+00 0. -1.
         -2    1    3    3    0  502  0.31369896905E+02  0.10022073129E+01  0.34932216743E+02  0.46960990385E+02  0.00000000000E+00 0.  1.
         11    1    5    5    0    0 -0.11588391499E+02  0.91098464639E+02  0.17991926549E+02  0.93578472408E+02  0.00000000000E+00 0. -1.
        -11    1    5    5    0    0 -0.20020747890E+03  0.27905285924E+03  0.33430388511E+01  0.34345990853E+03  0.00000000000E+00 0.  1.
          3    1    6    6  503    0  0.19066234703E+00 -0.47720136751E+02  0.19236909749E+02  0.51451982472E+02  0.00000000000E+00 0. -1.
         -3    1    6    6    0  503  0.30466307992E+02 -0.42012725731E+03 -0.91073436765E+02  0.43096343133E+03  0.00000000000E+00 0.  1.
<mgrwt>
<rscale>  0 0.11449536E+04</rscale>
<asrwt>0</asrwt>
<pdfrwt beam="1">  1        1 0.87647736E-01 0.11449536E+04</pdfrwt>
<pdfrwt beam="2">  1       -2 0.88501043E-01 0.11449536E+04</pdfrwt>
<totfact> 0.35246909E+01</totfact>
</mgrwt>
</event>
<event>
12    4  0.4183215E-008  0.1457897E+04  0.7818608E-02  0.8912944E-01
         -2   -1    0    0    0  501 -0.00000000000E+00  0.00000000000E+00  0.13646744331E+03  0.13646744331E+03  0.00000000000E+00 0.  1.
          1   -1    0    0  501    0  0.00000000000E+00 -0.00000000000E+00 -0.38937189614E+04  0.38937189614E+04  0.00000000000E+00 0. -1.
        -24    2    1    2    0    0  0.26908642271E+03 -0.34429377928E+03 -0.10620304220E+04  0.11512495088E+04  0.80753359323E+02 0.  0.
        254    2    1    2    0    0 -0.26908642271E+03  0.34429377928E+03 -0.26952210961E+04  0.28789368959E+04  0.91275143614E+03 0.  0.
         23    2    4    4    0    0 -0.33001143817E+03  0.28673264125E+03 -0.27173672902E+04  0.27537737689E+04  0.89787655843E+02 0.  0.
         23    2    4    4    0    0  0.60925015458E+02  0.57561138027E+02  0.22146194109E+02  0.12516312703E+03  0.90278526433E+02 0.  0.
          1    1    3    3  502    0  0.52061891625E+02 -0.12689993033E+03 -0.33381494550E+03  0.36089673137E+03  0.00000000000E+00 0. -1.
         -2    1    3    3    0  502  0.21702453109E+03 -0.21739384895E+03 -0.72821547649E+03  0.79035277747E+03  0.00000000000E+00 0.  1.
         11    1    5    5    0    0 -0.24888340481E+02  0.77677716412E+01 -0.31637979694E+03  0.31745226992E+03  0.00000000000E+00 0.  1.
        -11    1    5    5    0    0 -0.30512309769E+03  0.27896486961E+03 -0.24009874933E+04  0.24363214989E+04  0.00000000000E+00 0. -1.
          4    1    6    6  503    0 -0.12769966745E+02 -0.93349784622E+01  0.20145961555E+02  0.25613934499E+02  0.00000000000E+00 0. -1.
         -4    1    6    6    0  503  0.73694982203E+02  0.66896116489E+02  0.20002325535E+01  0.99549192530E+02  0.00000000000E+00 0.  1.
<mgrwt>
<rscale>  0 0.14578969E+04</rscale>
<asrwt>0</asrwt>
<pdfrwt beam="1">  1        1 0.59903360E+00 0.14578969E+04</pdfrwt>
<pdfrwt beam="2">  1       -2 0.20994994E-01 0.14578969E+04</pdfrwt>
<totfact> 0.20230933E+00</totfact>
</mgrwt>
</event>
<event>
12    4  0.4183215E-008  0.1790140E+04  0.7818608E-02  0.8711560E-01
          1   -1    0    0  501    0  0.00000000000E+00  0.00000000000E+00  0.75397184717E+03  0.75397184717E+03  0.00000000000E+00 0. -1.
         -2   -1    0    0    0  501 -0.00000000000E+00 -0.00000000000E+00 -0.10625735093E+04  0.10625735093E+04  0.00000000000E+00 0.  1.
        -24    2    1    2    0    0  0.48967097835E+03 -0.44223849527E+03 -0.66338999984E+02  0.66865959491E+03  0.85745187715E+02 0.  0.
        254    2    1    2    0    0 -0.48967097835E+03  0.44223849527E+03 -0.24226266217E+03  0.11478857616E+04  0.90752298616E+03 0.  0.
         23    2    4    4    0    0  0.10284261892E+03  0.23569973682E+03  0.23046249529E+03  0.35699033618E+03  0.90543736345E+02 0.  0.
         23    2    4    4    0    0 -0.59251359727E+03  0.20653875845E+03 -0.47272515746E+03  0.79089542539E+03  0.91191434493E+02 0.  0.
          1    1    3    3  502    0  0.42524788876E+03 -0.39360719005E+03 -0.85433173651E+02  0.58571427686E+03  0.00000000000E+00 0. -1.
         -2    1    3    3    0  502  0.64423089581E+02 -0.48631305211E+02  0.19094173667E+02  0.82945318046E+02  0.00000000000E+00 0.  1.
         11    1    5    5    0    0  0.79309834082E+02  0.13837507533E+03  0.19230263915E+03  0.24983597876E+03  0.00000000000E+00 0. -1.
        -11    1    5    5    0    0  0.23532784840E+02  0.97324661486E+02  0.38159856135E+02  0.10715435743E+03  0.00000000000E+00 0.  1.
          4    1    6    6  503    0 -0.13214023369E+03  0.87701359014E+02 -0.11615553045E+03  0.19658249410E+03  0.00000000000E+00 0. -1.
         -4    1    6    6    0  503 -0.46037336358E+03  0.11883739943E+03 -0.35656962700E+03  0.59431293129E+03  0.00000000000E+00 0.  1.
<mgrwt>
<rscale>  0 0.17901402E+04</rscale>
<asrwt>0</asrwt>
<pdfrwt beam="1">  1        1 0.11599567E+00 0.17901402E+04</pdfrwt>
<pdfrwt beam="2">  1       -2 0.16347285E+00 0.17901402E+04</pdfrwt>
<totfact> 0.47699964E+00</totfact>
</mgrwt>
</event>
<event>
12    4  0.4183215E-008  0.1159730E+04  0.7818608E-02  0.9148854E-01
         -2   -1    0    0    0  501 -0.00000000000E+00  0.00000000000E+00  0.15395391124E+03  0.15395391124E+03  0.00000000000E+00 0.  1.
          1   -1    0    0  501    0  0.00000000000E+00 -0.00000000000E+00 -0.21840527931E+04  0.21840527931E+04  0.00000000000E+00 0. -1.
        -24    2    1    2    0    0 -0.11891684712E+03  0.35927965019E+02 -0.47071494285E+02  0.15523103497E+03  0.80305127144E+02 0.  0.
        254    2    1    2    0    0  0.11891684712E+03 -0.35927965019E+02 -0.19830273876E+04  0.21827756694E+04  0.90370347335E+03 0.  0.
         23    2    4    4    0    0  0.78453393539E+01 -0.25205975701E+03 -0.18866895787E+04  0.19056844527E+04  0.91869454940E+02 0.  0.
         23    2    4    4    0    0  0.11107150777E+03  0.21613179199E+03 -0.96337808901E+02  0.27709121662E+03  0.91917014519E+02 0.  0.
          3    1    3    3  502    0 -0.23241984819E+02  0.44543101294E+01 -0.49085255556E+02  0.54492137507E+02  0.00000000000E+00 0. -1.
         -4    1    3    3    0  502 -0.95674862301E+02  0.31473654890E+02  0.20137612717E+01  0.10073889747E+03  0.00000000000E+00 0.  1.
         11    1    5    5    0    0  0.37572961028E+02 -0.49386548026E+02 -0.52941507518E+03  0.53303947354E+03  0.00000000000E+00 0. -1.
        -11    1    5    5    0    0 -0.29727621674E+02 -0.20267320898E+03 -0.13572745035E+04  0.13726449792E+04  0.00000000000E+00 0.  1.
          3    1    6    6  503    0  0.65969882885E+02  0.19909028512E+03 -0.64955314803E+02  0.21956356710E+03  0.00000000000E+00 0. -1.
         -3    1    6    6    0  503  0.45101624881E+02  0.17041506868E+02 -0.31382494098E+02  0.57527649518E+02  0.00000000000E+00 0.  1.
<mgrwt>
<rscale>  0 0.11597301E+04</rscale>
<asrwt>0</asrwt>
<pdfrwt beam="1">  1        1 0.33600813E+00 0.11597301E+04</pdfrwt>
<pdfrwt beam="2">  1       -2 0.23685216E-01 0.11597301E+04</pdfrwt>
<totfact> 0.30905816E+01</totfact>
</mgrwt>
</event>
<event>
12    4  0.5233750E-008  0.2372909E+04  0.7818608E-02  0.8449716E-01
         -2   -1    0    0    0  501 -0.00000000000E+00  0.00000000000E+00  0.66537346051E+03  0.66537346051E+03  0.00000000000E+00 0.  1.
          1   -1    0    0  501    0  0.00000000000E+00 -0.00000000000E+00 -0.21156144697E+04  0.21156144697E+04  0.00000000000E+00 0. -1.
        -24    2    1    2    0    0 -0.36878476496E+03 -0.74232357753E+03  0.32020817380E+02  0.83346095380E+03  0.81150059335E+02 0.  0.
        254    2    1    2    0    0  0.36878476496E+03  0.74232357753E+03 -0.14822618266E+04  0.19475269764E+04  0.95326528558E+03 0.  0.
         23    2    4    4    0    0 -0.13469536706E+03  0.18373059594E+03 -0.10440569932E+04  0.10725858342E+04  0.92117276957E+02 0.  0.
         23    2    4    4    0    0  0.50348013202E+03  0.55859298159E+03 -0.43820483332E+03  0.87494114224E+03  0.89331763739E+02 0.  0.
          1    1    3    3  502    0  0.14895230512E+01 -0.87979333915E+01 -0.62386229746E+01  0.10887732891E+02  0.00000000000E+00 0. -1.
         -2    1    3    3    0  502 -0.37027428801E+03 -0.73352564414E+03  0.38259440355E+02  0.82257322091E+03  0.00000000000E+00 0.  1.
         11    1    5    5    0    0 -0.13596157723E+02  0.64467730441E+01 -0.14553251330E+02  0.20933549908E+02  0.00000000000E+00 0. -1.
        -11    1    5    5    0    0 -0.12109920934E+03  0.17728382290E+03 -0.10295037419E+04  0.10516522843E+04  0.00000000000E+00 0.  1.
          1    1    6    6  503    0  0.18674307575E+03  0.17601556638E+03 -0.10743370610E+03  0.27820218755E+03  0.00000000000E+00 0. -1.
         -1    1    6    6    0  503  0.31673705627E+03  0.38257741521E+03 -0.33077112722E+03  0.59673895469E+03  0.00000000000E+00 0.  1.
<mgrwt>
<rscale>  0 0.23729085E+04</rscale>
<asrwt>0</asrwt>
<pdfrwt beam="1">  1        1 0.32547916E+00 0.23729085E+04</pdfrwt>
<pdfrwt beam="2">  1       -2 0.10236515E+00 0.23729085E+04</pdfrwt>
<totfact> 0.15333304E+00</totfact>
</mgrwt>
</event>
<event>
12    4  0.4183215E-008  0.1275994E+04  0.7818608E-02  0.9048822E-01
         -2   -1    0    0    0  501 -0.00000000000E+00  0.00000000000E+00  0.14697138769E+03  0.14697138769E+03  0.00000000000E+00 0.  1.
          1   -1    0    0  501    0  0.00000000000E+00 -0.00000000000E+00 -0.27695179991E+04  0.27695179991E+04  0.00000000000E+00 0. -1.
        -24    2    1    2    0    0 -0.30094522249E+02  0.25070640608E+02 -0.14156678326E+04  0.14184173540E+04  0.79108536529E+02 0.  0.
        254    2    1    2    0    0  0.30094522249E+02 -0.25070640608E+02 -0.12068787788E+04  0.14980720328E+04  0.88663927923E+03 0.  0.
         23    2    4    4    0    0 -0.91863001294E+02 -0.27756621533E+03 -0.11604843580E+04  0.12001454708E+04  0.90240739016E+02 0.  0.
         23    2    4    4    0    0  0.12195752354E+03  0.25249557473E+03 -0.46394420815E+02  0.29792656203E+03  0.89331636481E+02 0.  0.
          3    1    3    3  502    0 -0.34818743113E+02  0.49773877057E+02 -0.11352273674E+04  0.11368513356E+04  0.00000000000E+00 0. -1.
         -4    1    3    3    0  502  0.47242208649E+01 -0.24703236449E+02 -0.28044046519E+03  0.28156601832E+03  0.00000000000E+00 0.  1.
         11    1    5    5    0    0  0.89481256390E+00  0.39945070143E+01 -0.24528574748E+01  0.47721363773E+01  0.00000000000E+00 0.  1.
        -11    1    5    5    0    0 -0.92757813858E+02 -0.28156072235E+03 -0.11580315005E+04  0.11953733344E+04  0.00000000000E+00 0. -1.
          1    1    6    6  503    0  0.11160819998E+03  0.25892735296E+03 -0.42550993966E+02  0.28514970015E+03  0.00000000000E+00 0. -1.
         -1    1    6    6    0  503  0.10349323567E+02 -0.64317782300E+01 -0.38434268485E+01  0.12776861877E+02  0.00000000000E+00 0.  1.
<mgrwt>
<rscale>  0 0.12759936E+04</rscale>
<asrwt>0</asrwt>
<pdfrwt beam="1">  1        1 0.42607966E+00 0.12759936E+04</pdfrwt>
<pdfrwt beam="2">  1       -2 0.22610984E-01 0.12759936E+04</pdfrwt>
<totfact> 0.13119865E+01</totfact>
</mgrwt>
</event>
<event>
12    4  0.4183215E-008  0.1157117E+04  0.7818608E-02  0.9151243E-01
         -2   -1    0    0    0  501 -0.00000000000E+00  0.00000000000E+00  0.26962130280E+03  0.26962130280E+03  0.00000000000E+00 0.  1.
          1   -1    0    0  501    0  0.00000000000E+00 -0.00000000000E+00 -0.12414823217E+04  0.12414823217E+04  0.00000000000E+00 0. -1.
        -24    2    1    2    0    0 -0.71630853205E+02  0.23592486858E+01  0.75340844984E+02  0.13135391627E+03  0.80256234718E+02 0.  0.
        254    2    1    2    0    0  0.71630853205E+02 -0.23592486858E+01 -0.10472018639E+04  0.13797497082E+04  0.89551156803E+03 0.  0.
         23    2    4    4    0    0 -0.11539392468E+03 -0.37985673978E+03 -0.75929400036E+03  0.86148235878E+03  0.89540911847E+02 0.  0.
         23    2    4    4    0    0  0.18702477788E+03  0.37749749110E+03 -0.28790786350E+03  0.51826734944E+03  0.90705481107E+02 0.  0.
          1    1    3    3  502    0 -0.21750495182E+02 -0.86466560325E+01 -0.14838062721E+02  0.27713116146E+02  0.00000000000E+00 0. -1.
         -2    1    3    3    0  502 -0.49880358023E+02  0.11005904718E+02  0.90178907706E+02  0.10364080012E+03  0.00000000000E+00 0.  1.
         11    1    5    5    0    0 -0.12402006275E+02 -0.59762876239E+02 -0.19780213682E+03  0.20700506386E+03  0.00000000000E+00 0. -1.
        -11    1    5    5    0    0 -0.10299191840E+03 -0.32009386354E+03 -0.56149186354E+03  0.65447729492E+03  0.00000000000E+00 0.  1.
          1    1    6    6  503    0  0.33932872344E+02  0.14641257760E+03 -0.13318494708E+03  0.20081412509E+03  0.00000000000E+00 0. -1.
         -1    1    6    6    0  503  0.15309190554E+03  0.23108491349E+03 -0.15472291642E+03  0.31745322435E+03  0.00000000000E+00 0.  1.
<mgrwt>
<rscale>  0 0.11571172E+04</rscale>
<asrwt>0</asrwt>
<pdfrwt beam="1">  1        1 0.19099728E+00 0.11571172E+04</pdfrwt>
<pdfrwt beam="2">  1       -2 0.41480200E-01 0.11571172E+04</pdfrwt>
<totfact> 0.47771810E+01</totfact>
</mgrwt>
</event>
<event>
12    4  0.4183215E-008  0.3907844E+04  0.7818608E-02  0.8023400E-01
         -2   -1    0    0    0  501 -0.00000000000E+00  0.00000000000E+00  0.18632263001E+04  0.18632263001E+04  0.00000000000E+00 0.  1.
          1   -1    0    0  501    0  0.00000000000E+00 -0.00000000000E+00 -0.20490322598E+04  0.20490322598E+04  0.00000000000E+00 0. -1.
        -24    2    1    2    0    0  0.84311080098E+03 -0.15272107699E+04  0.52559084985E+03  0.18236925091E+04  0.80000423002E+02 0.  0.
        254    2    1    2    0    0 -0.84311080098E+03  0.15272107699E+04 -0.71139680949E+03  0.20885660508E+04  0.90156207195E+03 0.  0.
         23    2    4    4    0    0 -0.27297981175E+03  0.62069778882E+03  0.16230322852E+03  0.70347744604E+03  0.93565252231E+02 0.  0.
         23    2    4    4    0    0 -0.57013098923E+03  0.90651298111E+03 -0.87370003801E+03  0.13850886048E+04  0.91123854690E+02 0.  0.
          3    1    3    3  502    0  0.54038007689E+03 -0.10031599849E+04  0.30528626236E+03  0.11796356577E+04  0.00000000000E+00 0. -1.
         -4    1    3    3    0  502  0.30273072409E+03 -0.52405078500E+03  0.22030458749E+03  0.64405685140E+03  0.00000000000E+00 0.  1.
         11    1    5    5    0    0 -0.15773757000E+03  0.31689373324E+03  0.12938822425E+03  0.37688737274E+03  0.00000000000E+00 0. -1.
        -11    1    5    5    0    0 -0.11524224176E+03  0.30380405557E+03  0.32915004270E+02  0.32659007329E+03  0.00000000000E+00 0.  1.
          4    1    6    6  503    0 -0.36005933759E+03  0.64842583585E+03 -0.61822229588E+03  0.96555559048E+03  0.00000000000E+00 0. -1.
         -4    1    6    6    0  503 -0.21007165163E+03  0.25808714526E+03 -0.25547774212E+03  0.41953301430E+03  0.00000000000E+00 0.  1.
<mgrwt>
<rscale>  0 0.39078438E+04</rscale>
<asrwt>0</asrwt>
<pdfrwt beam="1">  1        1 0.31523573E+00 0.39078438E+04</pdfrwt>
<pdfrwt beam="2">  1       -2 0.28665020E+00 0.39078438E+04</pdfrwt>
<totfact> 0.73390043E-02</totfact>
</mgrwt>
</event>
<event>
12    4  0.4183215E-008  0.2375312E+04  0.7818608E-02  0.8448804E-01
          1   -1    0    0  501    0  0.00000000000E+00  0.00000000000E+00  0.12173054016E+04  0.12173054016E+04  0.00000000000E+00 0. -1.
         -2   -1    0    0    0  501 -0.00000000000E+00 -0.00000000000E+00 -0.11587292252E+04  0.11587292252E+04  0.00000000000E+00 0.  1.
        -24    2    1    2    0    0  0.72438797693E+03  0.69987797255E+03  0.12980312523E+03  0.10186628858E+04  0.79108192409E+02 0.  0.
        254    2    1    2    0    0 -0.72438797693E+03 -0.69987797255E+03 -0.71226948885E+02  0.13573717409E+04  0.90709296505E+03 0.  0.
         23    2    4    4    0    0 -0.82199333165E+03 -0.78704728429E+03  0.69907856898E+02  0.11439074568E+04  0.92307617735E+02 0.  0.
         23    2    4    4    0    0  0.97605354717E+02  0.87169311742E+02 -0.14113480578E+03  0.21346428413E+03  0.92318324377E+02 0.  0.
          3    1    3    3  502    0  0.53288803898E+03  0.50522276330E+03  0.59658049837E+02  0.73673522079E+03  0.00000000000E+00 0. -1.
         -4    1    3    3    0  502  0.19149993795E+03  0.19465520925E+03  0.70145075396E+02  0.28192766506E+03  0.00000000000E+00 0.  1.
         11    1    5    5    0    0 -0.56121174767E+03 -0.50497670108E+03  0.93561972396E+01  0.75501498845E+03  0.00000000000E+00 0.  1.
        -11    1    5    5    0    0 -0.26078158397E+03 -0.28207058321E+03  0.60551659658E+02  0.38889246835E+03  0.00000000000E+00 0. -1.
          2    1    6    6  503    0 -0.31123632555E+01  0.37384260858E+01 -0.58626500981E+02  0.58827963180E+02  0.00000000000E+00 0. -1.
         -2    1    6    6    0  503  0.10071771797E+03  0.83430885656E+02 -0.82508304801E+02  0.15463632095E+03  0.00000000000E+00 0.  1.
<mgrwt>
<rscale>  0 0.23753125E+04</rscale>
<asrwt>0</asrwt>
<pdfrwt beam="1">  1        1 0.18727775E+00 0.23753125E+04</pdfrwt>
<pdfrwt beam="2">  1       -2 0.17826603E+00 0.23753125E+04</pdfrwt>
<totfact> 0.15245290E+00</totfact>
</mgrwt>
</event>
<event>
12    4  0.4183215E-008  0.1663198E+04  0.7818608E-02  0.8782637E-01
         -2   -1    0    0    0  501 -0.00000000000E+00  0.00000000000E+00  0.16055606147E+04  0.16055606147E+04  0.00000000000E+00 0.  1.
          1   -1    0    0  501    0  0.00000000000E+00 -0.00000000000E+00 -0.43072619910E+03  0.43072619910E+03  0.00000000000E+00 0. -1.
        -24    2    1    2    0    0  0.61519483250E+02 -0.94818325517E+02 -0.28587974935E+03  0.31616416443E+03  0.73874123413E+02 0.  0.
        254    2    1    2    0    0 -0.61519483250E+02  0.94818325517E+02  0.14607141649E+04  0.17201226494E+04  0.90131065429E+03 0.  0.
         23    2    4    4    0    0 -0.40725399952E+03  0.28138662644E+03  0.76730667608E+03  0.91760708956E+03  0.90603432569E+02 0.  0.
         23    2    4    4    0    0  0.34573451627E+03 -0.18656830092E+03  0.69340748886E+03  0.80251555980E+03  0.94218848837E+02 0.  0.
          1    1    3    3  502    0  0.68235218035E+02 -0.88380775957E+02 -0.19417796737E+03  0.22399171760E+03  0.00000000000E+00 0. -1.
         -2    1    3    3    0  502 -0.67157347851E+01 -0.64375495601E+01 -0.91701781973E+02  0.92172446832E+02  0.00000000000E+00 0.  1.
         11    1    5    5    0    0 -0.12891598798E+03  0.53086808757E+02  0.26751491925E+03  0.30166500169E+03  0.00000000000E+00 0. -1.
        -11    1    5    5    0    0 -0.27833801154E+03  0.22829981768E+03  0.49979175683E+03  0.61594208787E+03  0.00000000000E+00 0.  1.
          3    1    6    6  503    0  0.76127526173E+02 -0.36974497060E+02  0.23756456990E+03  0.25218929110E+03  0.00000000000E+00 0. -1.
         -3    1    6    6    0  503  0.26960699009E+03 -0.14959380386E+03  0.45584291896E+03  0.55032626871E+03  0.00000000000E+00 0.  1.
<mgrwt>
<rscale>  0 0.16631981E+04</rscale>
<asrwt>0</asrwt>
<pdfrwt beam="1">  1        1 0.66265570E-01 0.16631981E+04</pdfrwt>
<pdfrwt beam="2">  1       -2 0.24700932E+00 0.16631981E+04</pdfrwt>
<totfact> 0.30407370E+00</totfact>
</mgrwt>
</event>
<event>
12    4  0.4183215E-008  0.1603005E+04  0.7818608E-02  0.8818704E-01
          1   -1    0    0  501    0  0.00000000000E+00  0.00000000000E+00  0.56904352377E+03  0.56904352377E+03  0.00000000000E+00 0. -1.
         -2   -1    0    0    0  501 -0.00000000000E+00 -0.00000000000E+00 -0.11289228556E+04  0.11289228556E+04  0.00000000000E+00 0.  1.
        -24    2    1    2    0    0 -0.48980998570E+03  0.15414625770E+03 -0.38455915177E+03  0.64646308870E+03  0.79711310286E+02 0.  0.
        254    2    1    2    0    0  0.48980998570E+03 -0.15414625770E+03 -0.17532018002E+03  0.10515032906E+04  0.90069257453E+03 0.  0.
         23    2    4    4    0    0 -0.25525644116E+03 -0.63658193162E+02 -0.26092817057E+02  0.28049817473E+03  0.93755931069E+02 0.  0.
         23    2    4    4    0    0  0.74506642686E+03 -0.90488064541E+02 -0.14922736296E+03  0.77100511590E+03  0.94170125976E+02 0.  0.
          1    1    3    3  502    0 -0.19423653942E+03  0.25746284786E+02 -0.12226579026E+03  0.23095373539E+03  0.00000000000E+00 0. -1.
         -4    1    3    3    0  502 -0.29557344628E+03  0.12839997292E+03 -0.26229336151E+03  0.41550935330E+03  0.00000000000E+00 0.  1.
         11    1    5    5    0    0 -0.18387661945E+03 -0.93732400405E+01 -0.43412226622E+02  0.18916418855E+03  0.00000000000E+00 0.  1.
        -11    1    5    5    0    0 -0.71379821713E+02 -0.54284953121E+02  0.17319409566E+02  0.91333986176E+02  0.00000000000E+00 0. -1.
          1    1    6    6  503    0  0.12014820051E+03  0.19826338158E+02 -0.20109175404E+02  0.12342225369E+03  0.00000000000E+00 0. -1.
         -1    1    6    6    0  503  0.62491822635E+03 -0.11031440270E+03 -0.12911818756E+03  0.64758286220E+03  0.00000000000E+00 0.  1.
<mgrwt>
<rscale>  0 0.16030050E+04</rscale>
<asrwt>0</asrwt>
<pdfrwt beam="1">  1        1 0.87545159E-01 0.16030050E+04</pdfrwt>
<pdfrwt beam="2">  1       -2 0.17368044E+00 0.16030050E+04</pdfrwt>
<totfact> 0.62218379E+00</totfact>
</mgrwt>
</event>
<event>
12    4  0.4183215E-008  0.1819074E+04  0.7818608E-02  0.8696221E-01
         -2   -1    0    0    0  501 -0.00000000000E+00  0.00000000000E+00  0.13036627055E+04  0.13036627055E+04  0.00000000000E+00 0.  1.
          1   -1    0    0  501    0  0.00000000000E+00 -0.00000000000E+00 -0.63456426599E+03  0.63456426599E+03  0.00000000000E+00 0. -1.
        -24    2    1    2    0    0  0.24225685245E+03 -0.15533618998E+03 -0.41645326295E+03  0.51243106644E+03  0.79589968933E+02 0.  0.
        254    2    1    2    0    0 -0.24225685245E+03  0.15533618998E+03  0.10855517024E+04  0.14257959050E+04  0.87843824464E+03 0.  0.
         23    2    4    4    0    0  0.20738494071E+03  0.25155050109E+03  0.82004147294E+03  0.88729815230E+03  0.92432816083E+02 0.  0.
         23    2    4    4    0    0 -0.44964179316E+03 -0.96214311117E+02  0.26551022948E+03  0.53849775271E+03  0.89717400208E+02 0.  0.
          1    1    3    3  502    0  0.23645059636E+03 -0.12649388735E+03 -0.38676242698E+03  0.47063230125E+03  0.00000000000E+00 0. -1.
         -2    1    3    3    0  502  0.58062560866E+01 -0.28842302629E+02 -0.29690835967E+02  0.41798765186E+02  0.00000000000E+00 0.  1.
         11    1    5    5    0    0  0.19009931185E+03  0.25772725996E+03  0.76716728719E+03  0.83132829581E+03  0.00000000000E+00 0. -1.
        -11    1    5    5    0    0  0.17285628868E+02 -0.61767588669E+01  0.52874185755E+02  0.55969856483E+02  0.00000000000E+00 0.  1.
          1    1    6    6  503    0 -0.42141464717E+03 -0.79821278912E+02  0.26801359470E+03  0.50575985246E+03  0.00000000000E+00 0. -1.
         -1    1    6    6    0  503 -0.28227145989E+02 -0.16393032205E+02 -0.25033652208E+01  0.32737900253E+02  0.00000000000E+00 0.  1.
<mgrwt>
<rscale>  0 0.18190742E+04</rscale>
<asrwt>0</asrwt>
<pdfrwt beam="1">  1        1 0.97625272E-01 0.18190742E+04</pdfrwt>
<pdfrwt beam="2">  1       -2 0.20056349E+00 0.18190742E+04</pdfrwt>
<totfact> 0.34301078E+00</totfact>
</mgrwt>
</event>
<event>
12    4  0.4183215E-008  0.1924438E+04  0.7818608E-02  0.8642787E-01
          1   -1    0    0  501    0  0.00000000000E+00  0.00000000000E+00  0.22641603755E+04  0.22641603755E+04  0.00000000000E+00 0. -1.
         -2   -1    0    0    0  501 -0.00000000000E+00 -0.00000000000E+00 -0.40892216081E+03  0.40892216081E+03  0.00000000000E+00 0.  1.
        -24    2    1    2    0    0  0.16490712126E+03  0.37082033317E+03 -0.14691043292E+03  0.43896461718E+03  0.80032379120E+02 0.  0.
        254    2    1    2    0    0 -0.16490712126E+03 -0.37082033317E+03  0.20021486476E+04  0.22341179191E+04  0.90442334741E+03 0.  0.
         23    2    4    4    0    0  0.14854133649E+03 -0.25972571573E+03  0.18154799856E+04  0.18421909105E+04  0.90431170603E+02 0.  0.
         23    2    4    4    0    0 -0.31344845774E+03 -0.11109461744E+03  0.18666866200E+03  0.39192700861E+03  0.90386066517E+02 0.  0.
          1    1    3    3  502    0  0.34439340307E+02  0.55082972335E+02  0.48466452281E+01  0.65143625721E+02  0.00000000000E+00 0. -1.
         -2    1    3    3    0  502  0.13046778095E+03  0.31573736083E+03 -0.15175707814E+03  0.37382099146E+03  0.00000000000E+00 0.  1.
         11    1    5    5    0    0  0.75937787671E+02 -0.67263812091E+02  0.77129119846E+03  0.77793385376E+03  0.00000000000E+00 0. -1.
        -11    1    5    5    0    0  0.72603548818E+02 -0.19246190364E+03  0.10441887871E+04  0.10642570568E+04  0.00000000000E+00 0.  1.
          2    1    6    6  503    0 -0.10998319936E+03  0.40917289775E+01  0.47823325699E+02  0.12000048695E+03  0.00000000000E+00 0. -1.
         -2    1    6    6    0  503 -0.20346525838E+03 -0.11518634641E+03  0.13884533631E+03  0.27192652166E+03  0.00000000000E+00 0.  1.
<mgrwt>
<rscale>  0 0.19244379E+04</rscale>
<asrwt>0</asrwt>
<pdfrwt beam="1">  1        1 0.34833236E+00 0.19244379E+04</pdfrwt>
<pdfrwt beam="2">  1       -2 0.62911103E-01 0.19244379E+04</pdfrwt>
<totfact> 0.37826844E+00</totfact>
</mgrwt>
</event>
<event>
12    4  0.4183215E-008  0.1687596E+04  0.7818608E-02  0.8768471E-01
          3   -1    0    0  501    0  0.00000000000E+00  0.00000000000E+00  0.35222966662E+04  0.35222966662E+04  0.00000000000E+00 0. -1.
         -4   -1    0    0    0  501 -0.00000000000E+00 -0.00000000000E+00 -0.20213941883E+03  0.20213941883E+03  0.00000000000E+00 0.  1.
        -24    2    1    2    0    0 -0.24912465591E+03 -0.54218040568E+03  0.15135832019E+04  0.16289365376E+04  0.80482592722E+02 0.  0.
        254    2    1    2    0    0  0.24912465591E+03  0.54218040568E+03  0.18065740455E+04  0.20954995475E+04  0.87828576518E+03 0.  0.
         23    2    4    4    0    0  0.47213808181E+03  0.63523941973E+03  0.12546468316E+04  0.14862177946E+04  0.90890990738E+02 0.  0.
         23    2    4    4    0    0 -0.22301342589E+03 -0.93059014042E+02  0.55192721384E+03  0.60928175290E+03  0.90584970169E+02 0.  0.
          1    1    3    3  502    0 -0.38400879876E+02 -0.78718275115E+02  0.30921175428E+03  0.32137688684E+03  0.00000000000E+00 0. -1.
         -2    1    3    3    0  502 -0.21072377604E+03 -0.46346213057E+03  0.12043714477E+04  0.13075596507E+04  0.00000000000E+00 0.  1.
         11    1    5    5    0    0  0.39314691241E+02  0.58420852576E+02  0.16672872256E+03  0.18098924799E+03  0.00000000000E+00 0. -1.
        -11    1    5    5    0    0  0.43282339056E+03  0.57681856715E+03  0.10879181091E+04  0.13052285466E+04  0.00000000000E+00 0.  1.
          1    1    6    6  503    0 -0.79924205077E+02 -0.31276108631E+02  0.10301299975E+03  0.13408113829E+03  0.00000000000E+00 0. -1.
         -1    1    6    6    0  503 -0.14308922082E+03 -0.61782905411E+02  0.44891421409E+03  0.47520061461E+03  0.00000000000E+00 0.  1.
<mgrwt>
<rscale>  0 0.16875959E+04</rscale>
<asrwt>0</asrwt>
<pdfrwt beam="1">  1        3 0.54189175E+00 0.16875959E+04</pdfrwt>
<pdfrwt beam="2">  1       -4 0.31098375E-01 0.16875959E+04</pdfrwt>
<totfact> 0.47653730E-02</totfact>
</mgrwt>
</event>
<event>
12    4  0.4183215E-008  0.1421697E+04  0.7818608E-02  0.8938261E-01
         -2   -1    0    0    0  501 -0.00000000000E+00  0.00000000000E+00  0.29548304147E+03  0.29548304147E+03  0.00000000000E+00 0.  1.
          1   -1    0    0  501    0  0.00000000000E+00 -0.00000000000E+00 -0.17100992546E+04  0.17100992546E+04  0.00000000000E+00 0. -1.
        -24    2    1    2    0    0  0.30579245795E+03 -0.15417976287E+03 -0.23790459937E+02  0.35233863528E+03  0.79347976072E+02 0.  0.
        254    2    1    2    0    0 -0.30579245795E+03  0.15417976287E+03 -0.13908257532E+04  0.16532436607E+04  0.82555308706E+03 0.  0.
         23    2    4    4    0    0  0.17718213270E+03  0.29757109396E+03 -0.40711867326E+03  0.54427212609E+03  0.10268626496E+03 0.  0.
         23    2    4    4    0    0 -0.48297459065E+03 -0.14339133109E+03 -0.98370707989E+03  0.11089715347E+04  0.91174100531E+02 0.  0.
          3    1    3    3  502    0  0.58421936796E+02  0.29131498053E+01 -0.33678085632E+01  0.58591392502E+02  0.00000000000E+00 0. -1.
         -4    1    3    3    0  502  0.24737052115E+03 -0.15709291267E+03 -0.20422651374E+02  0.29374724277E+03  0.00000000000E+00 0.  1.
         11    1    5    5    0    0  0.15299715562E+03  0.22789884562E+03 -0.37273303600E+03  0.46289948108E+03  0.00000000000E+00 0.  1.
        -11    1    5    5    0    0  0.24184977079E+02  0.69672248340E+02 -0.34385637260E+02  0.81372645003E+02  0.00000000000E+00 0. -1.
          1    1    6    6  503    0 -0.47014964431E+03 -0.14602008954E+03 -0.97752380078E+03  0.10944931867E+04  0.00000000000E+00 0. -1.
         -1    1    6    6    0  503 -0.12824946346E+02  0.26287584443E+01 -0.61832791114E+01  0.14478347983E+02  0.00000000000E+00 0.  1.
<mgrwt>
<rscale>  0 0.14216966E+04</rscale>
<asrwt>0</asrwt>
<pdfrwt beam="1">  1        1 0.26309219E+00 0.14216966E+04</pdfrwt>
<pdfrwt beam="2">  1       -2 0.45458930E-01 0.14216966E+04</pdfrwt>
<totfact> 0.18393496E+01</totfact>
</mgrwt>
</event>
<event>
12    4  0.4183215E-008  0.2901156E+04  0.7818608E-02  0.8272534E-01
         -2   -1    0    0    0  501 -0.00000000000E+00  0.00000000000E+00  0.17910982829E+04  0.17910982829E+04  0.00000000000E+00 0.  1.
          1   -1    0    0  501    0  0.00000000000E+00 -0.00000000000E+00 -0.11747968870E+04  0.11747968870E+04  0.00000000000E+00 0. -1.
        -24    2    1    2    0    0 -0.12119494739E+04 -0.32211898530E+03  0.66458666219E+03  0.14215107276E+04  0.80219381190E+02 0.  0.
        254    2    1    2    0    0  0.12119494739E+04  0.32211898530E+03 -0.48285266331E+02  0.15443844423E+04  0.90011647621E+03 0.  0.
         23    2    4    4    0    0  0.95207209264E+03  0.51978308086E+03  0.22175843673E+03  0.11109392305E+04  0.91615767677E+02 0.  0.
         23    2    4    4    0    0  0.25987738126E+03 -0.19766409557E+03 -0.27004370306E+03  0.43344521180E+03  0.91344414746E+02 0.  0.
          3    1    3    3  502    0 -0.43976678618E+03 -0.14630221235E+03  0.21578994970E+03  0.51123816951E+03  0.00000000000E+00 0. -1.
         -4    1    3    3    0  502 -0.77218268771E+03 -0.17581677294E+03  0.44879671249E+03  0.91027255808E+03  0.00000000000E+00 0.  1.
         11    1    5    5    0    0  0.32940788702E+03  0.21753038731E+03  0.11033090134E+03  0.40988038893E+03  0.00000000000E+00 0.  1.
        -11    1    5    5    0    0  0.62266420561E+03  0.30225269355E+03  0.11142753539E+03  0.70105884158E+03  0.00000000000E+00 0. -1.
          4    1    6    6  503    0  0.18679961883E+02 -0.52171601797E+02 -0.62709272225E+02  0.83685541362E+02  0.00000000000E+00 0. -1.
         -4    1    6    6    0  503  0.24119741937E+03 -0.14549249377E+03 -0.20733443084E+03  0.34975967044E+03  0.00000000000E+00 0.  1.
<mgrwt>
<rscale>  0 0.29011561E+04</rscale>
<asrwt>0</asrwt>
<pdfrwt beam="1">  1        1 0.18073798E+00 0.29011561E+04</pdfrwt>
<pdfrwt beam="2">  1       -2 0.27555358E+00 0.29011561E+04</pdfrwt>
<totfact> 0.37653044E-01</totfact>
</mgrwt>
</event>
<event>
12    4  0.4183215E-008  0.2207851E+04  0.7818608E-02  0.8515168E-01
         -2   -1    0    0    0  501 -0.00000000000E+00  0.00000000000E+00  0.42852489982E+03  0.42852489982E+03  0.00000000000E+00 0.  1.
          1   -1    0    0  501    0  0.00000000000E+00 -0.00000000000E+00 -0.28438286484E+04  0.28438286484E+04  0.00000000000E+00 0. -1.
        -24    2    1    2    0    0  0.40427376921E+03  0.57069993142E+03 -0.18834842723E+04  0.20107315256E+04  0.79953560648E+02 0.  0.
        254    2    1    2    0    0 -0.40427376921E+03 -0.57069993142E+03 -0.53181947621E+03  0.12616220226E+04  0.90538526624E+03 0.  0.
         23    2    4    4    0    0 -0.21609168924E+03 -0.78669313633E+03 -0.27548972931E+03  0.86636124859E+03  0.95422812784E+02 0.  0.
         23    2    4    4    0    0 -0.18818207997E+03  0.21599320491E+03 -0.25632974690E+03  0.39526077396E+03  0.91981413857E+02 0.  0.
          3    1    3    3  502    0  0.17535759553E+03  0.18780635920E+03 -0.73756211101E+03  0.78103737585E+03  0.00000000000E+00 0. -1.
         -4    1    3    3    0  502  0.22891617368E+03  0.38289357222E+03 -0.11459221613E+04  0.12296941498E+04  0.00000000000E+00 0.  1.
         11    1    5    5    0    0  0.43323573846E+01 -0.62991078420E+02 -0.66569487382E+01  0.63489843657E+02  0.00000000000E+00 0. -1.
        -11    1    5    5    0    0 -0.22042404662E+03 -0.72370205791E+03 -0.26883278058E+03  0.80287140494E+03  0.00000000000E+00 0.  1.
          3    1    6    6  503    0 -0.40814169873E+01  0.36843683856E+02 -0.65475090492E+02  0.75240298243E+02  0.00000000000E+00 0. -1.
         -3    1    6    6    0  503 -0.18410066298E+03  0.17914952106E+03 -0.19085465641E+03  0.32002047572E+03  0.00000000000E+00 0.  1.
<mgrwt>
<rscale>  0 0.22078509E+04</rscale>
<asrwt>0</asrwt>
<pdfrwt beam="1">  1        1 0.43751210E+00 0.22078509E+04</pdfrwt>
<pdfrwt beam="2">  1       -2 0.65926907E-01 0.22078509E+04</pdfrwt>
<totfact> 0.13153123E+00</totfact>
</mgrwt>
</event>
<event>
12    4  0.4183215E-008  0.1818905E+04  0.7818608E-02  0.8696310E-01
          1   -1    0    0  501    0  0.00000000000E+00  0.00000000000E+00  0.29216051849E+04  0.29216051849E+04  0.00000000000E+00 0. -1.
         -2   -1    0    0    0  501 -0.00000000000E+00 -0.00000000000E+00 -0.28309900259E+03  0.28309900259E+03  0.00000000000E+00 0.  1.
        -24    2    1    2    0    0 -0.41688441030E+02 -0.66553983555E+03  0.12676458357E+04  0.14345675524E+04  0.79855486688E+02 0.  0.
        254    2    1    2    0    0  0.41688441030E+02  0.66553983555E+03  0.13708603466E+04  0.17701366351E+04  0.89969129049E+03 0.  0.
         23    2    4    4    0    0 -0.38681339981E+03  0.33582758482E+03  0.40129472410E+03  0.65626542380E+03  0.85100398892E+02 0.  0.
         23    2    4    4    0    0  0.42850184084E+03  0.32971225074E+03  0.96956562252E+03  0.11138712113E+04  0.91255592154E+02 0.  0.
          1    1    3    3  502    0 -0.38333996826E+01 -0.16464074098E+02  0.67887340230E+02  0.69960357722E+02  0.00000000000E+00 0. -1.
         -2    1    3    3    0  502 -0.37855041347E+02 -0.64907576146E+03  0.11997584955E+04  0.13646071946E+04  0.00000000000E+00 0.  1.
         11    1    5    5    0    0 -0.29481243236E+03  0.22530823351E+03  0.24927574569E+03  0.44700846496E+03  0.00000000000E+00 0. -1.
        -11    1    5    5    0    0 -0.92000967452E+02  0.11051935131E+03  0.15201897841E+03  0.20925695884E+03  0.00000000000E+00 0.  1.
          3    1    6    6  503    0  0.31663566674E+03  0.19141160932E+03  0.67544683211E+03  0.77014607227E+03  0.00000000000E+00 0. -1.
         -3    1    6    6    0  503  0.11186617410E+03  0.13830064142E+03  0.29411879041E+03  0.34372513903E+03  0.00000000000E+00 0.  1.
<mgrwt>
<rscale>  0 0.18189046E+04</rscale>
<asrwt>0</asrwt>
<pdfrwt beam="1">  1        1 0.44947770E+00 0.18189046E+04</pdfrwt>
<pdfrwt beam="2">  1       -2 0.43553695E-01 0.18189046E+04</pdfrwt>
<totfact> 0.28266230E+00</totfact>
</mgrwt>
</event>
<event>
12    4  0.4183215E-008  0.1164030E+04  0.7818608E-02  0.9144937E-01
         -2   -1    0    0    0  501 -0.00000000000E+00  0.00000000000E+00  0.15191143629E+03  0.15191143629E+03  0.00000000000E+00 0.  1.
          1   -1    0    0  501    0  0.00000000000E+00 -0.00000000000E+00 -0.22298619954E+04  0.22298619954E+04  0.00000000000E+00 0. -1.
        -24    2    1    2    0    0  0.11820953001E+03  0.22498342494E+02 -0.29455792199E+02  0.13711899401E+03  0.58773347891E+02 0.  0.
        254    2    1    2    0    0 -0.11820953001E+03 -0.22498342494E+02 -0.20484947669E+04  0.22446544377E+04  0.90975989480E+03 0.  0.
         23    2    4    4    0    0  0.21515363116E+03  0.73267944523E+02 -0.10269856268E+03  0.26610229563E+03  0.92758612894E+02 0.  0.
         23    2    4    4    0    0 -0.33336316117E+03 -0.95766287017E+02 -0.19457962043E+04  0.19785521421E+04  0.90793895745E+02 0.  0.
          1    1    3    3  502    0  0.21235812661E+02  0.25573038082E+02  0.60827496037E+01  0.33792600652E+02  0.00000000000E+00 0. -1.
         -2    1    3    3    0  502  0.96973717353E+02 -0.30746955879E+01 -0.35538541803E+02  0.10332639335E+03  0.00000000000E+00 0.  1.
         11    1    5    5    0    0  0.11660988793E+03  0.75074614885E+02 -0.93181914408E+02  0.16708361061E+03  0.00000000000E+00 0. -1.
        -11    1    5    5    0    0  0.98543743229E+02 -0.18066703617E+01 -0.95166482715E+01  0.99018685013E+02  0.00000000000E+00 0.  1.
          2    1    6    6  503    0 -0.96242061054E+01 -0.25467635410E+02 -0.15389843614E+03  0.15628804958E+03  0.00000000000E+00 0. -1.
         -2    1    6    6    0  503 -0.32373895507E+03 -0.70298651607E+02 -0.17918977681E+04  0.18222640925E+04  0.00000000000E+00 0.  1.
<mgrwt>
<rscale>  0 0.11640301E+04</rscale>
<asrwt>0</asrwt>
<pdfrwt beam="1">  1        1 0.34305565E+00 0.11640301E+04</pdfrwt>
<pdfrwt beam="2">  1       -2 0.23370993E-01 0.11640301E+04</pdfrwt>
<totfact> 0.29461286E+01</totfact>
</mgrwt>
</event>
<event>
12    4  0.4183215E-008  0.1877183E+04  0.7818608E-02  0.8666298E-01
          1   -1    0    0  501    0  0.00000000000E+00  0.00000000000E+00  0.24571664829E+04  0.24571664829E+04  0.00000000000E+00 0. -1.
         -2   -1    0    0    0  501 -0.00000000000E+00 -0.00000000000E+00 -0.35852426649E+03  0.35852426649E+03  0.00000000000E+00 0.  1.
        -24    2    1    2    0    0  0.14826544502E+03 -0.64523735507E+03  0.12357909902E+04  0.14044217832E+04  0.83110089464E+02 0.  0.
        254    2    1    2    0    0 -0.14826544502E+03  0.64523735507E+03  0.86285122626E+03  0.14112689663E+04  0.89936309128E+03 0.  0.
         23    2    4    4    0    0 -0.41787588369E+03  0.25943948061E+02  0.26452477175E+03  0.50404795743E+03  0.93795767033E+02 0.  0.
         23    2    4    4    0    0  0.26961043867E+03  0.61929340701E+03  0.59832645451E+03  0.90722100885E+03  0.94028187931E+02 0.  0.
          3    1    3    3  502    0  0.37513927130E+02 -0.24013910761E+03  0.53124785125E+03  0.58420746759E+03  0.00000000000E+00 0. -1.
         -4    1    3    3    0  502  0.11075151789E+03 -0.40509824746E+03  0.70454313895E+03  0.82021431556E+03  0.00000000000E+00 0.  1.
         11    1    5    5    0    0 -0.29496439700E+03 -0.23191257596E+02  0.16821661689E+03  0.34035078981E+03  0.00000000000E+00 0. -1.
        -11    1    5    5    0    0 -0.12291148669E+03  0.49135205657E+02  0.96308154865E+02  0.16369716762E+03  0.00000000000E+00 0.  1.
          3    1    6    6  503    0  0.25354858742E+03  0.51409528939E+03  0.53046060938E+03  0.78100532063E+03  0.00000000000E+00 0. -1.
         -3    1    6    6    0  503  0.16061851251E+02  0.10519811762E+03  0.67865845129E+02  0.12621568822E+03  0.00000000000E+00 0.  1.
<mgrwt>
<rscale>  0 0.18771828E+04</rscale>
<asrwt>0</asrwt>
<pdfrwt beam="1">  1        1 0.37802560E+00 0.18771828E+04</pdfrwt>
<pdfrwt beam="2">  1       -2 0.55157581E-01 0.18771828E+04</pdfrwt>
<totfact> 0.36939681E+00</totfact>
</mgrwt>
</event>
<event>
12    4  0.4183215E-008  0.1731458E+04  0.7818608E-02  0.8743623E-01
          1   -1    0    0  501    0  0.00000000000E+00  0.00000000000E+00  0.10572252074E+04  0.10572252074E+04  0.00000000000E+00 0. -1.
         -2   -1    0    0    0  501 -0.00000000000E+00 -0.00000000000E+00 -0.70891858300E+03  0.70891858300E+03  0.00000000000E+00 0.  1.
        -24    2    1    2    0    0  0.97776406934E+01 -0.58702388615E+03 -0.12434546351E+03  0.60325974075E+03  0.61383021629E+02 0.  0.
        254    2    1    2    0    0 -0.97776406934E+01  0.58702388615E+03  0.47265208792E+03  0.11628840497E+04  0.88555444302E+03 0.  0.
         23    2    4    4    0    0  0.26522501910E+03  0.69397441204E+03  0.27816261643E+03  0.79814285080E+03  0.87822399069E+02 0.  0.
         23    2    4    4    0    0 -0.27500265980E+03 -0.10695052588E+03  0.19448947150E+03  0.36474119885E+03  0.90250261701E+02 0.  0.
          1    1    3    3  502    0 -0.12396917530E+02 -0.72055517354E+02 -0.31072762570E+02  0.79443047015E+02  0.00000000000E+00 0. -1.
         -2    1    3    3    0  502  0.22174558223E+02 -0.51496836880E+03 -0.93272700943E+02  0.52381669374E+03  0.00000000000E+00 0.  1.
         11    1    5    5    0    0  0.34805369986E+02  0.10725177733E+03  0.76750256545E+02  0.13639999780E+03  0.00000000000E+00 0. -1.
        -11    1    5    5    0    0  0.23041964912E+03  0.58672263471E+03  0.20141235988E+03  0.66174285300E+03  0.00000000000E+00 0.  1.
          1    1    6    6  503    0 -0.19604354705E+03 -0.79784196528E+02  0.18424174992E+03  0.28061292338E+03  0.00000000000E+00 0.  1.
         -1    1    6    6    0  503 -0.78959112746E+02 -0.27166329357E+02  0.10247721574E+02  0.84128275471E+02  0.00000000000E+00 0. -1.
<mgrwt>
<rscale>  0 0.17314579E+04</rscale>
<asrwt>0</asrwt>
<pdfrwt beam="1">  1        1 0.16265003E+00 0.17314579E+04</pdfrwt>
<pdfrwt beam="2">  1       -2 0.10906440E+00 0.17314579E+04</pdfrwt>
<totfact> 0.76268848E+00</totfact>
</mgrwt>
</event>
<event>
12    4  0.4183215E-008  0.1367183E+04  0.7818608E-02  0.8977922E-01
          1   -1    0    0  501    0  0.00000000000E+00  0.00000000000E+00  0.10435589998E+04  0.10435589998E+04  0.00000000000E+00 0. -1.
         -2   -1    0    0    0  501 -0.00000000000E+00 -0.00000000000E+00 -0.44779177357E+03  0.44779177357E+03  0.00000000000E+00 0.  1.
        -24    2    1    2    0    0  0.27495041144E+03  0.20374736784E+03 -0.12560198038E+02  0.35177026178E+03  0.80460175516E+02 0.  0.
        254    2    1    2    0    0 -0.27495041144E+03 -0.20374736784E+03  0.60832742426E+03  0.11395805116E+04  0.90081672312E+03 0.  0.
         23    2    4    4    0    0 -0.18282665453E+02  0.21753636646E+03 -0.11232657831E+03  0.26156175340E+03  0.90227291073E+02 0.  0.
         23    2    4    4    0    0 -0.25666774598E+03 -0.42128373430E+03  0.72065400257E+03  0.87801875820E+03  0.90644534895E+02 0.  0.
          1    1    3    3  502    0  0.98993752988E+02  0.40868992258E+02  0.22538004047E+02  0.10944404637E+03  0.00000000000E+00 0. -1.
         -2    1    3    3    0  502  0.17595665845E+03  0.16287837558E+03 -0.35098202085E+02  0.24232621541E+03  0.00000000000E+00 0.  1.
         11    1    5    5    0    0  0.37183379948E+01  0.15582178157E+03 -0.11843628292E+03  0.19575854199E+03  0.00000000000E+00 0. -1.
        -11    1    5    5    0    0 -0.22001003448E+02  0.61714584894E+02  0.61097046088E+01  0.65803211409E+02  0.00000000000E+00 0.  1.
          1    1    6    6  503    0 -0.20644131810E+03 -0.39086462290E+03  0.61906890568E+03  0.76068356183E+03  0.00000000000E+00 0. -1.
         -1    1    6    6    0  503 -0.50226427884E+02 -0.30419111400E+02  0.10158509689E+03  0.11733519637E+03  0.00000000000E+00 0.  1.
<mgrwt>
<rscale>  0 0.13671827E+04</rscale>
<asrwt>0</asrwt>
<pdfrwt beam="1">  1        1 0.16054754E+00 0.13671827E+04</pdfrwt>
<pdfrwt beam="2">  1       -2 0.68891043E-01 0.13671827E+04</pdfrwt>
<totfact> 0.23094151E+01</totfact>
</mgrwt>
</event>
<event>
12    4  0.4183215E-008  0.1443154E+04  0.7818608E-02  0.8923160E-01
         -2   -1    0    0    0  501 -0.00000000000E+00  0.00000000000E+00  0.25670933199E+03  0.25670933199E+03  0.00000000000E+00 0.  1.
          1   -1    0    0  501    0  0.00000000000E+00 -0.00000000000E+00 -0.20282614836E+04  0.20282614836E+04  0.00000000000E+00 0. -1.
        -24    2    1    2    0    0  0.12689555364E+03 -0.10302182413E+03 -0.11747127397E+04  0.11894289716E+04  0.89862561090E+02 0.  0.
        254    2    1    2    0    0 -0.12689555364E+03  0.10302182413E+03 -0.59683941196E+03  0.10955418440E+04  0.90403466228E+03 0.  0.
         23    2    4    4    0    0  0.14919589575E+03 -0.21389393789E+03 -0.60408678661E+03  0.66489244441E+03  0.95661303057E+02 0.  0.
         23    2    4    4    0    0 -0.27609144939E+03  0.31691576202E+03  0.72473746506E+01  0.43064939963E+03  0.93510920850E+02 0.  0.
          3    1    3    3  502    0  0.63430911509E+02  0.23350254020E+01 -0.38629002044E+03  0.39147019398E+03  0.00000000000E+00 0. -1.
         -4    1    3    3    0  502  0.63464642131E+02 -0.10535684953E+03 -0.78842271925E+03  0.79795877761E+03  0.00000000000E+00 0.  1.
         11    1    5    5    0    0  0.12505940602E+03 -0.21870452351E+03 -0.53015330679E+03  0.58697023122E+03  0.00000000000E+00 0. -1.
        -11    1    5    5    0    0  0.24136489733E+02  0.48105856155E+01 -0.73933479819E+02  0.77922213192E+02  0.00000000000E+00 0.  1.
          1    1    6    6  503    0 -0.17864904834E+03  0.18321762988E+03  0.47770252735E+02  0.26031937964E+03  0.00000000000E+00 0. -1.
         -1    1    6    6    0  503 -0.97442401055E+02  0.13369813214E+03 -0.40522878084E+02  0.17033001999E+03  0.00000000000E+00 0.  1.
<mgrwt>
<rscale>  0 0.14431544E+04</rscale>
<asrwt>0</asrwt>
<pdfrwt beam="1">  1        1 0.31204022E+00 0.14431544E+04</pdfrwt>
<pdfrwt beam="2">  1       -2 0.39493744E-01 0.14431544E+04</pdfrwt>
<totfact> 0.14761922E+01</totfact>
</mgrwt>
</event>
<event>
12    4  0.4183215E-008  0.1815709E+04  0.7818608E-02  0.8697990E-01
          1   -1    0    0  501    0  0.00000000000E+00  0.00000000000E+00  0.59923509686E+03  0.59923509686E+03  0.00000000000E+00 0. -1.
         -2   -1    0    0    0  501 -0.00000000000E+00 -0.00000000000E+00 -0.13754198126E+04  0.13754198126E+04  0.00000000000E+00 0.  1.
        -24    2    1    2    0    0  0.55422800404E+03  0.27847407722E+03 -0.58806844031E+03  0.85844616301E+03  0.79930170512E+02 0.  0.
        254    2    1    2    0    0 -0.55422800404E+03 -0.27847407722E+03 -0.18811627546E+03  0.11162087465E+04  0.90874514604E+03 0.  0.
         23    2    4    4    0    0  0.47858691015E+02  0.24857751773E+03 -0.14773332931E+03  0.30990237297E+03  0.10066333769E+03 0.  0.
         23    2    4    4    0    0 -0.60208669506E+03 -0.52705159495E+03 -0.40382946146E+02  0.80630637350E+03  0.90594776336E+02 0.  0.
          1    1    3    3  502    0  0.77129359828E+02  0.38634355125E+02 -0.12355607027E+03  0.15069059043E+03  0.00000000000E+00 0. -1.
         -2    1    3    3    0  502  0.47709864421E+03  0.23983972209E+03 -0.46451237004E+03  0.70775557258E+03  0.00000000000E+00 0.  1.
         11    1    5    5    0    0  0.40885844773E+02  0.12261266957E+03 -0.12855331754E+03  0.18229502048E+03  0.00000000000E+00 0.  1.
        -11    1    5    5    0    0  0.69728462414E+01  0.12596484816E+03 -0.19180011770E+02  0.12760735249E+03  0.00000000000E+00 0. -1.
          2    1    6    6  503    0 -0.76767414011E+02 -0.63999227464E+02 -0.35366659394E+02  0.10601857180E+03  0.00000000000E+00 0. -1.
         -2    1    6    6    0  503 -0.52531928105E+03 -0.46305236749E+03 -0.50162867527E+01  0.70028780170E+03  0.00000000000E+00 0.  1.
<mgrwt>
<rscale>  0 0.18157090E+04</rscale>
<asrwt>0</asrwt>
<pdfrwt beam="1">  1        1 0.92190017E-01 0.18157090E+04</pdfrwt>
<pdfrwt beam="2">  1       -2 0.21160304E+00 0.18157090E+04</pdfrwt>
<totfact> 0.31629141E+00</totfact>
</mgrwt>
</event>
<event>
12    4  0.4183215E-008  0.1156929E+04  0.7818608E-02  0.9151415E-01
         -2   -1    0    0    0  501 -0.00000000000E+00  0.00000000000E+00  0.14169921763E+03  0.14169921763E+03  0.00000000000E+00 0.  1.
          1   -1    0    0  501    0  0.00000000000E+00 -0.00000000000E+00 -0.23614901159E+04  0.23614901159E+04  0.00000000000E+00 0. -1.
        -24    2    1    2    0    0  0.41356120584E+00 -0.97591427117E+02 -0.28611555836E+02  0.12937680986E+03  0.79971745779E+02 0.  0.
        254    2    1    2    0    0 -0.41356120584E+00  0.97591427117E+02 -0.21911793424E+04  0.23738125237E+04  0.90785171097E+03 0.  0.
         23    2    4    4    0    0  0.22511411885E+03  0.33414712035E+03 -0.49798387565E+03  0.64691295910E+03  0.90431032834E+02 0.  0.
         23    2    4    4    0    0 -0.22552768006E+03 -0.23655569323E+03 -0.16931954668E+04  0.17268995646E+04  0.91923266277E+02 0.  0.
          1    1    3    3  502    0  0.21885611408E+02 -0.59612377998E+01  0.13364890980E+02  0.26327488556E+02  0.00000000000E+00 0. -1.
         -2    1    3    3    0  502 -0.21472050202E+02 -0.91630189317E+02 -0.41976446816E+02  0.10304932131E+03  0.00000000000E+00 0.  1.
         11    1    5    5    0    0  0.25396699034E+01 -0.55914415340E+01 -0.37206394280E+01  0.71803411756E+01  0.00000000000E+00 0. -1.
        -11    1    5    5    0    0  0.22257444895E+03  0.33973856188E+03 -0.49426323622E+03  0.63973261792E+03  0.00000000000E+00 0.  1.
          3    1    6    6  503    0 -0.13862088101E+03 -0.16961610602E+03 -0.13148244848E+04  0.13329474100E+04  0.00000000000E+00 0. -1.
         -3    1    6    6    0  503 -0.86906799046E+02 -0.66939587209E+02 -0.37837098202E+03  0.39395215457E+03  0.00000000000E+00 0.  1.
<mgrwt>
<rscale>  0 0.11569292E+04</rscale>
<asrwt>0</asrwt>
<pdfrwt beam="1">  1        1 0.36330617E+00 0.11569292E+04</pdfrwt>
<pdfrwt beam="2">  1       -2 0.21799880E-01 0.11569292E+04</pdfrwt>
<totfact> 0.27163172E+01</totfact>
</mgrwt>
</event>
<event>
12    4  0.4183215E-008  0.1267670E+04  0.7818608E-02  0.9055603E-01
         -2   -1    0    0    0  501 -0.00000000000E+00  0.00000000000E+00  0.40400381467E+03  0.40400381467E+03  0.00000000000E+00 0.  1.
          1   -1    0    0  501    0  0.00000000000E+00 -0.00000000000E+00 -0.99441357571E+03  0.99441357571E+03  0.00000000000E+00 0. -1.
        -24    2    1    2    0    0  0.13287797510E+03  0.16172062420E+03  0.90391125744E+02  0.24812134285E+03  0.97895498398E+02 0.  0.
        254    2    1    2    0    0 -0.13287797510E+03 -0.16172062420E+03 -0.68080088678E+03  0.11502960475E+04  0.90326133150E+03 0.  0.
         23    2    4    4    0    0 -0.24978833500E+03  0.29528863989E+03 -0.49516421792E+03  0.63457478319E+03  0.88926709165E+02 0.  0.
         23    2    4    4    0    0  0.11691035990E+03 -0.45700926409E+03 -0.18563666886E+03  0.51572126435E+03  0.94773149977E+02 0.  0.
          3    1    3    3  502    0  0.13245631300E+03  0.13180269352E+03  0.42468764127E+02  0.19162520919E+03  0.00000000000E+00 0. -1.
         -4    1    3    3    0  502  0.42166209972E+00  0.29917930679E+02  0.47922361618E+02  0.56496133656E+02  0.00000000000E+00 0.  1.
         11    1    5    5    0    0 -0.25061882967E+03  0.26481118396E+03 -0.47123793791E+03  0.59581872668E+03  0.00000000000E+00 0. -1.
        -11    1    5    5    0    0  0.83049466520E+00  0.30477455929E+02 -0.23926280005E+02  0.38756056510E+02  0.00000000000E+00 0.  1.
          1    1    6    6  503    0  0.12328806509E+03 -0.41603223645E+03 -0.14458934339E+03  0.45737167270E+03  0.00000000000E+00 0. -1.
         -1    1    6    6    0  503 -0.63777051854E+01 -0.40977027633E+02 -0.41047325474E+02  0.58349591650E+02  0.00000000000E+00 0.  1.
<mgrwt>
<rscale>  0 0.12676701E+04</rscale>
<asrwt>0</asrwt>
<pdfrwt beam="1">  1        1 0.15298670E+00 0.12676701E+04</pdfrwt>
<pdfrwt beam="2">  1       -2 0.62154434E-01 0.12676701E+04</pdfrwt>
<totfact> 0.31711967E+01</totfact>
</mgrwt>
</event>
<event>
12    4  0.4183215E-008  0.1349370E+04  0.7818608E-02  0.8991305E-01
          1   -1    0    0  501    0  0.00000000000E+00  0.00000000000E+00  0.33211041091E+03  0.33211041091E+03  0.00000000000E+00 0. -1.
         -2   -1    0    0    0  501 -0.00000000000E+00 -0.00000000000E+00 -0.13706288452E+04  0.13706288452E+04  0.00000000000E+00 0.  1.
        -24    2    1    2    0    0 -0.15717041365E+03  0.38266336382E+03 -0.35243132772E+03  0.54739467183E+03  0.65569025081E+02 0.  0.
        254    2    1    2    0    0  0.15717041365E+03 -0.38266336382E+03 -0.68608710658E+03  0.11553445843E+04  0.83244927876E+03 0.  0.
         23    2    4    4    0    0 -0.18230232666E+03 -0.44486402683E+02  0.99215741929E+02  0.23079426362E+03  0.90603809764E+02 0.  0.
         23    2    4    4    0    0  0.33947274031E+03 -0.33817696114E+03 -0.78530284851E+03  0.92455032068E+03  0.92126723262E+02 0.  0.
          3    1    3    3  502    0 -0.40018156683E+02  0.58160698884E+02 -0.35968064236E+02  0.79232704130E+02  0.00000000000E+00 0. -1.
         -4    1    3    3    0  502 -0.11715225697E+03  0.32450266494E+03 -0.31646326349E+03  0.46816196770E+03  0.00000000000E+00 0.  1.
         11    1    5    5    0    0 -0.14820699580E+03  0.45184627343E+01  0.64143374463E+02  0.16155526174E+03  0.00000000000E+00 0.  1.
        -11    1    5    5    0    0 -0.34095330857E+02 -0.49004865417E+02  0.35072367466E+02  0.69239001874E+02  0.00000000000E+00 0. -1.
          4    1    6    6  503    0 -0.51362619246E+01 -0.37455287387E-01 -0.75906757020E+01  0.91652030567E+01  0.00000000000E+00 0. -1.
         -4    1    6    6    0  503  0.34460900223E+03 -0.33813950585E+03 -0.77771217281E+03  0.91538511763E+03  0.00000000000E+00 0.  1.
<mgrwt>
<rscale>  0 0.13493704E+04</rscale>
<asrwt>0</asrwt>
<pdfrwt beam="1">  1        1 0.51093910E-01 0.13493704E+04</pdfrwt>
<pdfrwt beam="2">  1       -2 0.21086597E+00 0.13493704E+04</pdfrwt>
<totfact> 0.74116710E+00</totfact>
</mgrwt>
</event>
<event>
12    4  0.4183215E-008  0.2565224E+04  0.7818608E-02  0.8380111E-01
          1   -1    0    0  501    0  0.00000000000E+00  0.00000000000E+00  0.22761301929E+04  0.22761301929E+04  0.00000000000E+00 0. -1.
         -2   -1    0    0    0  501 -0.00000000000E+00 -0.00000000000E+00 -0.72275897812E+03  0.72275897812E+03  0.00000000000E+00 0.  1.
        -24    2    1    2    0    0  0.32798763721E+03 -0.69344841690E+03  0.16447501235E+04  0.18166409514E+04  0.80837987845E+02 0.  0.
        254    2    1    2    0    0 -0.32798763721E+03  0.69344841690E+03 -0.91378908686E+02  0.11822482197E+04  0.89493807103E+03 0.  0.
         23    2    4    4    0    0  0.26109450012E+03  0.40045172014E+03  0.86521391801E+02  0.49449083464E+03  0.92213427181E+02 0.  0.
         23    2    4    4    0    0 -0.58908213733E+03  0.29299669676E+03 -0.17790030049E+03  0.68775738506E+03  0.92178495128E+02 0.  0.
          3    1    3    3  502    0  0.24565754039E+03 -0.43107778600E+03  0.10380735081E+04  0.11505530379E+04  0.00000000000E+00 0. -1.
         -4    1    3    3    0  502  0.82330096820E+02 -0.26237063090E+03  0.60667661539E+03  0.66608791347E+03  0.00000000000E+00 0.  1.
         11    1    5    5    0    0  0.22550359741E+03  0.33971662187E+03  0.39113928980E+02  0.40962074540E+03  0.00000000000E+00 0.  1.
        -11    1    5    5    0    0  0.35590902707E+02  0.60735098263E+02  0.47407462821E+02  0.84870089240E+02  0.00000000000E+00 0. -1.
          4    1    6    6  503    0 -0.18492699044E+03  0.13866770616E+03 -0.48193539555E+02  0.23611298520E+03  0.00000000000E+00 0. -1.
         -4    1    6    6    0  503 -0.40415514689E+03  0.15432899059E+03 -0.12970676093E+03  0.45164439986E+03  0.00000000000E+00 0.  1.
<mgrwt>
<rscale>  0 0.25652240E+04</rscale>
<asrwt>0</asrwt>
<pdfrwt beam="1">  1        1 0.35017387E+00 0.25652240E+04</pdfrwt>
<pdfrwt beam="2">  1       -2 0.11119369E+00 0.25652240E+04</pdfrwt>
<totfact> 0.96038894E-01</totfact>
</mgrwt>
</event>
<event>
12    4  0.4183215E-008  0.2085992E+04  0.7818608E-02  0.8567439E-01
          1   -1    0    0  501    0  0.00000000000E+00  0.00000000000E+00  0.10006013783E+04  0.10006013783E+04  0.00000000000E+00 0. -1.
         -2   -1    0    0    0  501 -0.00000000000E+00 -0.00000000000E+00 -0.10871871669E+04  0.10871871669E+04  0.00000000000E+00 0.  1.
        -24    2    1    2    0    0 -0.52459842144E+03  0.49378356371E+03  0.40915412448E+03  0.83241875739E+03  0.80549230353E+02 0.  0.
        254    2    1    2    0    0  0.52459842144E+03 -0.49378356371E+03 -0.49573991310E+03  0.12553697877E+04  0.90064950505E+03 0.  0.
         23    2    4    4    0    0  0.35760672633E+03  0.19210433360E+03 -0.31258669227E+03  0.52028973814E+03  0.90577733102E+02 0.  0.
         23    2    4    4    0    0  0.16699169511E+03 -0.68588789730E+03 -0.18315322083E+03  0.73508004959E+03  0.92027947376E+02 0.  0.
          3    1    3    3  502    0 -0.50961639296E+03  0.49363212024E+03  0.39626368830E+03  0.81265395388E+03  0.00000000000E+00 0. -1.
         -4    1    3    3    0  502 -0.14982028482E+02  0.15144346871E+00  0.12890436186E+02  0.19764803506E+02  0.00000000000E+00 0.  1.
         11    1    5    5    0    0  0.27936452519E+03  0.13606367596E+03 -0.28113291611E+03  0.41903887453E+03  0.00000000000E+00 0. -1.
        -11    1    5    5    0    0  0.78242201141E+02  0.56040657636E+02 -0.31453776159E+02  0.10125086361E+03  0.00000000000E+00 0.  1.
          4    1    6    6  503    0  0.15364934416E+03 -0.53866205283E+03 -0.11292184659E+03  0.57141602319E+03  0.00000000000E+00 0. -1.
         -4    1    6    6    0  503  0.13342350953E+02 -0.14722584447E+03 -0.70231374234E+02  0.16366402639E+03  0.00000000000E+00 0.  1.
<mgrwt>
<rscale>  0 0.20859923E+04</rscale>
<asrwt>0</asrwt>
<pdfrwt beam="1">  1        1 0.15393867E+00 0.20859923E+04</pdfrwt>
<pdfrwt beam="2">  1       -2 0.16725956E+00 0.20859923E+04</pdfrwt>
<totfact> 0.27203147E+00</totfact>
</mgrwt>
</event>
<event>
12    4  0.4183215E-008  0.1410538E+04  0.7818608E-02  0.8946225E-01
         -2   -1    0    0    0  501 -0.00000000000E+00  0.00000000000E+00  0.95465582496E+03  0.95465582496E+03  0.00000000000E+00 0.  1.
          1   -1    0    0  501    0  0.00000000000E+00 -0.00000000000E+00 -0.52103039306E+03  0.52103039306E+03  0.00000000000E+00 0. -1.
        -24    2    1    2    0    0  0.27943662190E+03 -0.21831779569E+03  0.33383109492E+03  0.49301412127E+03  0.76630530845E+02 0.  0.
        254    2    1    2    0    0 -0.27943662190E+03  0.21831779569E+03  0.99794336981E+02  0.98267209675E+03  0.91100936025E+03 0.  0.
         23    2    4    4    0    0  0.11886445247E+03  0.13599214035E+03 -0.32683544799E+03  0.38446445137E+03  0.91481604761E+02 0.  0.
         23    2    4    4    0    0 -0.39830107437E+03  0.82325655341E+02  0.42662978497E+03  0.59820764538E+03  0.10206935969E+03 0.  0.
          3    1    3    3  502    0  0.25774813208E+02 -0.42239174568E+01  0.66829813181E+01  0.26960057750E+02  0.00000000000E+00 0. -1.
         -4    1    3    3    0  502  0.25366180870E+03 -0.21409387823E+03  0.32714811360E+03  0.46605406352E+03  0.00000000000E+00 0.  1.
         11    1    5    5    0    0  0.12218257075E+03  0.13174029735E+03 -0.33167595669E+03  0.37721747943E+03  0.00000000000E+00 0.  1.
        -11    1    5    5    0    0 -0.33181182797E+01  0.42518430037E+01  0.48405087029E+01  0.72469719434E+01  0.00000000000E+00 0. -1.
          1    1    6    6  503    0 -0.33701709154E+03  0.63397088685E+02  0.40462567352E+03  0.53039763057E+03  0.00000000000E+00 0.  1.
         -1    1    6    6    0  503 -0.61283982828E+02  0.18928566655E+02  0.22004111455E+02  0.67810014805E+02  0.00000000000E+00 0. -1.
<mgrwt>
<rscale>  0 0.14105385E+04</rscale>
<asrwt>0</asrwt>
<pdfrwt beam="1">  1        1 0.80158522E-01 0.14105385E+04</pdfrwt>
<pdfrwt beam="2">  1       -2 0.14687013E+00 0.14105385E+04</pdfrwt>
<totfact> 0.11290725E+01</totfact>
</mgrwt>
</event>
<event>
12    4  0.4183215E-008  0.1574099E+04  0.7818608E-02  0.8836620E-01
         -2   -1    0    0    0  501 -0.00000000000E+00  0.00000000000E+00  0.66803501545E+03  0.66803501545E+03  0.00000000000E+00 0.  1.
          1   -1    0    0  501    0  0.00000000000E+00 -0.00000000000E+00 -0.92726729474E+03  0.92726729474E+03  0.00000000000E+00 0. -1.
        -24    2    1    2    0    0 -0.51860405786E+03 -0.50300342546E+02 -0.71939570177E+02  0.53215200068E+03  0.80809385512E+02 0.  0.
        254    2    1    2    0    0  0.51860405786E+03  0.50300342546E+02 -0.18729270912E+03  0.10631503095E+04  0.90759557537E+03 0.  0.
         23    2    4    4    0    0  0.63824249708E+03  0.33379333608E+03 -0.11280386017E+03  0.73462608958E+03  0.90439506499E+02 0.  0.
         23    2    4    4    0    0 -0.11963843922E+03 -0.28349299354E+03 -0.74488848946E+02  0.32852421993E+03  0.87737910487E+02 0.  0.
          1    1    3    3  502    0 -0.39303620316E+02 -0.38301048603E+01 -0.28396294658E+02  0.48639426636E+02  0.00000000000E+00 0. -1.
         -2    1    3    3    0  502 -0.47930043754E+03 -0.46470237686E+02 -0.43543275519E+02  0.48351257405E+03  0.00000000000E+00 0.  1.
         11    1    5    5    0    0  0.63611588406E+03  0.32889610344E+03 -0.10302515388E+03  0.72348479400E+03  0.00000000000E+00 0. -1.
        -11    1    5    5    0    0  0.21266130133E+01  0.48972326484E+01 -0.97787062946E+01  0.11141295585E+02  0.00000000000E+00 0.  1.
          1    1    6    6  503    0 -0.98899623997E+02 -0.13089563994E+03 -0.56323218543E+02  0.17345636088E+03  0.00000000000E+00 0. -1.
         -1    1    6    6    0  503 -0.20738815222E+02 -0.15259735359E+03 -0.18165630403E+02  0.15506785904E+03  0.00000000000E+00 0.  1.
<mgrwt>
<rscale>  0 0.15740991E+04</rscale>
<asrwt>0</asrwt>
<pdfrwt beam="1">  1        1 0.14265651E+00 0.15740991E+04</pdfrwt>
<pdfrwt beam="2">  1       -2 0.10277462E+00 0.15740991E+04</pdfrwt>
<totfact> 0.11274550E+01</totfact>
</mgrwt>
</event>
<event>
12    4  0.4183215E-008  0.2783930E+04  0.7818608E-02  0.8308275E-01
         -2   -1    0    0    0  501 -0.00000000000E+00  0.00000000000E+00  0.15009834411E+04  0.15009834411E+04  0.00000000000E+00 0.  1.
          1   -1    0    0  501    0  0.00000000000E+00 -0.00000000000E+00 -0.12908651079E+04  0.12908651079E+04  0.00000000000E+00 0. -1.
        -24    2    1    2    0    0 -0.54159884870E+03  0.80854533858E+03 -0.68550443637E+03  0.11929681388E+04  0.78624235585E+02 0.  0.
        254    2    1    2    0    0  0.54159884870E+03 -0.80854533858E+03  0.89562276958E+03  0.15988804103E+04  0.89844506981E+03 0.  0.
         23    2    4    4    0    0 -0.19412455788E+03 -0.14959077196E+03  0.43198643556E+03  0.50392295253E+03  0.85230971794E+02 0.  0.
         23    2    4    4    0    0  0.73572340658E+03 -0.65895456661E+03  0.46363633402E+03  0.10949574577E+04  0.91995283376E+02 0.  0.
          1    1    3    3  502    0 -0.50391315463E+03  0.73657265950E+03 -0.65122392490E+03  0.11047897313E+04  0.00000000000E+00 0. -1.
         -2    1    3    3    0  502 -0.37685694078E+02  0.71972679075E+02 -0.34280511469E+02  0.88178407436E+02  0.00000000000E+00 0.  1.
         11    1    5    5    0    0 -0.68023199510E+01  0.31060893178E+01 -0.14937335466E+01  0.76256532490E+01  0.00000000000E+00 0. -1.
        -11    1    5    5    0    0 -0.18732223793E+03 -0.15269686128E+03  0.43348016910E+03  0.49629729928E+03  0.00000000000E+00 0.  1.
          4    1    6    6  503    0  0.52843229676E+02 -0.34043767794E+02  0.53355070874E+02  0.82450886206E+02  0.00000000000E+00 0. -1.
         -4    1    6    6    0  503  0.68288017690E+03 -0.62491079882E+03  0.41028126314E+03  0.10125065715E+04  0.00000000000E+00 0.  1.
<mgrwt>
<rscale>  0 0.27839304E+04</rscale>
<asrwt>0</asrwt>
<pdfrwt beam="1">  1        1 0.19859463E+00 0.27839304E+04</pdfrwt>
<pdfrwt beam="2">  1       -2 0.23092053E+00 0.27839304E+04</pdfrwt>
<totfact> 0.58959137E-01</totfact>
</mgrwt>
</event>
<event>
12    4  0.4183215E-008  0.1756380E+04  0.7818608E-02  0.8729846E-01
         -2   -1    0    0    0  501 -0.00000000000E+00  0.00000000000E+00  0.16077562120E+04  0.16077562120E+04  0.00000000000E+00 0.  1.
          1   -1    0    0  501    0  0.00000000000E+00 -0.00000000000E+00 -0.47968587084E+03  0.47968587084E+03  0.00000000000E+00 0. -1.
        -24    2    1    2    0    0 -0.16797035936E+03  0.19651689952E+03 -0.28854766209E+03  0.39561446885E+03  0.80113177708E+02 0.  0.
        254    2    1    2    0    0  0.16797035936E+03 -0.19651689952E+03  0.14166180032E+04  0.16918276139E+04  0.88805471389E+03 0.  0.
         23    2    4    4    0    0 -0.14848708886E+03  0.18433261527E+03  0.85313451158E+02  0.26805520336E+03  0.92456900711E+02 0.  0.
         23    2    4    4    0    0  0.31645744823E+03 -0.38084951478E+03  0.13313045521E+04  0.14237724106E+04  0.97797737090E+02 0.  0.
          3    1    3    3  502    0 -0.11946134809E+03  0.10274058417E+03 -0.21661354227E+03  0.26785829840E+03  0.00000000000E+00 0. -1.
         -4    1    3    3    0  502 -0.48509011273E+02  0.93776315345E+02 -0.71934119820E+02  0.12775617045E+03  0.00000000000E+00 0.  1.
         11    1    5    5    0    0 -0.15092195052E+03  0.14902066082E+03  0.93395570125E+02  0.23174840888E+03  0.00000000000E+00 0. -1.
        -11    1    5    5    0    0  0.24348616583E+01  0.35311954448E+02 -0.80821189673E+01  0.36306794478E+02  0.00000000000E+00 0.  1.
          2    1    6    6  503    0  0.23676962888E+03 -0.22291983127E+03  0.79068798883E+03  0.85495064420E+03  0.00000000000E+00 0. -1.
         -2    1    6    6    0  503  0.79687819349E+02 -0.15792968351E+03  0.54061656323E+03  0.56882176639E+03  0.00000000000E+00 0.  1.
<mgrwt>
<rscale>  0 0.17563803E+04</rscale>
<asrwt>0</asrwt>
<pdfrwt beam="1">  1        1 0.73797827E-01 0.17563803E+04</pdfrwt>
<pdfrwt beam="2">  1       -2 0.24734711E+00 0.17563803E+04</pdfrwt>
<totfact> 0.25945696E+00</totfact>
</mgrwt>
</event>
<event>
12    4  0.4183215E-008  0.1930421E+04  0.7818608E-02  0.8639861E-01
          1   -1    0    0  501    0  0.00000000000E+00  0.00000000000E+00  0.56589680128E+03  0.56589680128E+03  0.00000000000E+00 0. -1.
         -2   -1    0    0    0  501 -0.00000000000E+00 -0.00000000000E+00 -0.16462911557E+04  0.16462911557E+04  0.00000000000E+00 0.  1.
        -24    2    1    2    0    0 -0.18761337799E+03 -0.27095605285E+03 -0.12098554194E+04  0.12566102211E+04  0.81872765974E+02 0.  0.
        254    2    1    2    0    0  0.18761337799E+03  0.27095605285E+03  0.12946106498E+03  0.95557773585E+03  0.88755432495E+03 0.  0.
         23    2    4    4    0    0  0.43545352524E+03  0.42303486070E+03 -0.29655442081E+02  0.61331237729E+03  0.81819074126E+02 0.  0.
         23    2    4    4    0    0 -0.24784014725E+03 -0.15207880784E+03  0.15911650706E+03  0.34226535856E+03  0.85292499457E+02 0.  0.
          1    1    3    3  502    0  0.26571301464E+01 -0.20824729761E+02 -0.13948258960E+03  0.14105361574E+03  0.00000000000E+00 0. -1.
         -2    1    3    3    0  502 -0.19027050813E+03 -0.25013132309E+03 -0.10703728297E+04  0.11155566053E+04  0.00000000000E+00 0.  1.
         11    1    5    5    0    0  0.15345995938E+02  0.13988093999E+02  0.14458535495E+02  0.25302482362E+02  0.00000000000E+00 0. -1.
        -11    1    5    5    0    0  0.42010752930E+03  0.40904676670E+03 -0.44113977575E+02  0.58800989493E+03  0.00000000000E+00 0.  1.
          4    1    6    6  503    0 -0.53946741474E+02  0.38972025732E+01  0.25082851841E+02  0.59620370345E+02  0.00000000000E+00 0. -1.
         -4    1    6    6    0  503 -0.19389340578E+03 -0.15597601042E+03  0.13403365522E+03  0.28264498821E+03  0.00000000000E+00 0.  1.
<mgrwt>
<rscale>  0 0.19304206E+04</rscale>
<asrwt>0</asrwt>
<pdfrwt beam="1">  1        1 0.87061048E-01 0.19304206E+04</pdfrwt>
<pdfrwt beam="2">  1       -2 0.25327556E+00 0.19304206E+04</pdfrwt>
<totfact> 0.18670190E+00</totfact>
</mgrwt>
</event>
<event>
12    4  0.4183215E-008  0.1265127E+04  0.7818608E-02  0.9057686E-01
          1   -1    0    0  501    0  0.00000000000E+00  0.00000000000E+00  0.13193403572E+04  0.13193403572E+04  0.00000000000E+00 0. -1.
         -2   -1    0    0    0  501 -0.00000000000E+00 -0.00000000000E+00 -0.30328550649E+03  0.30328550649E+03  0.00000000000E+00 0.  1.
        -24    2    1    2    0    0 -0.20695214588E+03  0.23063103753E+03  0.21159514958E+03  0.38363739244E+03  0.79907918212E+02 0.  0.
        254    2    1    2    0    0  0.20695214588E+03 -0.23063103753E+03  0.80445970109E+03  0.12389884712E+04  0.88989727215E+03 0.  0.
         23    2    4    4    0    0  0.44684075610E+03 -0.42215548159E+03  0.50618230046E+03  0.80125537980E+03  0.88925532866E+02 0.  0.
         23    2    4    4    0    0 -0.23988861022E+03  0.19152444406E+03  0.29827740063E+03  0.43773309142E+03  0.91720737092E+02 0.  0.
          1    1    3    3  502    0 -0.69726761330E+02  0.10627226575E+03  0.12821811848E+03  0.18054224331E+03  0.00000000000E+00 0. -1.
         -2    1    3    3    0  502 -0.13722538455E+03  0.12435877178E+03  0.83377031103E+02  0.20309514913E+03  0.00000000000E+00 0.  1.
         11    1    5    5    0    0  0.11176423595E+03 -0.14625724874E+03  0.18773750088E+03  0.26292165465E+03  0.00000000000E+00 0. -1.
        -11    1    5    5    0    0  0.33507652015E+03 -0.27589823286E+03  0.31844479958E+03  0.53833372515E+03  0.00000000000E+00 0.  1.
          1    1    6    6  503    0 -0.11216721204E+03  0.11856368267E+03  0.10203379182E+03  0.19248305115E+03  0.00000000000E+00 0. -1.
         -1    1    6    6    0  503 -0.12772139818E+03  0.72960761391E+02  0.19624360881E+03  0.24525004028E+03  0.00000000000E+00 0.  1.
<mgrwt>
<rscale>  0 0.12651274E+04</rscale>
<asrwt>0</asrwt>
<pdfrwt beam="1">  1        1 0.20297544E+00 0.12651274E+04</pdfrwt>
<pdfrwt beam="2">  1       -2 0.46659310E-01 0.12651274E+04</pdfrwt>
<totfact> 0.32965919E+01</totfact>
</mgrwt>
</event>
<event>
12    4  0.4183215E-008  0.1649480E+04  0.7818608E-02  0.8790714E-01
         -2   -1    0    0    0  501 -0.00000000000E+00  0.00000000000E+00  0.67554202865E+03  0.67554202865E+03  0.00000000000E+00 0.  1.
          1   -1    0    0  501    0  0.00000000000E+00 -0.00000000000E+00 -0.10068893434E+04  0.10068893434E+04  0.00000000000E+00 0. -1.
        -24    2    1    2    0    0  0.30057124438E+03 -0.48267405668E+03 -0.62097877864E+02  0.57803078058E+03  0.83343379596E+02 0.  0.
        254    2    1    2    0    0 -0.30057124438E+03  0.48267405668E+03 -0.26924943684E+03  0.11044005914E+04  0.90768281309E+03 0.  0.
         23    2    4    4    0    0 -0.40768019266E+03  0.59157315291E+03 -0.44789299053E+03  0.85156217300E+03  0.91586400637E+02 0.  0.
         23    2    4    4    0    0  0.10710894828E+03 -0.10889909623E+03  0.17864355369E+03  0.25283841844E+03  0.93179432290E+02 0.  0.
          3    1    3    3  502    0  0.88285876514E+02 -0.79824873130E+02 -0.52779940321E+01  0.11913968098E+03  0.00000000000E+00 0. -1.
         -4    1    3    3    0  502  0.21228536786E+03 -0.40284918355E+03 -0.56819883832E+02  0.45889109960E+03  0.00000000000E+00 0.  1.
         11    1    5    5    0    0 -0.19377120300E+03  0.34041885289E+03 -0.27925427937E+03  0.48105636578E+03  0.00000000000E+00 0. -1.
        -11    1    5    5    0    0 -0.21390898967E+03  0.25115430002E+03 -0.16863871116E+03  0.37050580721E+03  0.00000000000E+00 0.  1.
          2    1    6    6  503    0  0.11790586316E+03 -0.68515485231E+02  0.12648901821E+03  0.18599902153E+03  0.00000000000E+00 0.  1.
         -2    1    6    6    0  503 -0.10796914871E+02 -0.40383610998E+02  0.52154535475E+02  0.66839396905E+02  0.00000000000E+00 0. -1.
<mgrwt>
<rscale>  0 0.16494800E+04</rscale>
<asrwt>0</asrwt>
<pdfrwt beam="1">  1        1 0.15490605E+00 0.16494800E+04</pdfrwt>
<pdfrwt beam="2">  1       -2 0.10392954E+00 0.16494800E+04</pdfrwt>
<totfact> 0.94324259E+00</totfact>
</mgrwt>
</event>
<event>
12    4  0.4183215E-008  0.1344094E+04  0.7818608E-02  0.8995311E-01
         -2   -1    0    0    0  501 -0.00000000000E+00  0.00000000000E+00  0.37998293170E+03  0.37998293170E+03  0.00000000000E+00 0.  1.
          1   -1    0    0  501    0  0.00000000000E+00 -0.00000000000E+00 -0.11885977649E+04  0.11885977649E+04  0.00000000000E+00 0. -1.
        -24    2    1    2    0    0  0.12182214059E+03 -0.43984738234E+02  0.17398621615E+03  0.23207905480E+03  0.82548126151E+02 0.  0.
        254    2    1    2    0    0 -0.12182214059E+03  0.43984738234E+02 -0.98260104940E+03  0.13365016418E+04  0.89663622793E+03 0.  0.
         23    2    4    4    0    0 -0.39920527654E+03 -0.20609482275E+03 -0.28518986774E+03  0.54008565280E+03  0.92300178294E+02 0.  0.
         23    2    4    4    0    0  0.27738313595E+03  0.25007956099E+03 -0.69741118166E+03  0.79641598905E+03  0.91732657053E+02 0.  0.
          1    1    3    3  502    0  0.48604053903E+02  0.19488916197E+02  0.88637912823E+02  0.10295072365E+03  0.00000000000E+00 0. -1.
         -2    1    3    3    0  502  0.73218086685E+02 -0.63473654430E+02  0.85348303328E+02  0.12912833115E+03  0.00000000000E+00 0.  1.
         11    1    5    5    0    0 -0.18344437543E+03 -0.10373831479E+03 -0.18745551978E+03  0.28205150013E+03  0.00000000000E+00 0.  1.
        -11    1    5    5    0    0 -0.21576090110E+03 -0.10235650796E+03 -0.97734347964E+02  0.25803415266E+03  0.00000000000E+00 0. -1.
          1    1    6    6  503    0  0.63650027466E+02  0.11534339609E+03 -0.25052998246E+03  0.28305599646E+03  0.00000000000E+00 0. -1.
         -1    1    6    6    0  503  0.21373310848E+03  0.13473616490E+03 -0.44688119920E+03  0.51335999259E+03  0.00000000000E+00 0.  1.
<mgrwt>
<rscale>  0 0.13440935E+04</rscale>
<asrwt>0</asrwt>
<pdfrwt beam="1">  1        1 0.18286119E+00 0.13440935E+04</pdfrwt>
<pdfrwt beam="2">  1       -2 0.58458913E-01 0.13440935E+04</pdfrwt>
<totfact> 0.25598776E+01</totfact>
</mgrwt>
</event>
<event>
12    4  0.4183215E-008  0.1744836E+04  0.7818608E-02  0.8736198E-01
         -2   -1    0    0    0  501 -0.00000000000E+00  0.00000000000E+00  0.12684969173E+04  0.12684969173E+04  0.00000000000E+00 0.  1.
          1   -1    0    0  501    0  0.00000000000E+00 -0.00000000000E+00 -0.60001155129E+03  0.60001155129E+03  0.00000000000E+00 0. -1.
        -24    2    1    2    0    0  0.35295957199E+01  0.45813980073E+03  0.72643073876E+03  0.86257881314E+03  0.80225031102E+02 0.  0.
        254    2    1    2    0    0 -0.35295957199E+01 -0.45813980073E+03 -0.57945372754E+02  0.10059296554E+04  0.89366227984E+03 0.  0.
         23    2    4    4    0    0 -0.35271806843E+03 -0.33622589226E+03 -0.27584006482E+03  0.56720490256E+03  0.90419985063E+02 0.  0.
         23    2    4    4    0    0  0.34918847271E+03 -0.12191390847E+03  0.21789469207E+03  0.43872475288E+03  0.90585437083E+02 0.  0.
          1    1    3    3  502    0  0.29485969470E+02  0.68002380294E+02  0.11716141327E+03  0.13863817252E+03  0.00000000000E+00 0. -1.
         -2    1    3    3    0  502 -0.25956373751E+02  0.39013742043E+03  0.60926932549E+03  0.72394064062E+03  0.00000000000E+00 0.  1.
         11    1    5    5    0    0 -0.96237606182E+02 -0.10877575890E+03 -0.38490670952E+02  0.15025103766E+03  0.00000000000E+00 0. -1.
        -11    1    5    5    0    0 -0.25648046225E+03 -0.22745013337E+03 -0.23734939387E+03  0.41695386490E+03  0.00000000000E+00 0.  1.
          3    1    6    6  503    0  0.12968854198E+02 -0.15309117859E+02 -0.60080364357E+01  0.20944134517E+02  0.00000000000E+00 0. -1.
         -3    1    6    6    0  503  0.33621961851E+03 -0.10660479061E+03  0.22390272850E+03  0.41778061837E+03  0.00000000000E+00 0.  1.
<mgrwt>
<rscale>  0 0.17448356E+04</rscale>
<asrwt>0</asrwt>
<pdfrwt beam="1">  1        1 0.92309469E-01 0.17448356E+04</pdfrwt>
<pdfrwt beam="2">  1       -2 0.19515337E+00 0.17448356E+04</pdfrwt>
<totfact> 0.40658803E+00</totfact>
</mgrwt>
</event>
<event>
12    4  0.4183215E-008  0.1484149E+04  0.7818608E-02  0.8895062E-01
         -2   -1    0    0    0  501 -0.00000000000E+00  0.00000000000E+00  0.30156147778E+03  0.30156147778E+03  0.00000000000E+00 0.  1.
          1   -1    0    0  501    0  0.00000000000E+00 -0.00000000000E+00 -0.18260778749E+04  0.18260778749E+04  0.00000000000E+00 0. -1.
        -24    2    1    2    0    0  0.25455960114E+02  0.21448017091E+03  0.10771518543E+03  0.25378930120E+03  0.78464632869E+02 0.  0.
        254    2    1    2    0    0 -0.25455960114E+02 -0.21448017091E+03 -0.16322315825E+04  0.18738500515E+04  0.89469789691E+03 0.  0.
         23    2    4    4    0    0  0.33942017026E+03 -0.35202277809E+03 -0.11005309537E+04  0.12080238824E+04  0.95011747597E+02 0.  0.
         23    2    4    4    0    0 -0.36487613038E+03  0.13754260718E+03 -0.53170062885E+03  0.66582616906E+03  0.92554683123E+02 0.  0.
          3    1    3    3  502    0  0.18751053562E+02  0.33605777541E+02 -0.75334483335E+01  0.39213558084E+02  0.00000000000E+00 0. -1.
         -4    1    3    3    0  502  0.67049065515E+01  0.18087439337E+03  0.11524863376E+03  0.21457574311E+03  0.00000000000E+00 0.  1.
         11    1    5    5    0    0  0.21007580005E+03 -0.16754584411E+03 -0.52040329918E+03  0.58568169293E+03  0.00000000000E+00 0.  1.
        -11    1    5    5    0    0  0.12934437021E+03 -0.18447693399E+03 -0.58012765451E+03  0.62234218948E+03  0.00000000000E+00 0. -1.
          3    1    6    6  503    0 -0.30362169192E+03  0.14535052176E+03 -0.42059898423E+03  0.53871737629E+03  0.00000000000E+00 0. -1.
         -3    1    6    6    0  503 -0.61254438462E+02 -0.78079145812E+01 -0.11110164462E+03  0.12710879277E+03  0.00000000000E+00 0.  1.
<mgrwt>
<rscale>  0 0.14841492E+04</rscale>
<asrwt>0</asrwt>
<pdfrwt beam="1">  1        1 0.28093506E+00 0.14841492E+04</pdfrwt>
<pdfrwt beam="2">  1       -2 0.46394073E-01 0.14841492E+04</pdfrwt>
<totfact> 0.14651035E+01</totfact>
</mgrwt>
</event>
<event>
12    4  0.4183215E-008  0.2211227E+04  0.7818608E-02  0.8513770E-01
          3   -1    0    0  501    0  0.00000000000E+00  0.00000000000E+00  0.46677347249E+03  0.46677347249E+03  0.00000000000E+00 0. -1.
         -4   -1    0    0    0  501 -0.00000000000E+00 -0.00000000000E+00 -0.26187884628E+04  0.26187884628E+04  0.00000000000E+00 0.  1.
        -24    2    1    2    0    0 -0.22044089766E+03 -0.23800286675E+03 -0.21067894097E+04  0.21329971227E+04  0.76652167423E+02 0.  0.
        254    2    1    2    0    0  0.22044089766E+03  0.23800286675E+03 -0.45225580561E+02  0.95256481251E+03  0.89448019260E+03 0.  0.
         23    2    4    4    0    0  0.18547447766E+03 -0.22066241626E+03 -0.29378508845E+03  0.42175273282E+03  0.92048930652E+02 0.  0.
         23    2    4    4    0    0  0.34966420002E+02  0.45866528301E+03  0.24855950789E+03  0.53081207969E+03  0.91559503176E+02 0.  0.
          1    1    3    3  502    0 -0.30497303957E+02 -0.27019526312E+01 -0.16815704653E+03  0.17092155626E+03  0.00000000000E+00 0. -1.
         -2    1    3    3    0  502 -0.18994359371E+03 -0.23530091412E+03 -0.19386323632E+04  0.19620755665E+04  0.00000000000E+00 0.  1.
         11    1    5    5    0    0  0.11419250471E+03 -0.93266835769E+02 -0.19911514888E+03  0.24776091964E+03  0.00000000000E+00 0.  1.
        -11    1    5    5    0    0  0.71281972953E+02 -0.12739558049E+03 -0.94669939563E+02  0.17399181318E+03  0.00000000000E+00 0. -1.
          1    1    6    6  503    0 -0.13717417135E+02  0.34616674794E+03  0.18400085184E+03  0.39227018544E+03  0.00000000000E+00 0. -1.
         -1    1    6    6    0  503  0.48683837137E+02  0.11249853507E+03  0.64558656044E+02  0.13854189425E+03  0.00000000000E+00 0.  1.
<mgrwt>
<rscale>  0 0.22112268E+04</rscale>
<asrwt>0</asrwt>
<pdfrwt beam="1">  1        3 0.71811303E-01 0.22112268E+04</pdfrwt>
<pdfrwt beam="2">  1       -4 0.40289054E+00 0.22112268E+04</pdfrwt>
<totfact> 0.25061918E-02</totfact>
</mgrwt>
</event>
<event>
12    4  0.4183215E-008  0.1848362E+04  0.7818608E-02  0.8680995E-01
          1   -1    0    0  501    0  0.00000000000E+00  0.00000000000E+00  0.11322784234E+04  0.11322784234E+04  0.00000000000E+00 0. -1.
         -2   -1    0    0    0  501 -0.00000000000E+00 -0.00000000000E+00 -0.75432936513E+03  0.75432936513E+03  0.00000000000E+00 0.  1.
        -24    2    1    2    0    0  0.28848492993E+02 -0.38726903217E+03  0.72321119067E+03  0.82472364662E+03  0.79530674329E+02 0.  0.
        254    2    1    2    0    0 -0.28848492993E+02  0.38726903217E+03 -0.34526213240E+03  0.10618841419E+04  0.92605747766E+03 0.  0.
         23    2    4    4    0    0 -0.35616348236E+02 -0.29092152024E+03 -0.19155165281E+03  0.36076055387E+03  0.86903891341E+02 0.  0.
         23    2    4    4    0    0  0.67678552430E+01  0.67819055241E+03 -0.15371047959E+03  0.70112358804E+03  0.89214039956E+02 0.  0.
          1    1    3    3  502    0 -0.10370149123E+02 -0.26694915311E+03  0.53392424575E+03  0.59702972333E+03  0.00000000000E+00 0. -1.
         -2    1    3    3    0  502  0.39218642117E+02 -0.12031987906E+03  0.18928694491E+03  0.22769392329E+03  0.00000000000E+00 0.  1.
         11    1    5    5    0    0  0.15634790565E+02 -0.18233044123E+03 -0.92221398798E+02  0.20492345613E+03  0.00000000000E+00 0.  1.
        -11    1    5    5    0    0 -0.51251138801E+02 -0.10859107901E+03 -0.99330254012E+02  0.15583709774E+03  0.00000000000E+00 0. -1.
          1    1    6    6  503    0  0.12044272391E+02  0.40236659039E+03 -0.46801365777E+02  0.40525831935E+03  0.00000000000E+00 0. -1.
         -1    1    6    6    0  503 -0.52764171477E+01  0.27582396202E+03 -0.10690911382E+03  0.29586526869E+03  0.00000000000E+00 0.  1.
<mgrwt>
<rscale>  0 0.18483624E+04</rscale>
<asrwt>0</asrwt>
<pdfrwt beam="1">  1        1 0.17419668E+00 0.18483624E+04</pdfrwt>
<pdfrwt beam="2">  1       -2 0.11605067E+00 0.18483624E+04</pdfrwt>
<totfact> 0.56989393E+00</totfact>
</mgrwt>
</event>
<event>
12    4  0.4183215E-008  0.1213466E+04  0.7818608E-02  0.9101150E-01
          1   -1    0    0  501    0  0.00000000000E+00  0.00000000000E+00  0.58849462205E+03  0.58849462205E+03  0.00000000000E+00 0. -1.
         -2   -1    0    0    0  501 -0.00000000000E+00 -0.00000000000E+00 -0.62553710949E+03  0.62553710949E+03  0.00000000000E+00 0.  1.
        -24    2    1    2    0    0 -0.12135466017E+03 -0.12783326542E+03 -0.21479158487E+03  0.28911798389E+03  0.79909238416E+02 0.  0.
        254    2    1    2    0    0  0.12135466017E+03  0.12783326542E+03  0.17774909743E+03  0.92491374764E+03  0.89039452022E+03 0.  0.
         23    2    4    4    0    0  0.35742516865E+03  0.14245356890E+03  0.41772524327E+03  0.57528853906E+03  0.91742868022E+02 0.  0.
         23    2    4    4    0    0 -0.23607050847E+03 -0.14620303473E+02 -0.23997614584E+03  0.34962520858E+03  0.93307007547E+02 0.  0.
          3    1    3    3  502    0 -0.90101792289E+02 -0.65451586613E+02 -0.79291804049E+02  0.13670930236E+03  0.00000000000E+00 0. -1.
         -4    1    3    3    0  502 -0.31252867885E+02 -0.62381678811E+02 -0.13549978082E+03  0.15240868153E+03  0.00000000000E+00 0.  1.
         11    1    5    5    0    0  0.30707889667E+03  0.12928419286E+03  0.39937480050E+03  0.52010776055E+03  0.00000000000E+00 0. -1.
        -11    1    5    5    0    0  0.50346271982E+02  0.13169376036E+02  0.18350442765E+02  0.55180778513E+02  0.00000000000E+00 0.  1.
          3    1    6    6  503    0 -0.20790452965E+03 -0.34622385020E+02 -0.16708334079E+03  0.26896067699E+03  0.00000000000E+00 0. -1.
         -3    1    6    6    0  503 -0.28165978820E+02  0.20002081547E+02 -0.72892805054E+02  0.80664531597E+02  0.00000000000E+00 0.  1.
<mgrwt>
<rscale>  0 0.12134665E+04</rscale>
<asrwt>0</asrwt>
<pdfrwt beam="1">  1        1 0.90537634E-01 0.12134665E+04</pdfrwt>
<pdfrwt beam="2">  1       -2 0.96236478E-01 0.12134665E+04</pdfrwt>
<totfact> 0.27559404E+01</totfact>
</mgrwt>
</event>
<event>
12    4  0.4183215E-008  0.1614511E+04  0.7818608E-02  0.8811683E-01
          1   -1    0    0  501    0  0.00000000000E+00  0.00000000000E+00  0.21146365653E+04  0.21146365653E+04  0.00000000000E+00 0. -1.
         -4   -1    0    0    0  501 -0.00000000000E+00 -0.00000000000E+00 -0.30816706764E+03  0.30816706764E+03  0.00000000000E+00 0.  1.
        -24    2    1    2    0    0 -0.22781480751E+03 -0.24267669549E+03  0.13439574261E+04  0.13868817748E+04  0.80174366969E+02 0.  0.
        254    2    1    2    0    0  0.22781480751E+03  0.24267669549E+03  0.46251207153E+03  0.10359218581E+04  0.86511566550E+03 0.  0.
         23    2    4    4    0    0  0.16268173022E+03 -0.26893502432E+03  0.38674095457E+03  0.50624052101E+03  0.88991609254E+02 0.  0.
         23    2    4    4    0    0  0.65133077286E+02  0.51161171982E+03  0.75771116969E+02  0.52968133708E+03  0.93979716289E+02 0.  0.
          1    1    3    3  502    0 -0.22817261002E+03 -0.24222825871E+03  0.13450738657E+04  0.13856265635E+04  0.00000000000E+00 0. -1.
         -2    1    3    3    0  502  0.35780251057E+00 -0.44843677946E+00 -0.11164395817E+01  0.12552113453E+01  0.00000000000E+00 0.  1.
         11    1    5    5    0    0  0.13089528105E+03 -0.15297996252E+03  0.28377495300E+03  0.34794348318E+03  0.00000000000E+00 0. -1.
        -11    1    5    5    0    0  0.31786449168E+02 -0.11595506180E+03  0.10296600156E+03  0.15829703783E+03  0.00000000000E+00 0.  1.
          3    1    6    6  503    0 -0.17128945988E+02  0.12198788272E+03 -0.53033613252E+01  0.12329870219E+03  0.00000000000E+00 0. -1.
         -3    1    6    6    0  503  0.82262023274E+02  0.38962383710E+03  0.81074478294E+02  0.40638263489E+03  0.00000000000E+00 0.  1.
<mgrwt>
<rscale>  0 0.16145109E+04</rscale>
<asrwt>0</asrwt>
<pdfrwt beam="1">  1        1 0.32532869E+00 0.16145109E+04</pdfrwt>
<pdfrwt beam="2">  1       -4 0.47410319E-01 0.16145109E+04</pdfrwt>
<totfact> 0.50943924E+00</totfact>
</mgrwt>
</event>
<event>
12    4  0.4183215E-008  0.1824167E+04  0.7818608E-02  0.8693552E-01
         -4   -1    0    0    0  501 -0.00000000000E+00  0.00000000000E+00  0.36766581591E+03  0.36766581591E+03  0.00000000000E+00 0.  1.
          1   -1    0    0  501    0  0.00000000000E+00 -0.00000000000E+00 -0.22626421797E+04  0.22626421797E+04  0.00000000000E+00 0. -1.
        -24    2    1    2    0    0  0.32475881134E+03  0.57425823521E+03 -0.10083765980E+04  0.12076370708E+04  0.79518080274E+02 0.  0.
        254    2    1    2    0    0 -0.32475881134E+03 -0.57425823521E+03 -0.88659976571E+03  0.14226709248E+04  0.89593114095E+03 0.  0.
         23    2    4    4    0    0 -0.25254384160E+03 -0.56194897016E+03 -0.10431259120E+03  0.63166216094E+03  0.92471248963E+02 0.  0.
         23    2    4    4    0    0 -0.72214969742E+02 -0.12309265042E+02 -0.78228717451E+03  0.79100876381E+03  0.91406351813E+02 0.  0.
          3    1    3    3  502    0  0.13782203838E+03  0.27999429790E+03 -0.54104869972E+03  0.62460020540E+03  0.00000000000E+00 0. -1.
         -4    1    3    3    0  502  0.18693677296E+03  0.29426393731E+03 -0.46732789833E+03  0.58303686542E+03  0.00000000000E+00 0.  1.
         11    1    5    5    0    0 -0.12419791968E+03 -0.20828861080E+03 -0.50497886606E+01  0.24255879495E+03  0.00000000000E+00 0. -1.
        -11    1    5    5    0    0 -0.12834592192E+03 -0.35366035937E+03 -0.99262802535E+02  0.38910336599E+03  0.00000000000E+00 0.  1.
          2    1    6    6  503    0 -0.24906947979E+02  0.10420631121E+02 -0.61696042510E+03  0.61755089810E+03  0.00000000000E+00 0.  1.
         -2    1    6    6    0  503 -0.47308021762E+02 -0.22729896162E+02 -0.16532674942E+03  0.17345786571E+03  0.00000000000E+00 0. -1.
<mgrwt>
<rscale>  0 0.18241669E+04</rscale>
<asrwt>0</asrwt>
<pdfrwt beam="1">  1        1 0.34809879E+00 0.18241669E+04</pdfrwt>
<pdfrwt beam="2">  1       -4 0.56563972E-01 0.18241669E+04</pdfrwt>
<totfact> 0.27375147E+00</totfact>
</mgrwt>
</event>
<event>
12    4  0.4183215E-008  0.1357017E+04  0.7818608E-02  0.8985534E-01
          1   -1    0    0  501    0  0.00000000000E+00  0.00000000000E+00  0.15574779643E+04  0.15574779643E+04  0.00000000000E+00 0. -1.
         -2   -1    0    0    0  501 -0.00000000000E+00 -0.00000000000E+00 -0.29558909322E+03  0.29558909322E+03  0.00000000000E+00 0.  1.
        -24    2    1    2    0    0 -0.15142854464E+03  0.34352011062E+03  0.41683987867E+03  0.56690188030E+03  0.81765438369E+02 0.  0.
        254    2    1    2    0    0  0.15142854464E+03 -0.34352011062E+03  0.84504899244E+03  0.12861651772E+04  0.89396666213E+03 0.  0.
         23    2    4    4    0    0 -0.34601977576E+03 -0.22657636905E+03  0.53074610675E+03  0.67889057935E+03  0.90191200631E+02 0.  0.
         23    2    4    4    0    0  0.49744832039E+03 -0.11694374157E+03  0.31430288569E+03  0.60727459790E+03  0.94156588439E+02 0.  0.
          3    1    3    3  502    0 -0.17688869135E+02  0.25937355349E+02  0.75956440735E+02  0.82188949275E+02  0.00000000000E+00 0. -1.
         -4    1    3    3    0  502 -0.13373967550E+03  0.31758275527E+03  0.34088343793E+03  0.48471293102E+03  0.00000000000E+00 0.  1.
         11    1    5    5    0    0 -0.26806812889E+03 -0.20827360026E+03  0.39075381984E+03  0.51761661683E+03  0.00000000000E+00 0. -1.
        -11    1    5    5    0    0 -0.77951646861E+02 -0.18302768791E+02  0.13999228690E+03  0.16127396252E+03  0.00000000000E+00 0.  1.
          3    1    6    6  503    0  0.45080254160E+03 -0.13226065769E+03  0.29353753848E+03  0.55396759795E+03  0.00000000000E+00 0. -1.
         -3    1    6    6    0  503  0.46645778786E+02  0.15316916120E+02  0.20765347216E+02  0.53306999943E+02  0.00000000000E+00 0.  1.
<mgrwt>
<rscale>  0 0.13570166E+04</rscale>
<asrwt>0</asrwt>
<pdfrwt beam="1">  1        1 0.23961199E+00 0.13570166E+04</pdfrwt>
<pdfrwt beam="2">  1       -2 0.45475246E-01 0.13570166E+04</pdfrwt>
<totfact> 0.23498944E+01</totfact>
</mgrwt>
</event>
<event>
12    4  0.4183215E-008  0.1582309E+04  0.7818608E-02  0.8831491E-01
          1   -1    0    0  501    0  0.00000000000E+00  0.00000000000E+00  0.13359307100E+04  0.13359307100E+04  0.00000000000E+00 0. -1.
         -2   -1    0    0    0  501 -0.00000000000E+00 -0.00000000000E+00 -0.46853107881E+03  0.46853107881E+03  0.00000000000E+00 0.  1.
        -24    2    1    2    0    0  0.44267871385E+03 -0.20703463764E+03  0.51139947041E+03  0.71190238311E+03  0.80298193360E+02 0.  0.
        254    2    1    2    0    0 -0.44267871385E+03  0.20703463764E+03  0.35600016077E+03  0.10925594057E+04  0.91001217333E+03 0.  0.
         23    2    4    4    0    0  0.14881547535E+03  0.36036140927E+03  0.51622180927E+02  0.40366744100E+03  0.90973415696E+02 0.  0.
         23    2    4    4    0    0 -0.59149418920E+03 -0.15332677163E+03  0.30437797984E+03  0.68889196469E+03  0.92475454303E+02 0.  0.
          1    1    3    3  502    0  0.40112157591E+03 -0.21145122519E+03  0.46647867048E+03  0.65054783783E+03  0.00000000000E+00 0. -1.
         -2    1    3    3    0  502  0.41557137937E+02  0.44165875509E+01  0.44920799929E+02  0.61354545271E+02  0.00000000000E+00 0.  1.
         11    1    5    5    0    0  0.26683301838E+02  0.14966263449E+03  0.50296306977E+02  0.16012689110E+03  0.00000000000E+00 0. -1.
        -11    1    5    5    0    0  0.12213217351E+03  0.21069877478E+03  0.13258739503E+01  0.24354054990E+03  0.00000000000E+00 0.  1.
          1    1    6    6  503    0 -0.14599337046E+03  0.22868614192E+01  0.77044680784E+02  0.16509141950E+03  0.00000000000E+00 0. -1.
         -1    1    6    6    0  503 -0.44550081874E+03 -0.15561363305E+03  0.22733329906E+03  0.52380054520E+03  0.00000000000E+00 0.  1.
<mgrwt>
<rscale>  0 0.15823085E+04</rscale>
<asrwt>0</asrwt>
<pdfrwt beam="1">  1        1 0.20552780E+00 0.15823085E+04</pdfrwt>
<pdfrwt beam="2">  1       -2 0.72081705E-01 0.15823085E+04</pdfrwt>
<totfact> 0.12530696E+01</totfact>
</mgrwt>
</event>
<event>
12    4  0.4183215E-008  0.1063558E+04  0.7818608E-02  0.9241457E-01
          1   -1    0    0  501    0  0.00000000000E+00  0.00000000000E+00  0.62532048991E+03  0.62532048991E+03  0.00000000000E+00 0. -1.
         -2   -1    0    0    0  501 -0.00000000000E+00 -0.00000000000E+00 -0.45223048285E+03  0.45223048285E+03  0.00000000000E+00 0.  1.
        -24    2    1    2    0    0 -0.16997208073E+02 -0.85655032522E+02 -0.56659357157E+02  0.13012358533E+03  0.78078006034E+02 0.  0.
        254    2    1    2    0    0  0.16997208073E+02  0.85655032522E+02  0.22974936422E+03  0.94742738744E+03  0.91499081658E+03 0.  0.
         23    2    4    4    0    0  0.38451658508E+03 -0.15683109671E+03 -0.33466295038E+02  0.42610248621E+03  0.89411066138E+02 0.  0.
         23    2    4    4    0    0 -0.36751937701E+03  0.24248612923E+03  0.26321565926E+03  0.52132490123E+03  0.92882474203E+02 0.  0.
          1    1    3    3  502    0 -0.61306612711E+00 -0.11688524899E+02  0.19472777438E+02  0.22719738677E+02  0.00000000000E+00 0. -1.
         -2    1    3    3    0  502 -0.16384141946E+02 -0.73966507623E+02 -0.76132134595E+02  0.10740384665E+03  0.00000000000E+00 0.  1.
         11    1    5    5    0    0  0.25166293255E+03 -0.13178871864E+03  0.95153391087E+01  0.28424116461E+03  0.00000000000E+00 0.  1.
        -11    1    5    5    0    0  0.13285365254E+03 -0.25042378068E+02 -0.42981634146E+02  0.14186132160E+03  0.00000000000E+00 0. -1.
          4    1    6    6  503    0 -0.29312837786E+02  0.84945613902E+01 -0.41422677032E+01  0.30798675523E+02  0.00000000000E+00 0. -1.
         -4    1    6    6    0  503 -0.33820653922E+03  0.23399156784E+03  0.26735792696E+03  0.49052622571E+03  0.00000000000E+00 0.  1.
<mgrwt>
<rscale>  0 0.10635582E+04</rscale>
<asrwt>0</asrwt>
<pdfrwt beam="1">  1        1 0.96203152E-01 0.10635582E+04</pdfrwt>
<pdfrwt beam="2">  1       -2 0.69573921E-01 0.10635582E+04</pdfrwt>
<totfact> 0.53140912E+01</totfact>
</mgrwt>
</event>
<event>
12    4  0.4183215E-008  0.1316182E+04  0.7818608E-02  0.9016830E-01
         -4   -1    0    0    0  501 -0.00000000000E+00  0.00000000000E+00  0.21294711941E+04  0.21294711941E+04  0.00000000000E+00 0.  1.
          3   -1    0    0  501    0  0.00000000000E+00 -0.00000000000E+00 -0.20337618236E+03  0.20337618236E+03  0.00000000000E+00 0. -1.
        -24    2    1    2    0    0 -0.33821697795E+03 -0.54351224837E+02  0.52998793227E+03  0.63616596834E+03  0.80468323573E+02 0.  0.
        254    2    1    2    0    0  0.33821697795E+03  0.54351224837E+02  0.13961070795E+04  0.16966814081E+04  0.90125914338E+03 0.  0.
         23    2    4    4    0    0  0.54126243142E+02 -0.38694560673E+02  0.13790262982E+04  0.13835921721E+04  0.90481204336E+02 0.  0.
         23    2    4    4    0    0  0.28409073481E+03  0.93045785510E+02  0.17080781260E+02  0.31308923602E+03  0.91477061694E+02 0.  0.
          1    1    3    3  502    0 -0.26511421400E+03 -0.66888741833E+02  0.37241160306E+03  0.46200655011E+03  0.00000000000E+00 0. -1.
         -2    1    3    3    0  502 -0.73102763956E+02  0.12537516996E+02  0.15757632921E+03  0.17415941823E+03  0.00000000000E+00 0.  1.
         11    1    5    5    0    0  0.44770579785E+02 -0.62586385180E+02  0.12274340775E+04  0.12298438417E+04  0.00000000000E+00 0. -1.
        -11    1    5    5    0    0  0.93556633572E+01  0.23891824507E+02  0.15159222076E+03  0.15374833043E+03  0.00000000000E+00 0.  1.
          4    1    6    6  503    0  0.23344060878E+03  0.95055255304E+02 -0.16001423767E+02  0.25255903261E+03  0.00000000000E+00 0. -1.
         -4    1    6    6    0  503  0.50650126031E+02 -0.20094697933E+01  0.33082205027E+02  0.60530203414E+02  0.00000000000E+00 0.  1.
<mgrwt>
<rscale>  0 0.13161819E+04</rscale>
<asrwt>0</asrwt>
<pdfrwt beam="1">  1        3 0.31288645E-01 0.13161819E+04</pdfrwt>
<pdfrwt beam="2">  1       -4 0.32761094E+00 0.13161819E+04</pdfrwt>
<totfact> 0.46945439E-01</totfact>
</mgrwt>
</event>
<event>
12    4  0.4183215E-008  0.1530452E+04  0.7818608E-02  0.8864451E-01
          1   -1    0    0  501    0  0.00000000000E+00  0.00000000000E+00  0.19567323646E+04  0.19567323646E+04  0.00000000000E+00 0. -1.
         -2   -1    0    0    0  501 -0.00000000000E+00 -0.00000000000E+00 -0.29925953181E+03  0.29925953181E+03  0.00000000000E+00 0.  1.
        -24    2    1    2    0    0 -0.10699852529E+03  0.48255584663E+03  0.52174012384E+03  0.72344746397E+03  0.82792794174E+02 0.  0.
        254    2    1    2    0    0  0.10699852529E+03 -0.48255584663E+03  0.11357327090E+04  0.15325444324E+04  0.90249366850E+03 0.  0.
         23    2    4    4    0    0  0.23972287641E+03 -0.46812188997E+03  0.12327219888E+04  0.13434406309E+04  0.92865847823E+02 0.  0.
         23    2    4    4    0    0 -0.13272435112E+03 -0.14433956663E+02 -0.96989279880E+02  0.18910380153E+03  0.92353856744E+02 0.  0.
          3    1    3    3  502    0 -0.46158429088E+02  0.22996547147E+03  0.18860722806E+03  0.30097741629E+03  0.00000000000E+00 0. -1.
         -4    1    3    3    0  502 -0.60840096203E+02  0.25259037517E+03  0.33313289578E+03  0.42247004768E+03  0.00000000000E+00 0.  1.
         11    1    5    5    0    0  0.14977665289E+03 -0.36961474962E+03  0.87291606736E+03  0.95970337581E+03  0.00000000000E+00 0. -1.
        -11    1    5    5    0    0  0.89946223526E+02 -0.98507140345E+02  0.35980592147E+03  0.38373725510E+03  0.00000000000E+00 0.  1.
          1    1    6    6  503    0 -0.81250666419E+02  0.32112467981E+02 -0.78087888532E+02  0.11717764176E+03  0.00000000000E+00 0. -1.
         -1    1    6    6    0  503 -0.51473684702E+02 -0.46546424644E+02 -0.18901391348E+02  0.71926159767E+02  0.00000000000E+00 0.  1.
<mgrwt>
<rscale>  0 0.15304520E+04</rscale>
<asrwt>0</asrwt>
<pdfrwt beam="1">  1        1 0.30103574E+00 0.15304520E+04</pdfrwt>
<pdfrwt beam="2">  1       -2 0.46039929E-01 0.15304520E+04</pdfrwt>
<totfact> 0.12088057E+01</totfact>
</mgrwt>
</event>
<event>
12    4  0.4183215E-008  0.2783608E+04  0.7818608E-02  0.8308376E-01
         -2   -1    0    0    0  501 -0.00000000000E+00  0.00000000000E+00  0.91920794096E+03  0.91920794096E+03  0.00000000000E+00 0.  1.
          1   -1    0    0  501    0  0.00000000000E+00 -0.00000000000E+00 -0.21073777541E+04  0.21073777541E+04  0.00000000000E+00 0. -1.
        -24    2    1    2    0    0 -0.14563983930E+03  0.70136147872E+03 -0.16482531989E+04  0.17990112555E+04  0.81141870081E+02 0.  0.
        254    2    1    2    0    0  0.14563983930E+03 -0.70136147872E+03  0.46008338575E+03  0.12275744396E+04  0.88438871330E+03 0.  0.
         23    2    4    4    0    0 -0.97703820789E+02 -0.68392772906E+03  0.60987185359E+03  0.92693592685E+03  0.99816629413E+02 0.  0.
         23    2    4    4    0    0  0.24334366009E+03 -0.17433749664E+02 -0.14978846784E+03  0.30063851272E+03  0.91797917744E+02 0.  0.
          1    1    3    3  502    0 -0.12361761446E+03  0.40187988429E+03 -0.97965706272E+03  0.10660753803E+04  0.00000000000E+00 0. -1.
         -2    1    3    3    0  502 -0.22022224839E+02  0.29948159443E+03 -0.66859613613E+03  0.73293587512E+03  0.00000000000E+00 0.  1.
         11    1    5    5    0    0 -0.85349503513E+02 -0.67389760032E+03  0.60656421352E+03  0.91068252349E+03  0.00000000000E+00 0.  1.
        -11    1    5    5    0    0 -0.12354317275E+02 -0.10030128735E+02  0.33076400699E+01  0.16253403355E+02  0.00000000000E+00 0. -1.
          2    1    6    6  503    0 -0.28936102942E+01  0.12229537212E+02 -0.88796652273E+01  0.15387755376E+02  0.00000000000E+00 0. -1.
         -2    1    6    6    0  503  0.24623727038E+03 -0.29663286875E+02 -0.14090880261E+03  0.28525075735E+03  0.00000000000E+00 0.  1.
<mgrwt>
<rscale>  0 0.27836080E+04</rscale>
<asrwt>0</asrwt>
<pdfrwt beam="1">  1        1 0.32421196E+00 0.27836080E+04</pdfrwt>
<pdfrwt beam="2">  1       -2 0.14141661E+00 0.27836080E+04</pdfrwt>
<totfact> 0.67170094E-01</totfact>
</mgrwt>
</event>
<event>
12    4  0.4183215E-008  0.1635724E+04  0.7818608E-02  0.8798897E-01
         -2   -1    0    0    0  501 -0.00000000000E+00  0.00000000000E+00  0.10205484803E+04  0.10205484803E+04  0.00000000000E+00 0.  1.
          1   -1    0    0  501    0  0.00000000000E+00 -0.00000000000E+00 -0.65543038483E+03  0.65543038483E+03  0.00000000000E+00 0. -1.
        -24    2    1    2    0    0 -0.54391213199E+03 -0.23129728809E+02  0.24979097670E+03  0.60426556283E+03  0.79786883006E+02 0.  0.
        254    2    1    2    0    0  0.54391213199E+03  0.23129728809E+02  0.11532711878E+03  0.10717133023E+04  0.91591138563E+03 0.  0.
         23    2    4    4    0    0 -0.10184141496E+03 -0.29929533245E+03 -0.26789582437E+02  0.33050196808E+03  0.92544580322E+02 0.  0.
         23    2    4    4    0    0  0.64575354696E+03  0.32242506126E+03  0.14211670122E+03  0.74121133423E+03  0.90782827078E+02 0.  0.
          3    1    3    3  502    0 -0.22058463914E+03 -0.11332498701E+02  0.58847360439E+02  0.22858044619E+03  0.00000000000E+00 0. -1.
         -4    1    3    3    0  502 -0.32332749285E+03 -0.11797230108E+02  0.19094361626E+03  0.37568511663E+03  0.00000000000E+00 0.  1.
         11    1    5    5    0    0  0.82313994003E+00 -0.12292789960E+03 -0.29463520581E+02  0.12641220315E+03  0.00000000000E+00 0.  1.
        -11    1    5    5    0    0 -0.10266455490E+03 -0.17636743285E+03  0.26739381441E+01  0.20408976493E+03  0.00000000000E+00 0. -1.
          3    1    6    6  503    0  0.19777545732E+02 -0.58535478220E+01  0.38470300835E+01  0.20981300669E+02  0.00000000000E+00 0. -1.
         -3    1    6    6    0  503  0.62597600122E+03  0.32827860908E+03  0.13826967113E+03  0.72023003356E+03  0.00000000000E+00 0.  1.
<mgrwt>
<rscale>  0 0.16357243E+04</rscale>
<asrwt>0</asrwt>
<pdfrwt beam="1">  1        1 0.10083544E+00 0.16357243E+04</pdfrwt>
<pdfrwt beam="2">  1       -2 0.15700746E+00 0.16357243E+04</pdfrwt>
<totfact> 0.66759575E+00</totfact>
</mgrwt>
</event>
<event>
12    4  0.4183215E-008  0.1533087E+04  0.7818608E-02  0.8862744E-01
         -2   -1    0    0    0  501 -0.00000000000E+00  0.00000000000E+00  0.25759137007E+03  0.25759137007E+03  0.00000000000E+00 0.  1.
          1   -1    0    0  501    0  0.00000000000E+00 -0.00000000000E+00 -0.22810886421E+04  0.22810886421E+04  0.00000000000E+00 0. -1.
        -24    2    1    2    0    0  0.32968310982E+03 -0.40182910693E+03 -0.79825669276E+03  0.95588540330E+03  0.79659102570E+02 0.  0.
        254    2    1    2    0    0 -0.32968310982E+03  0.40182910693E+03 -0.12252405793E+04  0.15827946089E+04  0.85666020843E+03 0.  0.
         23    2    4    4    0    0 -0.20381115174E+03 -0.88878741528E+02 -0.98688394395E+03  0.10157726986E+04  0.91737887662E+02 0.  0.
         23    2    4    4    0    0 -0.12587195808E+03  0.49070784846E+03 -0.23835663532E+03  0.56702191032E+03  0.89788745454E+02 0.  0.
          1    1    3    3  502    0  0.10326477701E+03 -0.15872122192E+03 -0.35003048483E+03  0.39796655735E+03  0.00000000000E+00 0. -1.
         -2    1    3    3    0  502  0.22641833281E+03 -0.24310788501E+03 -0.44822620792E+03  0.55791884594E+03  0.00000000000E+00 0.  1.
         11    1    5    5    0    0 -0.11443159307E+03 -0.20606517525E+02 -0.65786940411E+03  0.66806539420E+03  0.00000000000E+00 0. -1.
        -11    1    5    5    0    0 -0.89379558673E+02 -0.68272224003E+02 -0.32901453984E+03  0.34770730436E+03  0.00000000000E+00 0.  1.
          3    1    6    6  503    0 -0.37888772337E+02  0.42601351851E+02 -0.16702362757E+02  0.59408780247E+02  0.00000000000E+00 0. -1.
         -3    1    6    6    0  503 -0.87983185744E+02  0.44810649661E+03 -0.22165427256E+03  0.50761313008E+03  0.00000000000E+00 0.  1.
<mgrwt>
<rscale>  0 0.15330868E+04</rscale>
<asrwt>0</asrwt>
<pdfrwt beam="1">  1        1 0.35093672E+00 0.15330868E+04</pdfrwt>
<pdfrwt beam="2">  1       -2 0.39629441E-01 0.15330868E+04</pdfrwt>
<totfact> 0.97972694E+00</totfact>
</mgrwt>
</event>
<event>
12    4  0.4183215E-008  0.2443961E+04  0.7818608E-02  0.8423226E-01
          1   -1    0    0  501    0  0.00000000000E+00  0.00000000000E+00  0.14182826546E+04  0.14182826546E+04  0.00000000000E+00 0. -1.
         -2   -1    0    0    0  501 -0.00000000000E+00 -0.00000000000E+00 -0.10528477716E+04  0.10528477716E+04  0.00000000000E+00 0.  1.
        -24    2    1    2    0    0 -0.35659593204E+03  0.98645347025E+03  0.31161338734E+03  0.10971772062E+04  0.80273351423E+02 0.  0.
        254    2    1    2    0    0  0.35659593204E+03 -0.98645347025E+03  0.53821495699E+02  0.13739532200E+04  0.88577626390E+03 0.  0.
         23    2    4    4    0    0  0.55889251537E+03 -0.30487620790E+03  0.11993521559E+03  0.65415065970E+03  0.90654750392E+02 0.  0.
         23    2    4    4    0    0 -0.20229658333E+03 -0.68157726234E+03 -0.66113719895E+02  0.71980256031E+03  0.90957296056E+02 0.  0.
          1    1    3    3  502    0 -0.29329380785E+03  0.80493609510E+03  0.28630602301E+03  0.90327986456E+03  0.00000000000E+00 0. -1.
         -2    1    3    3    0  502 -0.63302124186E+02  0.18151737515E+03  0.25307364325E+02  0.19389734164E+03  0.00000000000E+00 0.  1.
         11    1    5    5    0    0  0.27006055144E+01  0.40789430784E+01 -0.35406022988E+01  0.60387839355E+01  0.00000000000E+00 0.  1.
        -11    1    5    5    0    0  0.55619190985E+03 -0.30895515098E+03  0.12347581789E+03  0.64811187577E+03  0.00000000000E+00 0. -1.
          3    1    6    6  503    0 -0.19238464570E+03 -0.51786806037E+03 -0.59751041227E+02  0.55567019605E+03  0.00000000000E+00 0. -1.
         -3    1    6    6    0  503 -0.99119376288E+01 -0.16370920197E+03 -0.63626786685E+01  0.16413236426E+03  0.00000000000E+00 0.  1.
<mgrwt>
<rscale>  0 0.24439605E+04</rscale>
<asrwt>0</asrwt>
<pdfrwt beam="1">  1        1 0.21819733E+00 0.24439605E+04</pdfrwt>
<pdfrwt beam="2">  1       -2 0.16197658E+00 0.24439605E+04</pdfrwt>
<totfact> 0.14239726E+00</totfact>
</mgrwt>
</event>
<event>
12    4  0.4183215E-008  0.1453237E+04  0.7818608E-02  0.8916159E-01
         -2   -1    0    0    0  501 -0.00000000000E+00  0.00000000000E+00  0.33274316411E+03  0.33274316411E+03  0.00000000000E+00 0.  1.
          1   -1    0    0  501    0  0.00000000000E+00 -0.00000000000E+00 -0.15867334132E+04  0.15867334132E+04  0.00000000000E+00 0. -1.
        -24    2    1    2    0    0 -0.32720605872E+02  0.44290418020E+03 -0.34156746871E+03  0.56597453839E+03  0.80150430642E+02 0.  0.
        254    2    1    2    0    0  0.32720605872E+02 -0.44290418020E+03 -0.91242278036E+03  0.13535020389E+04  0.89566605847E+03 0.  0.
         23    2    4    4    0    0 -0.38717679260E+03 -0.38792375326E+03 -0.61105836530E+03  0.82574674294E+03  0.89859059687E+02 0.  0.
         23    2    4    4    0    0  0.41989739847E+03 -0.54980426948E+02 -0.30136441506E+03  0.52775529596E+03  0.91479337310E+02 0.  0.
          3    1    3    3  502    0 -0.58333179284E+01  0.45348724510E+02 -0.70579368483E+02  0.84095075172E+02  0.00000000000E+00 0. -1.
         -2    1    3    3    0  502 -0.26887287943E+02  0.39755545569E+03 -0.27098810023E+03  0.48187946322E+03  0.00000000000E+00 0.  1.
         11    1    5    5    0    0 -0.72109257144E+02 -0.29921179725E+02 -0.75043388174E+02  0.10828911335E+03  0.00000000000E+00 0. -1.
        -11    1    5    5    0    0 -0.31506753546E+03 -0.35800257353E+03 -0.53601497712E+03  0.71745762959E+03  0.00000000000E+00 0.  1.
          1    1    6    6  503    0  0.21842565460E+03 -0.66736815907E+02 -0.19101561802E+03  0.29774239790E+03  0.00000000000E+00 0. -1.
         -1    1    6    6    0  503  0.20147174388E+03  0.11756388959E+02 -0.11034879704E+03  0.23001289805E+03  0.00000000000E+00 0.  1.
<mgrwt>
<rscale>  0 0.14532373E+04</rscale>
<asrwt>0</asrwt>
<pdfrwt beam="1">  1        1 0.24411283E+00 0.14532373E+04</pdfrwt>
<pdfrwt beam="2">  1       -2 0.51191256E-01 0.14532373E+04</pdfrwt>
<totfact> 0.17510634E+01</totfact>
</mgrwt>
</event>
<event>
12    4  0.4183215E-008  0.1137663E+04  0.7818608E-02  0.9169241E-01
          1   -1    0    0  501    0  0.00000000000E+00  0.00000000000E+00  0.29560873945E+04  0.29560873945E+04  0.00000000000E+00 0. -1.
         -2   -1    0    0    0  501 -0.00000000000E+00 -0.00000000000E+00 -0.10945858050E+03  0.10945858050E+03  0.00000000000E+00 0.  1.
        -24    2    1    2    0    0 -0.68449978747E+02  0.95388768522E+02  0.99297299962E+02  0.17316284438E+03  0.79630397097E+02 0.  0.
        254    2    1    2    0    0  0.68449978747E+02 -0.95388768522E+02  0.27473315141E+04  0.28923831306E+04  0.89680840182E+03 0.  0.
         23    2    4    4    0    0  0.15638352129E+02 -0.15569371820E+03  0.27640293714E+04  0.27701707958E+04  0.97482202462E+02 0.  0.
         23    2    4    4    0    0  0.52811626617E+02  0.60304949674E+02 -0.16697857387E+02  0.12221233484E+03  0.90726410072E+02 0.  0.
          3    1    3    3  502    0 -0.82370712567E+02  0.88453244634E+02  0.10100737933E+03  0.15751635298E+03  0.00000000000E+00 0. -1.
         -4    1    3    3    0  502  0.13920733820E+02  0.69355238883E+01 -0.17100793703E+01  0.15646491400E+02  0.00000000000E+00 0.  1.
         11    1    5    5    0    0 -0.15757222444E+02 -0.11262433181E+03  0.23464037445E+04  0.23491579475E+04  0.00000000000E+00 0. -1.
        -11    1    5    5    0    0  0.31395574573E+02 -0.43069386382E+02  0.41762562699E+03  0.42101284833E+03  0.00000000000E+00 0.  1.
          2    1    6    6  503    0  0.66578658137E+02  0.82814740759E+01 -0.12387572075E+02  0.68225746416E+02  0.00000000000E+00 0. -1.
         -2    1    6    6    0  503 -0.13767031519E+02  0.52023475598E+02 -0.43102853112E+01  0.53986588424E+02  0.00000000000E+00 0.  1.
<mgrwt>
<rscale>  0 0.11376627E+04</rscale>
<asrwt>0</asrwt>
<pdfrwt beam="1">  1        1 0.45478262E+00 0.11376627E+04</pdfrwt>
<pdfrwt beam="2">  1       -2 0.16839784E-01 0.11376627E+04</pdfrwt>
<totfact> 0.16426983E+01</totfact>
</mgrwt>
</event>
<event>
12    4  0.4183215E-008  0.1356457E+04  0.7818608E-02  0.8985954E-01
          1   -1    0    0  501    0  0.00000000000E+00  0.00000000000E+00  0.15052344333E+04  0.15052344333E+04  0.00000000000E+00 0. -1.
         -2   -1    0    0    0  501 -0.00000000000E+00 -0.00000000000E+00 -0.30559628470E+03  0.30559628470E+03  0.00000000000E+00 0.  1.
        -24    2    1    2    0    0 -0.47130093429E+02  0.36660262683E+03  0.41981168290E+03  0.56513337731E+03  0.80716499831E+02 0.  0.
        254    2    1    2    0    0  0.47130093429E+02 -0.36660262683E+03  0.77982646571E+03  0.12456973407E+04  0.89833947720E+03 0.  0.
         23    2    4    4    0    0  0.32261444608E+03 -0.37681299513E+03  0.11012237890E+03  0.51615194645E+03  0.90651968388E+02 0.  0.
         23    2    4    4    0    0 -0.27548435265E+03  0.10210368302E+02  0.66970408681E+03  0.72954539425E+03  0.87960435402E+02 0.  0.
          3    1    3    3  502    0 -0.66697578680E+02  0.21251761935E+03  0.23678604285E+03  0.32508450535E+03  0.00000000000E+00 0. -1.
         -2    1    3    3    0  502  0.19567485250E+02  0.15408500749E+03  0.18302564006E+03  0.24004887196E+03  0.00000000000E+00 0.  1.
         11    1    5    5    0    0  0.27660205151E+03 -0.35866763290E+03  0.11227447238E+03  0.46664410736E+03  0.00000000000E+00 0.  1.
        -11    1    5    5    0    0  0.46012394576E+02 -0.18145362233E+02 -0.21520934848E+01  0.49507839092E+02  0.00000000000E+00 0. -1.
          2    1    6    6  503    0 -0.84040395108E+02 -0.20010422739E+02  0.29903272021E+03  0.31126158257E+03  0.00000000000E+00 0. -1.
         -2    1    6    6    0  503 -0.19144395754E+03  0.30220791041E+02  0.37067136660E+03  0.41828381168E+03  0.00000000000E+00 0.  1.
<mgrwt>
<rscale>  0 0.13564572E+04</rscale>
<asrwt>0</asrwt>
<pdfrwt beam="1">  1        1 0.23157453E+00 0.13564572E+04</pdfrwt>
<pdfrwt beam="2">  1       -2 0.47014814E-01 0.13564572E+04</pdfrwt>
<totfact> 0.23880674E+01</totfact>
</mgrwt>
</event>
<event>
12    4  0.4183215E-008  0.1480017E+04  0.7818608E-02  0.8897851E-01
         -2   -1    0    0    0  501 -0.00000000000E+00  0.00000000000E+00  0.59302639127E+03  0.59302639127E+03  0.00000000000E+00 0.  1.
          1   -1    0    0  501    0  0.00000000000E+00 -0.00000000000E+00 -0.92341967152E+03  0.92341967152E+03  0.00000000000E+00 0. -1.
        -24    2    1    2    0    0  0.16265417598E+03  0.15621754852E+03  0.30867295374E+03  0.39002639211E+03  0.77338804860E+02 0.  0.
        254    2    1    2    0    0 -0.16265417598E+03 -0.15621754852E+03 -0.63906623399E+03  0.11264196707E+04  0.89975292144E+03 0.  0.
         23    2    4    4    0    0 -0.39835970633E+03 -0.37767751482E+03 -0.54306151071E+03  0.77736786583E+03  0.89745381942E+02 0.  0.
         23    2    4    4    0    0  0.23570553035E+03  0.22145996630E+03 -0.96004723277E+02  0.34905180485E+03  0.89546869641E+02 0.  0.
          1    1    3    3  502    0  0.10432380611E+03  0.11654256019E+03  0.15153946028E+03  0.21778391327E+03  0.00000000000E+00 0. -1.
         -2    1    3    3    0  502  0.58330369870E+02  0.39674988331E+02  0.15713349346E+03  0.17224247883E+03  0.00000000000E+00 0.  1.
         11    1    5    5    0    0 -0.36189256183E+03 -0.35234264090E+03 -0.52748913293E+03  0.73031250042E+03  0.00000000000E+00 0. -1.
        -11    1    5    5    0    0 -0.36467144502E+02 -0.25334873919E+02 -0.15572377785E+02  0.47055365417E+02  0.00000000000E+00 0.  1.
          2    1    6    6  503    0  0.21312562860E+03  0.21390992140E+03 -0.11007331453E+03  0.32139714157E+03  0.00000000000E+00 0. -1.
         -2    1    6    6    0  503  0.22579901750E+02  0.75500449000E+01  0.14068591249E+02  0.27654663273E+02  0.00000000000E+00 0.  1.
<mgrwt>
<rscale>  0 0.14800165E+04</rscale>
<asrwt>0</asrwt>
<pdfrwt beam="1">  1        1 0.14206457E+00 0.14800165E+04</pdfrwt>
<pdfrwt beam="2">  1       -2 0.91234829E-01 0.14800165E+04</pdfrwt>
<totfact> 0.15143039E+01</totfact>
</mgrwt>
</event>
<event>
12    4  0.4183215E-008  0.1672882E+04  0.7818608E-02  0.8776984E-01
          1   -1    0    0  501    0  0.00000000000E+00  0.00000000000E+00  0.16941564374E+04  0.16941564374E+04  0.00000000000E+00 0. -1.
         -2   -1    0    0    0  501 -0.00000000000E+00 -0.00000000000E+00 -0.41296846154E+03  0.41296846154E+03  0.00000000000E+00 0.  1.
        -24    2    1    2    0    0 -0.22868857842E+03 -0.11291739459E+03  0.11281420493E+04  0.11593230303E+04  0.79225005014E+02 0.  0.
        254    2    1    2    0    0  0.22868857842E+03  0.11291739459E+03  0.15304592662E+03  0.94780186864E+03  0.89992028683E+03 0.  0.
         23    2    4    4    0    0 -0.12235669400E+03  0.41180891716E+03 -0.38887433222E+02  0.44139310093E+03  0.93583611086E+02 0.  0.
         23    2    4    4    0    0  0.35104527242E+03 -0.29889152257E+03  0.19193335984E+03  0.50640876771E+03  0.83919603437E+02 0.  0.
          1    1    3    3  502    0 -0.22933617517E+03 -0.12075992972E+03  0.10966863954E+04  0.11268979952E+04  0.00000000000E+00 0. -1.
         -2    1    3    3    0  502  0.64759674739E+00  0.78425351304E+01  0.31455653913E+02  0.32425035111E+02  0.00000000000E+00 0.  1.
         11    1    5    5    0    0 -0.13785950966E+03  0.37958355052E+03 -0.37926866757E+02  0.40561972764E+03  0.00000000000E+00 0.  1.
        -11    1    5    5    0    0  0.15502815658E+02  0.32225366639E+02 -0.96056646529E+00  0.35773373286E+02  0.00000000000E+00 0. -1.
          3    1    6    6  503    0  0.28264273189E+02 -0.41549231175E+01  0.26750785823E+02  0.39137412628E+02  0.00000000000E+00 0. -1.
         -3    1    6    6    0  503  0.32278099923E+03 -0.29473659946E+03  0.16518257402E+03  0.46727135509E+03  0.00000000000E+00 0.  1.
<mgrwt>
<rscale>  0 0.16728816E+04</rscale>
<asrwt>0</asrwt>
<pdfrwt beam="1">  1        1 0.26063945E+00 0.16728816E+04</pdfrwt>
<pdfrwt beam="2">  1       -2 0.63533610E-01 0.16728816E+04</pdfrwt>
<totfact> 0.92324509E+00</totfact>
</mgrwt>
</event>
<event>
12    4  0.4183215E-008  0.1676323E+04  0.7818608E-02  0.8774985E-01
         -4   -1    0    0    0  501 -0.00000000000E+00  0.00000000000E+00  0.13006298683E+04  0.13006298683E+04  0.00000000000E+00 0.  1.
          3   -1    0    0  501    0  0.00000000000E+00 -0.00000000000E+00 -0.54013428690E+03  0.54013428690E+03  0.00000000000E+00 0. -1.
        -24    2    1    2    0    0  0.21922314304E+03  0.24124051710E+03 -0.27492643252E+03  0.43377798736E+03  0.79517453938E+02 0.  0.
        254    2    1    2    0    0 -0.21922314304E+03 -0.24124051710E+03  0.10354220139E+04  0.14069861678E+04  0.89512879298E+03 0.  0.
         23    2    4    4    0    0 -0.33616907436E+02  0.95923449086E+02 -0.12304403010E+03  0.18245134315E+03  0.88415240352E+02 0.  0.
         23    2    4    4    0    0 -0.18560623561E+03 -0.33716396618E+03  0.11584660440E+04  0.12245348246E+04  0.96502574768E+02 0.  0.
          1    1    3    3  502    0  0.20549866223E+03  0.19921531977E+03 -0.20898637485E+03  0.35438926152E+03  0.00000000000E+00 0. -1.
         -2    1    3    3    0  502  0.13724480815E+02  0.42025197329E+02 -0.65940057670E+02  0.79388725835E+02  0.00000000000E+00 0.  1.
         11    1    5    5    0    0 -0.60656158469E+02  0.60501123484E+02 -0.10189465484E+03  0.13312428850E+03  0.00000000000E+00 0. -1.
        -11    1    5    5    0    0  0.27039251033E+02  0.35422325601E+02 -0.21149375259E+02  0.49327054658E+02  0.00000000000E+00 0.  1.
          2    1    6    6  503    0 -0.10732048256E+03 -0.27531616586E+03  0.91053082480E+03  0.95727898759E+03  0.00000000000E+00 0. -1.
         -2    1    6    6    0  503 -0.78285753052E+02 -0.61847800329E+02  0.24793521917E+03  0.26725583706E+03  0.00000000000E+00 0.  1.
<mgrwt>
<rscale>  0 0.16763231E+04</rscale>
<asrwt>0</asrwt>
<pdfrwt beam="1">  1        3 0.83097583E-01 0.16763231E+04</pdfrwt>
<pdfrwt beam="2">  1       -4 0.20009690E+00 0.16763231E+04</pdfrwt>
<totfact> 0.38280642E-01</totfact>
</mgrwt>
</event>
<event>
12    4  0.4183215E-008  0.1481053E+04  0.7818608E-02  0.8897151E-01
         -4   -1    0    0    0  501 -0.00000000000E+00  0.00000000000E+00  0.64938476935E+03  0.64938476935E+03  0.00000000000E+00 0.  1.
          1   -1    0    0  501    0  0.00000000000E+00 -0.00000000000E+00 -0.84445986643E+03  0.84445986643E+03  0.00000000000E+00 0. -1.
        -24    2    1    2    0    0 -0.41060913182E+03  0.18665267744E+03 -0.15172690470E+03  0.48244252954E+03  0.79313678351E+02 0.  0.
        254    2    1    2    0    0  0.41060913182E+03 -0.18665267744E+03 -0.43348192382E+02  0.10114021062E+04  0.90422125257E+03 0.  0.
         23    2    4    4    0    0  0.37644831162E+03 -0.37694295042E+03  0.29190541787E+03  0.61406918899E+03  0.89849188566E+02 0.  0.
         23    2    4    4    0    0  0.34160820196E+02  0.19029027298E+03 -0.33525361025E+03  0.39733291725E+03  0.90006190420E+02 0.  0.
          3    1    3    3  502    0 -0.90269991054E+02  0.65381638818E+02 -0.65304584250E+02  0.12918250154E+03  0.00000000000E+00 0. -1.
         -4    1    3    3    0  502 -0.32033914076E+03  0.12127103862E+03 -0.86422320445E+02  0.35326002800E+03  0.00000000000E+00 0.  1.
         11    1    5    5    0    0  0.14615132525E+03 -0.15566167934E+03  0.68233948012E+02  0.22415762299E+03  0.00000000000E+00 0. -1.
        -11    1    5    5    0    0  0.23029698638E+03 -0.22128127109E+03  0.22367146986E+03  0.38991156600E+03  0.00000000000E+00 0.  1.
          3    1    6    6  503    0 -0.11359601627E+02  0.42989812067E+02 -0.25316112503E+02  0.51167079680E+02  0.00000000000E+00 0. -1.
         -3    1    6    6    0  503  0.45520421822E+02  0.14730046092E+03 -0.30993749775E+03  0.34616583757E+03  0.00000000000E+00 0.  1.
<mgrwt>
<rscale>  0 0.14810528E+04</rscale>
<asrwt>0</asrwt>
<pdfrwt beam="1">  1        1 0.12991690E+00 0.14810528E+04</pdfrwt>
<pdfrwt beam="2">  1       -4 0.99905350E-01 0.14810528E+04</pdfrwt>
<totfact> 0.78680433E+00</totfact>
</mgrwt>
</event>
<event>
12    4  0.4183215E-008  0.1335712E+04  0.7818608E-02  0.9001715E-01
         -2   -1    0    0    0  501 -0.00000000000E+00  0.00000000000E+00  0.77282850708E+03  0.77282850708E+03  0.00000000000E+00 0.  1.
          1   -1    0    0  501    0  0.00000000000E+00 -0.00000000000E+00 -0.57714214140E+03  0.57714214140E+03  0.00000000000E+00 0. -1.
        -24    2    1    2    0    0 -0.15555869156E+03  0.14159505389E+03  0.34457596852E+03  0.41188311216E+03  0.81654358102E+02 0.  0.
        254    2    1    2    0    0  0.15555869156E+03 -0.14159505389E+03 -0.14888960284E+03  0.93808753632E+03  0.90199359541E+03 0.  0.
         23    2    4    4    0    0  0.10820452696E+03  0.11457790330E+03  0.33474639593E+03  0.38099022836E+03  0.90896033662E+02 0.  0.
         23    2    4    4    0    0  0.47354164601E+02 -0.25617295719E+03 -0.48363599877E+03  0.55709730797E+03  0.92664072525E+02 0.  0.
          3    1    3    3  502    0 -0.80005246687E+01 -0.58929815114E+01  0.49591474850E+02  0.50577168800E+02  0.00000000000E+00 0. -1.
         -4    1    3    3    0  502 -0.14755816689E+03  0.14748803540E+03  0.29498449367E+03  0.36130594336E+03  0.00000000000E+00 0.  1.
         11    1    5    5    0    0  0.44991455854E+02 -0.16781495770E+01  0.12632117063E+03  0.13410475545E+03  0.00000000000E+00 0. -1.
        -11    1    5    5    0    0  0.63213071105E+02  0.11625605288E+03  0.20842522530E+03  0.24688547290E+03  0.00000000000E+00 0.  1.
          4    1    6    6  503    0 -0.10974235613E+02 -0.57551020529E+02 -0.18248561961E+03  0.19165999890E+03  0.00000000000E+00 0. -1.
         -4    1    6    6    0  503  0.58328400214E+02 -0.19862193666E+03 -0.30115037916E+03  0.36543730907E+03  0.00000000000E+00 0.  1.
<mgrwt>
<rscale>  0 0.13357124E+04</rscale>
<asrwt>0</asrwt>
<pdfrwt beam="1">  1        1 0.88791098E-01 0.13357124E+04</pdfrwt>
<pdfrwt beam="2">  1       -2 0.11889669E+00 0.13357124E+04</pdfrwt>
<totfact> 0.16868046E+01</totfact>
</mgrwt>
</event>
<event>
12    4  0.4183215E-008  0.3057114E+04  0.7818608E-02  0.8227607E-01
         -2   -1    0    0    0  501 -0.00000000000E+00  0.00000000000E+00  0.22393677163E+04  0.22393677163E+04  0.00000000000E+00 0.  1.
          1   -1    0    0  501    0  0.00000000000E+00 -0.00000000000E+00 -0.10433686426E+04  0.10433686426E+04  0.00000000000E+00 0. -1.
        -24    2    1    2    0    0 -0.37136786173E+03  0.27997003299E+03  0.19595189177E+04  0.20155272558E+04  0.79614206830E+02 0.  0.
        254    2    1    2    0    0  0.37136786173E+03 -0.27997003299E+03 -0.76351984401E+03  0.12672091031E+04  0.89808632701E+03 0.  0.
         23    2    4    4    0    0  0.98257361316E+02 -0.13724383382E+03  0.18444558053E+03  0.26622716601E+03  0.91467769019E+02 0.  0.
         23    2    4    4    0    0  0.27311050042E+03 -0.14272619917E+03 -0.94796542454E+03  0.10009819371E+04  0.91467365542E+02 0.  0.
          1    1    3    3  502    0  0.13353675564E+01 -0.25658577269E+01  0.45352243463E+01  0.53791348985E+01  0.00000000000E+00 0. -1.
         -2    1    3    3    0  502 -0.37270322929E+03  0.28253589072E+03  0.19549836933E+04  0.20101481209E+04  0.00000000000E+00 0.  1.
         11    1    5    5    0    0 -0.46308446779E+01 -0.32208383643E+01  0.49958565574E+02  0.50276006170E+02  0.00000000000E+00 0. -1.
        -11    1    5    5    0    0  0.10288820599E+03 -0.13402299546E+03  0.13448701495E+03  0.21595115984E+03  0.00000000000E+00 0.  1.
          2    1    6    6  503    0  0.21096852948E+03 -0.14861063081E+03 -0.73078455155E+03  0.77500896821E+03  0.00000000000E+00 0. -1.
         -2    1    6    6    0  503  0.62141970940E+02  0.58844316414E+01 -0.21718087299E+03  0.22597296892E+03  0.00000000000E+00 0.  1.
<mgrwt>
<rscale>  0 0.30571137E+04</rscale>
<asrwt>0</asrwt>
<pdfrwt beam="1">  1        1 0.16051825E+00 0.30571137E+04</pdfrwt>
<pdfrwt beam="2">  1       -2 0.34451811E+00 0.30571137E+04</pdfrwt>
<totfact> 0.17525523E-01</totfact>
</mgrwt>
</event>
<event>
12    4  0.4183215E-008  0.1553749E+04  0.7818608E-02  0.8849477E-01
          3   -1    0    0  501    0  0.00000000000E+00  0.00000000000E+00  0.43419328575E+03  0.43419328575E+03  0.00000000000E+00 0. -1.
         -4   -1    0    0    0  501 -0.00000000000E+00 -0.00000000000E+00 -0.13900119671E+04  0.13900119671E+04  0.00000000000E+00 0.  1.
        -24    2    1    2    0    0  0.11350676084E+03 -0.25549620719E+03 -0.85307898909E+03  0.90132248072E+03  0.80475809836E+02 0.  0.
        254    2    1    2    0    0 -0.11350676084E+03  0.25549620719E+03 -0.10273969223E+03  0.92288277210E+03  0.87349589011E+03 0.  0.
         23    2    4    4    0    0  0.17268088444E+03  0.33341758676E+01  0.30217022022E+03  0.35967904043E+03  0.90732384263E+02 0.  0.
         23    2    4    4    0    0 -0.28618764528E+03  0.25216203132E+03 -0.40490991245E+03  0.56320373168E+03  0.88075807229E+02 0.  0.
          3    1    3    3  502    0  0.81581456739E+02 -0.20984684658E+03 -0.76193188136E+03  0.79450073941E+03  0.00000000000E+00 0. -1.
         -4    1    3    3    0  502  0.31925304104E+02 -0.45649360608E+02 -0.91147107737E+02  0.10682174130E+03  0.00000000000E+00 0.  1.
         11    1    5    5    0    0  0.50982295204E+02 -0.20703413150E+02  0.16877269629E+03  0.17751633376E+03  0.00000000000E+00 0.  1.
        -11    1    5    5    0    0  0.12169858923E+03  0.24037589017E+02  0.13339752393E+03  0.18216270666E+03  0.00000000000E+00 0. -1.
          3    1    6    6  503    0 -0.81511716267E+02  0.74132888122E+02 -0.63587156267E+02  0.12721309458E+03  0.00000000000E+00 0. -1.
         -3    1    6    6    0  503 -0.20467592901E+03  0.17802914320E+03 -0.34132275619E+03  0.43599063710E+03  0.00000000000E+00 0.  1.
<mgrwt>
<rscale>  0 0.15537488E+04</rscale>
<asrwt>0</asrwt>
<pdfrwt beam="1">  1        3 0.66798967E-01 0.15537488E+04</pdfrwt>
<pdfrwt beam="2">  1       -4 0.21384799E+00 0.15537488E+04</pdfrwt>
<totfact> 0.50810690E-01</totfact>
</mgrwt>
</event>
<event>
12    4  0.4183215E-008  0.1865503E+04  0.7818608E-02  0.8672221E-01
         -2   -1    0    0    0  501 -0.00000000000E+00  0.00000000000E+00  0.39374843930E+03  0.39374843930E+03  0.00000000000E+00 0.  1.
          1   -1    0    0  501    0  0.00000000000E+00 -0.00000000000E+00 -0.22095962439E+04  0.22095962439E+04  0.00000000000E+00 0. -1.
        -24    2    1    2    0    0 -0.43831953505E+03 -0.54135270419E+03 -0.93283807423E+03  0.11668160830E+04  0.78013676235E+02 0.  0.
        254    2    1    2    0    0  0.43831953505E+03  0.54135270419E+03 -0.88300973039E+03  0.14365286002E+04  0.89371218528E+03 0.  0.
         23    2    4    4    0    0  0.48388790949E+03 -0.47414695764E+02 -0.59317306156E+03  0.77236464477E+03  0.91088974174E+02 0.  0.
         23    2    4    4    0    0 -0.45568374442E+02  0.58876739996E+03 -0.28983666883E+03  0.66416395544E+03  0.91569302181E+02 0.  0.
          1    1    3    3  502    0 -0.32967796493E+03 -0.43635690387E+03 -0.77266272751E+03  0.94662695852E+03  0.00000000000E+00 0. -1.
         -2    1    3    3    0  502 -0.10864157012E+03 -0.10499580033E+03 -0.16017534672E+03  0.22018912448E+03  0.00000000000E+00 0.  1.
         11    1    5    5    0    0  0.28764416330E+03  0.82559962672E+00 -0.40095733685E+03  0.49346391182E+03  0.00000000000E+00 0.  1.
        -11    1    5    5    0    0  0.19624374618E+03 -0.48240295390E+02 -0.19221572471E+03  0.27890073295E+03  0.00000000000E+00 0. -1.
          1    1    6    6  503    0 -0.22819075504E+02  0.55563627536E+03 -0.28077147078E+03  0.62296468561E+03  0.00000000000E+00 0. -1.
         -1    1    6    6    0  503 -0.22749298938E+02  0.33131124593E+02 -0.90651980496E+01  0.41199269831E+02  0.00000000000E+00 0.  1.
<mgrwt>
<rscale>  0 0.18655027E+04</rscale>
<asrwt>0</asrwt>
<pdfrwt beam="1">  1        1 0.33993788E+00 0.18655027E+04</pdfrwt>
<pdfrwt beam="2">  1       -2 0.60576683E-01 0.18655027E+04</pdfrwt>
<totfact> 0.44895682E+00</totfact>
</mgrwt>
</event>
<event>
12    4  0.4183215E-008  0.1104626E+04  0.7818608E-02  0.9200695E-01
         -2   -1    0    0    0  501 -0.00000000000E+00  0.00000000000E+00  0.26252338382E+03  0.26252338382E+03  0.00000000000E+00 0.  1.
          1   -1    0    0  501    0  0.00000000000E+00 -0.00000000000E+00 -0.11619903695E+04  0.11619903695E+04  0.00000000000E+00 0. -1.
        -24    2    1    2    0    0  0.92367101113E+02 -0.14448499959E+03 -0.15970891851E+03  0.24791303905E+03  0.80909454369E+02 0.  0.
        254    2    1    2    0    0 -0.92367101113E+02  0.14448499959E+03 -0.73975806720E+03  0.11766007143E+04  0.89874337073E+03 0.  0.
         23    2    4    4    0    0 -0.41892501622E+01  0.36780103812E+03  0.15047775645E+02  0.37961510697E+03  0.92660889439E+02 0.  0.
         23    2    4    4    0    0 -0.88177850951E+02 -0.22331603853E+03 -0.75480584285E+03  0.79698560733E+03  0.88367479487E+02 0.  0.
          1    1    3    3  502    0  0.52954491583E+02 -0.14032349767E+03 -0.12606234107E+03  0.19592492443E+03  0.00000000000E+00 0. -1.
         -2    1    3    3    0  502  0.39412609530E+02 -0.41615019141E+01 -0.33646577442E+02  0.51988114620E+02  0.00000000000E+00 0.  1.
         11    1    5    5    0    0  0.14069218201E+02  0.25706608319E+03 -0.28940442419E+02  0.25907231275E+03  0.00000000000E+00 0. -1.
        -11    1    5    5    0    0 -0.18258468363E+02  0.11073495493E+03  0.43988218063E+02  0.12054279422E+03  0.00000000000E+00 0.  1.
          3    1    6    6  503    0 -0.32215500763E+02 -0.11822696354E+03 -0.25115812737E+03  0.27945636214E+03  0.00000000000E+00 0. -1.
         -3    1    6    6    0  503 -0.55962350188E+02 -0.10508907500E+03 -0.50364771548E+03  0.51752924519E+03  0.00000000000E+00 0.  1.
<mgrwt>
<rscale>  0 0.11046260E+04</rscale>
<asrwt>0</asrwt>
<pdfrwt beam="1">  1        1 0.17876775E+00 0.11046260E+04</pdfrwt>
<pdfrwt beam="2">  1       -2 0.40388213E-01 0.11046260E+04</pdfrwt>
<totfact> 0.57756845E+01</totfact>
</mgrwt>
</event>
<event>
12    4  0.4183215E-008  0.1875102E+04  0.7818608E-02  0.8667350E-01
          1   -1    0    0  501    0  0.00000000000E+00  0.00000000000E+00  0.10059543678E+04  0.10059543678E+04  0.00000000000E+00 0. -1.
         -2   -1    0    0    0  501 -0.00000000000E+00 -0.00000000000E+00 -0.87379939877E+03  0.87379939877E+03  0.00000000000E+00 0.  1.
        -24    2    1    2    0    0 -0.51325147859E+03  0.38056660581E+03  0.40231695004E+03  0.75941547369E+03  0.81209061403E+02 0.  0.
        254    2    1    2    0    0  0.51325147859E+03 -0.38056660581E+03 -0.27016198101E+03  0.11203382929E+04  0.87972289546E+03 0.  0.
         23    2    4    4    0    0  0.68530783971E+03 -0.46868302060E+02 -0.10843713713E+03  0.70165055017E+03  0.93334928811E+02 0.  0.
         23    2    4    4    0    0 -0.17205636112E+03 -0.33369830375E+03 -0.16172484388E+03  0.41868774272E+03  0.90479563741E+02 0.  0.
          1    1    3    3  502    0 -0.42472942677E+03  0.27532171288E+03  0.32730123260E+03  0.60276299522E+03  0.00000000000E+00 0. -1.
         -2    1    3    3    0  502 -0.88522051822E+02  0.10524489293E+03  0.75015717441E+02  0.15665247847E+03  0.00000000000E+00 0.  1.
         11    1    5    5    0    0  0.53573184552E+03 -0.73839068823E+01 -0.10992835895E+03  0.54694366848E+03  0.00000000000E+00 0. -1.
        -11    1    5    5    0    0  0.14957599419E+03 -0.39484395177E+02  0.14912218151E+01  0.15470688169E+03  0.00000000000E+00 0.  1.
          1    1    6    6  503    0 -0.74339167528E+02 -0.18958166047E+03 -0.43519829620E+02  0.20823422722E+03  0.00000000000E+00 0. -1.
         -1    1    6    6    0  503 -0.97717193590E+02 -0.14411664328E+03 -0.11820501426E+03  0.21045351550E+03  0.00000000000E+00 0.  1.
<mgrwt>
<rscale>  0 0.18751025E+04</rscale>
<asrwt>0</asrwt>
<pdfrwt beam="1">  1        1 0.15476221E+00 0.18751025E+04</pdfrwt>
<pdfrwt beam="2">  1       -2 0.13443068E+00 0.18751025E+04</pdfrwt>
<totfact> 0.49066342E+00</totfact>
</mgrwt>
</event>
<event>
12    4  0.4183215E-008  0.1289244E+04  0.7818608E-02  0.9038138E-01
          1   -1    0    0  501    0  0.00000000000E+00  0.00000000000E+00  0.24458645906E+04  0.24458645906E+04  0.00000000000E+00 0. -1.
         -2   -1    0    0    0  501 -0.00000000000E+00 -0.00000000000E+00 -0.16989394437E+03  0.16989394437E+03  0.00000000000E+00 0.  1.
        -24    2    1    2    0    0 -0.27201544268E+03  0.15367636178E+03  0.75129394946E+03  0.81758464037E+03  0.79957616545E+02 0.  0.
        254    2    1    2    0    0  0.27201544268E+03 -0.15367636178E+03  0.15246766967E+04  0.17981738946E+04  0.90065614985E+03 0.  0.
         23    2    4    4    0    0  0.45972590140E+02 -0.92317267959E+02 -0.89215751674E+02  0.16482840446E+03  0.92590472313E+02 0.  0.
         23    2    4    4    0    0  0.22604285254E+03 -0.61359093822E+02  0.16138924484E+04  0.16333454901E+04  0.91150125639E+02 0.  0.
          3    1    3    3  502    0 -0.80669887550E+02  0.48110150361E+02  0.32832942976E+03  0.34150026613E+03  0.00000000000E+00 0. -1.
         -4    1    3    3    0  502 -0.19134555514E+03  0.10556621142E+03  0.42296451970E+03  0.47608437423E+03  0.00000000000E+00 0.  1.
         11    1    5    5    0    0  0.52360246109E+01 -0.92341030070E+02 -0.81695397677E+02  0.12340348370E+03  0.00000000000E+00 0.  1.
        -11    1    5    5    0    0  0.40736565529E+02  0.23762111144E-01 -0.75203539972E+01  0.41424920761E+02  0.00000000000E+00 0. -1.
          4    1    6    6  503    0  0.52101080348E+02 -0.29542418660E+02  0.69623451408E+03  0.69880596425E+03  0.00000000000E+00 0. -1.
         -4    1    6    6    0  503  0.17394177220E+03 -0.31816675161E+02  0.91765793432E+03  0.93453952584E+03  0.00000000000E+00 0.  1.
<mgrwt>
<rscale>  0 0.12892441E+04</rscale>
<asrwt>0</asrwt>
<pdfrwt beam="1">  1        1 0.37628683E+00 0.12892441E+04</pdfrwt>
<pdfrwt beam="2">  1       -2 0.26137532E-01 0.12892441E+04</pdfrwt>
<totfact> 0.16941515E+01</totfact>
</mgrwt>
</event>
<event>
12    4  0.4183215E-008  0.1752417E+04  0.7818608E-02  0.8732021E-01
          1   -1    0    0  501    0  0.00000000000E+00  0.00000000000E+00  0.29636573531E+04  0.29636573531E+04  0.00000000000E+00 0. -1.
         -2   -1    0    0    0  501 -0.00000000000E+00 -0.00000000000E+00 -0.25905206659E+03  0.25905206659E+03  0.00000000000E+00 0.  1.
        -24    2    1    2    0    0  0.24834094908E+03  0.16312317307E+03  0.20087315845E+04  0.20320755860E+04  0.77757391013E+02 0.  0.
        254    2    1    2    0    0 -0.24834094908E+03 -0.16312317307E+03  0.69587370205E+03  0.11906338338E+04  0.91928576642E+03 0.  0.
         23    2    4    4    0    0  0.73219362781E+02  0.29008108557E+03  0.23788242828E+02  0.31390867556E+03  0.92003612965E+02 0.  0.
         23    2    4    4    0    0 -0.32156031186E+03 -0.45320425865E+03  0.67208545922E+03  0.87672515822E+03  0.90293988405E+02 0.  0.
          3    1    3    3  502    0  0.20080730947E+03  0.15648733333E+03  0.17989061860E+04  0.18168311223E+04  0.00000000000E+00 0. -1.
         -4    1    3    3    0  502  0.47533639612E+02  0.66358397421E+01  0.20982539850E+03  0.21524446362E+03  0.00000000000E+00 0.  1.
         11    1    5    5    0    0  0.90335198357E+01  0.20596505461E+03  0.36149959073E+01  0.20619475357E+03  0.00000000000E+00 0. -1.
        -11    1    5    5    0    0  0.64185842946E+02  0.84116030960E+02  0.20173246921E+02  0.10771392199E+03  0.00000000000E+00 0.  1.
          3    1    6    6  503    0 -0.17915084379E+02 -0.51964909776E+02  0.10547658943E+03  0.11893953512E+03  0.00000000000E+00 0. -1.
         -3    1    6    6    0  503 -0.30364522748E+03 -0.40123934887E+03  0.56660886978E+03  0.75778562310E+03  0.00000000000E+00 0.  1.
<mgrwt>
<rscale>  0 0.17524173E+04</rscale>
<asrwt>0</asrwt>
<pdfrwt beam="1">  1        1 0.45594726E+00 0.17524173E+04</pdfrwt>
<pdfrwt beam="2">  1       -2 0.39854166E-01 0.17524173E+04</pdfrwt>
<totfact> 0.31597416E+00</totfact>
</mgrwt>
</event>
<event>
12    4  0.4183215E-008  0.1075792E+04  0.7818608E-02  0.9229113E-01
         -2   -1    0    0    0  501 -0.00000000000E+00  0.00000000000E+00  0.36381820291E+03  0.36381820291E+03  0.00000000000E+00 0.  1.
          1   -1    0    0  501    0  0.00000000000E+00 -0.00000000000E+00 -0.79526580922E+03  0.79526580922E+03  0.00000000000E+00 0. -1.
        -24    2    1    2    0    0 -0.13445946878E+03 -0.63989287879E+02 -0.95425617178E+02  0.19392619195E+03  0.79544590015E+02 0.  0.
        254    2    1    2    0    0  0.13445946878E+03  0.63989287879E+02 -0.33602198913E+03  0.96515782019E+03  0.89243759613E+03 0.  0.
         23    2    4    4    0    0  0.24100498979E+01 -0.39707945882E+03 -0.84769930293E+02  0.41605093081E+03  0.90744316544E+02 0.  0.
         23    2    4    4    0    0  0.13204941888E+03  0.46106874670E+03 -0.25125205884E+03  0.54910688938E+03  0.91484100705E+02 0.  0.
          1    1    3    3  502    0 -0.55206610778E+02 -0.18108483142E+02  0.46362382884E+01  0.58285347565E+02  0.00000000000E+00 0. -1.
         -2    1    3    3    0  502 -0.79252858001E+02 -0.45880804737E+02 -0.10006185547E+03  0.13564084438E+03  0.00000000000E+00 0.  1.
         11    1    5    5    0    0 -0.18720649207E+02 -0.36401995377E+03 -0.92514119923E+02  0.37605830909E+03  0.00000000000E+00 0. -1.
        -11    1    5    5    0    0  0.21130699105E+02 -0.33059505052E+02  0.77441896295E+01  0.39992621719E+02  0.00000000000E+00 0.  1.
          3    1    6    6  503    0  0.65261577020E+02  0.32825693892E+03 -0.20892415601E+03  0.39453896429E+03  0.00000000000E+00 0. -1.
         -3    1    6    6    0  503  0.66787841862E+02  0.13281180778E+03 -0.42327902833E+02  0.15456792509E+03  0.00000000000E+00 0.  1.
<mgrwt>
<rscale>  0 0.10757921E+04</rscale>
<asrwt>0</asrwt>
<pdfrwt beam="1">  1        1 0.12234859E+00 0.10757921E+04</pdfrwt>
<pdfrwt beam="2">  1       -2 0.55972032E-01 0.10757921E+04</pdfrwt>
<totfact> 0.58513737E+01</totfact>
</mgrwt>
</event>
<event>
12    4  0.4183215E-008  0.1677708E+04  0.7818608E-02  0.8774181E-01
          1   -1    0    0  501    0  0.00000000000E+00  0.00000000000E+00  0.14745900742E+04  0.14745900742E+04  0.00000000000E+00 0. -1.
         -2   -1    0    0    0  501 -0.00000000000E+00 -0.00000000000E+00 -0.47720104181E+03  0.47720104181E+03  0.00000000000E+00 0.  1.
        -24    2    1    2    0    0  0.48083874086E+03 -0.93182274878E+02 -0.38756382660E+02  0.49687691410E+03  0.74133524861E+02 0.  0.
        254    2    1    2    0    0 -0.48083874086E+03  0.93182274878E+02  0.10361454151E+04  0.14549142019E+04  0.89626401398E+03 0.  0.
         23    2    4    4    0    0 -0.17485732571E+03  0.45051102356E+03  0.29267517613E+03  0.57074367008E+03  0.80958702488E+02 0.  0.
         23    2    4    4    0    0 -0.30598141514E+03 -0.35732874868E+03  0.74347023893E+03  0.88417053184E+03  0.87755752831E+02 0.  0.
          1    1    3    3  502    0  0.51976863742E+02 -0.15837288774E+02  0.18393299675E+02  0.57364863402E+02  0.00000000000E+00 0. -1.
         -2    1    3    3    0  502  0.42886187712E+03 -0.77344986103E+02 -0.57149682335E+02  0.43951205070E+03  0.00000000000E+00 0.  1.
         11    1    5    5    0    0 -0.49794885090E+02  0.12941828574E+03  0.42901308732E+02  0.14515214624E+03  0.00000000000E+00 0.  1.
        -11    1    5    5    0    0 -0.12506244063E+03  0.32109273782E+03  0.24977386739E+03  0.42559152384E+03  0.00000000000E+00 0. -1.
          2    1    6    6  503    0 -0.26865933304E+03 -0.26328335701E+03  0.61050583751E+03  0.71708670392E+03  0.00000000000E+00 0.  1.
         -2    1    6    6    0  503 -0.37322082107E+02 -0.94045391675E+02  0.13296440142E+03  0.16708382792E+03  0.00000000000E+00 0. -1.
<mgrwt>
<rscale>  0 0.16777079E+04</rscale>
<asrwt>0</asrwt>
<pdfrwt beam="1">  1        1 0.22686001E+00 0.16777079E+04</pdfrwt>
<pdfrwt beam="2">  1       -2 0.73415545E-01 0.16777079E+04</pdfrwt>
<totfact> 0.95419347E+00</totfact>
</mgrwt>
</event>
<event>
12    4  0.4183215E-008  0.1451592E+04  0.7818608E-02  0.8917297E-01
          1   -1    0    0  501    0  0.00000000000E+00  0.00000000000E+00  0.16705780649E+04  0.16705780649E+04  0.00000000000E+00 0. -1.
         -2   -1    0    0    0  501 -0.00000000000E+00 -0.00000000000E+00 -0.31532795480E+03  0.31532795480E+03  0.00000000000E+00 0.  1.
        -24    2    1    2    0    0  0.36295026979E+03 -0.21988102318E+03  0.28895307681E+03  0.51970297454E+03  0.80726318187E+02 0.  0.
        254    2    1    2    0    0 -0.36295026979E+03  0.21988102318E+03  0.10662970333E+04  0.14662030452E+04  0.91251380470E+03 0.  0.
         23    2    4    4    0    0 -0.65229028024E+03  0.12366944465E+03  0.58136319071E+03  0.88741336685E+03  0.93501780308E+02 0.  0.
         23    2    4    4    0    0  0.28934001044E+03  0.96211578525E+02  0.48493384261E+03  0.57878967834E+03  0.82839305630E+02 0.  0.
          1    1    3    3  502    0  0.13588714298E+02 -0.31478050001E+02  0.31765143575E+02  0.46739117819E+02  0.00000000000E+00 0. -1.
         -2    1    3    3    0  502  0.34936155550E+03 -0.18840297317E+03  0.25718793323E+03  0.47296385672E+03  0.00000000000E+00 0.  1.
         11    1    5    5    0    0 -0.64659554301E+03  0.12533365344E+03  0.55774291488E+03  0.86305937224E+03  0.00000000000E+00 0. -1.
        -11    1    5    5    0    0 -0.56947372326E+01 -0.16642087933E+01  0.23620275828E+02  0.24353994606E+02  0.00000000000E+00 0.  1.
          1    1    6    6  503    0  0.18923337887E+03  0.57873059245E+02  0.38180498268E+03  0.43003907667E+03  0.00000000000E+00 0. -1.
         -1    1    6    6    0  503  0.10010663158E+03  0.38338519280E+02  0.10312885993E+03  0.14875060167E+03  0.00000000000E+00 0.  1.
<mgrwt>
<rscale>  0 0.14515922E+04</rscale>
<asrwt>0</asrwt>
<pdfrwt beam="1">  1        1 0.25701201E+00 0.14515922E+04</pdfrwt>
<pdfrwt beam="2">  1       -2 0.48511994E-01 0.14515922E+04</pdfrwt>
<totfact> 0.17123652E+01</totfact>
</mgrwt>
</event>
<event>
12    4  0.4183215E-008  0.2089611E+04  0.7818608E-02  0.8565834E-01
          3   -1    0    0  501    0  0.00000000000E+00  0.00000000000E+00  0.28199006885E+04  0.28199006885E+04  0.00000000000E+00 0. -1.
         -4   -1    0    0    0  501 -0.00000000000E+00 -0.00000000000E+00 -0.38711229118E+03  0.38711229118E+03  0.00000000000E+00 0.  1.
        -24    2    1    2    0    0 -0.77680106695E+02  0.44654175399E+03  0.21025761015E+04  0.21523252763E+04  0.79019588688E+02 0.  0.
        254    2    1    2    0    0  0.77680106695E+02 -0.44654175399E+03  0.33021229584E+03  0.10546877034E+04  0.89324814822E+03 0.  0.
         23    2    4    4    0    0 -0.28867712313E+03 -0.39571495626E+03 -0.69198237941E+02  0.50278649521E+03  0.89894691774E+02 0.  0.
         23    2    4    4    0    0  0.36635722983E+03 -0.50826797738E+02  0.39941053378E+03  0.55190120817E+03  0.90913067642E+02 0.  0.
          1    1    3    3  502    0 -0.80207197831E+02  0.28494079299E+03  0.14628067350E+04  0.14924570326E+04  0.00000000000E+00 0. -1.
         -2    1    3    3    0  502  0.25270911365E+01  0.16160096100E+03  0.63976936651E+03  0.65986824375E+03  0.00000000000E+00 0.  1.
         11    1    5    5    0    0 -0.26514363422E+03 -0.32427577859E+03 -0.81047095104E+02  0.42664336274E+03  0.00000000000E+00 0. -1.
        -11    1    5    5    0    0 -0.23533488909E+02 -0.71439177669E+02  0.11848857163E+02  0.76143132470E+02  0.00000000000E+00 0.  1.
          1    1    6    6  503    0  0.35190594361E+03 -0.66848572550E+02  0.38550320979E+03  0.52623117502E+03  0.00000000000E+00 0. -1.
         -1    1    6    6    0  503  0.14451286221E+02  0.16021774812E+02  0.13907323985E+02  0.25670033151E+02  0.00000000000E+00 0.  1.
<mgrwt>
<rscale>  0 0.20896107E+04</rscale>
<asrwt>0</asrwt>
<pdfrwt beam="1">  1        3 0.43383086E+00 0.20896107E+04</pdfrwt>
<pdfrwt beam="2">  1       -4 0.59555739E-01 0.20896107E+04</pdfrwt>
<totfact> 0.41777622E-02</totfact>
</mgrwt>
</event>
<event>
12    4  0.4183215E-008  0.1511998E+04  0.7818608E-02  0.8876513E-01
         -2   -1    0    0    0  501 -0.00000000000E+00  0.00000000000E+00  0.19137913372E+03  0.19137913372E+03  0.00000000000E+00 0.  1.
          1   -1    0    0  501    0  0.00000000000E+00 -0.00000000000E+00 -0.29863999955E+04  0.29863999955E+04  0.00000000000E+00 0. -1.
        -24    2    1    2    0    0  0.41127072422E+03  0.58235501884E+02 -0.43954340789E+03  0.61000063393E+03  0.79795887641E+02 0.  0.
        254    2    1    2    0    0 -0.41127072422E+03 -0.58235501884E+02 -0.23554774539E+04  0.25677784953E+04  0.93417203063E+03 0.  0.
         23    2    4    4    0    0 -0.56049969534E+03 -0.35472428700E+03 -0.17260514625E+04  0.18514458151E+04  0.92783224779E+02 0.  0.
         23    2    4    4    0    0  0.14922897111E+03  0.29648878511E+03 -0.62942599143E+03  0.71633268023E+03  0.82344062073E+02 0.  0.
          1    1    3    3  502    0  0.52001260951E+02  0.19019563976E+02 -0.98988754188E+02  0.11342243345E+03  0.00000000000E+00 0. -1.
         -2    1    3    3    0  502  0.35926946327E+03  0.39215937908E+02 -0.34055465371E+03  0.49657820047E+03  0.00000000000E+00 0.  1.
         11    1    5    5    0    0 -0.26425050186E+02 -0.31937190208E+02 -0.16869772917E+03  0.17371583469E+03  0.00000000000E+00 0. -1.
        -11    1    5    5    0    0 -0.53407464515E+03 -0.32278709679E+03 -0.15573537333E+04  0.16777299804E+04  0.00000000000E+00 0.  1.
          3    1    6    6  503    0  0.10375375863E+03  0.14940476144E+03 -0.40728710553E+03  0.44605987435E+03  0.00000000000E+00 0. -1.
         -3    1    6    6    0  503  0.45475212479E+02  0.14708402367E+03 -0.22213888590E+03  0.27027280588E+03  0.00000000000E+00 0.  1.
<mgrwt>
<rscale>  0 0.15119982E+04</rscale>
<asrwt>0</asrwt>
<pdfrwt beam="1">  1        1 0.45944613E+00 0.15119982E+04</pdfrwt>
<pdfrwt beam="2">  1       -2 0.29442945E-01 0.15119982E+04</pdfrwt>
<totfact> 0.55443489E+00</totfact>
</mgrwt>
</event>
<event>
12    4  0.4183215E-008  0.1494476E+04  0.7818608E-02  0.8888135E-01
         -2   -1    0    0    0  501 -0.00000000000E+00  0.00000000000E+00  0.11500247913E+04  0.11500247913E+04  0.00000000000E+00 0.  1.
          1   -1    0    0  501    0  0.00000000000E+00 -0.00000000000E+00 -0.48552394486E+03  0.48552394486E+03  0.00000000000E+00 0. -1.
        -24    2    1    2    0    0 -0.13130429917E+03 -0.41335879050E+03  0.38602224776E+02  0.44286056841E+03  0.80802491462E+02 0.  0.
        254    2    1    2    0    0  0.13130429917E+03  0.41335879050E+03  0.62589862162E+03  0.11926881677E+04  0.91795951554E+03 0.  0.
         23    2    4    4    0    0  0.30914511658E+03 -0.15649907701E+03  0.42561919055E+03  0.55662148027E+03  0.92806857122E+02 0.  0.
         23    2    4    4    0    0 -0.17784081740E+03  0.56985786751E+03  0.20027943108E+03  0.63606668743E+03  0.90020191331E+02 0.  0.
          3    1    3    3  502    0 -0.65327309507E+02 -0.32148052945E+03  0.30066910647E+02  0.32942587528E+03  0.00000000000E+00 0. -1.
         -4    1    3    3    0  502 -0.65976989667E+02 -0.91878261046E+02  0.85353141286E+01  0.11343469313E+03  0.00000000000E+00 0.  1.
         11    1    5    5    0    0  0.15058197926E+03 -0.30057400735E+02  0.21533116865E+03  0.26447285684E+03  0.00000000000E+00 0.  1.
        -11    1    5    5    0    0  0.15856313732E+03 -0.12644167628E+03  0.21028802190E+03  0.29214862343E+03  0.00000000000E+00 0. -1.
          2    1    6    6  503    0 -0.14482314534E+03  0.31490052070E+03  0.11244451452E+03  0.36438969553E+03  0.00000000000E+00 0. -1.
         -2    1    6    6    0  503 -0.33017672067E+02  0.25495734682E+03  0.87834916552E+02  0.27167699191E+03  0.00000000000E+00 0.  1.
<mgrwt>
<rscale>  0 0.14944759E+04</rscale>
<asrwt>0</asrwt>
<pdfrwt beam="1">  1        1 0.74695992E-01 0.14944759E+04</pdfrwt>
<pdfrwt beam="2">  1       -2 0.17692689E+00 0.14944759E+04</pdfrwt>
<totfact> 0.74326708E+00</totfact>
</mgrwt>
</event>
<event>
12    4  0.4183215E-008  0.1646675E+04  0.7818608E-02  0.8792376E-01
          1   -1    0    0  501    0  0.00000000000E+00  0.00000000000E+00  0.96667758570E+03  0.96667758570E+03  0.00000000000E+00 0. -1.
         -2   -1    0    0    0  501 -0.00000000000E+00 -0.00000000000E+00 -0.70125176700E+03  0.70125176700E+03  0.00000000000E+00 0.  1.
        -24    2    1    2    0    0 -0.33304237922E+03  0.34608094338E+01 -0.38049256474E+03  0.51201573138E+03  0.80351190403E+02 0.  0.
        254    2    1    2    0    0  0.33304237922E+03 -0.34608094338E+01  0.64591838345E+03  0.11559136213E+04  0.89888627663E+03 0.  0.
         23    2    4    4    0    0  0.43729477174E+03  0.34664131120E+03  0.49404143014E+03  0.75084178481E+03  0.91101784341E+02 0.  0.
         23    2    4    4    0    0 -0.10425239251E+03 -0.35010212064E+03  0.15187695331E+03  0.40507183650E+03  0.87043251109E+02 0.  0.
          3    1    3    3  502    0 -0.40221770792E+02 -0.17272164060E+02 -0.23020813961E+02  0.49457824178E+02  0.00000000000E+00 0. -1.
         -4    1    3    3    0  502 -0.29282060843E+03  0.20732973494E+02 -0.35747175078E+03  0.46255790720E+03  0.00000000000E+00 0.  1.
         11    1    5    5    0    0  0.32859145536E+03  0.22161207107E+03  0.30969502246E+03  0.50298634327E+03  0.00000000000E+00 0. -1.
        -11    1    5    5    0    0  0.10870331637E+03  0.12502924014E+03  0.18434640767E+03  0.24785544154E+03  0.00000000000E+00 0.  1.
          3    1    6    6  503    0 -0.62808953098E+02 -0.15945839053E+03  0.11535013619E+03  0.20658556779E+03  0.00000000000E+00 0. -1.
         -3    1    6    6    0  503 -0.41443439416E+02 -0.19064373011E+03  0.36526817120E+02  0.19848626872E+03  0.00000000000E+00 0.  1.
<mgrwt>
<rscale>  0 0.16466747E+04</rscale>
<asrwt>0</asrwt>
<pdfrwt beam="1">  1        1 0.14871963E+00 0.16466747E+04</pdfrwt>
<pdfrwt beam="2">  1       -2 0.10788489E+00 0.16466747E+04</pdfrwt>
<totfact> 0.92743903E+00</totfact>
</mgrwt>
</event>
<event>
12    4  0.4183215E-008  0.1411091E+04  0.7818608E-02  0.8945829E-01
         -2   -1    0    0    0  501 -0.00000000000E+00  0.00000000000E+00  0.86195173834E+03  0.86195173834E+03  0.00000000000E+00 0.  1.
          1   -1    0    0  501    0  0.00000000000E+00 -0.00000000000E+00 -0.57752026048E+03  0.57752026048E+03  0.00000000000E+00 0. -1.
        -24    2    1    2    0    0 -0.34043205695E+03 -0.10308629835E+03  0.26772674776E+03  0.45224372879E+03  0.79536208468E+02 0.  0.
        254    2    1    2    0    0  0.34043205695E+03  0.10308629835E+03  0.16704730098E+02  0.98722827003E+03  0.92077132820E+03 0.  0.
         23    2    4    4    0    0  0.51246329562E+03 -0.51027502612E+02  0.30671920513E+03  0.60614606402E+03  0.90077437508E+02 0.  0.
         23    2    4    4    0    0 -0.17203123868E+03  0.15411380096E+03 -0.29001447504E+03  0.38108220601E+03  0.88144434202E+02 0.  0.
          1    1    3    3  502    0 -0.20428300109E+03 -0.28617818185E+02  0.18123269463E+03  0.27458298136E+03  0.00000000000E+00 0. -1.
         -2    1    3    3    0  502 -0.13614905586E+03 -0.74468480162E+02  0.86494053135E+02  0.17766074743E+03  0.00000000000E+00 0.  1.
         11    1    5    5    0    0  0.44845725704E+02  0.11758987625E+02  0.53083295107E+02  0.70478713973E+02  0.00000000000E+00 0.  1.
        -11    1    5    5    0    0  0.46761756992E+03 -0.62786490237E+02  0.25363591003E+03  0.53566735005E+03  0.00000000000E+00 0. -1.
          4    1    6    6  503    0 -0.11955248873E+03  0.12902340897E+03 -0.15647369020E+03  0.23542271205E+03  0.00000000000E+00 0. -1.
         -4    1    6    6    0  503 -0.52478749945E+02  0.25090391984E+02 -0.13354078483E+03  0.14565949396E+03  0.00000000000E+00 0.  1.
<mgrwt>
<rscale>  0 0.14110912E+04</rscale>
<asrwt>0</asrwt>
<pdfrwt beam="1">  1        1 0.88849271E-01 0.14110912E+04</pdfrwt>
<pdfrwt beam="2">  1       -2 0.13260796E+00 0.14110912E+04</pdfrwt>
<totfact> 0.12730500E+01</totfact>
</mgrwt>
</event>
<event>
12    4  0.4183215E-008  0.1152982E+04  0.7818608E-02  0.9155037E-01
          3   -1    0    0  501    0  0.00000000000E+00  0.00000000000E+00  0.13732252086E+04  0.13732252086E+04  0.00000000000E+00 0. -1.
         -2   -1    0    0    0  501 -0.00000000000E+00 -0.00000000000E+00 -0.24201542197E+03  0.24201542197E+03  0.00000000000E+00 0.  1.
        -24    2    1    2    0    0  0.95515497748E+02  0.24108748487E+02  0.45650958338E+03  0.47379627689E+03  0.79859064661E+02 0.  0.
        254    2    1    2    0    0 -0.95515497748E+02 -0.24108748487E+02  0.67470020327E+03  0.11414443537E+04  0.91540723519E+03 0.  0.
         23    2    4    4    0    0  0.28148592102E+03 -0.18005170524E+03  0.46333605435E+00  0.34801847103E+03  0.97281556343E+02 0.  0.
         23    2    4    4    0    0 -0.37700141876E+03  0.15594295676E+03  0.67423686721E+03  0.79342588267E+03  0.92092359492E+02 0.  0.
          1    1    3    3  502    0  0.84949952520E+02  0.40976645582E+02  0.26554637344E+03  0.28179860958E+03  0.00000000000E+00 0. -1.
         -2    1    3    3    0  502  0.10565545228E+02 -0.16867897095E+02  0.19096320994E+03  0.19199766730E+03  0.00000000000E+00 0.  1.
         11    1    5    5    0    0  0.25916696531E+03 -0.14214704977E+03 -0.25922288077E+02  0.29672422329E+03  0.00000000000E+00 0.  1.
        -11    1    5    5    0    0  0.22318955706E+02 -0.37904655473E+02  0.26385624132E+02  0.51294247740E+02  0.00000000000E+00 0. -1.
          1    1    6    6  503    0 -0.83511857222E+02  0.45968375644E+02  0.93583772599E+02  0.13358609340E+03  0.00000000000E+00 0. -1.
         -1    1    6    6    0  503 -0.29348956154E+03  0.10997458111E+03  0.58065309461E+03  0.65983978927E+03  0.00000000000E+00 0.  1.
<mgrwt>
<rscale>  0 0.11529817E+04</rscale>
<asrwt>0</asrwt>
<pdfrwt beam="1">  1        3 0.21126541E+00 0.11529817E+04</pdfrwt>
<pdfrwt beam="2">  1       -2 0.37233143E-01 0.11529817E+04</pdfrwt>
<totfact> 0.34538831E+00</totfact>
</mgrwt>
</event>
<event>
12    4  0.4183215E-008  0.1395018E+04  0.7818608E-02  0.8957433E-01
         -2   -1    0    0    0  501 -0.00000000000E+00  0.00000000000E+00  0.18348787106E+03  0.18348787106E+03  0.00000000000E+00 0.  1.
          1   -1    0    0  501    0  0.00000000000E+00 -0.00000000000E+00 -0.26515044483E+04  0.26515044483E+04  0.00000000000E+00 0. -1.
        -24    2    1    2    0    0  0.26096681256E+02  0.51190242420E+02  0.85119590725E+02  0.12255932156E+03  0.66887703530E+02 0.  0.
        254    2    1    2    0    0 -0.26096681256E+02 -0.51190242420E+02 -0.25531361680E+04  0.27124329978E+04  0.91404977859E+03 0.  0.
         23    2    4    4    0    0 -0.36240222287E+03 -0.28785058571E+03 -0.16489685674E+04  0.17151385389E+04  0.91703547676E+02 0.  0.
         23    2    4    4    0    0  0.33630554161E+03  0.23666034329E+03 -0.90416760056E+03  0.99729445886E+03  0.89261707208E+02 0.  0.
          3    1    3    3  502    0  0.48569958275E+01 -0.90762396754E+01 -0.55037676925E+01  0.11673045615E+02  0.00000000000E+00 0. -1.
         -4    1    3    3    0  502  0.21239685428E+02  0.60266482095E+02  0.90623358417E+02  0.11088627594E+03  0.00000000000E+00 0.  1.
         11    1    5    5    0    0 -0.14233352982E+03 -0.58466504726E+02 -0.52565571558E+03  0.54771443034E+03  0.00000000000E+00 0. -1.
        -11    1    5    5    0    0 -0.22006869304E+03 -0.22938408099E+03 -0.11233128518E+04  0.11674241086E+04  0.00000000000E+00 0.  1.
          2    1    6    6  503    0  0.10832229488E+03  0.55918359141E+02 -0.36235122916E+03  0.38230746230E+03  0.00000000000E+00 0. -1.
         -2    1    6    6    0  503  0.22798324673E+03  0.18074198415E+03 -0.54181637140E+03  0.61498699656E+03  0.00000000000E+00 0.  1.
<mgrwt>
<rscale>  0 0.13950181E+04</rscale>
<asrwt>0</asrwt>
<pdfrwt beam="1">  1        1 0.40792374E+00 0.13950181E+04</pdfrwt>
<pdfrwt beam="2">  1       -2 0.28228905E-01 0.13950181E+04</pdfrwt>
<totfact> 0.10491404E+01</totfact>
</mgrwt>
</event>
<event>
12    4  0.4183215E-008  0.1374350E+04  0.7818608E-02  0.8972598E-01
          1   -1    0    0  501    0  0.00000000000E+00  0.00000000000E+00  0.49007710966E+03  0.49007710966E+03  0.00000000000E+00 0. -1.
         -2   -1    0    0    0  501 -0.00000000000E+00 -0.00000000000E+00 -0.96354104765E+03  0.96354104765E+03  0.00000000000E+00 0.  1.
        -24    2    1    2    0    0 -0.18147758449E+03 -0.81008972355E+01  0.22525705293E+03  0.30033409265E+03  0.80374679491E+02 0.  0.
        254    2    1    2    0    0  0.18147758449E+03  0.81008972355E+01 -0.69872099092E+03  0.11532840647E+04  0.89936275909E+03 0.  0.
         23    2    4    4    0    0 -0.29090487032E+01  0.34922289106E+03 -0.66092552734E+03  0.75320622479E+03  0.92368686052E+02 0.  0.
         23    2    4    4    0    0  0.18438663320E+03 -0.34112199382E+03 -0.37795463578E+02  0.40007783987E+03  0.90945784504E+02 0.  0.
          1    1    3    3  502    0 -0.94615084218E+02 -0.44061430409E+02  0.12618562401E+03  0.16375663503E+03  0.00000000000E+00 0. -1.
         -2    1    3    3    0  502 -0.86862500274E+02  0.35960533173E+02  0.99071428928E+02  0.13657745762E+03  0.00000000000E+00 0.  1.
         11    1    5    5    0    0 -0.43185790442E+02  0.25633058598E+03 -0.46984406390E+03  0.53695793708E+03  0.00000000000E+00 0.  1.
        -11    1    5    5    0    0  0.40276741738E+02  0.92892305077E+02 -0.19108146344E+03  0.21624828771E+03  0.00000000000E+00 0. -1.
          1    1    6    6  503    0  0.37134415095E+02 -0.84730793224E+02 -0.48023034719E+02  0.10423283537E+03  0.00000000000E+00 0. -1.
         -1    1    6    6    0  503  0.14725221810E+03 -0.25639120060E+03  0.10227571141E+02  0.29584500451E+03  0.00000000000E+00 0.  1.
<mgrwt>
<rscale>  0 0.13743499E+04</rscale>
<asrwt>0</asrwt>
<pdfrwt beam="1">  1        1 0.75396480E-01 0.13743499E+04</pdfrwt>
<pdfrwt beam="2">  1       -2 0.14823708E+00 0.13743499E+04</pdfrwt>
<totfact> 0.12024725E+01</totfact>
</mgrwt>
</event>
<event>
12    4  0.4183215E-008  0.1131223E+04  0.7818608E-02  0.9175283E-01
          1   -1    0    0  501    0  0.00000000000E+00  0.00000000000E+00  0.81693313455E+03  0.81693313455E+03  0.00000000000E+00 0. -1.
         -2   -1    0    0    0  501 -0.00000000000E+00 -0.00000000000E+00 -0.39160634392E+03  0.39160634392E+03  0.00000000000E+00 0.  1.
        -24    2    1    2    0    0 -0.21414384308E+03  0.23398889314E+02  0.21520029998E+03  0.31509359506E+03  0.81041415264E+02 0.  0.
        254    2    1    2    0    0  0.21414384308E+03 -0.23398889314E+02  0.21012649065E+03  0.89344588340E+03  0.84124152950E+03 0.  0.
         23    2    4    4    0    0  0.47018672037E+03  0.33049657868E+01 -0.89788958674E+02  0.48771773428E+03  0.93381242364E+02 0.  0.
         23    2    4    4    0    0 -0.25604287729E+03 -0.26703855101E+02  0.29991544932E+03  0.40572814912E+03  0.91624250930E+02 0.  0.
          3    1    3    3  502    0 -0.18616185115E+03  0.45271641187E+02  0.19839764927E+03  0.27580316089E+03  0.00000000000E+00 0. -1.
         -4    1    3    3    0  502 -0.27981991923E+02 -0.21872751873E+02  0.16802650711E+02  0.39290434172E+02  0.00000000000E+00 0.  1.
         11    1    5    5    0    0  0.16300194652E+03  0.45653443859E+02 -0.29759085453E+02  0.17187051717E+03  0.00000000000E+00 0.  1.
        -11    1    5    5    0    0  0.30718477384E+03 -0.42348478072E+02 -0.60029873221E+02  0.31584721711E+03  0.00000000000E+00 0. -1.
          4    1    6    6  503    0 -0.23927895234E+03  0.16857436516E+01  0.25142033893E+03  0.34708708647E+03  0.00000000000E+00 0. -1.
         -4    1    6    6    0  503 -0.16763924948E+02 -0.28389598753E+02  0.48495110390E+02  0.58641062650E+02  0.00000000000E+00 0.  1.
<mgrwt>
<rscale>  0 0.11312227E+04</rscale>
<asrwt>0</asrwt>
<pdfrwt beam="1">  1        1 0.12568202E+00 0.11312227E+04</pdfrwt>
<pdfrwt beam="2">  1       -2 0.60247130E-01 0.11312227E+04</pdfrwt>
<totfact> 0.47823344E+01</totfact>
</mgrwt>
</event>
<event>
12    4  0.4183215E-008  0.2107996E+04  0.7818608E-02  0.8557729E-01
          1   -1    0    0  501    0  0.00000000000E+00  0.00000000000E+00  0.11439572481E+04  0.11439572481E+04  0.00000000000E+00 0. -1.
         -2   -1    0    0    0  501 -0.00000000000E+00 -0.00000000000E+00 -0.97111304114E+03  0.97111304114E+03  0.00000000000E+00 0.  1.
        -24    2    1    2    0    0 -0.28267512927E+03  0.47117938393E+03 -0.58971193421E+03  0.80976728920E+03  0.77766681544E+02 0.  0.
        254    2    1    2    0    0  0.28267512927E+03 -0.47117938393E+03  0.76255614119E+03  0.13053030001E+04  0.90576421487E+03 0.  0.
         23    2    4    4    0    0  0.60548048185E+03 -0.28163439507E+03  0.45870964880E+03  0.81551362317E+03  0.93399043297E+02 0.  0.
         23    2    4    4    0    0 -0.32280535258E+03 -0.18954498886E+03  0.30384649240E+03  0.48978937689E+03  0.86257430510E+02 0.  0.
          3    1    3    3  502    0 -0.78767302530E+02  0.20397044224E+03 -0.24224122487E+03  0.32632658531E+03  0.00000000000E+00 0. -1.
         -4    1    3    3    0  502 -0.20390782674E+03  0.26720894169E+03 -0.34747070934E+03  0.48344070389E+03  0.00000000000E+00 0.  1.
         11    1    5    5    0    0  0.41236760578E+03 -0.20189810570E+03  0.26241647256E+03  0.52884051703E+03  0.00000000000E+00 0.  1.
        -11    1    5    5    0    0  0.19311287607E+03 -0.79736289366E+02  0.19629317624E+03  0.28667310614E+03  0.00000000000E+00 0. -1.
          2    1    6    6  503    0 -0.14540292187E+03 -0.97865291153E+02  0.19562810812E+03  0.26265944032E+03  0.00000000000E+00 0. -1.
         -2    1    6    6    0  503 -0.17740243071E+03 -0.91679697709E+02  0.10821838428E+03  0.22712993658E+03  0.00000000000E+00 0.  1.
<mgrwt>
<rscale>  0 0.21079960E+04</rscale>
<asrwt>0</asrwt>
<pdfrwt beam="1">  1        1 0.17599342E+00 0.21079960E+04</pdfrwt>
<pdfrwt beam="2">  1       -2 0.14940201E+00 0.21079960E+04</pdfrwt>
<totfact> 0.28688054E+00</totfact>
</mgrwt>
</event>
<event>
12    4  0.4183215E-008  0.2065197E+04  0.7818608E-02  0.8576731E-01
         -2   -1    0    0    0  501 -0.00000000000E+00  0.00000000000E+00  0.18850511628E+04  0.18850511628E+04  0.00000000000E+00 0.  1.
          1   -1    0    0  501    0  0.00000000000E+00 -0.00000000000E+00 -0.56563964820E+03  0.56563964820E+03  0.00000000000E+00 0. -1.
        -24    2    1    2    0    0 -0.42513193288E+03 -0.66755739642E+03  0.63671964790E+03  0.10179163307E+04  0.66118895272E+02 0.  0.
        254    2    1    2    0    0  0.42513193288E+03  0.66755739642E+03  0.68269186669E+03  0.14327744803E+04  0.98000229021E+03 0.  0.
         23    2    4    4    0    0  0.55375216370E+03  0.84205775110E+03  0.47039626432E+03  0.11158622436E+04  0.90405676066E+02 0.  0.
         23    2    4    4    0    0 -0.12862023082E+03 -0.17450035469E+03  0.21229560237E+03  0.31691223672E+03  0.91489919855E+02 0.  0.
          1    1    3    3  502    0 -0.22282675982E+03 -0.39454758606E+03  0.39223505479E+03  0.59930618282E+03  0.00000000000E+00 0. -1.
         -2    1    3    3    0  502 -0.20230517307E+03 -0.27300981035E+03  0.24448459312E+03  0.41861014784E+03  0.00000000000E+00 0.  1.
         11    1    5    5    0    0  0.46599977602E+03  0.67603133841E+03  0.34850308579E+03  0.89198013575E+03  0.00000000000E+00 0.  1.
        -11    1    5    5    0    0  0.87752387684E+02  0.16602641270E+03  0.12189317853E+03  0.22388210788E+03  0.00000000000E+00 0. -1.
          2    1    6    6  503    0 -0.67295172102E+02 -0.22530611003E+02  0.73334350071E+02  0.10204996581E+03  0.00000000000E+00 0. -1.
         -2    1    6    6    0  503 -0.61325058716E+02 -0.15196974368E+03  0.13896125229E+03  0.21486227091E+03  0.00000000000E+00 0.  1.
<mgrwt>
<rscale>  0 0.20651970E+04</rscale>
<asrwt>0</asrwt>
<pdfrwt beam="1">  1        1 0.87021485E-01 0.20651970E+04</pdfrwt>
<pdfrwt beam="2">  1       -2 0.29000787E+00 0.20651970E+04</pdfrwt>
<totfact> 0.11023117E+00</totfact>
</mgrwt>
</event>
<event>
12    4  0.4183215E-008  0.1464625E+04  0.7818608E-02  0.8908324E-01
         -2   -1    0    0    0  501 -0.00000000000E+00  0.00000000000E+00  0.43132827918E+03  0.43132827918E+03  0.00000000000E+00 0.  1.
          1   -1    0    0  501    0  0.00000000000E+00 -0.00000000000E+00 -0.12433255235E+04  0.12433255235E+04  0.00000000000E+00 0. -1.
        -24    2    1    2    0    0  0.34483097658E+03  0.12040930399E+03  0.56609538735E+02  0.37809886511E+03  0.79670000819E+02 0.  0.
        254    2    1    2    0    0 -0.34483097658E+03 -0.12040930399E+03 -0.86860678310E+03  0.12965549376E+04  0.89060101039E+03 0.  0.
         23    2    4    4    0    0 -0.49306291449E+02  0.36484882631E+03 -0.27041619479E+03  0.46623155093E+03  0.93280031336E+02 0.  0.
         23    2    4    4    0    0 -0.29552468513E+03 -0.48525813030E+03 -0.59819058831E+03  0.83032338668E+03  0.93779816465E+02 0.  0.
          1    1    3    3  502    0  0.15121481833E+03  0.53515016336E+02 -0.14980426123E+02  0.16110304597E+03  0.00000000000E+00 0. -1.
         -2    1    3    3    0  502  0.19361615825E+03  0.66894287657E+02  0.71589964858E+02  0.21699581914E+03  0.00000000000E+00 0.  1.
         11    1    5    5    0    0  0.18324642189E+02  0.11414710345E+03 -0.51335033190E+02  0.12649363371E+03  0.00000000000E+00 0. -1.
        -11    1    5    5    0    0 -0.67630933638E+02  0.25070172286E+03 -0.21908116160E+03  0.33973791722E+03  0.00000000000E+00 0.  1.
          3    1    6    6  503    0 -0.27785044171E+03 -0.39622586930E+03 -0.52201122133E+03  0.71182267641E+03  0.00000000000E+00 0. -1.
         -3    1    6    6    0  503 -0.17674243412E+02 -0.89032261002E+02 -0.76179366987E+02  0.11850071027E+03  0.00000000000E+00 0.  1.
<mgrwt>
<rscale>  0 0.14646248E+04</rscale>
<asrwt>0</asrwt>
<pdfrwt beam="1">  1        1 0.19128085E+00 0.14646248E+04</pdfrwt>
<pdfrwt beam="2">  1       -2 0.66358198E-01 0.14646248E+04</pdfrwt>
<totfact> 0.17653432E+01</totfact>
</mgrwt>
</event>
<event>
12    4  0.4183215E-008  0.1038615E+04  0.7818608E-02  0.9267178E-01
         -2   -1    0    0    0  501 -0.00000000000E+00  0.00000000000E+00  0.29011195001E+03  0.29011195001E+03  0.00000000000E+00 0.  1.
          1   -1    0    0  501    0  0.00000000000E+00 -0.00000000000E+00 -0.92957334164E+03  0.92957334164E+03  0.00000000000E+00 0. -1.
        -24    2    1    2    0    0  0.22429684669E+02 -0.52694918098E+01 -0.20002431108E+03  0.21592499958E+03  0.77993731302E+02 0.  0.
        254    2    1    2    0    0 -0.22429684669E+02  0.52694918098E+01 -0.43943708055E+03  0.10037602921E+04  0.90216346517E+03 0.  0.
         23    2    4    4    0    0 -0.25000887286E+03  0.25304048784E+03 -0.52848631637E+03  0.64359822600E+03  0.91580374097E+02 0.  0.
         23    2    4    4    0    0  0.22757918819E+03 -0.24777099603E+03  0.89049235826E+02  0.36016206607E+03  0.92758795097E+02 0.  0.
          3    1    3    3  502    0 -0.22479856667E+01  0.28180958309E+02 -0.14054315125E+03  0.14335828269E+03  0.00000000000E+00 0. -1.
         -4    1    3    3    0  502  0.24677670336E+02 -0.33450450119E+02 -0.59481159829E+02  0.72566716896E+02  0.00000000000E+00 0.  1.
         11    1    5    5    0    0 -0.15714801386E+03  0.95675838349E+02 -0.24656042364E+03  0.30763843519E+03  0.00000000000E+00 0. -1.
        -11    1    5    5    0    0 -0.92860859002E+02  0.15736464949E+03 -0.28192589274E+03  0.33595979081E+03  0.00000000000E+00 0.  1.
          2    1    6    6  503    0  0.14010190268E+02 -0.13727004182E+02 -0.17090562955E+02  0.26015445744E+02  0.00000000000E+00 0. -1.
         -2    1    6    6    0  503  0.21356899792E+03 -0.23404399185E+03  0.10613979878E+03  0.33414662033E+03  0.00000000000E+00 0.  1.
<mgrwt>
<rscale>  0 0.10386151E+04</rscale>
<asrwt>0</asrwt>
<pdfrwt beam="1">  1        1 0.14301128E+00 0.10386151E+04</pdfrwt>
<pdfrwt beam="2">  1       -2 0.44632607E-01 0.10386151E+04</pdfrwt>
<totfact> 0.71836408E+01</totfact>
</mgrwt>
</event>
<event>
12    4  0.4183215E-008  0.1548826E+04  0.7818608E-02  0.8852618E-01
          1   -1    0    0  501    0  0.00000000000E+00  0.00000000000E+00  0.27085358079E+04  0.27085358079E+04  0.00000000000E+00 0. -1.
         -2   -1    0    0    0  501 -0.00000000000E+00 -0.00000000000E+00 -0.22141692310E+03  0.22141692310E+03  0.00000000000E+00 0.  1.
        -24    2    1    2    0    0  0.51105829015E+03  0.74983092852E+02  0.72692237220E+03  0.89514400970E+03  0.77869267121E+02 0.  0.
        254    2    1    2    0    0 -0.51105829015E+03 -0.74983092852E+02  0.17601965126E+04  0.20348087213E+04  0.88054058914E+03 0.  0.
         23    2    4    4    0    0 -0.53002421603E+02 -0.41145563777E+03  0.55228746931E+03  0.69679217443E+03  0.91612701286E+02 0.  0.
         23    2    4    4    0    0 -0.45805586854E+03  0.33647254492E+03  0.12079090433E+04  0.13380165468E+04  0.90637026850E+02 0.  0.
          1    1    3    3  502    0  0.47732326202E+03  0.85931063572E+02  0.65566285677E+03  0.81554609060E+03  0.00000000000E+00 0. -1.
         -2    1    3    3    0  502  0.33735028126E+02 -0.10947970721E+02  0.71259515429E+02  0.79597919098E+02  0.00000000000E+00 0.  1.
         11    1    5    5    0    0 -0.19696758350E+02 -0.36569575649E+03  0.45315704085E+03  0.58264281706E+03  0.00000000000E+00 0. -1.
        -11    1    5    5    0    0 -0.33305663253E+02 -0.45759881277E+02  0.99130428464E+02  0.11414935736E+03  0.00000000000E+00 0.  1.
          3    1    6    6  503    0 -0.42878015052E+03  0.33748197876E+03  0.11585685477E+04  0.12806356169E+04  0.00000000000E+00 0. -1.
         -3    1    6    6    0  503 -0.29275718021E+02 -0.10094338442E+01  0.49340495570E+02  0.57380929981E+02  0.00000000000E+00 0.  1.
<mgrwt>
<rscale>  0 0.15488262E+04</rscale>
<asrwt>0</asrwt>
<pdfrwt beam="1">  1        1 0.41669779E+00 0.15488262E+04</pdfrwt>
<pdfrwt beam="2">  1       -2 0.34064144E-01 0.15488262E+04</pdfrwt>
<totfact> 0.66301271E+00</totfact>
</mgrwt>
</event>
<event>
12    4  0.4183215E-008  0.2755493E+04  0.7818608E-02  0.8317221E-01
         -2   -1    0    0    0  501 -0.00000000000E+00  0.00000000000E+00  0.94281514493E+03  0.94281514493E+03  0.00000000000E+00 0.  1.
          1   -1    0    0  501    0  0.00000000000E+00 -0.00000000000E+00 -0.20133166320E+04  0.20133166320E+04  0.00000000000E+00 0. -1.
        -24    2    1    2    0    0 -0.92880501880E+03  0.23277234487E+03 -0.13168625597E+04  0.16301305954E+04  0.79605459995E+02 0.  0.
        254    2    1    2    0    0  0.92880501880E+03 -0.23277234487E+03  0.24636107261E+03  0.13260011816E+04  0.88358566534E+03 0.  0.
         23    2    4    4    0    0 -0.67907005568E+02  0.18472351610E+03 -0.31867641662E+01  0.21297409598E+03  0.81324481481E+02 0.  0.
         23    2    4    4    0    0  0.99671202437E+03 -0.41749586097E+03  0.24954783678E+03  0.11130270856E+04  0.93901634749E+02 0.  0.
          3    1    3    3  502    0 -0.54524893243E+03  0.14672040934E+03 -0.83995520094E+03  0.10121007936E+04  0.00000000000E+00 0. -1.
         -4    1    3    3    0  502 -0.38355608637E+03  0.86051935536E+02 -0.47690735877E+03  0.61802980175E+03  0.00000000000E+00 0.  1.
         11    1    5    5    0    0 -0.68028783883E+02  0.18997634324E+03 -0.12612218140E+02  0.20218307168E+03  0.00000000000E+00 0. -1.
        -11    1    5    5    0    0  0.12177831536E+00 -0.52528271393E+01  0.94254539734E+01  0.10791024303E+02  0.00000000000E+00 0.  1.
          4    1    6    6  503    0  0.89727551922E+03 -0.40374877121E+03  0.21783071814E+03  0.10077532681E+04  0.00000000000E+00 0. -1.
         -4    1    6    6    0  503  0.99436505153E+02 -0.13747089755E+02  0.31717118641E+02  0.10527381749E+03  0.00000000000E+00 0.  1.
<mgrwt>
<rscale>  0 0.27554930E+04</rscale>
<asrwt>0</asrwt>
<pdfrwt beam="1">  1        1 0.30974102E+00 0.27554930E+04</pdfrwt>
<pdfrwt beam="2">  1       -2 0.14504848E+00 0.27554930E+04</pdfrwt>
<totfact> 0.72988270E-01</totfact>
</mgrwt>
</event>
<event>
12    4  0.4183215E-008  0.1063631E+04  0.7818608E-02  0.9241383E-01
          1   -1    0    0  501    0  0.00000000000E+00  0.00000000000E+00  0.20430950570E+04  0.20430950570E+04  0.00000000000E+00 0. -1.
         -2   -1    0    0    0  501 -0.00000000000E+00 -0.00000000000E+00 -0.13843095445E+03  0.13843095445E+03  0.00000000000E+00 0.  1.
        -24    2    1    2    0    0  0.23008648440E+02 -0.11873505026E+03  0.20247004522E+03  0.24865677347E+03  0.78795061508E+02 0.  0.
        254    2    1    2    0    0 -0.23008648440E+02  0.11873505026E+03  0.17021940573E+04  0.19328692380E+04  0.90768467666E+03 0.  0.
         23    2    4    4    0    0 -0.16315392882E+03  0.34837375741E+03  0.15710489550E+04  0.16198267722E+04  0.87524131230E+02 0.  0.
         23    2    4    4    0    0  0.14014528038E+03 -0.22963870715E+03  0.13114510231E+03  0.31304246577E+03  0.91770976262E+02 0.  0.
          3    1    3    3  502    0 -0.15124740343E+01 -0.45113692490E+02  0.18118596871E+02  0.48639658514E+02  0.00000000000E+00 0. -1.
         -4    1    3    3    0  502  0.24521122475E+02 -0.73621357774E+02  0.18435144835E+03  0.20001711496E+03  0.00000000000E+00 0.  1.
         11    1    5    5    0    0 -0.27597762921E+02  0.14259515715E+03  0.49142833675E+03  0.51244202162E+03  0.00000000000E+00 0.  1.
        -11    1    5    5    0    0 -0.13555616590E+03  0.20577860025E+03  0.10796206183E+04  0.11073847506E+04  0.00000000000E+00 0. -1.
          4    1    6    6  503    0  0.12171534766E+03 -0.22581746351E+03  0.97392339774E+02  0.27439646595E+03  0.00000000000E+00 0. -1.
         -4    1    6    6    0  503  0.18429932726E+02 -0.38212436366E+01  0.33752762537E+02  0.38645999820E+02  0.00000000000E+00 0.  1.
<mgrwt>
<rscale>  0 0.10636308E+04</rscale>
<asrwt>0</asrwt>
<pdfrwt beam="1">  1        1 0.31432229E+00 0.10636308E+04</pdfrwt>
<pdfrwt beam="2">  1       -2 0.21297071E-01 0.10636308E+04</pdfrwt>
<totfact> 0.46907120E+01</totfact>
</mgrwt>
</event>
<event>
12    4  0.4183215E-008  0.3102496E+04  0.7818608E-02  0.8215053E-01
         -2   -1    0    0    0  501 -0.00000000000E+00  0.00000000000E+00  0.60328025316E+03  0.60328025316E+03  0.00000000000E+00 0.  1.
          1   -1    0    0  501    0  0.00000000000E+00 -0.00000000000E+00 -0.39888091364E+04  0.39888091364E+04  0.00000000000E+00 0. -1.
        -24    2    1    2    0    0  0.10174936978E+04  0.40622257642E+02 -0.93405620568E+02  0.10255354898E+04  0.77812840243E+02 0.  0.
        254    2    1    2    0    0 -0.10174936978E+04 -0.40622257642E+02 -0.32921232627E+04  0.35665538997E+04  0.91939520906E+03 0.  0.
         23    2    4    4    0    0 -0.85899866375E+03  0.35707571700E+03 -0.22456238593E+04  0.24322008422E+04  0.85980504056E+02 0.  0.
         23    2    4    4    0    0 -0.15849503401E+03 -0.39769797464E+03 -0.10464994034E+04  0.11343530576E+04  0.91167446025E+02 0.  0.
          1    1    3    3  502    0  0.22166974309E+01  0.48857933185E+01 -0.34189854428E+00  0.53760225507E+01  0.00000000000E+00 0. -1.
         -2    1    3    3    0  502  0.10152770003E+04  0.35736464323E+02 -0.93063722024E+02  0.10201594673E+04  0.00000000000E+00 0.  1.
         11    1    5    5    0    0 -0.16858739423E+03  0.10253684845E+03 -0.42888827804E+03  0.47210239337E+03  0.00000000000E+00 0.  1.
        -11    1    5    5    0    0 -0.69041126952E+03  0.25453886855E+03 -0.18167355813E+04  0.19600984488E+04  0.00000000000E+00 0. -1.
          2    1    6    6  503    0 -0.71068138155E+02 -0.27883489244E+03 -0.74627321208E+03  0.79982703416E+03  0.00000000000E+00 0. -1.
         -2    1    6    6    0  503 -0.87426895852E+02 -0.11886308219E+03 -0.30022619127E+03  0.33452602343E+03  0.00000000000E+00 0.  1.
<mgrwt>
<rscale>  0 0.31024956E+04</rscale>
<asrwt>0</asrwt>
<pdfrwt beam="1">  1        1 0.61366295E+00 0.31024956E+04</pdfrwt>
<pdfrwt beam="2">  1       -2 0.92812345E-01 0.31024956E+04</pdfrwt>
<totfact> 0.71655632E-02</totfact>
</mgrwt>
</event>
<event>
12    4  0.4964832E-008  0.1365671E+04  0.7818608E-02  0.8979049E-01
         -2   -1    0    0    0  501 -0.00000000000E+00  0.00000000000E+00  0.36518822116E+03  0.36518822116E+03  0.00000000000E+00 0.  1.
          1   -1    0    0  501    0  0.00000000000E+00 -0.00000000000E+00 -0.12767785160E+04  0.12767785160E+04  0.00000000000E+00 0. -1.
        -24    2    1    2    0    0 -0.57212996830E+02  0.21888593132E+03 -0.61969768624E+03  0.66372091954E+03  0.72909936007E+02 0.  0.
        254    2    1    2    0    0  0.57212996830E+02 -0.21888593132E+03 -0.29189260857E+03  0.97824581760E+03  0.90585827080E+03 0.  0.
         23    2    4    4    0    0 -0.32692939737E+03 -0.81965428291E+02 -0.41570977826E+03  0.54249682610E+03  0.88808920110E+02 0.  0.
         23    2    4    4    0    0  0.38414239420E+03 -0.13692050303E+03  0.12381716969E+03  0.43574899150E+03  0.90740778660E+02 0.  0.
          3    1    3    3  502    0 -0.47682611901E+02  0.21090025782E+03 -0.61205641629E+03  0.64912680345E+03  0.00000000000E+00 0. -1.
         -4    1    3    3    0  502 -0.95303849295E+01  0.79856734994E+01 -0.76412699437E+01  0.14594116092E+02  0.00000000000E+00 0.  1.
         11    1    5    5    0    0 -0.20933861027E+03 -0.40794712093E+02 -0.32357530936E+03  0.38754076316E+03  0.00000000000E+00 0. -1.
        -11    1    5    5    0    0 -0.11759078710E+03 -0.41170716199E+02 -0.92134468903E+02  0.15495606294E+03  0.00000000000E+00 0.  1.
          1    1    6    6  503    0  0.34863385416E+03 -0.14185525002E+03  0.13220345713E+03  0.39893136039E+03  0.00000000000E+00 0. -1.
         -1    1    6    6    0  503  0.35508540035E+02  0.49347469882E+01 -0.83862874424E+01  0.36817631107E+02  0.00000000000E+00 0.  1.
<mgrwt>
<rscale>  0 0.13656712E+04</rscale>
<asrwt>0</asrwt>
<pdfrwt beam="1">  1        1 0.19642746E+00 0.13656712E+04</pdfrwt>
<pdfrwt beam="2">  1       -2 0.56182804E-01 0.13656712E+04</pdfrwt>
<totfact> 0.23970835E+01</totfact>
</mgrwt>
</event>
<event>
12    4  0.4366423E-008  0.1626920E+04  0.7818608E-02  0.8804178E-01
         -2   -1    0    0    0  501 -0.00000000000E+00  0.00000000000E+00  0.52525995641E+03  0.52525995641E+03  0.00000000000E+00 0.  1.
          1   -1    0    0  501    0  0.00000000000E+00 -0.00000000000E+00 -0.12597905074E+04  0.12597905074E+04  0.00000000000E+00 0. -1.
        -24    2    1    2    0    0 -0.37307192803E+03  0.39166435488E+03 -0.41460450750E+03  0.68635762431E+03  0.81278905226E+02 0.  0.
        254    2    1    2    0    0  0.37307192803E+03 -0.39166435488E+03 -0.31992604345E+03  0.10986928395E+04  0.90121565225E+03 0.  0.
         23    2    4    4    0    0  0.58686882490E+03 -0.22908181799E+03  0.43376420914E+02  0.63757794545E+03  0.87923976616E+02 0.  0.
         23    2    4    4    0    0 -0.21379689687E+03 -0.16258253689E+03 -0.36330246437E+03  0.46111489402E+03  0.92174131211E+02 0.  0.
          1    1    3    3  502    0 -0.35159210397E+03  0.36101768741E+03 -0.35666415575E+03  0.61738164711E+03  0.00000000000E+00 0. -1.
         -2    1    3    3    0  502 -0.21479824065E+02  0.30646667470E+02 -0.57940351749E+02  0.68975977192E+02  0.00000000000E+00 0.  1.
         11    1    5    5    0    0  0.57899083336E+03 -0.21122509786E+03  0.38834362847E+02  0.61753909579E+03  0.00000000000E+00 0. -1.
        -11    1    5    5    0    0  0.78779915326E+01 -0.17856720131E+02  0.45420580671E+01  0.20038849665E+02  0.00000000000E+00 0.  1.
          4    1    6    6  503    0 -0.15900003432E+03 -0.15170537405E+03 -0.23811812334E+03  0.32403051105E+03  0.00000000000E+00 0. -1.
         -4    1    6    6    0  503 -0.54796862546E+02 -0.10877162835E+02 -0.12518434102E+03  0.13708438297E+03  0.00000000000E+00 0.  1.
<mgrwt>
<rscale>  0 0.16269204E+04</rscale>
<asrwt>0</asrwt>
<pdfrwt beam="1">  1        1 0.19381392E+00 0.16269204E+04</pdfrwt>
<pdfrwt beam="2">  1       -2 0.80809225E-01 0.16269204E+04</pdfrwt>
<totfact> 0.10971771E+01</totfact>
</mgrwt>
</event>
<event>
12    4  0.4183215E-008  0.1545960E+04  0.7818608E-02  0.8854453E-01
         -2   -1    0    0    0  501 -0.00000000000E+00  0.00000000000E+00  0.38428576433E+03  0.38428576433E+03  0.00000000000E+00 0.  1.
          1   -1    0    0  501    0  0.00000000000E+00 -0.00000000000E+00 -0.15548268305E+04  0.15548268305E+04  0.00000000000E+00 0. -1.
        -24    2    1    2    0    0 -0.14999975844E+03  0.47418697542E+03 -0.59722278336E+03  0.78118301044E+03  0.78858275752E+02 0.  0.
        254    2    1    2    0    0  0.14999975844E+03 -0.47418697542E+03 -0.57331828279E+03  0.11579295844E+04  0.87450206047E+03 0.  0.
         23    2    4    4    0    0  0.36964641490E+03  0.50703641723E+02 -0.63747639320E+02  0.38892081325E+03  0.89366135246E+02 0.  0.
         23    2    4    4    0    0 -0.21964665646E+03 -0.52489061714E+03 -0.50957064347E+03  0.76900877111E+03  0.89204460063E+02 0.  0.
          3    1    3    3  502    0 -0.14657116838E+03  0.38269560851E+03 -0.45824491491E+03  0.61475803225E+03  0.00000000000E+00 0. -1.
         -4    1    3    3    0  502 -0.34285900610E+01  0.91491366903E+02 -0.13897786845E+03  0.16642497819E+03  0.00000000000E+00 0.  1.
         11    1    5    5    0    0  0.36682199268E+02 -0.11850749542E+01  0.19846921141E+02  0.41723955045E+02  0.00000000000E+00 0. -1.
        -11    1    5    5    0    0  0.33296421563E+03  0.51888716677E+02 -0.83594560461E+02  0.34719685821E+03  0.00000000000E+00 0.  1.
          3    1    6    6  503    0 -0.66132668614E+02 -0.21105231111E+03 -0.24982152609E+03  0.33365761310E+03  0.00000000000E+00 0. -1.
         -3    1    6    6    0  503 -0.15351398784E+03 -0.31383830603E+03 -0.25974911738E+03  0.43535115800E+03  0.00000000000E+00 0.  1.
<mgrwt>
<rscale>  0 0.15459597E+04</rscale>
<asrwt>0</asrwt>
<pdfrwt beam="1">  1        1 0.23920412E+00 0.15459597E+04</pdfrwt>
<pdfrwt beam="2">  1       -2 0.59120888E-01 0.15459597E+04</pdfrwt>
<totfact> 0.13546410E+01</totfact>
</mgrwt>
</event>
<event>
12    4  0.4183215E-008  0.1479510E+04  0.7818608E-02  0.8898194E-01
         -2   -1    0    0    0  501 -0.00000000000E+00  0.00000000000E+00  0.56748075028E+03  0.56748075028E+03  0.00000000000E+00 0.  1.
          1   -1    0    0  501    0  0.00000000000E+00 -0.00000000000E+00 -0.96432841659E+03  0.96432841659E+03  0.00000000000E+00 0. -1.
        -24    2    1    2    0    0  0.30100950786E+03  0.63189496971E+02 -0.47780459341E+03  0.57353402310E+03  0.77745802572E+02 0.  0.
        254    2    1    2    0    0 -0.30100950786E+03 -0.63189496971E+02  0.80956927098E+02  0.95827514377E+03  0.90395663103E+03 0.  0.
         23    2    4    4    0    0  0.13251572001E+03  0.29585190615E+03  0.17984051056E+03  0.38013210564E+03  0.84077595567E+02 0.  0.
         23    2    4    4    0    0 -0.43352522786E+03 -0.35904140312E+03 -0.98883583458E+02  0.57814303814E+03  0.87272888800E+02 0.  0.
          3    1    3    3  502    0  0.30374428786E+03  0.66369029301E+02 -0.45982366427E+03  0.55507048442E+03  0.00000000000E+00 0. -1.
         -4    1    3    3    0  502 -0.27347800016E+01 -0.31795323303E+01 -0.17980929146E+02  0.18463538676E+02  0.00000000000E+00 0.  1.
         11    1    5    5    0    0  0.14280465517E+03  0.27130695656E+03  0.15425071333E+03  0.34321118393E+03  0.00000000000E+00 0. -1.
        -11    1    5    5    0    0 -0.10288935160E+02  0.24544949595E+02  0.25589797231E+02  0.36920921707E+02  0.00000000000E+00 0.  1.
          3    1    6    6  503    0 -0.16798865373E+03 -0.13890828410E+03  0.46209349213E+01  0.21802993421E+03  0.00000000000E+00 0. -1.
         -3    1    6    6    0  503 -0.26553657413E+03 -0.22013311902E+03 -0.10350451838E+03  0.36011310393E+03  0.00000000000E+00 0.  1.
<mgrwt>
<rscale>  0 0.14795105E+04</rscale>
<asrwt>0</asrwt>
<pdfrwt beam="1">  1        1 0.14835822E+00 0.14795105E+04</pdfrwt>
<pdfrwt beam="2">  1       -2 0.87304732E-01 0.14795105E+04</pdfrwt>
<totfact> 0.15542155E+01</totfact>
</mgrwt>
</event>
<event>
12    4  0.4183215E-008  0.1862055E+04  0.7818608E-02  0.8673978E-01
          1   -1    0    0  501    0  0.00000000000E+00  0.00000000000E+00  0.18216838047E+04  0.18216838047E+04  0.00000000000E+00 0. -1.
         -2   -1    0    0    0  501 -0.00000000000E+00 -0.00000000000E+00 -0.47583018820E+03  0.47583018820E+03  0.00000000000E+00 0.  1.
        -24    2    1    2    0    0  0.15059287434E+03  0.64737882192E+03  0.20530924826E+03  0.70092320123E+03  0.85813132587E+02 0.  0.
        254    2    1    2    0    0 -0.15059287434E+03 -0.64737882192E+03  0.11405443682E+04  0.15965907916E+04  0.89804406752E+03 0.  0.
         23    2    4    4    0    0 -0.23724873302E+03 -0.47598968126E+03  0.12484714164E+04  0.13599438597E+04  0.88956653227E+02 0.  0.
         23    2    4    4    0    0  0.86655858682E+02 -0.17138914066E+03 -0.10792704818E+03  0.23664693189E+03  0.86429435167E+02 0.  0.
          1    1    3    3  502    0  0.32084747311E+02  0.28037357820E+03  0.11560076402E+03  0.30496280266E+03  0.00000000000E+00 0. -1.
         -2    1    3    3    0  502  0.11850812703E+03  0.36700524372E+03  0.89708484236E+02  0.39596039857E+03  0.00000000000E+00 0.  1.
         11    1    5    5    0    0 -0.65167107444E+02 -0.60323916843E+02  0.22942615287E+03  0.24601237053E+03  0.00000000000E+00 0. -1.
        -11    1    5    5    0    0 -0.17208162558E+03 -0.41566576441E+03  0.10190452635E+04  0.11139314892E+04  0.00000000000E+00 0.  1.
          4    1    6    6  503    0 -0.85416028836E+01 -0.65263251846E+02 -0.18562116557E+02  0.68387156634E+02  0.00000000000E+00 0. -1.
         -4    1    6    6    0  503  0.95197461566E+02 -0.10612588882E+03 -0.89364931619E+02  0.16825977526E+03  0.00000000000E+00 0.  1.
<mgrwt>
<rscale>  0 0.18620549E+04</rscale>
<asrwt>0</asrwt>
<pdfrwt beam="1">  1        1 0.28025904E+00 0.18620549E+04</pdfrwt>
<pdfrwt beam="2">  1       -2 0.73204645E-01 0.18620549E+04</pdfrwt>
<totfact> 0.54675413E+00</totfact>
</mgrwt>
</event>
<event>
12    4  0.4183215E-008  0.1495014E+04  0.7818608E-02  0.8887775E-01
          1   -1    0    0  501    0  0.00000000000E+00  0.00000000000E+00  0.15120336912E+04  0.15120336912E+04  0.00000000000E+00 0. -1.
         -2   -1    0    0    0  501 -0.00000000000E+00 -0.00000000000E+00 -0.36954655512E+03  0.36954655512E+03  0.00000000000E+00 0.  1.
        -24    2    1    2    0    0 -0.21135998197E+03  0.22685204957E+03  0.85169785434E+03  0.90992920118E+03  0.80293347804E+02 0.  0.
        254    2    1    2    0    0  0.21135998197E+03 -0.22685204957E+03  0.29078928175E+03  0.97165104515E+03  0.87373477257E+03 0.  0.
         23    2    4    4    0    0  0.11371108497E+02 -0.51654597139E+03  0.30689713913E+03  0.60793791568E+03  0.91943529682E+02 0.  0.
         23    2    4    4    0    0  0.19998887347E+03  0.28969392182E+03 -0.16107857383E+02  0.36371312947E+03  0.90053648618E+02 0.  0.
          1    1    3    3  502    0 -0.18221418469E+03  0.16167323523E+03  0.58161231837E+03  0.63056572454E+03  0.00000000000E+00 0. -1.
         -2    1    3    3    0  502 -0.29145797284E+02  0.65178814339E+02  0.27008553597E+03  0.27936347664E+03  0.00000000000E+00 0.  1.
         11    1    5    5    0    0 -0.81504007591E+01 -0.16460204681E+03  0.51536112772E+02  0.17267377846E+03  0.00000000000E+00 0.  1.
        -11    1    5    5    0    0  0.19521509256E+02 -0.35194392457E+03  0.25536102636E+03  0.43526413722E+03  0.00000000000E+00 0. -1.
          4    1    6    6  503    0  0.21716219048E+02  0.97344181239E+02 -0.18527735202E+02  0.10144338698E+03  0.00000000000E+00 0. -1.
         -4    1    6    6    0  503  0.17827265443E+03  0.19234974058E+03  0.24198778184E+01  0.26226974249E+03  0.00000000000E+00 0.  1.
<mgrwt>
<rscale>  0 0.14950142E+04</rscale>
<asrwt>0</asrwt>
<pdfrwt beam="1">  1        1 0.23262056E+00 0.14950142E+04</pdfrwt>
<pdfrwt beam="2">  1       -2 0.56853317E-01 0.14950142E+04</pdfrwt>
<totfact> 0.15808392E+01</totfact>
</mgrwt>
</event>
<event>
12    4  0.4183215E-008  0.2010623E+04  0.7818608E-02  0.8601670E-01
         -2   -1    0    0    0  501 -0.00000000000E+00  0.00000000000E+00  0.10516923726E+04  0.10516923726E+04  0.00000000000E+00 0.  1.
          1   -1    0    0  501    0  0.00000000000E+00 -0.00000000000E+00 -0.96097642937E+03  0.96097642937E+03  0.00000000000E+00 0. -1.
        -24    2    1    2    0    0 -0.27567666816E+03  0.33363504399E+03 -0.64292791194E+03  0.77913576547E+03  0.79914161123E+02 0.  0.
        254    2    1    2    0    0  0.27567666816E+03 -0.33363504399E+03  0.73364385512E+03  0.12335330365E+04  0.89222221332E+03 0.  0.
         23    2    4    4    0    0 -0.19059959969E+03 -0.45293202473E+03  0.34527502020E+03  0.60848974247E+03  0.97822802491E+02 0.  0.
         23    2    4    4    0    0  0.46627626784E+03  0.11929698075E+03  0.38836883492E+03  0.62504329399E+03  0.90572842801E+02 0.  0.
          3    1    3    3  502    0 -0.26557574746E+03  0.33319520621E+03 -0.63952661216E+03  0.76846848389E+03  0.00000000000E+00 0. -1.
         -4    1    3    3    0  502 -0.10100920691E+02  0.43983777955E+00 -0.34012997809E+01  0.10667281579E+02  0.00000000000E+00 0.  1.
         11    1    5    5    0    0 -0.13061174101E+03 -0.38992408579E+03  0.25910650019E+03  0.48604155996E+03  0.00000000000E+00 0.  1.
        -11    1    5    5    0    0 -0.59987858681E+02 -0.63007938940E+02  0.86168520010E+02  0.12244818251E+03  0.00000000000E+00 0. -1.
          3    1    6    6  503    0  0.20668380833E+03  0.29090174643E+02  0.11917685785E+03  0.24034882636E+03  0.00000000000E+00 0. -1.
         -3    1    6    6    0  503  0.25959245951E+03  0.90206806102E+02  0.26919197707E+03  0.38469446762E+03  0.00000000000E+00 0.  1.
<mgrwt>
<rscale>  0 0.20106234E+04</rscale>
<asrwt>0</asrwt>
<pdfrwt beam="1">  1        1 0.14784253E+00 0.20106234E+04</pdfrwt>
<pdfrwt beam="2">  1       -2 0.16179883E+00 0.20106234E+04</pdfrwt>
<totfact> 0.32235159E+00</totfact>
</mgrwt>
</event>
<event>
12    4  0.4183215E-008  0.1555618E+04  0.7818608E-02  0.8848288E-01
         -2   -1    0    0    0  501 -0.00000000000E+00  0.00000000000E+00  0.19081579348E+03  0.19081579348E+03  0.00000000000E+00 0.  1.
          1   -1    0    0  501    0  0.00000000000E+00 -0.00000000000E+00 -0.31705263269E+04  0.31705263269E+04  0.00000000000E+00 0. -1.
        -24    2    1    2    0    0 -0.44683070958E+03 -0.76183901029E+02 -0.47250273595E+03  0.65859060245E+03  0.70859553779E+02 0.  0.
        254    2    1    2    0    0  0.44683070958E+03  0.76183901029E+02 -0.25072077975E+04  0.27027515179E+04  0.90183876505E+03 0.  0.
         23    2    4    4    0    0  0.27951630318E+03 -0.34543960389E+03 -0.18087903256E+04  0.18652419912E+04  0.99736453370E+02 0.  0.
         23    2    4    4    0    0  0.16731440639E+03  0.42162350492E+03 -0.69841747185E+03  0.83750952669E+03  0.88739798401E+02 0.  0.
          3    1    3    3  502    0 -0.99993136027E+02 -0.86943744733E+01 -0.14815347906E+03  0.17895159334E+03  0.00000000000E+00 0. -1.
         -4    1    3    3    0  502 -0.34683757355E+03 -0.67489526556E+02 -0.32434925689E+03  0.47963900911E+03  0.00000000000E+00 0.  1.
         11    1    5    5    0    0  0.21230293530E+03 -0.31851451570E+03 -0.14988959790E+04  0.15470013539E+04  0.00000000000E+00 0.  1.
        -11    1    5    5    0    0  0.67213367886E+02 -0.26925088187E+02 -0.30989434657E+03  0.31824063731E+03  0.00000000000E+00 0. -1.
          2    1    6    6  503    0  0.26926426168E+02  0.15799055739E+03 -0.19803065153E+03  0.25475907755E+03  0.00000000000E+00 0. -1.
         -2    1    6    6    0  503  0.14038798022E+03  0.26363294753E+03 -0.50038682033E+03  0.58275044914E+03  0.00000000000E+00 0.  1.
<mgrwt>
<rscale>  0 0.15556176E+04</rscale>
<asrwt>0</asrwt>
<pdfrwt beam="1">  1        1 0.48777331E+00 0.15556176E+04</pdfrwt>
<pdfrwt beam="2">  1       -2 0.29356274E-01 0.15556176E+04</pdfrwt>
<totfact> 0.40671159E+00</totfact>
</mgrwt>
</event>
<event>
12    4  0.4183215E-008  0.2066924E+04  0.7818608E-02  0.8575955E-01
          1   -1    0    0  501    0  0.00000000000E+00  0.00000000000E+00  0.11074067928E+04  0.11074067928E+04  0.00000000000E+00 0. -1.
         -2   -1    0    0    0  501 -0.00000000000E+00 -0.00000000000E+00 -0.96445506941E+03  0.96445506941E+03  0.00000000000E+00 0.  1.
        -24    2    1    2    0    0 -0.83305261228E+03  0.22488346065E+02 -0.33021182311E+01  0.83715148930E+03  0.79557095957E+02 0.  0.
        254    2    1    2    0    0  0.83305261228E+03 -0.22488346065E+02  0.14625384163E+03  0.12347103729E+04  0.89924253585E+03 0.  0.
         23    2    4    4    0    0  0.51898552752E+03  0.29725278997E+03  0.38684737996E+03  0.71796060605E+03  0.90062964374E+02 0.  0.
         23    2    4    4    0    0  0.31406708477E+03 -0.31974113603E+03 -0.24059353833E+03  0.51674976687E+03  0.90953521493E+02 0.  0.
          3    1    3    3  502    0 -0.35550109504E+03 -0.19695064463E+02 -0.27684090585E+02  0.35712089411E+03  0.00000000000E+00 0. -1.
         -4    1    3    3    0  502 -0.47755151724E+03  0.42183410527E+02  0.24381972354E+02  0.48003059519E+03  0.00000000000E+00 0.  1.
         11    1    5    5    0    0  0.51814937908E+03  0.28659167637E+03  0.38679778907E+03  0.70726663829E+03  0.00000000000E+00 0. -1.
        -11    1    5    5    0    0  0.83614843592E+00  0.10661113596E+02  0.49590886720E-01  0.10693967766E+02  0.00000000000E+00 0.  1.
          2    1    6    6  503    0  0.27504747289E+03 -0.23645350585E+03 -0.16878130274E+03  0.40006062157E+03  0.00000000000E+00 0. -1.
         -2    1    6    6    0  503  0.39019611876E+02 -0.83287630178E+02 -0.71812235591E+02  0.11668914531E+03  0.00000000000E+00 0.  1.
<mgrwt>
<rscale>  0 0.20669244E+04</rscale>
<asrwt>0</asrwt>
<pdfrwt beam="1">  1        1 0.17037028E+00 0.20669244E+04</pdfrwt>
<pdfrwt beam="2">  1       -2 0.14837770E+00 0.20669244E+04</pdfrwt>
<totfact> 0.31219990E+00</totfact>
</mgrwt>
</event>
<event>
12    4  0.4183215E-008  0.1740034E+04  0.7818608E-02  0.8738855E-01
          1   -1    0    0  501    0  0.00000000000E+00  0.00000000000E+00  0.22753228661E+04  0.22753228661E+04  0.00000000000E+00 0. -1.
         -2   -1    0    0    0  501 -0.00000000000E+00 -0.00000000000E+00 -0.33266897810E+03  0.33266897810E+03  0.00000000000E+00 0.  1.
        -24    2    1    2    0    0  0.35375877775E+03  0.50661706102E+03  0.47630499913E+03  0.78423588751E+03  0.79707940165E+02 0.  0.
        254    2    1    2    0    0 -0.35375877775E+03 -0.50661706102E+03  0.14663488889E+04  0.18237559567E+04  0.89112322735E+03 0.  0.
         23    2    4    4    0    0 -0.54872336645E+03 -0.61936625925E+03  0.12260265952E+04  0.14819186717E+04  0.90718472189E+02 0.  0.
         23    2    4    4    0    0  0.19496458870E+03  0.11274919823E+03  0.24032229366E+03  0.34183728505E+03  0.91511486000E+02 0.  0.
          3    1    3    3  502    0  0.96577688691E+02  0.12728511718E+03  0.16825681491E+03  0.23203255542E+03  0.00000000000E+00 0. -1.
         -4    1    3    3    0  502  0.25718108906E+03  0.37933194383E+03  0.30804818422E+03  0.55220333210E+03  0.00000000000E+00 0.  1.
         11    1    5    5    0    0 -0.24819811477E+03 -0.31673542630E+03  0.66352984251E+03  0.77601255554E+03  0.00000000000E+00 0. -1.
        -11    1    5    5    0    0 -0.30052525169E+03 -0.30263083294E+03  0.56249675273E+03  0.70590611612E+03  0.00000000000E+00 0.  1.
          2    1    6    6  503    0  0.51192029167E+02  0.47907247078E+02  0.23963088439E+02  0.74094249307E+02  0.00000000000E+00 0. -1.
         -2    1    6    6    0  503  0.14377255954E+03  0.64841951152E+02  0.21635920522E+03  0.26774303574E+03  0.00000000000E+00 0.  1.
<mgrwt>
<rscale>  0 0.17400337E+04</rscale>
<asrwt>0</asrwt>
<pdfrwt beam="1">  1        1 0.35004966E+00 0.17400337E+04</pdfrwt>
<pdfrwt beam="2">  1       -2 0.51179844E-01 0.17400337E+04</pdfrwt>
<totfact> 0.58183902E+00</totfact>
</mgrwt>
</event>
<event>
12    4  0.4183215E-008  0.1294743E+04  0.7818608E-02  0.9033745E-01
          1   -1    0    0  501    0  0.00000000000E+00  0.00000000000E+00  0.17540583664E+04  0.17540583664E+04  0.00000000000E+00 0. -1.
         -2   -1    0    0    0  501 -0.00000000000E+00 -0.00000000000E+00 -0.23892568271E+03  0.23892568271E+03  0.00000000000E+00 0.  1.
        -24    2    1    2    0    0  0.54017353469E+02  0.11811995568E+03  0.88978971183E+03  0.90281446528E+03  0.80486203998E+02 0.  0.
        254    2    1    2    0    0 -0.54017353469E+02 -0.11811995568E+03  0.62534297183E+03  0.10901695838E+04  0.88348496909E+03 0.  0.
         23    2    4    4    0    0 -0.13974765521E+03 -0.96844507251E+02 -0.18673677901E+03  0.26841358956E+03  0.90922850301E+02 0.  0.
         23    2    4    4    0    0  0.85730301739E+02 -0.21275448434E+02  0.81207975083E+03  0.82175599423E+03  0.89482193720E+02 0.  0.
          1    1    3    3  502    0  0.57754242555E+02  0.82962885071E+02  0.43233001658E+03  0.44399058105E+03  0.00000000000E+00 0. -1.
         -2    1    3    3    0  502 -0.37368890862E+01  0.35157070614E+02  0.45745969526E+03  0.45882388423E+03  0.00000000000E+00 0.  1.
         11    1    5    5    0    0 -0.23493738092E+02  0.17717083147E+02 -0.32667890163E+02  0.43966371382E+02  0.00000000000E+00 0.  1.
        -11    1    5    5    0    0 -0.11625391712E+03 -0.11456159040E+03 -0.15406888885E+03  0.22444721818E+03  0.00000000000E+00 0. -1.
          2    1    6    6  503    0  0.49463806845E+02 -0.52861964741E+02  0.36600232252E+03  0.37309349444E+03  0.00000000000E+00 0.  1.
         -2    1    6    6    0  503  0.36266494895E+02  0.31586516307E+02  0.44607742832E+03  0.44866249979E+03  0.00000000000E+00 0. -1.
<mgrwt>
<rscale>  0 0.12947426E+04</rscale>
<asrwt>0</asrwt>
<pdfrwt beam="1">  1        1 0.26985513E+00 0.12947426E+04</pdfrwt>
<pdfrwt beam="2">  1       -2 0.36757798E-01 0.12947426E+04</pdfrwt>
<totfact> 0.26342409E+01</totfact>
</mgrwt>
</event>
<event>
12    4  0.4499228E-008  0.1893116E+04  0.7818608E-02  0.8658290E-01
         -2   -1    0    0    0  501 -0.00000000000E+00  0.00000000000E+00  0.34997886213E+03  0.34997886213E+03  0.00000000000E+00 0.  1.
          1   -1    0    0  501    0  0.00000000000E+00 -0.00000000000E+00 -0.25600760041E+04  0.25600760041E+04  0.00000000000E+00 0. -1.
        -24    2    1    2    0    0  0.66380385547E+03 -0.20737153403E+03 -0.50936983783E+03  0.86553133062E+03  0.77771080188E+02 0.  0.
        254    2    1    2    0    0 -0.66380385547E+03  0.20737153403E+03 -0.17007273041E+04  0.20445235356E+04  0.89664073797E+03 0.  0.
         23    2    4    4    0    0 -0.27238103332E+03  0.35604752325E+03 -0.23041827106E+03  0.51311880081E+03  0.96109614385E+02 0.  0.
         23    2    4    4    0    0 -0.39142282215E+03 -0.14867598922E+03 -0.14703090331E+04  0.15314047348E+04  0.89863416353E+02 0.  0.
          3    1    3    3  502    0  0.11915485002E+02 -0.92637797406E+01 -0.41950948486E+00  0.15098754456E+02  0.00000000000E+00 0. -1.
         -4    1    3    3    0  502  0.65188837047E+03 -0.19810775429E+03 -0.50895032835E+03  0.85043257616E+03  0.00000000000E+00 0.  1.
         11    1    5    5    0    0 -0.78642156016E+01  0.95047719466E+01 -0.31679175566E+02  0.33996422478E+02  0.00000000000E+00 0. -1.
        -11    1    5    5    0    0 -0.26451681772E+03  0.34654275130E+03 -0.19873909550E+03  0.47912237833E+03  0.00000000000E+00 0.  1.
          4    1    6    6  503    0 -0.24227537055E+02  0.12461154712E+02 -0.92231848026E+02  0.96171553584E+02  0.00000000000E+00 0. -1.
         -4    1    6    6    0  503 -0.36719528510E+03 -0.16113714393E+03 -0.13780771850E+04  0.14352331812E+04  0.00000000000E+00 0.  1.
<mgrwt>
<rscale>  0 0.18931165E+04</rscale>
<asrwt>0</asrwt>
<pdfrwt beam="1">  1        1 0.39385784E+00 0.18931165E+04</pdfrwt>
<pdfrwt beam="2">  1       -2 0.53842903E-01 0.18931165E+04</pdfrwt>
<totfact> 0.32906554E+00</totfact>
</mgrwt>
</event>
<event>
12    4  0.4183215E-008  0.1596109E+04  0.7818608E-02  0.8822942E-01
         -2   -1    0    0    0  501 -0.00000000000E+00  0.00000000000E+00  0.19710961492E+03  0.19710961492E+03  0.00000000000E+00 0.  1.
          1   -1    0    0  501    0  0.00000000000E+00 -0.00000000000E+00 -0.32311499901E+04  0.32311499901E+04  0.00000000000E+00 0. -1.
        -24    2    1    2    0    0 -0.26084073829E+03 -0.44706674562E+03 -0.66871890872E+03  0.84913644835E+03  0.77078941581E+02 0.  0.
        254    2    1    2    0    0  0.26084073829E+03  0.44706674562E+03 -0.23653214664E+04  0.25791231566E+04  0.88838282951E+03 0.  0.
         23    2    4    4    0    0  0.53392439598E+03  0.61722683527E+02 -0.11712184591E+04  0.12919061333E+04  0.91563245743E+02 0.  0.
         23    2    4    4    0    0 -0.27308365768E+03  0.38534406210E+03 -0.11941030073E+04  0.12872170233E+04  0.89336122857E+02 0.  0.
          1    1    3    3  502    0 -0.19181885071E+03 -0.28344674732E+03 -0.48520841113E+03  0.59377077419E+03  0.00000000000E+00 0. -1.
         -2    1    3    3    0  502 -0.69021887587E+02 -0.16361999831E+03 -0.18351049759E+03  0.25536567416E+03  0.00000000000E+00 0.  1.
         11    1    5    5    0    0  0.38253613649E+03  0.47692371966E+01 -0.78826640789E+03  0.87619665096E+03  0.00000000000E+00 0.  1.
        -11    1    5    5    0    0  0.15138825948E+03  0.56953446330E+02 -0.38295205123E+03  0.41570948233E+03  0.00000000000E+00 0. -1.
          3    1    6    6  503    0 -0.16057374776E+03  0.17482057581E+03 -0.50662128854E+03  0.55947412112E+03  0.00000000000E+00 0. -1.
         -3    1    6    6    0  503 -0.11250990992E+03  0.21052348629E+03 -0.68748171875E+03  0.72774290222E+03  0.00000000000E+00 0.  1.
<mgrwt>
<rscale>  0 0.15961087E+04</rscale>
<asrwt>0</asrwt>
<pdfrwt beam="1">  1        1 0.49709995E+00 0.15961087E+04</pdfrwt>
<pdfrwt beam="2">  1       -2 0.30324559E-01 0.15961087E+04</pdfrwt>
<totfact> 0.34359044E+00</totfact>
</mgrwt>
</event>
<event>
12    4  0.4183215E-008  0.1952098E+04  0.7818608E-02  0.8629350E-01
         -2   -1    0    0    0  501 -0.00000000000E+00  0.00000000000E+00  0.27385254725E+03  0.27385254725E+03  0.00000000000E+00 0.  1.
          1   -1    0    0  501    0  0.00000000000E+00 -0.00000000000E+00 -0.34787751334E+04  0.34787751334E+04  0.00000000000E+00 0. -1.
        -24    2    1    2    0    0 -0.50017666518E+03  0.56923239587E+03 -0.15004171240E+04  0.16827659826E+04  0.79041693983E+02 0.  0.
        254    2    1    2    0    0  0.50017666518E+03 -0.56923239587E+03 -0.17045054621E+04  0.20698616980E+04  0.89709885831E+03 0.  0.
         23    2    4    4    0    0  0.14688516921E+03  0.19344384160E+03 -0.75385074879E+03  0.79763625226E+03  0.94535002470E+02 0.  0.
         23    2    4    4    0    0  0.35329149597E+03 -0.76267623747E+03 -0.95065471333E+03  0.12722254457E+04  0.91231992687E+02 0.  0.
          1    1    3    3  502    0 -0.49185624858E+03  0.54505401232E+03 -0.14229006391E+04  0.16011410538E+04  0.00000000000E+00 0. -1.
         -4    1    3    3    0  502 -0.83204165964E+01  0.24178383546E+02 -0.77516484952E+02  0.81624928806E+02  0.00000000000E+00 0.  1.
         11    1    5    5    0    0  0.11232801768E+03  0.17634319031E+03 -0.51715323659E+03  0.55781894414E+03  0.00000000000E+00 0. -1.
        -11    1    5    5    0    0  0.34557151533E+02  0.17100651292E+02 -0.23669751220E+03  0.23981730813E+03  0.00000000000E+00 0.  1.
          1    1    6    6  503    0  0.56236453600E+02 -0.16332936000E+03 -0.24642190743E+03  0.30093649664E+03  0.00000000000E+00 0. -1.
         -1    1    6    6    0  503  0.29705504237E+03 -0.59934687747E+03 -0.70423280590E+03  0.97128894910E+03  0.00000000000E+00 0.  1.
<mgrwt>
<rscale>  0 0.19520978E+04</rscale>
<asrwt>0</asrwt>
<pdfrwt beam="1">  1        1 0.53519616E+00 0.19520978E+04</pdfrwt>
<pdfrwt beam="2">  1       -2 0.42131162E-01 0.19520978E+04</pdfrwt>
<totfact> 0.11401360E+00</totfact>
</mgrwt>
</event>
<event>
12    4  0.4183215E-008  0.1106459E+04  0.7818608E-02  0.9198919E-01
          1   -1    0    0  501    0  0.00000000000E+00  0.00000000000E+00  0.16601532871E+04  0.16601532871E+04  0.00000000000E+00 0. -1.
         -2   -1    0    0    0  501 -0.00000000000E+00 -0.00000000000E+00 -0.18435834178E+03  0.18435834178E+03  0.00000000000E+00 0.  1.
        -24    2    1    2    0    0 -0.10593640817E+03  0.38993786920E+02  0.40459971293E+02  0.14344244869E+03  0.78712697925E+02 0.  0.
        254    2    1    2    0    0  0.10593640817E+03 -0.38993786920E+02  0.14353349741E+04  0.17010691802E+04  0.90592871142E+03 0.  0.
         23    2    4    4    0    0 -0.19830698999E+02  0.38286612636E+03  0.35454582229E+03  0.53045988140E+03  0.93301759528E+02 0.  0.
         23    2    4    4    0    0  0.12576710717E+03 -0.42185991328E+03  0.10807891518E+04  0.11706092988E+04  0.91857434387E+02 0.  0.
          1    1    3    3  502    0  0.76890933911E+00  0.48707241790E+01  0.30584456273E+02  0.30979414796E+02  0.00000000000E+00 0. -1.
         -2    1    3    3    0  502 -0.10670531751E+03  0.34123062741E+02  0.98755150209E+01  0.11246303390E+03  0.00000000000E+00 0.  1.
         11    1    5    5    0    0  0.22963157851E+02  0.26689746773E+03  0.27233819165E+03  0.38200740245E+03  0.00000000000E+00 0. -1.
        -11    1    5    5    0    0 -0.42793856850E+02  0.11596865863E+03  0.82207630642E+02  0.14845247894E+03  0.00000000000E+00 0.  1.
          1    1    6    6  503    0  0.69085443136E+02 -0.33853476315E+03  0.77199063578E+03  0.84578255245E+03  0.00000000000E+00 0. -1.
         -1    1    6    6    0  503  0.56681664036E+02 -0.83325150134E+02  0.30879851599E+03  0.32482674637E+03  0.00000000000E+00 0.  1.
<mgrwt>
<rscale>  0 0.11064594E+04</rscale>
<asrwt>0</asrwt>
<pdfrwt beam="1">  1        1 0.25540819E+00 0.11064594E+04</pdfrwt>
<pdfrwt beam="2">  1       -2 0.28362823E-01 0.11064594E+04</pdfrwt>
<totfact> 0.50519532E+01</totfact>
</mgrwt>
</event>
<event>
12    4  0.4183215E-008  0.3227007E+04  0.7818608E-02  0.8181721E-01
         -2   -1    0    0    0  501 -0.00000000000E+00  0.00000000000E+00  0.11130488250E+04  0.11130488250E+04  0.00000000000E+00 0.  1.
          1   -1    0    0  501    0  0.00000000000E+00 -0.00000000000E+00 -0.23389757341E+04  0.23389757341E+04  0.00000000000E+00 0. -1.
        -24    2    1    2    0    0  0.58845148055E+03  0.12255500839E+04 -0.11930361058E+04  0.18104712690E+04  0.78885441881E+02 0.  0.
        254    2    1    2    0    0 -0.58845148055E+03 -0.12255500839E+04 -0.32890803398E+02  0.16415532902E+04  0.91943854955E+03 0.  0.
         23    2    4    4    0    0  0.20183503085E+03 -0.16015222396E+03 -0.13743890191E+03  0.30750739861E+03  0.96359918669E+02 0.  0.
         23    2    4    4    0    0 -0.79028651140E+03 -0.10653978600E+04  0.10454809851E+03  0.13340458916E+04  0.95513170853E+02 0.  0.
          1    1    3    3  502    0  0.46034981672E+03  0.92726590050E+03 -0.94825461265E+03  0.14038984345E+04  0.00000000000E+00 0. -1.
         -2    1    3    3    0  502  0.12810166383E+03  0.29828418341E+03 -0.24478149312E+03  0.40657283446E+03  0.00000000000E+00 0.  1.
         11    1    5    5    0    0  0.21148926053E+03 -0.14368176557E+03 -0.13149654318E+03  0.28751260485E+03  0.00000000000E+00 0. -1.
        -11    1    5    5    0    0 -0.96542296857E+01 -0.16470458387E+02 -0.59423587309E+01  0.19994793762E+02  0.00000000000E+00 0.  1.
          2    1    6    6  503    0 -0.67692775970E+03 -0.91151260128E+03  0.55564032857E+02  0.11367382178E+04  0.00000000000E+00 0. -1.
         -2    1    6    6    0  503 -0.11335875170E+03 -0.15388525868E+03  0.48984065655E+02  0.19730767373E+03  0.00000000000E+00 0.  1.
<mgrwt>
<rscale>  0 0.32270074E+04</rscale>
<asrwt>0</asrwt>
<pdfrwt beam="1">  1        1 0.35984242E+00 0.32270074E+04</pdfrwt>
<pdfrwt beam="2">  1       -2 0.17123828E+00 0.32270074E+04</pdfrwt>
<totfact> 0.26835910E-01</totfact>
</mgrwt>
</event>
<event>
12    4  0.4183215E-008  0.1831081E+04  0.7818608E-02  0.8689943E-01
         -2   -1    0    0    0  501 -0.00000000000E+00  0.00000000000E+00  0.59104861973E+03  0.59104861973E+03  0.00000000000E+00 0.  1.
          1   -1    0    0  501    0  0.00000000000E+00 -0.00000000000E+00 -0.14181825576E+04  0.14181825576E+04  0.00000000000E+00 0. -1.
        -24    2    1    2    0    0 -0.42787635919E+03  0.30883961577E+03  0.17521102532E+03  0.56160936383E+03  0.79032190459E+02 0.  0.
        254    2    1    2    0    0  0.42787635919E+03 -0.30883961577E+03 -0.10023449631E+04  0.14476218134E+04  0.90136197090E+03 0.  0.
         23    2    4    4    0    0  0.57981177783E+03 -0.48193950805E+03 -0.90889279469E+03  0.11844609931E+04  0.91729737711E+02 0.  0.
         23    2    4    4    0    0 -0.15193541864E+03  0.17309989228E+03 -0.93452168453E+02  0.26316082036E+03  0.86442844925E+02 0.  0.
          1    1    3    3  502    0  0.89230050814E+00  0.11033689599E+02  0.41252620131E+00  0.11077395192E+02  0.00000000000E+00 0. -1.
         -2    1    3    3    0  502 -0.42876865970E+03  0.29780592617E+03  0.17479849912E+03  0.55053196864E+03  0.00000000000E+00 0.  1.
         11    1    5    5    0    0  0.57175164101E+03 -0.48452198824E+03 -0.90532368013E+03  0.11752754834E+04  0.00000000000E+00 0.  1.
        -11    1    5    5    0    0  0.80601368144E+01  0.25824801904E+01 -0.35691145620E+01  0.91855096841E+01  0.00000000000E+00 0. -1.
          2    1    6    6  503    0 -0.52304379118E+02  0.10429824866E+03 -0.12130487656E+02  0.11730738033E+03  0.00000000000E+00 0.  1.
         -2    1    6    6    0  503 -0.99631039518E+02  0.68801643615E+02 -0.81321680797E+02  0.14585344003E+03  0.00000000000E+00 0. -1.
<mgrwt>
<rscale>  0 0.18310815E+04</rscale>
<asrwt>0</asrwt>
<pdfrwt beam="1">  1        1 0.21818193E+00 0.18310815E+04</pdfrwt>
<pdfrwt beam="2">  1       -2 0.90930558E-01 0.18310815E+04</pdfrwt>
<totfact> 0.63578412E+00</totfact>
</mgrwt>
</event>
<event>
12    4  0.4183215E-008  0.1749698E+04  0.7818608E-02  0.8733516E-01
         -2   -1    0    0    0  501 -0.00000000000E+00  0.00000000000E+00  0.15296557666E+04  0.15296557666E+04  0.00000000000E+00 0.  1.
          1   -1    0    0  501    0  0.00000000000E+00 -0.00000000000E+00 -0.50034842959E+03  0.50034842959E+03  0.00000000000E+00 0. -1.
        -24    2    1    2    0    0 -0.28195571779E+00  0.66594698224E+03  0.56463394453E+03  0.87686150290E+03  0.81173525879E+02 0.  0.
        254    2    1    2    0    0  0.28195571779E+00 -0.66594698224E+03  0.46467339247E+03  0.11531426933E+04  0.81873759333E+03 0.  0.
         23    2    4    4    0    0  0.71349940857E+02 -0.25315476191E+02 -0.19370798857E+03  0.22717774980E+03  0.91407099127E+02 0.  0.
         23    2    4    4    0    0 -0.71067985139E+02 -0.64063150605E+03  0.65838138104E+03  0.92596494348E+03  0.92117580289E+02 0.  0.
          1    1    3    3  502    0  0.19146824059E+02  0.82351186887E+02  0.97716648690E+02  0.12921633908E+03  0.00000000000E+00 0. -1.
         -2    1    3    3    0  502 -0.19428779777E+02  0.58359579535E+03  0.46691729584E+03  0.74764516382E+03  0.00000000000E+00 0.  1.
         11    1    5    5    0    0  0.71193975790E+02 -0.84644248623E+00 -0.65793116990E+02  0.96943452058E+02  0.00000000000E+00 0. -1.
        -11    1    5    5    0    0  0.15596506699E+00 -0.24469033704E+02 -0.12791487158E+03  0.13023429774E+03  0.00000000000E+00 0.  1.
          1    1    6    6  503    0 -0.27114103185E+00  0.18079658106E+01  0.11081207400E+02  0.11231002416E+02  0.00000000000E+00 0. -1.
         -1    1    6    6    0  503 -0.70796844107E+02 -0.64243947186E+03  0.64730017364E+03  0.91473394106E+03  0.00000000000E+00 0.  1.
<mgrwt>
<rscale>  0 0.17496981E+04</rscale>
<asrwt>0</asrwt>
<pdfrwt beam="1">  1        1 0.76976682E-01 0.17496981E+04</pdfrwt>
<pdfrwt beam="2">  1       -2 0.23533165E+00 0.17496981E+04</pdfrwt>
<totfact> 0.29063461E+00</totfact>
</mgrwt>
</event>
<event>
12    4  0.4183215E-008  0.2987157E+04  0.7818608E-02  0.8247408E-01
         -2   -1    0    0    0  501 -0.00000000000E+00  0.00000000000E+00  0.99866227892E+03  0.99866227892E+03  0.00000000000E+00 0.  1.
          1   -1    0    0  501    0  0.00000000000E+00 -0.00000000000E+00 -0.22337649935E+04  0.22337649935E+04  0.00000000000E+00 0. -1.
        -24    2    1    2    0    0 -0.18154318662E+03  0.11576476787E+04  0.17847379900E+03  0.11882949351E+04  0.84177663931E+02 0.  0.
        254    2    1    2    0    0  0.18154318662E+03 -0.11576476787E+04 -0.14135765135E+04  0.20441323373E+04  0.89842772450E+03 0.  0.
         23    2    4    4    0    0  0.43518522128E+03 -0.10955591962E+04 -0.10140719608E+04  0.15575971081E+04  0.90170285518E+02 0.  0.
         23    2    4    4    0    0 -0.25364203466E+03 -0.62088482500E+02 -0.39950455277E+03  0.48653522918E+03  0.94463644552E+02 0.  0.
          3    1    3    3  502    0 -0.13693124590E+02  0.26004984993E+02 -0.44987304440E+01  0.29732128769E+02  0.00000000000E+00 0. -1.
         -4    1    3    3    0  502 -0.16785006203E+03  0.11316426937E+04  0.18297252944E+03  0.11585628063E+04  0.00000000000E+00 0.  1.
         11    1    5    5    0    0  0.14873589849E+03 -0.26952495181E+03 -0.27462727352E+03  0.41253630933E+03  0.00000000000E+00 0.  1.
        -11    1    5    5    0    0  0.28644932280E+03 -0.82603424442E+03 -0.73944468726E+03  0.11450607988E+04  0.00000000000E+00 0. -1.
          1    1    6    6  503    0 -0.71223159671E+02  0.25013338655E+02 -0.10427738612E+03  0.12873297496E+03  0.00000000000E+00 0. -1.
         -1    1    6    6    0  503 -0.18241887499E+03 -0.87101821155E+02 -0.29522716664E+03  0.35780225422E+03  0.00000000000E+00 0.  1.
<mgrwt>
<rscale>  0 0.29871571E+04</rscale>
<asrwt>0</asrwt>
<pdfrwt beam="1">  1        1 0.34365616E+00 0.29871571E+04</pdfrwt>
<pdfrwt beam="2">  1       -2 0.15364035E+00 0.29871571E+04</pdfrwt>
<totfact> 0.43504436E-01</totfact>
</mgrwt>
</event>
<event>
12    4  0.4183215E-008  0.1248422E+04  0.7818608E-02  0.9071498E-01
          1   -1    0    0  501    0  0.00000000000E+00  0.00000000000E+00  0.73339268960E+03  0.73339268960E+03  0.00000000000E+00 0. -1.
         -2   -1    0    0    0  501 -0.00000000000E+00 -0.00000000000E+00 -0.53128338896E+03  0.53128338896E+03  0.00000000000E+00 0.  1.
        -24    2    1    2    0    0 -0.41438192418E+02  0.41722085427E+01 -0.24215971146E+03  0.25803090155E+03  0.78766040792E+02 0.  0.
        254    2    1    2    0    0  0.41438192418E+02 -0.41722085427E+01  0.44426901211E+03  0.10066451770E+04  0.90234418387E+03 0.  0.
         23    2    4    4    0    0  0.46105001886E+03 -0.30982875424E+02  0.20297507774E+03  0.51289027427E+03  0.91271533312E+02 0.  0.
         23    2    4    4    0    0 -0.41961182644E+03  0.26810666882E+02  0.24129393437E+03  0.49375490275E+03  0.93692286077E+02 0.  0.
          3    1    3    3  502    0 -0.32769073834E+02  0.89428269665E+01 -0.29061240967E+02  0.44702819605E+02  0.00000000000E+00 0. -1.
         -2    1    3    3    0  502 -0.86691185841E+01 -0.47706184238E+01 -0.21309847050E+03  0.21332808194E+03  0.00000000000E+00 0.  1.
         11    1    5    5    0    0  0.35873785497E+03 -0.13313976156E+02  0.11544558284E+03  0.37709122656E+03  0.00000000000E+00 0.  1.
        -11    1    5    5    0    0  0.10231216389E+03 -0.17668899268E+02  0.87529494897E+02  0.13579904771E+03  0.00000000000E+00 0. -1.
          2    1    6    6  503    0 -0.11896337009E+03  0.20172755078E+02  0.24730582673E+02  0.12316990375E+03  0.00000000000E+00 0. -1.
         -2    1    6    6    0  503 -0.30064845636E+03  0.66379118036E+01  0.21656335170E+03  0.37058499900E+03  0.00000000000E+00 0.  1.
<mgrwt>
<rscale>  0 0.12484220E+04</rscale>
<asrwt>0</asrwt>
<pdfrwt beam="1">  1        1 0.11282964E+00 0.12484220E+04</pdfrwt>
<pdfrwt beam="2">  1       -2 0.81735906E-01 0.12484220E+04</pdfrwt>
<totfact> 0.28857878E+01</totfact>
</mgrwt>
</event>
<event>
12    4  0.4183215E-008  0.1444396E+04  0.7818608E-02  0.8922295E-01
         -4   -1    0    0    0  501 -0.00000000000E+00  0.00000000000E+00  0.89015878633E+03  0.89015878633E+03  0.00000000000E+00 0.  1.
          1   -1    0    0  501    0  0.00000000000E+00 -0.00000000000E+00 -0.58592949062E+03  0.58592949062E+03  0.00000000000E+00 0. -1.
        -24    2    1    2    0    0  0.15081885569E+03 -0.27363351889E+03  0.40393265711E+03  0.51774289581E+03  0.85290590312E+02 0.  0.
        254    2    1    2    0    0 -0.15081885569E+03  0.27363351889E+03 -0.99703361404E+02  0.95834538114E+03  0.90047958299E+03 0.  0.
         23    2    4    4    0    0 -0.26914721796E+02 -0.26223327385E+03  0.18295719917E+03  0.33311752080E+03  0.89460906401E+02 0.  0.
         23    2    4    4    0    0 -0.12390413390E+03  0.53586679274E+03 -0.28266056057E+03  0.62522786033E+03  0.92235735317E+02 0.  0.
          1    1    3    3  502    0  0.32055649669E+02 -0.26047410147E+02  0.20465874212E+02  0.46096466874E+02  0.00000000000E+00 0. -1.
         -2    1    3    3    0  502  0.11876320602E+03 -0.24758610875E+03  0.38346678289E+03  0.47164642894E+03  0.00000000000E+00 0.  1.
         11    1    5    5    0    0 -0.44735254783E+01 -0.11551532907E+03  0.28828600667E+02  0.11914231783E+03  0.00000000000E+00 0. -1.
        -11    1    5    5    0    0 -0.22441196318E+02 -0.14671794478E+03  0.15412859850E+03  0.21397520298E+03  0.00000000000E+00 0.  1.
          1    1    6    6  503    0 -0.23365301289E+02  0.99308050897E+02 -0.14312435699E+02  0.10301879485E+03  0.00000000000E+00 0. -1.
         -1    1    6    6    0  503 -0.10053883261E+03  0.43655874185E+03 -0.26834812488E+03  0.52220906548E+03  0.00000000000E+00 0.  1.
<mgrwt>
<rscale>  0 0.14443965E+04</rscale>
<asrwt>0</asrwt>
<pdfrwt beam="1">  1        1 0.90142998E-01 0.14443965E+04</pdfrwt>
<pdfrwt beam="2">  1       -4 0.13694751E+00 0.14443965E+04</pdfrwt>
<totfact> 0.62657171E+00</totfact>
</mgrwt>
</event>
<event>
12    4  0.4183215E-008  0.1396109E+04  0.7818608E-02  0.8956640E-01
          1   -1    0    0  501    0  0.00000000000E+00  0.00000000000E+00  0.89562996158E+03  0.89562996158E+03  0.00000000000E+00 0. -1.
         -2   -1    0    0    0  501 -0.00000000000E+00 -0.00000000000E+00 -0.54406442052E+03  0.54406442052E+03  0.00000000000E+00 0.  1.
        -24    2    1    2    0    0  0.36304392515E+03 -0.65759297347E+02  0.25283128518E+03  0.45490102135E+03  0.82982550438E+02 0.  0.
        254    2    1    2    0    0 -0.36304392515E+03  0.65759297347E+02  0.98734255872E+02  0.98479336076E+03  0.90771379483E+03 0.  0.
         23    2    4    4    0    0  0.95868500007E+02 -0.70719231219E+02 -0.31151286229E+03  0.34744006769E+03  0.97377401424E+02 0.  0.
         23    2    4    4    0    0 -0.45891242516E+03  0.13647852857E+03  0.41024711816E+03  0.63735329307E+03  0.93217592235E+02 0.  0.
          1    1    3    3  502    0  0.26551231698E+03 -0.71895030057E+02  0.21859254384E+03  0.35135222504E+03  0.00000000000E+00 0. -1.
         -2    1    3    3    0  502  0.97531608169E+02  0.61357327100E+01  0.34238741339E+02  0.10354879631E+03  0.00000000000E+00 0.  1.
         11    1    5    5    0    0  0.84483590706E+02 -0.45375841347E+02 -0.30384347861E+03  0.31861780171E+03  0.00000000000E+00 0. -1.
        -11    1    5    5    0    0  0.11384909301E+02 -0.25343389872E+02 -0.76693836803E+01  0.28822265977E+02  0.00000000000E+00 0.  1.
          1    1    6    6  503    0 -0.22188751483E+03  0.87038603497E+02  0.25845660696E+03  0.35158157719E+03  0.00000000000E+00 0. -1.
         -1    1    6    6    0  503 -0.23702491033E+03  0.49439925069E+02  0.15179051120E+03  0.28577171588E+03  0.00000000000E+00 0.  1.
<mgrwt>
<rscale>  0 0.13961094E+04</rscale>
<asrwt>0</asrwt>
<pdfrwt beam="1">  1        1 0.13778922E+00 0.13961094E+04</pdfrwt>
<pdfrwt beam="2">  1       -2 0.83702219E-01 0.13961094E+04</pdfrwt>
<totfact> 0.19572425E+01</totfact>
</mgrwt>
</event>
<event>
12    4  0.4183215E-008  0.1240932E+04  0.7818608E-02  0.9077764E-01
         -2   -1    0    0    0  501 -0.00000000000E+00  0.00000000000E+00  0.51747050567E+03  0.51747050567E+03  0.00000000000E+00 0.  1.
          1   -1    0    0  501    0  0.00000000000E+00 -0.00000000000E+00 -0.74396149699E+03  0.74396149699E+03  0.00000000000E+00 0. -1.
        -24    2    1    2    0    0 -0.70038704785E+01 -0.27760075219E+03 -0.74865801073E+02  0.29777016018E+03  0.77142389808E+02 0.  0.
        254    2    1    2    0    0  0.70038704785E+01  0.27760075219E+03 -0.15162519025E+03  0.96366184247E+03  0.91024321832E+03 0.  0.
         23    2    4    4    0    0 -0.23955703953E+03  0.11878133630E+03  0.30332416439E+03  0.41474713000E+03  0.92266202361E+02 0.  0.
         23    2    4    4    0    0  0.24656091001E+03  0.15881941589E+03 -0.45494935464E+03  0.54891471247E+03  0.91173225661E+02 0.  0.
          3    1    3    3  502    0  0.21358649825E+02 -0.13622280242E+03 -0.67150749193E+02  0.15336905469E+03  0.00000000000E+00 0. -1.
         -4    1    3    3    0  502 -0.28362520303E+02 -0.14137794978E+03 -0.77150518803E+01  0.14440110549E+03  0.00000000000E+00 0.  1.
         11    1    5    5    0    0 -0.99638204643E+02  0.91234130989E+02  0.18711462331E+03  0.23078847618E+03  0.00000000000E+00 0.  1.
        -11    1    5    5    0    0 -0.13991883489E+03  0.27547205315E+02  0.11620954108E+03  0.18395865382E+03  0.00000000000E+00 0. -1.
          2    1    6    6  503    0  0.24939595323E+03  0.14183035584E+03 -0.44357625108E+03  0.52827462730E+03  0.00000000000E+00 0. -1.
         -2    1    6    6    0  503 -0.28350432215E+01  0.16989060053E+02 -0.11373103557E+02  0.20640085176E+02  0.00000000000E+00 0.  1.
<mgrwt>
<rscale>  0 0.12409321E+04</rscale>
<asrwt>0</asrwt>
<pdfrwt beam="1">  1        1 0.11445561E+00 0.12409321E+04</pdfrwt>
<pdfrwt beam="2">  1       -2 0.79610847E-01 0.12409321E+04</pdfrwt>
<totfact> 0.29968951E+01</totfact>
</mgrwt>
</event>
<event>
12    4  0.4183215E-008  0.2763874E+04  0.7818608E-02  0.8314573E-01
         -2   -1    0    0    0  501 -0.00000000000E+00  0.00000000000E+00  0.99264651941E+03  0.99264651941E+03  0.00000000000E+00 0.  1.
          1   -1    0    0  501    0  0.00000000000E+00 -0.00000000000E+00 -0.19238975298E+04  0.19238975298E+04  0.00000000000E+00 0. -1.
        -24    2    1    2    0    0  0.73309971089E+03  0.67659494945E+03 -0.11855129168E+04  0.15514340542E+04  0.79314797259E+02 0.  0.
        254    2    1    2    0    0 -0.73309971089E+03 -0.67659494945E+03  0.25426190639E+03  0.13651099950E+04  0.89647100880E+03 0.  0.
         23    2    4    4    0    0 -0.46687310044E+03 -0.46244511008E+03 -0.28303746024E+03  0.72129974929E+03  0.91308009834E+02 0.  0.
         23    2    4    4    0    0 -0.26622661045E+03 -0.21414983936E+03  0.53729936664E+03  0.64381024569E+03  0.95206413942E+02 0.  0.
          1    1    3    3  502    0  0.55230827343E+03  0.46518088828E+03 -0.87691502793E+03  0.11359655162E+04  0.00000000000E+00 0. -1.
         -2    1    3    3    0  502  0.18079143746E+03  0.21141406117E+03 -0.30859788883E+03  0.41546853805E+03  0.00000000000E+00 0.  1.
         11    1    5    5    0    0 -0.38860464896E+03 -0.38490114169E+03 -0.27116174927E+03  0.61048436208E+03  0.00000000000E+00 0.  1.
        -11    1    5    5    0    0 -0.78268451481E+02 -0.77543968393E+02 -0.11875710971E+02  0.11081538721E+03  0.00000000000E+00 0. -1.
          3    1    6    6  503    0 -0.68286247994E+02 -0.67709731180E+02  0.23507361277E+03  0.25398272143E+03  0.00000000000E+00 0. -1.
         -3    1    6    6    0  503 -0.19794036245E+03 -0.14644010818E+03  0.30222575386E+03  0.38982752426E+03  0.00000000000E+00 0.  1.
<mgrwt>
<rscale>  0 0.27638742E+04</rscale>
<asrwt>0</asrwt>
<pdfrwt beam="1">  1        1 0.29598423E+00 0.27638742E+04</pdfrwt>
<pdfrwt beam="2">  1       -2 0.15271485E+00 0.27638742E+04</pdfrwt>
<totfact> 0.73176448E-01</totfact>
</mgrwt>
</event>
<event>
12    4  0.4183215E-008  0.1280102E+04  0.7818608E-02  0.9045495E-01
         -2   -1    0    0    0  501 -0.00000000000E+00  0.00000000000E+00  0.31822314683E+03  0.31822314683E+03  0.00000000000E+00 0.  1.
          1   -1    0    0  501    0  0.00000000000E+00 -0.00000000000E+00 -0.12873517701E+04  0.12873517701E+04  0.00000000000E+00 0. -1.
        -24    2    1    2    0    0 -0.22586501499E+03  0.40374297396E+02  0.25238482693E+02  0.24406110262E+03  0.79270119946E+02 0.  0.
        254    2    1    2    0    0  0.22586501499E+03 -0.40374297396E+02 -0.99436710593E+03  0.13615138143E+04  0.90128177404E+03 0.  0.
         23    2    4    4    0    0 -0.23792499717E+03  0.19418173550E+03 -0.12403633116E+03  0.34396346379E+03  0.92795486388E+02 0.  0.
         23    2    4    4    0    0  0.46379001216E+03 -0.23455603290E+03 -0.87033077477E+03  0.10175503505E+04  0.88404469951E+02 0.  0.
          3    1    3    3  502    0 -0.52833600889E+01  0.38543121897E+01 -0.15474948793E+02  0.16800108822E+02  0.00000000000E+00 0. -1.
         -4    1    3    3    0  502 -0.22058165490E+03  0.36519985206E+02  0.40713431486E+02  0.22726099379E+03  0.00000000000E+00 0.  1.
         11    1    5    5    0    0 -0.90001932524E+01 -0.38657529681E+01  0.90124106352E+01  0.13310562349E+02  0.00000000000E+00 0. -1.
        -11    1    5    5    0    0 -0.22892480392E+03  0.19804748847E+03 -0.13304874180E+03  0.33065290144E+03  0.00000000000E+00 0.  1.
          2    1    6    6  503    0  0.13038431853E+03 -0.23185053374E+02 -0.21980743932E+03  0.25661825266E+03  0.00000000000E+00 0. -1.
         -2    1    6    6    0  503  0.33340569363E+03 -0.21137097953E+03 -0.65052333544E+03  0.76093209782E+03  0.00000000000E+00 0.  1.
<mgrwt>
<rscale>  0 0.12801018E+04</rscale>
<asrwt>0</asrwt>
<pdfrwt beam="1">  1        1 0.19805412E+00 0.12801018E+04</pdfrwt>
<pdfrwt beam="2">  1       -2 0.48957408E-01 0.12801018E+04</pdfrwt>
<totfact> 0.31489066E+01</totfact>
</mgrwt>
</event>
<event>
12    4  0.4183215E-008  0.1470284E+04  0.7818608E-02  0.8904458E-01
         -2   -1    0    0    0  501 -0.00000000000E+00  0.00000000000E+00  0.58638046283E+03  0.58638046283E+03  0.00000000000E+00 0.  1.
          1   -1    0    0  501    0  0.00000000000E+00 -0.00000000000E+00 -0.92164315377E+03  0.92164315377E+03  0.00000000000E+00 0. -1.
        -24    2    1    2    0    0 -0.29959026139E+03  0.69275179848E+02 -0.42184001394E+03  0.52778215508E+03  0.77792227060E+02 0.  0.
        254    2    1    2    0    0  0.29959026139E+03 -0.69275179848E+02  0.86577322997E+02  0.98024146153E+03  0.92672774577E+03 0.  0.
         23    2    4    4    0    0 -0.40870296825E+02 -0.26824740970E+03 -0.30407365776E+03  0.41782520911E+03  0.92141532696E+02 0.  0.
         23    2    4    4    0    0  0.34046055822E+03  0.19897222986E+03  0.39065098076E+03  0.56241625242E+03  0.90556679812E+02 0.  0.
          3    1    3    3  502    0 -0.28490397668E+03  0.73675535600E+02 -0.41927141190E+03  0.51223712996E+03  0.00000000000E+00 0. -1.
         -4    1    3    3    0  502 -0.14686284711E+02 -0.44003557517E+01 -0.25686020407E+01  0.15545025114E+02  0.00000000000E+00 0.  1.
         11    1    5    5    0    0 -0.49090828191E+02 -0.20759226949E+03 -0.28011846373E+03  0.35209489273E+03  0.00000000000E+00 0. -1.
        -11    1    5    5    0    0  0.82205313652E+01 -0.60655140212E+02 -0.23955194032E+02  0.65730316379E+02  0.00000000000E+00 0.  1.
          1    1    6    6  503    0  0.33743958866E+03  0.20359090733E+03  0.36834426585E+03  0.53943695807E+03  0.00000000000E+00 0. -1.
         -1    1    6    6    0  503  0.30209695531E+01 -0.46186774769E+01  0.22306714907E+02  0.22979294346E+02  0.00000000000E+00 0.  1.
<mgrwt>
<rscale>  0 0.14702837E+04</rscale>
<asrwt>0</asrwt>
<pdfrwt beam="1">  1        1 0.14179125E+00 0.14702837E+04</pdfrwt>
<pdfrwt beam="2">  1       -2 0.90212379E-01 0.14702837E+04</pdfrwt>
<totfact> 0.15606998E+01</totfact>
</mgrwt>
</event>
<event>
12    4  0.4183215E-008  0.1036633E+04  0.7818608E-02  0.9269255E-01
          1   -1    0    0  501    0  0.00000000000E+00  0.00000000000E+00  0.14710899633E+04  0.14710899633E+04  0.00000000000E+00 0. -1.
         -2   -1    0    0    0  501 -0.00000000000E+00 -0.00000000000E+00 -0.18262101149E+03  0.18262101149E+03  0.00000000000E+00 0.  1.
        -24    2    1    2    0    0  0.10468603155E+03  0.23118667442E+02  0.13175391958E+03  0.19084014137E+03  0.86989805426E+02 0.  0.
        254    2    1    2    0    0 -0.10468603155E+03 -0.23118667442E+02  0.11567150322E+04  0.14628708334E+04  0.88910503963E+03 0.  0.
         23    2    4    4    0    0 -0.21231025333E+03  0.14296418899E+03 -0.13594672010E+02  0.27270641085E+03  0.93110517175E+02 0.  0.
         23    2    4    4    0    0  0.10762422179E+03 -0.16608285644E+03  0.11703097042E+04  0.11901644225E+04  0.87749989211E+02 0.  0.
          1    1    3    3  502    0  0.46610099535E+02  0.11614466672E+02  0.12163607447E+03  0.13077741330E+03  0.00000000000E+00 0. -1.
         -4    1    3    3    0  502  0.58075932011E+02  0.11504200770E+02  0.10117845109E+02  0.60062728076E+02  0.00000000000E+00 0.  1.
         11    1    5    5    0    0 -0.15569931075E+03  0.60740913888E+02  0.17765064700E+02  0.16806942468E+03  0.00000000000E+00 0. -1.
        -11    1    5    5    0    0 -0.56610942582E+02  0.82223275105E+02 -0.31359736710E+02  0.10463698617E+03  0.00000000000E+00 0.  1.
          1    1    6    6  503    0  0.10438915708E+03 -0.95414598480E+02  0.66059594207E+03  0.67556497866E+03  0.00000000000E+00 0. -1.
         -1    1    6    6    0  503  0.32350647016E+01 -0.70668257955E+02  0.50971376213E+03  0.51459944387E+03  0.00000000000E+00 0.  1.
<mgrwt>
<rscale>  0 0.10366329E+04</rscale>
<asrwt>0</asrwt>
<pdfrwt beam="1">  1        1 0.22632153E+00 0.10366329E+04</pdfrwt>
<pdfrwt beam="2">  1       -2 0.28095541E-01 0.10366329E+04</pdfrwt>
<totfact> 0.69665410E+01</totfact>
</mgrwt>
</event>
<event>
12    4  0.4183215E-008  0.1680087E+04  0.7818608E-02  0.8772804E-01
          1   -1    0    0  501    0  0.00000000000E+00  0.00000000000E+00  0.56700984151E+03  0.56700984151E+03  0.00000000000E+00 0. -1.
         -2   -1    0    0    0  501 -0.00000000000E+00 -0.00000000000E+00 -0.12445519522E+04  0.12445519522E+04  0.00000000000E+00 0.  1.
        -24    2    1    2    0    0 -0.46625413242E+03  0.30128557426E+03 -0.55062287973E+02  0.56341188083E+03  0.78963147421E+02 0.  0.
        254    2    1    2    0    0  0.46625413242E+03 -0.30128557426E+03 -0.62247982275E+03  0.12481499129E+04  0.92856403231E+03 0.  0.
         23    2    4    4    0    0  0.61258917180E+03 -0.89043713444E+02 -0.72399291995E+03  0.95699483188E+03  0.92081940752E+02 0.  0.
         23    2    4    4    0    0 -0.14633503937E+03 -0.21224186082E+03  0.10151309720E+03  0.29115508102E+03  0.89475253973E+02 0.  0.
          3    1    3    3  502    0 -0.11783742295E+03  0.43170094254E+02  0.53677557823E+01  0.12561101897E+03  0.00000000000E+00 0. -1.
         -4    1    3    3    0  502 -0.34841670947E+03  0.25811548001E+03 -0.60430043756E+02  0.43780086186E+03  0.00000000000E+00 0.  1.
         11    1    5    5    0    0  0.26871284802E+03 -0.80610128135E+02 -0.29453760478E+03  0.40676404472E+03  0.00000000000E+00 0.  1.
        -11    1    5    5    0    0  0.34387632377E+03 -0.84335853083E+01 -0.42945531517E+03  0.55023078716E+03  0.00000000000E+00 0. -1.
          3    1    6    6  503    0 -0.83245431511E+02 -0.18577607451E+03  0.65579678964E+02  0.21387670753E+03  0.00000000000E+00 0. -1.
         -3    1    6    6    0  503 -0.63089607862E+02 -0.26465786302E+02  0.35933418232E+02  0.77278373499E+02  0.00000000000E+00 0.  1.
<mgrwt>
<rscale>  0 0.16800871E+04</rscale>
<asrwt>0</asrwt>
<pdfrwt beam="1">  1        1 0.87232284E-01 0.16800871E+04</pdfrwt>
<pdfrwt beam="2">  1       -2 0.19146953E+00 0.16800871E+04</pdfrwt>
<totfact> 0.46912358E+00</totfact>
</mgrwt>
</event>
<event>
12    4  0.4183215E-008  0.1356312E+04  0.7818608E-02  0.8986064E-01
          1   -1    0    0  501    0  0.00000000000E+00  0.00000000000E+00  0.13370524929E+04  0.13370524929E+04  0.00000000000E+00 0. -1.
         -2   -1    0    0    0  501 -0.00000000000E+00 -0.00000000000E+00 -0.34396215642E+03  0.34396215642E+03  0.00000000000E+00 0.  1.
        -24    2    1    2    0    0 -0.15185341598E+03 -0.93219083982E+02  0.68467246321E+03  0.71215669167E+03  0.81495484834E+02 0.  0.
        254    2    1    2    0    0  0.15185341598E+03  0.93219083982E+02  0.30841787325E+03  0.96885795762E+03  0.90100771359E+03 0.  0.
         23    2    4    4    0    0 -0.26666746405E+03  0.26943663484E+02  0.43323349248E+03  0.51786200507E+03  0.93017739739E+02 0.  0.
         23    2    4    4    0    0  0.41852088003E+03  0.66275420497E+02 -0.12481561923E+03  0.45099595255E+03  0.90918931093E+02 0.  0.
          3    1    3    3  502    0 -0.62710559859E+02 -0.66372010830E+02  0.45972000178E+03  0.46870069146E+03  0.00000000000E+00 0. -1.
         -4    1    3    3    0  502 -0.89142856118E+02 -0.26847073152E+02  0.22495246143E+03  0.24345600021E+03  0.00000000000E+00 0.  1.
         11    1    5    5    0    0 -0.15030522700E+03 -0.22456010655E+02  0.28547052331E+03  0.32340277265E+03  0.00000000000E+00 0.  1.
        -11    1    5    5    0    0 -0.11636223705E+03  0.49399674140E+02  0.14776296917E+03  0.19445923242E+03  0.00000000000E+00 0. -1.
          3    1    6    6  503    0  0.89333673013E+02  0.19321490536E+02  0.10496015303E+02  0.91999953629E+02  0.00000000000E+00 0. -1.
         -3    1    6    6    0  503  0.32918720702E+03  0.46953929961E+02 -0.13531163453E+03  0.35899599892E+03  0.00000000000E+00 0.  1.
<mgrwt>
<rscale>  0 0.13563119E+04</rscale>
<asrwt>0</asrwt>
<pdfrwt beam="1">  1        1 0.20570038E+00 0.13563119E+04</pdfrwt>
<pdfrwt beam="2">  1       -2 0.52917256E-01 0.13563119E+04</pdfrwt>
<totfact> 0.24603035E+01</totfact>
</mgrwt>
</event>
<event>
12    4  0.4183215E-008  0.2183949E+04  0.7818608E-02  0.8525139E-01
          1   -1    0    0  501    0  0.00000000000E+00  0.00000000000E+00  0.15343186137E+04  0.15343186137E+04  0.00000000000E+00 0. -1.
         -2   -1    0    0    0  501 -0.00000000000E+00 -0.00000000000E+00 -0.77715810098E+03  0.77715810098E+03  0.00000000000E+00 0.  1.
        -24    2    1    2    0    0 -0.20592933131E+03 -0.19521553286E+02  0.12768513573E+04  0.12970775919E+04  0.96295952360E+02 0.  0.
        254    2    1    2    0    0  0.20592933131E+03  0.19521553286E+02 -0.51969084454E+03  0.10143991227E+04  0.84624997831E+03 0.  0.
         23    2    4    4    0    0  0.20640504189E+02  0.13964472097E+03  0.19693975754E+03  0.25899272417E+03  0.91461929612E+02 0.  0.
         23    2    4    4    0    0  0.18528882712E+03 -0.12012316768E+03 -0.71663060208E+03  0.75540639857E+03  0.91202424836E+02 0.  0.
          1    1    3    3  502    0 -0.11115675054E+03  0.31829078842E+02  0.52826358337E+03  0.54076919935E+03  0.00000000000E+00 0. -1.
         -2    1    3    3    0  502 -0.94772580773E+02 -0.51350632128E+02  0.74858777390E+03  0.75630839260E+03  0.00000000000E+00 0.  1.
         11    1    5    5    0    0  0.14823803655E+02  0.36568201744E+02  0.13022595201E+03  0.13607269054E+03  0.00000000000E+00 0.  1.
        -11    1    5    5    0    0  0.58167005342E+01  0.10307651922E+03  0.66713805524E+02  0.12292003363E+03  0.00000000000E+00 0. -1.
          1    1    6    6  503    0  0.16676132367E+02 -0.46188406891E+02 -0.22830785040E+03  0.23352930625E+03  0.00000000000E+00 0. -1.
         -1    1    6    6    0  503  0.16861269475E+03 -0.73934760791E+02 -0.48832275168E+03  0.52187709232E+03  0.00000000000E+00 0.  1.
<mgrwt>
<rscale>  0 0.21839488E+04</rscale>
<asrwt>0</asrwt>
<pdfrwt beam="1">  1        1 0.23604902E+00 0.21839488E+04</pdfrwt>
<pdfrwt beam="2">  1       -2 0.11956278E+00 0.21839488E+04</pdfrwt>
<totfact> 0.26600786E+00</totfact>
</mgrwt>
</event>
<event>
12    4  0.4183215E-008  0.2473117E+04  0.7818608E-02  0.8412626E-01
          1   -1    0    0  501    0  0.00000000000E+00  0.00000000000E+00  0.73153598457E+03  0.73153598457E+03  0.00000000000E+00 0. -1.
         -2   -1    0    0    0  501 -0.00000000000E+00 -0.00000000000E+00 -0.20902277173E+04  0.20902277173E+04  0.00000000000E+00 0.  1.
        -24    2    1    2    0    0 -0.72628634494E+03 -0.76142273126E+03 -0.39280399490E+03  0.11261805734E+04  0.82044347896E+02 0.  0.
        254    2    1    2    0    0  0.72628634494E+03  0.76142273126E+03 -0.96588773781E+03  0.16955831284E+04  0.91367751029E+03 0.  0.
         23    2    4    4    0    0  0.58208373718E+03  0.17305421821E+03 -0.88577492356E+03  0.10778868071E+04  0.92051692790E+02 0.  0.
         23    2    4    4    0    0  0.14420260777E+03  0.58836851305E+03 -0.80112814250E+02  0.61769632134E+03  0.90325982710E+02 0.  0.
          1    1    3    3  502    0 -0.59898991108E+03 -0.63910297689E+03 -0.29444136604E+03  0.92408725058E+03  0.00000000000E+00 0. -1.
         -2    1    3    3    0  502 -0.12729643386E+03 -0.12231975437E+03 -0.98362628860E+02  0.20209332285E+03  0.00000000000E+00 0.  1.
         11    1    5    5    0    0  0.25410366821E+02 -0.74271836802E+01 -0.61944800540E+02  0.67364739392E+02  0.00000000000E+00 0. -1.
        -11    1    5    5    0    0  0.55667337035E+03  0.18048140189E+03 -0.82383012302E+03  0.10105220677E+04  0.00000000000E+00 0.  1.
          3    1    6    6  503    0  0.16852948463E+02  0.20377836378E+02 -0.18669627864E+02  0.32370250106E+02  0.00000000000E+00 0. -1.
         -3    1    6    6    0  503  0.12734965930E+03  0.56799067668E+03 -0.61443186386E+02  0.58532607124E+03  0.00000000000E+00 0.  1.
<mgrwt>
<rscale>  0 0.24731169E+04</rscale>
<asrwt>0</asrwt>
<pdfrwt beam="1">  1        1 0.11254400E+00 0.24731169E+04</pdfrwt>
<pdfrwt beam="2">  1       -2 0.32157349E+00 0.24731169E+04</pdfrwt>
<totfact> 0.46552769E-01</totfact>
</mgrwt>
</event>
<event>
12    4  0.4183215E-008  0.1437112E+04  0.7818608E-02  0.8927384E-01
          1   -1    0    0  501    0  0.00000000000E+00  0.00000000000E+00  0.18857706004E+04  0.18857706004E+04  0.00000000000E+00 0. -1.
         -2   -1    0    0    0  501 -0.00000000000E+00 -0.00000000000E+00 -0.27379945376E+03  0.27379945376E+03  0.00000000000E+00 0.  1.
        -24    2    1    2    0    0 -0.23407609443E+03  0.22557360201E+03  0.92340575988E+03  0.98220800147E+03  0.79870475605E+02 0.  0.
        254    2    1    2    0    0  0.23407609443E+03 -0.22557360201E+03  0.68856538675E+03  0.11773620527E+04  0.89798888820E+03 0.  0.
         23    2    4    4    0    0  0.11299025064E+03 -0.11944006040E+03 -0.19755445407E+03  0.27201097939E+03  0.89047660383E+02 0.  0.
         23    2    4    4    0    0  0.12108584380E+03 -0.10613354161E+03  0.88611984082E+03  0.90535107328E+03  0.92336793118E+02 0.  0.
          1    1    3    3  502    0 -0.19060498257E+03  0.21654669427E+03  0.83189786690E+03  0.88049803585E+03  0.00000000000E+00 0. -1.
         -2    1    3    3    0  502 -0.43471111865E+02  0.90269077360E+01  0.91507892975E+02  0.10170996562E+03  0.00000000000E+00 0.  1.
         11    1    5    5    0    0  0.12522511673E+03 -0.11651695957E+03 -0.16737796984E+03  0.23931760594E+03  0.00000000000E+00 0.  1.
        -11    1    5    5    0    0 -0.12234866095E+02 -0.29231008345E+01 -0.30176484238E+02  0.32693373455E+02  0.00000000000E+00 0. -1.
          3    1    6    6  503    0  0.95134742079E+02 -0.93366649433E+02  0.47887897471E+03  0.49708452279E+03  0.00000000000E+00 0. -1.
         -3    1    6    6    0  503  0.25951101720E+02 -0.12766892174E+02  0.40724086611E+03  0.40826655049E+03  0.00000000000E+00 0.  1.
<mgrwt>
<rscale>  0 0.14371123E+04</rscale>
<asrwt>0</asrwt>
<pdfrwt beam="1">  1        1 0.29011855E+00 0.14371123E+04</pdfrwt>
<pdfrwt beam="2">  1       -2 0.42122994E-01 0.14371123E+04</pdfrwt>
<totfact> 0.16247750E+01</totfact>
</mgrwt>
</event>
<event>
12    4  0.4739022E-008  0.1669774E+04  0.7818608E-02  0.8778793E-01
          1   -1    0    0  501    0  0.00000000000E+00  0.00000000000E+00  0.16873987005E+04  0.16873987005E+04  0.00000000000E+00 0. -1.
         -2   -1    0    0    0  501 -0.00000000000E+00 -0.00000000000E+00 -0.41308346004E+03  0.41308346004E+03  0.00000000000E+00 0.  1.
        -24    2    1    2    0    0 -0.33021686746E+03  0.28644039270E+03 -0.44279456712E+02  0.44694016469E+03  0.81875285651E+02 0.  0.
        254    2    1    2    0    0  0.33021686746E+03 -0.28644039270E+03  0.13185946971E+04  0.16535419958E+04  0.89689345993E+03 0.  0.
         23    2    4    4    0    0 -0.26373071737E+03 -0.18848999137E+03  0.74216987995E+03  0.81499633593E+03  0.91216932313E+02 0.  0.
         23    2    4    4    0    0  0.59394758483E+03 -0.97950401329E+02  0.57642481718E+03  0.83854565988E+03  0.92332221855E+02 0.  0.
          3    1    3    3  502    0 -0.19352018332E+02  0.49148890653E+02 -0.14240127396E+02  0.54707360512E+02  0.00000000000E+00 0. -1.
         -4    1    3    3    0  502 -0.31086484913E+03  0.23729150205E+03 -0.30039329316E+02  0.39223280418E+03  0.00000000000E+00 0.  1.
         11    1    5    5    0    0 -0.90131047297E+01  0.68288041435E+01  0.60334823774E+02  0.61385336871E+02  0.00000000000E+00 0. -1.
        -11    1    5    5    0    0 -0.25471761264E+03 -0.19531879552E+03  0.68183505618E+03  0.75361099906E+03  0.00000000000E+00 0.  1.
          1    1    6    6  503    0 -0.15669906947E+01  0.25887914949E+01  0.10358903880E+02  0.10791857617E+02  0.00000000000E+00 0. -1.
         -1    1    6    6    0  503  0.59551457552E+03 -0.10053919282E+03  0.56606591330E+03  0.82775380226E+03  0.00000000000E+00 0.  1.
<mgrwt>
<rscale>  0 0.16697742E+04</rscale>
<asrwt>0</asrwt>
<pdfrwt beam="1">  1        1 0.25959980E+00 0.16697742E+04</pdfrwt>
<pdfrwt beam="2">  1       -2 0.63551302E-01 0.16697742E+04</pdfrwt>
<totfact> 0.93278622E+00</totfact>
</mgrwt>
</event>
<event>
12    4  0.4183215E-008  0.1855903E+04  0.7818608E-02  0.8677123E-01
         -2   -1    0    0    0  501 -0.00000000000E+00  0.00000000000E+00  0.16521567898E+04  0.16521567898E+04  0.00000000000E+00 0.  1.
          1   -1    0    0  501    0  0.00000000000E+00 -0.00000000000E+00 -0.52119400455E+03  0.52119400455E+03  0.00000000000E+00 0. -1.
        -24    2    1    2    0    0 -0.45945288494E+01  0.53429254984E+03  0.96989356397E+03  0.11101973068E+04  0.79717601925E+02 0.  0.
        254    2    1    2    0    0  0.45945288494E+01 -0.53429254984E+03  0.16106922133E+03  0.10631534876E+04  0.90491016441E+03 0.  0.
         23    2    4    4    0    0  0.20110113378E+03 -0.65925380797E+03 -0.99209536940E+02  0.70237239498E+03  0.91799780386E+02 0.  0.
         23    2    4    4    0    0 -0.19650660493E+03  0.12496125813E+03  0.26027875827E+03  0.36078109263E+03  0.90486479547E+02 0.  0.
          1    1    3    3  502    0  0.33291762710E+02  0.35507920812E+03  0.66115804966E+03  0.75121205537E+03  0.00000000000E+00 0. -1.
         -2    1    3    3    0  502 -0.37886291559E+02  0.17921334172E+03  0.30873551432E+03  0.35898525142E+03  0.00000000000E+00 0.  1.
         11    1    5    5    0    0  0.66662205466E+02 -0.32194919941E+03 -0.12304832790E+02  0.32900842778E+03  0.00000000000E+00 0. -1.
        -11    1    5    5    0    0  0.13443892831E+03 -0.33730460856E+03 -0.86904704150E+02  0.37336396720E+03  0.00000000000E+00 0.  1.
          4    1    6    6  503    0 -0.13459917694E+03  0.13010268486E+03  0.20518780514E+03  0.27775111596E+03  0.00000000000E+00 0. -1.
         -4    1    6    6    0  503 -0.61907427987E+02 -0.51414267296E+01  0.55090953126E+02  0.83029976666E+02  0.00000000000E+00 0.  1.
<mgrwt>
<rscale>  0 0.18559032E+04</rscale>
<asrwt>0</asrwt>
<pdfrwt beam="1">  1        1 0.80183694E-01 0.18559032E+04</pdfrwt>
<pdfrwt beam="2">  1       -2 0.25417796E+00 0.18559032E+04</pdfrwt>
<totfact> 0.20829221E+00</totfact>
</mgrwt>
</event>
<event>
12    4  0.4183215E-008  0.1732713E+04  0.7818608E-02  0.8742924E-01
         -2   -1    0    0    0  501 -0.00000000000E+00  0.00000000000E+00  0.12668918009E+04  0.12668918009E+04  0.00000000000E+00 0.  1.
          1   -1    0    0  501    0  0.00000000000E+00 -0.00000000000E+00 -0.59245258425E+03  0.59245258425E+03  0.00000000000E+00 0. -1.
        -24    2    1    2    0    0  0.22890607821E+03  0.34981301298E+02  0.87491754075E+03  0.90852548868E+03  0.79474375656E+02 0.  0.
        254    2    1    2    0    0 -0.22890607821E+03 -0.34981301298E+02 -0.20047832414E+03  0.95081889642E+03  0.90013517388E+03 0.  0.
         23    2    4    4    0    0  0.12407359869E+03 -0.34180867348E+03 -0.27960566113E+03  0.46776023886E+03  0.91612707461E+02 0.  0.
         23    2    4    4    0    0 -0.35297967689E+03  0.30682737218E+03  0.79127336990E+02  0.48305865756E+03  0.91361056051E+02 0.  0.
          1    1    3    3  502    0  0.65569793038E+02  0.31085932848E+02  0.39361239643E+03  0.40024548918E+03  0.00000000000E+00 0. -1.
         -2    1    3    3    0  502  0.16333628517E+03  0.38953684498E+01  0.48130514432E+03  0.50827999951E+03  0.00000000000E+00 0.  1.
         11    1    5    5    0    0  0.13634653698E+03 -0.27464717914E+03 -0.23261939663E+03  0.38488080602E+03  0.00000000000E+00 0.  1.
        -11    1    5    5    0    0 -0.12272938293E+02 -0.67161494343E+02 -0.46986264505E+02  0.82879432846E+02  0.00000000000E+00 0. -1.
          1    1    6    6  503    0 -0.20031159782E+03  0.21760182463E+03  0.19334993675E+02  0.29639354291E+03  0.00000000000E+00 0. -1.
         -1    1    6    6    0  503 -0.15266807908E+03  0.89225547552E+02  0.59792343315E+02  0.18666511464E+03  0.00000000000E+00 0.  1.
<mgrwt>
<rscale>  0 0.17327127E+04</rscale>
<asrwt>0</asrwt>
<pdfrwt beam="1">  1        1 0.91146552E-01 0.17327127E+04</pdfrwt>
<pdfrwt beam="2">  1       -2 0.19490643E+00 0.17327127E+04</pdfrwt>
<totfact> 0.41607797E+00</totfact>
</mgrwt>
</event>
<event>
12    4  0.4183215E-008  0.1229979E+04  0.7818608E-02  0.9087013E-01
         -2   -1    0    0    0  501 -0.00000000000E+00  0.00000000000E+00  0.97732236448E+02  0.97732236448E+02  0.00000000000E+00 0.  1.
          1   -1    0    0  501    0  0.00000000000E+00 -0.00000000000E+00 -0.38698795308E+04  0.38698795308E+04  0.00000000000E+00 0. -1.
        -24    2    1    2    0    0  0.41589377847E+02 -0.15221013545E+02 -0.17849513960E+04  0.17872742476E+04  0.79601472851E+02 0.  0.
        254    2    1    2    0    0 -0.41589377847E+02  0.15221013545E+02 -0.19871958984E+04  0.21803375196E+04  0.89608191898E+03 0.  0.
         23    2    4    4    0    0  0.34310663282E+02 -0.42767207379E+03 -0.93957646997E+03  0.10367154675E+04  0.88850398184E+02 0.  0.
         23    2    4    4    0    0 -0.75900041129E+02  0.44289308734E+03 -0.10476194284E+04  0.11436220522E+04  0.91922948306E+02 0.  0.
          1    1    3    3  502    0  0.55110761257E+02  0.13053964903E+02 -0.13543918583E+04  0.13555754896E+04  0.00000000000E+00 0. -1.
         -2    1    3    3    0  502 -0.13521383410E+02 -0.28274978448E+02 -0.43055953766E+03  0.43169875803E+03  0.00000000000E+00 0.  1.
         11    1    5    5    0    0  0.32128464173E+02 -0.65500849403E+02 -0.20742151600E+03  0.21987788607E+03  0.00000000000E+00 0. -1.
        -11    1    5    5    0    0  0.21821991089E+01 -0.36217122439E+03 -0.73215495398E+03  0.81683758141E+03  0.00000000000E+00 0.  1.
          2    1    6    6  503    0 -0.37286673821E+01 -0.23581329974E+01 -0.19669556417E+01  0.48303898576E+01  0.00000000000E+00 0. -1.
         -2    1    6    6    0  503 -0.72171373747E+02  0.44525122034E+03 -0.10456524727E+04  0.11387916623E+04  0.00000000000E+00 0.  1.
<mgrwt>
<rscale>  0 0.12299788E+04</rscale>
<asrwt>0</asrwt>
<pdfrwt beam="1">  1        1 0.59536611E+00 0.12299788E+04</pdfrwt>
<pdfrwt beam="2">  1       -2 0.15035728E-01 0.12299788E+04</pdfrwt>
<totfact> 0.38843475E+00</totfact>
</mgrwt>
</event>
<event>
12    4  0.4183215E-008  0.1488139E+04  0.7818608E-02  0.8892379E-01
          1   -1    0    0  501    0  0.00000000000E+00  0.00000000000E+00  0.20500333705E+04  0.20500333705E+04  0.00000000000E+00 0. -1.
         -2   -1    0    0    0  501 -0.00000000000E+00 -0.00000000000E+00 -0.27006344488E+03  0.27006344488E+03  0.00000000000E+00 0.  1.
        -24    2    1    2    0    0  0.29440361477E+03  0.26059542394E+03  0.96050795381E+03  0.10410543762E+04  0.81456868838E+02 0.  0.
        254    2    1    2    0    0 -0.29440361477E+03 -0.26059542394E+03  0.81946197182E+03  0.12790424392E+04  0.89991564863E+03 0.  0.
         23    2    4    4    0    0 -0.44339762681E+03  0.18111451195E+03  0.54142400260E+03  0.72878062626E+03  0.92613868960E+02 0.  0.
         23    2    4    4    0    0  0.14899401204E+03 -0.44170993589E+03  0.27803796922E+03  0.55026181294E+03  0.90421608942E+02 0.  0.
          3    1    3    3  502    0  0.24509075294E+03  0.24551406296E+03  0.78750126232E+03  0.86052592665E+03  0.00000000000E+00 0. -1.
         -4    1    3    3    0  502  0.49312861832E+02  0.15081360976E+02  0.17300669149E+03  0.18052844953E+03  0.00000000000E+00 0.  1.
         11    1    5    5    0    0 -0.33640408822E+03  0.92456641313E+02  0.38825051348E+03  0.52197164896E+03  0.00000000000E+00 0. -1.
        -11    1    5    5    0    0 -0.10699353859E+03  0.88657870639E+02  0.15317348911E+03  0.20680897730E+03  0.00000000000E+00 0.  1.
          4    1    6    6  503    0  0.15668877370E+03 -0.38389437173E+03  0.22673142104E+03  0.47258163077E+03  0.00000000000E+00 0. -1.
         -4    1    6    6    0  503 -0.76947616690E+01 -0.57815564165E+02  0.51306548175E+02  0.77680182173E+02  0.00000000000E+00 0.  1.
<mgrwt>
<rscale>  0 0.14881385E+04</rscale>
<asrwt>0</asrwt>
<pdfrwt beam="1">  1        1 0.31538974E+00 0.14881385E+04</pdfrwt>
<pdfrwt beam="2">  1       -2 0.41548224E-01 0.14881385E+04</pdfrwt>
<totfact> 0.12867577E+01</totfact>
</mgrwt>
</event>
<event>
12    4  0.4183215E-008  0.2329673E+04  0.7818608E-02  0.8466312E-01
         -2   -1    0    0    0  501 -0.00000000000E+00  0.00000000000E+00  0.14746531904E+04  0.14746531904E+04  0.00000000000E+00 0.  1.
          1   -1    0    0  501    0  0.00000000000E+00 -0.00000000000E+00 -0.92011090342E+03  0.92011090342E+03  0.00000000000E+00 0. -1.
        -24    2    1    2    0    0 -0.42642506270E+03 -0.50501701541E+02 -0.68015837665E+03  0.80831354900E+03  0.79791103620E+02 0.  0.
        254    2    1    2    0    0  0.42642506270E+03  0.50501701541E+02  0.12347006636E+04  0.15864505448E+04  0.89886086042E+03 0.  0.
         23    2    4    4    0    0  0.26959745879E+03  0.85052876308E+02 -0.39456668603E+02  0.29909948941E+03  0.89369426059E+02 0.  0.
         23    2    4    4    0    0  0.15682760391E+03 -0.34551174767E+02  0.12741573322E+04  0.12873510554E+04  0.89482688562E+02 0.  0.
          1    1    3    3  502    0 -0.33457526175E+03 -0.63022407114E+02 -0.57403725287E+03  0.66740632096E+03  0.00000000000E+00 0. -1.
         -2    1    3    3    0  502 -0.91849800946E+02  0.12520705573E+02 -0.10612112377E+03  0.14090722804E+03  0.00000000000E+00 0.  1.
         11    1    5    5    0    0  0.25069505891E+03  0.10164837303E+03 -0.29797532662E+02  0.27215491408E+03  0.00000000000E+00 0. -1.
        -11    1    5    5    0    0  0.18902399872E+02 -0.16595496726E+02 -0.96591359411E+01  0.26944575328E+02  0.00000000000E+00 0.  1.
          3    1    6    6  503    0  0.14533877632E+03 -0.58952344184E+02  0.10947393199E+04  0.11059172289E+04  0.00000000000E+00 0. -1.
         -3    1    6    6    0  503  0.11488827587E+02  0.24401169416E+02  0.17941801233E+03  0.18143382644E+03  0.00000000000E+00 0.  1.
<mgrwt>
<rscale>  0 0.23296733E+04</rscale>
<asrwt>0</asrwt>
<pdfrwt beam="1">  1        1 0.14155552E+00 0.23296733E+04</pdfrwt>
<pdfrwt beam="2">  1       -2 0.22686972E+00 0.23296733E+04</pdfrwt>
<totfact> 0.12386340E+00</totfact>
</mgrwt>
</event>
<event>
12    4  0.4183215E-008  0.2056420E+04  0.7818608E-02  0.8580687E-01
         -2   -1    0    0    0  501 -0.00000000000E+00  0.00000000000E+00  0.79925622650E+03  0.79925622650E+03  0.00000000000E+00 0.  1.
          1   -1    0    0  501    0  0.00000000000E+00 -0.00000000000E+00 -0.13227500036E+04  0.13227500036E+04  0.00000000000E+00 0. -1.
        -24    2    1    2    0    0  0.79096709266E+03  0.13198526911E+03  0.69456885157E+02  0.80888821547E+03  0.80167532682E+02 0.  0.
        254    2    1    2    0    0 -0.79096709266E+03 -0.13198526911E+03 -0.59295066230E+03  0.13131180147E+04  0.85418931133E+03 0.  0.
         23    2    4    4    0    0 -0.26709558174E+03 -0.26938092699E+03  0.12438662124E+03  0.40959878513E+03  0.91613315764E+02 0.  0.
         23    2    4    4    0    0 -0.52387151093E+03  0.13739565789E+03 -0.71733728354E+03  0.90351922954E+03  0.91952667311E+02 0.  0.
          1    1    3    3  502    0  0.10559565076E+03  0.15236277903E+02 -0.17889910731E+02  0.10817871570E+03  0.00000000000E+00 0. -1.
         -2    1    3    3    0  502  0.68537144190E+03  0.11674899120E+03  0.87346795889E+02  0.70070949977E+03  0.00000000000E+00 0.  1.
         11    1    5    5    0    0  0.71066279654E+01 -0.36452096871E+01 -0.70111685618E-01  0.79872792833E+01  0.00000000000E+00 0. -1.
        -11    1    5    5    0    0 -0.27420220970E+03 -0.26573571730E+03  0.12445673292E+03  0.40161150584E+03  0.00000000000E+00 0.  1.
          1    1    6    6  503    0 -0.59961745261E+02  0.34070919178E+02 -0.13716781717E+03  0.15352930827E+03  0.00000000000E+00 0. -1.
         -1    1    6    6    0  503 -0.46390976567E+03  0.10332473871E+03 -0.58016946637E+03  0.74998992128E+03  0.00000000000E+00 0.  1.
<mgrwt>
<rscale>  0 0.20564204E+04</rscale>
<asrwt>0</asrwt>
<pdfrwt beam="1">  1        1 0.20350000E+00 0.20564204E+04</pdfrwt>
<pdfrwt beam="2">  1       -2 0.12296250E+00 0.20564204E+04</pdfrwt>
<totfact> 0.35268071E+00</totfact>
</mgrwt>
</event>
<event>
12    4  0.4183215E-008  0.1393490E+04  0.7818608E-02  0.8958545E-01
         -2   -1    0    0    0  501 -0.00000000000E+00  0.00000000000E+00  0.21969755118E+03  0.21969755118E+03  0.00000000000E+00 0.  1.
          1   -1    0    0  501    0  0.00000000000E+00 -0.00000000000E+00 -0.22096434860E+04  0.22096434860E+04  0.00000000000E+00 0. -1.
        -24    2    1    2    0    0 -0.21236937319E+03 -0.25501169967E+03 -0.19168171063E+03  0.39166837907E+03  0.80811653462E+02 0.  0.
        254    2    1    2    0    0  0.21236937319E+03  0.25501169967E+03 -0.17982642242E+04  0.20376726581E+04  0.89901274962E+03 0.  0.
         23    2    4    4    0    0  0.28808000443E+03 -0.24676345492E+03 -0.45840286932E+03  0.60192690991E+03  0.91107204081E+02 0.  0.
         23    2    4    4    0    0 -0.75710631234E+02  0.50177515459E+03 -0.13398613549E+04  0.14357457482E+04  0.92881633114E+02 0.  0.
          1    1    3    3  502    0 -0.22180071398E+02 -0.43563598684E+02 -0.62389813173E+02  0.79260529176E+02  0.00000000000E+00 0. -1.
         -2    1    3    3    0  502 -0.19018930180E+03 -0.21144810099E+03 -0.12929189746E+03  0.31240784990E+03  0.00000000000E+00 0.  1.
         11    1    5    5    0    0  0.27979496612E+03 -0.20374943311E+03 -0.40093828659E+03  0.52967024101E+03  0.00000000000E+00 0. -1.
        -11    1    5    5    0    0  0.82850383116E+01 -0.43014021808E+02 -0.57464582736E+02  0.72256668903E+02  0.00000000000E+00 0.  1.
          1    1    6    6  503    0 -0.69814363799E+02  0.16683216965E+03 -0.47823744903E+03  0.51129059827E+03  0.00000000000E+00 0. -1.
         -1    1    6    6    0  503 -0.58962674348E+01  0.33494298494E+03 -0.86162390587E+03  0.92445514996E+03  0.00000000000E+00 0.  1.
<mgrwt>
<rscale>  0 0.13934895E+04</rscale>
<asrwt>0</asrwt>
<pdfrwt beam="1">  1        1 0.33994516E+00 0.13934895E+04</pdfrwt>
<pdfrwt beam="2">  1       -2 0.33799622E-01 0.13934895E+04</pdfrwt>
<totfact> 0.15077617E+01</totfact>
</mgrwt>
</event>
<event>
12    4  0.4183215E-008  0.1157037E+04  0.7818608E-02  0.9151316E-01
         -4   -1    0    0    0  501 -0.00000000000E+00  0.00000000000E+00  0.86446979742E+03  0.86446979742E+03  0.00000000000E+00 0.  1.
          3   -1    0    0  501    0  0.00000000000E+00 -0.00000000000E+00 -0.38715491783E+03  0.38715491783E+03  0.00000000000E+00 0. -1.
        -24    2    1    2    0    0 -0.16586689625E+03  0.75578501988E+01  0.25804270807E+03  0.31717562858E+03  0.80283197514E+02 0.  0.
        254    2    1    2    0    0  0.16586689625E+03 -0.75578501988E+01  0.21927217152E+03  0.93444908667E+03  0.89305423240E+03 0.  0.
         23    2    4    4    0    0  0.61428515574E+02  0.12403114947E+03 -0.32089363495E+03  0.36148721000E+03  0.92428834661E+02 0.  0.
         23    2    4    4    0    0  0.10443838068E+03 -0.13158899967E+03  0.54016580647E+03  0.57296187667E+03  0.91011941220E+02 0.  0.
          1    1    3    3  502    0 -0.54857916839E+02  0.11085684115E+02  0.29943331458E+02  0.63473510467E+02  0.00000000000E+00 0. -1.
         -2    1    3    3    0  502 -0.11100897941E+03 -0.35278339163E+01  0.22809937661E+03  0.25370211811E+03  0.00000000000E+00 0.  1.
         11    1    5    5    0    0  0.41363967547E+02  0.84090099025E+02 -0.29566522821E+03  0.31016132857E+03  0.00000000000E+00 0. -1.
        -11    1    5    5    0    0  0.20064548027E+02  0.39941050449E+02 -0.25228406742E+02  0.51325881436E+02  0.00000000000E+00 0.  1.
          1    1    6    6  503    0  0.11226872623E+03 -0.85094034624E+02  0.44483451802E+03  0.46660798326E+03  0.00000000000E+00 0. -1.
         -1    1    6    6    0  503 -0.78303455545E+01 -0.46494965048E+02  0.95331288453E+02  0.10635389341E+03  0.00000000000E+00 0.  1.
<mgrwt>
<rscale>  0 0.11570371E+04</rscale>
<asrwt>0</asrwt>
<pdfrwt beam="1">  1        3 0.59562295E-01 0.11570371E+04</pdfrwt>
<pdfrwt beam="2">  1       -4 0.13299535E+00 0.11570371E+04</pdfrwt>
<totfact> 0.25445863E+00</totfact>
</mgrwt>
</event>
<event>
12    4  0.4183215E-008  0.1480004E+04  0.7818608E-02  0.8897860E-01
          1   -1    0    0  501    0  0.00000000000E+00  0.00000000000E+00  0.15400610149E+04  0.15400610149E+04  0.00000000000E+00 0. -1.
         -2   -1    0    0    0  501 -0.00000000000E+00 -0.00000000000E+00 -0.35557244878E+03  0.35557244878E+03  0.00000000000E+00 0.  1.
        -24    2    1    2    0    0 -0.17967228635E+03  0.39519917021E+03  0.17628103743E+03  0.47525028041E+03  0.79519244539E+02 0.  0.
        254    2    1    2    0    0  0.17967228635E+03 -0.39519917021E+03  0.10082075287E+04  0.14203831833E+04  0.90141081193E+03 0.  0.
         23    2    4    4    0    0 -0.53234810367E+02 -0.35373922317E+03 -0.11884408273E+02  0.36944740693E+03  0.91568358527E+02 0.  0.
         23    2    4    4    0    0  0.23290709671E+03 -0.41459947046E+02  0.10200919370E+04  0.10509357764E+04  0.88959559742E+02 0.  0.
          3    1    3    3  502    0 -0.21904755233E+02  0.56358346526E+02 -0.33461899334E+01  0.60558059018E+02  0.00000000000E+00 0. -1.
         -4    1    3    3    0  502 -0.15776753111E+03  0.33884082369E+03  0.17962722737E+03  0.41469222139E+03  0.00000000000E+00 0.  1.
         11    1    5    5    0    0 -0.18231385122E+02 -0.26601684487E+03  0.25526308698E+02  0.26785992159E+03  0.00000000000E+00 0.  1.
        -11    1    5    5    0    0 -0.35003425244E+02 -0.87722378296E+02 -0.37410716971E+02  0.10158748534E+03  0.00000000000E+00 0. -1.
          3    1    6    6  503    0  0.18729987625E+03 -0.21863026469E+02  0.62760512961E+03  0.65532238958E+03  0.00000000000E+00 0. -1.
         -3    1    6    6    0  503  0.45607220461E+02 -0.19596920577E+02  0.39248680739E+03  0.39561338681E+03  0.00000000000E+00 0.  1.
<mgrwt>
<rscale>  0 0.14800044E+04</rscale>
<asrwt>0</asrwt>
<pdfrwt beam="1">  1        1 0.23693246E+00 0.14800044E+04</pdfrwt>
<pdfrwt beam="2">  1       -2 0.54703455E-01 0.14800044E+04</pdfrwt>
<totfact> 0.16405208E+01</totfact>
</mgrwt>
</event>
<event>
12    4  0.4183215E-008  0.1305121E+04  0.7818608E-02  0.9025514E-01
         -2   -1    0    0    0  501 -0.00000000000E+00  0.00000000000E+00  0.40340535124E+03  0.40340535124E+03  0.00000000000E+00 0.  1.
          1   -1    0    0  501    0  0.00000000000E+00 -0.00000000000E+00 -0.10556007559E+04  0.10556007559E+04  0.00000000000E+00 0. -1.
        -24    2    1    2    0    0 -0.13464605294E+03 -0.60971953315E+02  0.16854895704E+03  0.23831074707E+03  0.80846289872E+02 0.  0.
        254    2    1    2    0    0  0.13464605294E+03  0.60971953315E+02 -0.82074436171E+03  0.12206953601E+04  0.89141949507E+03 0.  0.
         23    2    4    4    0    0  0.10378490430E+03 -0.27633504101E+03  0.20058060765E+02  0.30970134114E+03  0.91543616112E+02 0.  0.
         23    2    4    4    0    0  0.30861148638E+02  0.33730699433E+03 -0.84080242247E+03  0.91099401894E+03  0.90735715095E+02 0.  0.
          1    1    3    3  502    0 -0.68238685642E+02 -0.17895452822E+01  0.32112205904E+02  0.75438149888E+02  0.00000000000E+00 0. -1.
         -2    1    3    3    0  502 -0.66407367295E+02 -0.59182408033E+02  0.13643675113E+03  0.16287259718E+03  0.00000000000E+00 0.  1.
         11    1    5    5    0    0  0.12488318741E+02  0.39888901468E+01 -0.45083119943E+01  0.13863413238E+02  0.00000000000E+00 0. -1.
        -11    1    5    5    0    0  0.91296585559E+02 -0.28032393116E+03  0.24566372760E+02  0.29583792790E+03  0.00000000000E+00 0.  1.
          1    1    6    6  503    0  0.17360452694E+02  0.10957373674E+03 -0.17510356705E+03  0.20728976891E+03  0.00000000000E+00 0. -1.
         -1    1    6    6    0  503  0.13500695943E+02  0.22773325759E+03 -0.66569885542E+03  0.70370425003E+03  0.00000000000E+00 0.  1.
<mgrwt>
<rscale>  0 0.13051207E+04</rscale>
<asrwt>0</asrwt>
<pdfrwt beam="1">  1        1 0.16240011E+00 0.13051207E+04</pdfrwt>
<pdfrwt beam="2">  1       -2 0.62062363E-01 0.13051207E+04</pdfrwt>
<totfact> 0.28445452E+01</totfact>
</mgrwt>
</event>
<event>
12    4  0.4183215E-008  0.1920575E+04  0.7818608E-02  0.8644682E-01
          1   -1    0    0  501    0  0.00000000000E+00  0.00000000000E+00  0.22908791649E+04  0.22908791649E+04  0.00000000000E+00 0. -1.
         -2   -1    0    0    0  501 -0.00000000000E+00 -0.00000000000E+00 -0.40253196395E+03  0.40253196395E+03  0.00000000000E+00 0.  1.
        -24    2    1    2    0    0  0.19197948454E+03 -0.34921605675E+03 -0.13945414638E+03  0.42997585067E+03  0.81386709247E+02 0.  0.
        254    2    1    2    0    0 -0.19197948454E+03  0.34921605675E+03  0.20278013473E+04  0.22634352782E+04  0.92322964503E+03 0.  0.
         23    2    4    4    0    0 -0.48034186525E+03  0.28489855865E+03  0.17735241043E+04  0.18616082385E+04  0.91115250657E+02 0.  0.
         23    2    4    4    0    0  0.28836238072E+03  0.64317498100E+02  0.25427724301E+03  0.40182703965E+03  0.97562545606E+02 0.  0.
          1    1    3    3  502    0  0.12368464621E+01 -0.37936083609E+02  0.30444165380E+01  0.38078139409E+02  0.00000000000E+00 0. -1.
         -2    1    3    3    0  502  0.19074263808E+03 -0.31127997314E+03 -0.14249856292E+03  0.39189771126E+03  0.00000000000E+00 0.  1.
         11    1    5    5    0    0 -0.52097059150E+02  0.75182973279E+01  0.22971843736E+03  0.23567178200E+03  0.00000000000E+00 0. -1.
        -11    1    5    5    0    0 -0.42824480610E+03  0.27738026132E+03  0.15438056669E+04  0.16259364565E+04  0.00000000000E+00 0.  1.
          3    1    6    6  503    0  0.27166883031E+03  0.33174865953E+02  0.20882763247E+03  0.34425790503E+03  0.00000000000E+00 0.  1.
         -3    1    6    6    0  503  0.16693550404E+02  0.31142632147E+02  0.45449610540E+02  0.57569134615E+02  0.00000000000E+00 0. -1.
<mgrwt>
<rscale>  0 0.19205750E+04</rscale>
<asrwt>0</asrwt>
<pdfrwt beam="1">  1        1 0.35244294E+00 0.19205750E+04</pdfrwt>
<pdfrwt beam="2">  1       -2 0.61927996E-01 0.19205750E+04</pdfrwt>
<totfact> 0.37520811E+00</totfact>
</mgrwt>
</event>
<event>
12    4  0.4183215E-008  0.1471662E+04  0.7818608E-02  0.8903519E-01
         -2   -1    0    0    0  501 -0.00000000000E+00  0.00000000000E+00  0.19810985762E+03  0.19810985762E+03  0.00000000000E+00 0.  1.
          1   -1    0    0  501    0  0.00000000000E+00 -0.00000000000E+00 -0.27330639642E+04  0.27330639642E+04  0.00000000000E+00 0. -1.
        -24    2    1    2    0    0 -0.16656011789E+03 -0.33491046815E+03 -0.13197178377E+04  0.13740220689E+04  0.79838462978E+02 0.  0.
        254    2    1    2    0    0  0.16656011789E+03  0.33491046815E+03 -0.12152362689E+04  0.15571517529E+04  0.89889660020E+03 0.  0.
         23    2    4    4    0    0  0.20654511278E+03  0.59882988591E+03 -0.58954701937E+03  0.87072301010E+03  0.96616543088E+02 0.  0.
         23    2    4    4    0    0 -0.39984994882E+02 -0.26391941775E+03 -0.62568924955E+03  0.68642874285E+03  0.91897351011E+02 0.  0.
          3    1    3    3  502    0 -0.77644591934E+02 -0.21096117519E+03 -0.67273507754E+03  0.70929950278E+03  0.00000000000E+00 0. -1.
         -4    1    3    3    0  502 -0.88915525960E+02 -0.12394929297E+03 -0.64698276015E+03  0.66472256613E+03  0.00000000000E+00 0.  1.
         11    1    5    5    0    0  0.13521294813E+03  0.26184938630E+03 -0.24102161653E+03  0.38070863148E+03  0.00000000000E+00 0. -1.
        -11    1    5    5    0    0  0.71332164646E+02  0.33698049961E+03 -0.34852540284E+03  0.49001437862E+03  0.00000000000E+00 0.  1.
          3    1    6    6  503    0 -0.22215157066E+02 -0.60853396778E+02 -0.25807509666E+03  0.26608157513E+03  0.00000000000E+00 0. -1.
         -3    1    6    6    0  503 -0.17769837816E+02 -0.20306602098E+03 -0.36761415289E+03  0.42034716772E+03  0.00000000000E+00 0.  1.
<mgrwt>
<rscale>  0 0.14716615E+04</rscale>
<asrwt>0</asrwt>
<pdfrwt beam="1">  1        1 0.42047136E+00 0.14716615E+04</pdfrwt>
<pdfrwt beam="2">  1       -2 0.30478441E-01 0.14716615E+04</pdfrwt>
<totfact> 0.79167477E+00</totfact>
</mgrwt>
</event>
<event>
12    4  0.4183215E-008  0.2334987E+04  0.7818608E-02  0.8464253E-01
         -2   -1    0    0    0  501 -0.00000000000E+00  0.00000000000E+00  0.55974454246E+03  0.55974454246E+03  0.00000000000E+00 0.  1.
          1   -1    0    0  501    0  0.00000000000E+00 -0.00000000000E+00 -0.24351119515E+04  0.24351119515E+04  0.00000000000E+00 0. -1.
        -24    2    1    2    0    0 -0.92740585266E+03  0.15922189430E+03 -0.13283271690E+04  0.16298905442E+04  0.81589771747E+02 0.  0.
        254    2    1    2    0    0  0.92740585266E+03 -0.15922189430E+03 -0.54704023997E+03  0.13649659497E+04  0.82367820941E+03 0.  0.
         23    2    4    4    0    0  0.79133443878E+03  0.19638689304E+03 -0.52411875931E+03  0.97270205191E+03  0.81674978839E+02 0.  0.
         23    2    4    4    0    0  0.13607141387E+03 -0.35560878734E+03 -0.22921480652E+02  0.39226389784E+03  0.91501540769E+02 0.  0.
          3    1    3    3  502    0 -0.52541549693E+03  0.11830577654E+03 -0.70785193121E+03  0.88944480306E+03  0.00000000000E+00 0. -1.
         -4    1    3    3    0  502 -0.40199035573E+03  0.40916117763E+02 -0.62047523783E+03  0.74044574113E+03  0.00000000000E+00 0.  1.
         11    1    5    5    0    0  0.35095094737E+03  0.12786129689E+03 -0.22777139370E+03  0.43748701294E+03  0.00000000000E+00 0.  1.
        -11    1    5    5    0    0  0.44038349141E+03  0.68525596147E+02 -0.29634736561E+03  0.53521503897E+03  0.00000000000E+00 0. -1.
          4    1    6    6  503    0  0.74653260190E+02 -0.29526190614E+03 -0.65900590165E+01  0.30462457444E+03  0.00000000000E+00 0. -1.
         -4    1    6    6    0  503  0.61418153685E+02 -0.60346881195E+02 -0.16331421635E+02  0.87639323392E+02  0.00000000000E+00 0.  1.
<mgrwt>
<rscale>  0 0.23349866E+04</rscale>
<asrwt>0</asrwt>
<pdfrwt beam="1">  1        1 0.37463261E+00 0.23349866E+04</pdfrwt>
<pdfrwt beam="2">  1       -2 0.86114545E-01 0.23349866E+04</pdfrwt>
<totfact> 0.13916411E+00</totfact>
</mgrwt>
</event>
<event>
12    4  0.4183215E-008  0.2427379E+04  0.7818608E-02  0.8429324E-01
         -2   -1    0    0    0  501 -0.00000000000E+00  0.00000000000E+00  0.15629965054E+04  0.15629965054E+04  0.00000000000E+00 0.  1.
          1   -1    0    0  501    0  0.00000000000E+00 -0.00000000000E+00 -0.94244740422E+03  0.94244740422E+03  0.00000000000E+00 0. -1.
        -24    2    1    2    0    0  0.95283582655E+03  0.22280695771E+03 -0.10876421790E+03  0.98781780680E+03  0.80095640155E+02 0.  0.
        254    2    1    2    0    0 -0.95283582655E+03 -0.22280695771E+03  0.72931331906E+03  0.15176261028E+04  0.90208204601E+03 0.  0.
         23    2    4    4    0    0 -0.68439940638E+02 -0.30222800480E+03 -0.57319648532E+02  0.32762069903E+03  0.89576715540E+02 0.  0.
         23    2    4    4    0    0 -0.88439588591E+03  0.79421047092E+02  0.78663296759E+03  0.11900054038E+04  0.94115086588E+02 0.  0.
          1    1    3    3  502    0  0.56373712231E+03  0.13656144540E+03 -0.10372732027E+03  0.58924352216E+03  0.00000000000E+00 0. -1.
         -4    1    3    3    0  502  0.38909870424E+03  0.86245512309E+02 -0.50368976257E+01  0.39857428464E+03  0.00000000000E+00 0.  1.
         11    1    5    5    0    0 -0.56431065409E+02 -0.69599572098E+02 -0.17825285309E+02  0.91358121565E+02  0.00000000000E+00 0. -1.
        -11    1    5    5    0    0 -0.12008875229E+02 -0.23262843270E+03 -0.39494363223E+02  0.23626257747E+03  0.00000000000E+00 0.  1.
          2    1    6    6  503    0 -0.19786243137E+02 -0.63050546248E+01  0.51156256722E+01  0.21387350405E+02  0.00000000000E+00 0. -1.
         -2    1    6    6    0  503 -0.86460964278E+03  0.85726101717E+02  0.78151734192E+03  0.11686180533E+04  0.00000000000E+00 0.  1.
<mgrwt>
<rscale>  0 0.24273788E+04</rscale>
<asrwt>0</asrwt>
<pdfrwt beam="1">  1        1 0.14499191E+00 0.24273788E+04</pdfrwt>
<pdfrwt beam="2">  1       -2 0.24046100E+00 0.24273788E+04</pdfrwt>
<totfact> 0.96952712E-01</totfact>
</mgrwt>
</event>
<event>
12    4  0.4183215E-008  0.1957943E+04  0.7818608E-02  0.8626540E-01
          3   -1    0    0  501    0  0.00000000000E+00  0.00000000000E+00  0.25490996557E+04  0.25490996557E+04  0.00000000000E+00 0. -1.
         -4   -1    0    0    0  501 -0.00000000000E+00 -0.00000000000E+00 -0.37596991115E+03  0.37596991115E+03  0.00000000000E+00 0.  1.
        -24    2    1    2    0    0  0.53111622971E+03  0.36865743038E+03  0.16500382405E+04  0.17738740120E+04  0.77524609438E+02 0.  0.
        254    2    1    2    0    0 -0.53111622971E+03 -0.36865743038E+03  0.52309150404E+03  0.11511955548E+04  0.79601113895E+03 0.  0.
         23    2    4    4    0    0 -0.60658035065E+03 -0.39547680738E+03  0.64877645906E+03  0.97629685694E+03  0.88898999245E+02 0.  0.
         23    2    4    4    0    0  0.75464120947E+02  0.26819376995E+02 -0.12568495502E+03  0.17489869785E+03  0.91535425163E+02 0.  0.
          3    1    3    3  502    0  0.23686021110E+03  0.15838205984E+03  0.83246866576E+03  0.87988164884E+03  0.00000000000E+00 0. -1.
         -4    1    3    3    0  502  0.29425601860E+03  0.21027537054E+03  0.81756957472E+03  0.89399236319E+03  0.00000000000E+00 0.  1.
         11    1    5    5    0    0 -0.16985837047E+02 -0.18918473682E+02  0.47282691179E+02  0.53685009004E+02  0.00000000000E+00 0.  1.
        -11    1    5    5    0    0 -0.58959451361E+03 -0.37655833369E+03  0.60149376788E+03  0.92261184793E+03  0.00000000000E+00 0. -1.
          3    1    6    6  503    0  0.77693841961E+02 -0.13823256526E+02 -0.67235125165E+02  0.10367245321E+03  0.00000000000E+00 0. -1.
         -3    1    6    6    0  503 -0.22297210134E+01  0.40642633522E+02 -0.58449829852E+02  0.71226244637E+02  0.00000000000E+00 0.  1.
<mgrwt>
<rscale>  0 0.19579426E+04</rscale>
<asrwt>0</asrwt>
<pdfrwt beam="1">  1        3 0.39216917E+00 0.19579426E+04</pdfrwt>
<pdfrwt beam="2">  1       -4 0.57841526E-01 0.19579426E+04</pdfrwt>
<totfact> 0.74510831E-02</totfact>
</mgrwt>
</event>
<event>
12    4  0.4183215E-008  0.1420664E+04  0.7818608E-02  0.8938995E-01
         -2   -1    0    0    0  501 -0.00000000000E+00  0.00000000000E+00  0.54306868067E+03  0.54306868067E+03  0.00000000000E+00 0.  1.
          1   -1    0    0  501    0  0.00000000000E+00 -0.00000000000E+00 -0.92911248712E+03  0.92911248712E+03  0.00000000000E+00 0. -1.
        -24    2    1    2    0    0  0.23928652431E+03 -0.24967192089E+03  0.14869017949E+03  0.38544506670E+03  0.82855423309E+02 0.  0.
        254    2    1    2    0    0 -0.23928652431E+03  0.24967192089E+03 -0.53473398594E+03  0.10867361011E+04  0.88060252606E+03 0.  0.
         23    2    4    4    0    0 -0.16996370728E+03  0.54589976374E+03 -0.50697018734E+03  0.76864779409E+03  0.83105033941E+02 0.  0.
         23    2    4    4    0    0 -0.69322817027E+02 -0.29622784285E+03 -0.27763798602E+02  0.31808830700E+03  0.88615770043E+02 0.  0.
          1    1    3    3  502    0  0.33355399912E+02 -0.53366919916E+02 -0.30433759829E+01  0.63006928047E+02  0.00000000000E+00 0. -1.
         -2    1    3    3    0  502  0.20593112440E+03 -0.19630500097E+03  0.15173355547E+03  0.32243813866E+03  0.00000000000E+00 0.  1.
         11    1    5    5    0    0 -0.18529645506E+01  0.39281033792E+02 -0.13126243805E+02  0.41457585191E+02  0.00000000000E+00 0.  1.
        -11    1    5    5    0    0 -0.16811074273E+03  0.50661872995E+03 -0.49384394353E+03  0.72719020890E+03  0.00000000000E+00 0. -1.
          4    1    6    6  503    0 -0.71028328841E+02 -0.14306625977E+03  0.10943016478E+02  0.16010224169E+03  0.00000000000E+00 0. -1.
         -4    1    6    6    0  503  0.17055118142E+01 -0.15316158307E+03 -0.38706815080E+02  0.15798606532E+03  0.00000000000E+00 0.  1.
<mgrwt>
<rscale>  0 0.14206645E+04</rscale>
<asrwt>0</asrwt>
<pdfrwt beam="1">  1        1 0.14294038E+00 0.14206645E+04</pdfrwt>
<pdfrwt beam="2">  1       -2 0.83549029E-01 0.14206645E+04</pdfrwt>
<totfact> 0.18421773E+01</totfact>
</mgrwt>
</event>
<event>
12    4  0.4183215E-008  0.1801558E+04  0.7818608E-02  0.8705471E-01
          1   -1    0    0  501    0  0.00000000000E+00  0.00000000000E+00  0.12314991416E+04  0.12314991416E+04  0.00000000000E+00 0. -1.
         -2   -1    0    0    0  501 -0.00000000000E+00 -0.00000000000E+00 -0.65887416765E+03  0.65887416765E+03  0.00000000000E+00 0.  1.
        -24    2    1    2    0    0  0.58593569843E+02 -0.23439369392E+03 -0.44107281620E+03  0.50899147573E+03  0.78444139340E+02 0.  0.
        254    2    1    2    0    0 -0.58593569843E+02  0.23439369392E+03  0.10136977901E+04  0.13813818335E+04  0.90678495250E+03 0.  0.
         23    2    4    4    0    0  0.33250701129E+01 -0.19189625366E+03 -0.57210706894E+02  0.22351851018E+03  0.99258405937E+02 0.  0.
         23    2    4    4    0    0 -0.61918639956E+02  0.42628994758E+03  0.10709084970E+04  0.11578633234E+04  0.90804345445E+02 0.  0.
          3    1    3    3  502    0 -0.12593050912E+02 -0.53485681639E+01 -0.17381693428E+02  0.22120474206E+02  0.00000000000E+00 0. -1.
         -4    1    3    3    0  502  0.71186620755E+02 -0.22904512576E+03 -0.42369112277E+03  0.48687100152E+03  0.00000000000E+00 0.  1.
         11    1    5    5    0    0 -0.22337686874E+02 -0.16636247219E+02 -0.35412890840E+02  0.45053410681E+02  0.00000000000E+00 0.  1.
        -11    1    5    5    0    0  0.25662756987E+02 -0.17526000644E+03 -0.21797816054E+02  0.17846509950E+03  0.00000000000E+00 0. -1.
          2    1    6    6  503    0 -0.45860503875E+02  0.76531566159E+02  0.18923153346E+03  0.20921003726E+03  0.00000000000E+00 0. -1.
         -2    1    6    6    0  503 -0.16058136081E+02  0.34975838142E+03  0.88167696358E+03  0.94865328609E+03  0.00000000000E+00 0.  1.
<mgrwt>
<rscale>  0 0.18015582E+04</rscale>
<asrwt>0</asrwt>
<pdfrwt beam="1">  1        1 0.18946141E+00 0.18015582E+04</pdfrwt>
<pdfrwt beam="2">  1       -2 0.10136526E+00 0.18015582E+04</pdfrwt>
<totfact> 0.67085770E+00</totfact>
</mgrwt>
</event>
<event>
12    4  0.4183215E-008  0.1298541E+04  0.7818608E-02  0.9030723E-01
          1   -1    0    0  501    0  0.00000000000E+00  0.00000000000E+00  0.13470352151E+04  0.13470352151E+04  0.00000000000E+00 0. -1.
         -2   -1    0    0    0  501 -0.00000000000E+00 -0.00000000000E+00 -0.31294806666E+03  0.31294806666E+03  0.00000000000E+00 0.  1.
        -24    2    1    2    0    0  0.16436297846E+02  0.22123613203E+03 -0.43283247199E+02  0.23900673253E+03  0.77686554224E+02 0.  0.
        254    2    1    2    0    0 -0.16436297846E+02 -0.22123613203E+03  0.10773703956E+04  0.14209765492E+04  0.89957312435E+03 0.  0.
         23    2    4    4    0    0  0.41528329271E+03 -0.22529312852E+03  0.63405099319E+03  0.79554408927E+03  0.87478734834E+02 0.  0.
         23    2    4    4    0    0 -0.43171959056E+03  0.40569964881E+01  0.44331940244E+03  0.62543245995E+03  0.90749133817E+02 0.  0.
          1    1    3    3  502    0 -0.81958720951E+01  0.32736078806E+02  0.19290084043E+02  0.38870689695E+02  0.00000000000E+00 0. -1.
         -2    1    3    3    0  502  0.24632169941E+02  0.18850005322E+03 -0.62573331242E+02  0.20013604284E+03  0.00000000000E+00 0.  1.
         11    1    5    5    0    0  0.74443690625E+02 -0.75198788973E+01  0.79663787651E+02  0.10929195174E+03  0.00000000000E+00 0. -1.
        -11    1    5    5    0    0  0.34083960208E+03 -0.21777324962E+03  0.55438720554E+03  0.68625213753E+03  0.00000000000E+00 0.  1.
          1    1    6    6  503    0 -0.28914815690E+03 -0.22103973832E+02  0.24404838916E+03  0.37901828260E+03  0.00000000000E+00 0. -1.
         -1    1    6    6    0  503 -0.14257143366E+03  0.26160970320E+02  0.19927101328E+03  0.24641417734E+03  0.00000000000E+00 0.  1.
<mgrwt>
<rscale>  0 0.12985408E+04</rscale>
<asrwt>0</asrwt>
<pdfrwt beam="1">  1        1 0.20723618E+00 0.12985408E+04</pdfrwt>
<pdfrwt beam="2">  1       -2 0.48145857E-01 0.12985408E+04</pdfrwt>
<totfact> 0.29497539E+01</totfact>
</mgrwt>
</event>
<event>
12    4  0.4183215E-008  0.1182465E+04  0.7818608E-02  0.9128345E-01
         -2   -1    0    0    0  501 -0.00000000000E+00  0.00000000000E+00  0.14621469511E+04  0.14621469511E+04  0.00000000000E+00 0.  1.
          1   -1    0    0  501    0  0.00000000000E+00 -0.00000000000E+00 -0.23907025504E+03  0.23907025504E+03  0.00000000000E+00 0. -1.
        -24    2    1    2    0    0 -0.18740257124E+02  0.23229714408E+03  0.35978836654E+03  0.43549270135E+03  0.76766293692E+02 0.  0.
        254    2    1    2    0    0  0.18740257124E+02 -0.23229714408E+03  0.86328832956E+03  0.12657245048E+04  0.89581171112E+03 0.  0.
         23    2    4    4    0    0  0.38219505010E+03 -0.35282462598E+03  0.55487666806E+03  0.76623018649E+03  0.93071525776E+02 0.  0.
         23    2    4    4    0    0 -0.36345479297E+03  0.12052748189E+03  0.30841166149E+03  0.49949431834E+03  0.88037268698E+02 0.  0.
          3    1    3    3  502    0  0.17162701728E+02  0.20520206223E+02  0.19588205432E+02  0.33156220926E+02  0.00000000000E+00 0. -1.
         -4    1    3    3    0  502 -0.35902958853E+02  0.21177693786E+03  0.34020016110E+03  0.40233648042E+03  0.00000000000E+00 0.  1.
         11    1    5    5    0    0  0.32329681783E+03 -0.32909066051E+03  0.45556382813E+03  0.64835167676E+03  0.00000000000E+00 0. -1.
        -11    1    5    5    0    0  0.58898232270E+02 -0.23733965469E+02  0.99312839928E+02  0.11787850973E+03  0.00000000000E+00 0.  1.
          3    1    6    6  503    0 -0.28825304724E+03  0.11629102892E+03  0.20812114558E+03  0.37406929023E+03  0.00000000000E+00 0. -1.
         -3    1    6    6    0  503 -0.75201745729E+02  0.42364529702E+01  0.10029051591E+03  0.12542502811E+03  0.00000000000E+00 0.  1.
<mgrwt>
<rscale>  0 0.11824650E+04</rscale>
<asrwt>0</asrwt>
<pdfrwt beam="1">  1        1 0.36780040E-01 0.11824650E+04</pdfrwt>
<pdfrwt beam="2">  1       -2 0.22494568E+00 0.11824650E+04</pdfrwt>
<totfact> 0.93776866E+00</totfact>
</mgrwt>
</event>
<event>
12    4  0.4183215E-008  0.1278835E+04  0.7818608E-02  0.9046520E-01
          1   -1    0    0  501    0  0.00000000000E+00  0.00000000000E+00  0.33760921587E+03  0.33760921587E+03  0.00000000000E+00 0. -1.
         -2   -1    0    0    0  501 -0.00000000000E+00 -0.00000000000E+00 -0.12110298235E+04  0.12110298235E+04  0.00000000000E+00 0.  1.
        -24    2    1    2    0    0  0.23470104667E+03 -0.82260010540E+02 -0.44769702375E+03  0.51796484899E+03  0.77483347073E+02 0.  0.
        254    2    1    2    0    0 -0.23470104667E+03  0.82260010540E+02 -0.42572358389E+03  0.10306741904E+04  0.90509525809E+03 0.  0.
         23    2    4    4    0    0 -0.13643606155E+03 -0.24842884265E+03  0.16576013384E+03  0.33992517112E+03  0.87983016793E+02 0.  0.
         23    2    4    4    0    0 -0.98264985115E+02  0.33068885319E+03 -0.59148371773E+03  0.69074901927E+03  0.90940059174E+02 0.  0.
          1    1    3    3  502    0  0.94734473721E+02 -0.62304721186E+02 -0.25398799702E+03  0.27814816451E+03  0.00000000000E+00 0. -1.
         -2    1    3    3    0  502  0.13996657295E+03 -0.19955289354E+02 -0.19370902674E+03  0.23981668448E+03  0.00000000000E+00 0.  1.
         11    1    5    5    0    0 -0.81215868599E+02 -0.73840948649E+02  0.89250252834E+02  0.14147123609E+03  0.00000000000E+00 0.  1.
        -11    1    5    5    0    0 -0.55220192956E+02 -0.17458789400E+03  0.76509881003E+02  0.19845393504E+03  0.00000000000E+00 0. -1.
          3    1    6    6  503    0 -0.59059140748E+02  0.66947328759E+02 -0.12838074311E+03  0.15636988884E+03  0.00000000000E+00 0. -1.
         -3    1    6    6    0  503 -0.39205844368E+02  0.26374152443E+03 -0.46310297462E+03  0.53437913043E+03  0.00000000000E+00 0.  1.
<mgrwt>
<rscale>  0 0.12788351E+04</rscale>
<asrwt>0</asrwt>
<pdfrwt beam="1">  1        1 0.51939880E-01 0.12788351E+04</pdfrwt>
<pdfrwt beam="2">  1       -2 0.18631228E+00 0.12788351E+04</pdfrwt>
<totfact> 0.10581852E+01</totfact>
</mgrwt>
</event>
<event>
12    4  0.4183215E-008  0.1259170E+04  0.7818608E-02  0.9062586E-01
          1   -1    0    0  501    0  0.00000000000E+00  0.00000000000E+00  0.16516452424E+04  0.16516452424E+04  0.00000000000E+00 0. -1.
         -2   -1    0    0    0  501 -0.00000000000E+00 -0.00000000000E+00 -0.23998918424E+03  0.23998918424E+03  0.00000000000E+00 0.  1.
        -24    2    1    2    0    0 -0.23896201214E+03 -0.60119312486E+02  0.63060273357E+03  0.68184089102E+03  0.80808527371E+02 0.  0.
        254    2    1    2    0    0  0.23896201214E+03  0.60119312486E+02  0.78105332458E+03  0.12097935356E+04  0.89041503131E+03 0.  0.
         23    2    4    4    0    0  0.19079592862E+03 -0.22528206015E+03 -0.59825240533E+02  0.31449086962E+03  0.90390014209E+02 0.  0.
         23    2    4    4    0    0  0.48166083525E+02  0.28540137264E+03  0.84087856511E+03  0.89530266598E+03  0.10351901927E+03 0.  0.
          3    1    3    3  502    0 -0.83685675633E+02 -0.26372123873E+02  0.13176451068E+03  0.15830561424E+03  0.00000000000E+00 0. -1.
         -4    1    3    3    0  502 -0.15527633651E+03 -0.33747188613E+02  0.49883822289E+03  0.52353527678E+03  0.00000000000E+00 0.  1.
         11    1    5    5    0    0  0.19191299177E+03 -0.17993278126E+03 -0.45955652041E+02  0.26705490846E+03  0.00000000000E+00 0.  1.
        -11    1    5    5    0    0 -0.11170631491E+01 -0.45349278892E+02 -0.13869588492E+02  0.47435961159E+02  0.00000000000E+00 0. -1.
          3    1    6    6  503    0  0.25674573286E+02  0.23573193893E+02  0.19358390296E+03  0.19669673782E+03  0.00000000000E+00 0. -1.
         -3    1    6    6    0  503  0.22491510239E+02  0.26182817874E+03  0.64729466215E+03  0.69860592816E+03  0.00000000000E+00 0.  1.
<mgrwt>
<rscale>  0 0.12591696E+04</rscale>
<asrwt>0</asrwt>
<pdfrwt beam="1">  1        1 0.25409926E+00 0.12591696E+04</pdfrwt>
<pdfrwt beam="2">  1       -2 0.36921414E-01 0.12591696E+04</pdfrwt>
<totfact> 0.30750638E+01</totfact>
</mgrwt>
</event>
<event>
12    4  0.4183215E-008  0.2293963E+04  0.7818608E-02  0.8480305E-01
         -2   -1    0    0    0  501 -0.00000000000E+00  0.00000000000E+00  0.44628754363E+03  0.44628754363E+03  0.00000000000E+00 0.  1.
          1   -1    0    0  501    0  0.00000000000E+00 -0.00000000000E+00 -0.29478001842E+04  0.29478001842E+04  0.00000000000E+00 0. -1.
        -24    2    1    2    0    0 -0.21534835267E+03  0.52686261303E+03  0.10022356167E+03  0.58336485403E+03  0.79439691521E+02 0.  0.
        254    2    1    2    0    0  0.21534835267E+03 -0.52686261303E+03 -0.26017362022E+04  0.28107228738E+04  0.89842789429E+03 0.  0.
         23    2    4    4    0    0  0.25188483769E+03 -0.72408437685E+03 -0.23627676633E+04  0.24857143749E+04  0.91437228143E+02 0.  0.
         23    2    4    4    0    0 -0.36536485024E+02  0.19722176382E+03 -0.23896853892E+03  0.32500849886E+03  0.91067133901E+02 0.  0.
          3    1    3    3  502    0 -0.10110748313E+03  0.15563993468E+03  0.45817097576E+02  0.19116934598E+03  0.00000000000E+00 0. -1.
         -4    1    3    3    0  502 -0.11424086954E+03  0.37122267835E+03  0.54406464099E+02  0.39219550805E+03  0.00000000000E+00 0.  1.
         11    1    5    5    0    0  0.20931138891E+03 -0.51158229128E+03 -0.17856979199E+04  0.18692899078E+04  0.00000000000E+00 0.  1.
        -11    1    5    5    0    0  0.42573448784E+02 -0.21250208557E+03 -0.57706974341E+03  0.61642446713E+03  0.00000000000E+00 0. -1.
          1    1    6    6  503    0 -0.54221286110E+02  0.17444242660E+03 -0.16711328528E+03  0.24758222510E+03  0.00000000000E+00 0. -1.
         -1    1    6    6    0  503  0.17684801086E+02  0.22779337211E+02 -0.71855253634E+02  0.77426273758E+02  0.00000000000E+00 0.  1.
<mgrwt>
<rscale>  0 0.22939629E+04</rscale>
<asrwt>0</asrwt>
<pdfrwt beam="1">  1        1 0.45350773E+00 0.22939629E+04</pdfrwt>
<pdfrwt beam="2">  1       -2 0.68659621E-01 0.22939629E+04</pdfrwt>
<totfact> 0.10060485E+00</totfact>
</mgrwt>
</event>
<event>
12    4  0.4183215E-008  0.1124765E+04  0.7818608E-02  0.9181385E-01
         -2   -1    0    0    0  501 -0.00000000000E+00  0.00000000000E+00  0.20788514490E+03  0.20788514490E+03  0.00000000000E+00 0.  1.
          1   -1    0    0  501    0  0.00000000000E+00 -0.00000000000E+00 -0.15213887894E+04  0.15213887894E+04  0.00000000000E+00 0. -1.
        -24    2    1    2    0    0 -0.12568801432E+03 -0.34823492266E+02 -0.21613880632E+02  0.15453317411E+03  0.80019931925E+02 0.  0.
        254    2    1    2    0    0  0.12568801432E+03  0.34823492266E+02 -0.12918897638E+04  0.15747407602E+04  0.89096528958E+03 0.  0.
         23    2    4    4    0    0  0.16299935946E+03  0.39521655990E+03 -0.10268634793E+04  0.11167792638E+04  0.99911953759E+02 0.  0.
         23    2    4    4    0    0 -0.37311345135E+02 -0.36039306763E+03 -0.26502628450E+03  0.45796149633E+03  0.90633884243E+02 0.  0.
          3    1    3    3  502    0 -0.47480770439E+01  0.14205410766E+02 -0.18754779213E+02  0.24001659817E+02  0.00000000000E+00 0. -1.
         -4    1    3    3    0  502 -0.12093993728E+03 -0.49028903032E+02 -0.28591014193E+01  0.13053151429E+03  0.00000000000E+00 0.  1.
         11    1    5    5    0    0  0.51988859835E+01 -0.30897583304E+01 -0.27113566302E+01  0.66277052428E+01  0.00000000000E+00 0. -1.
        -11    1    5    5    0    0  0.15780047347E+03  0.39830631823E+03 -0.10241521227E+04  0.11101515586E+04  0.00000000000E+00 0.  1.
          4    1    6    6  503    0 -0.63865169373E+02 -0.17748325974E+03 -0.13685578419E+03  0.23304199839E+03  0.00000000000E+00 0. -1.
         -4    1    6    6    0  503  0.26553824238E+02 -0.18290980789E+03 -0.12817050031E+03  0.22491949794E+03  0.00000000000E+00 0.  1.
<mgrwt>
<rscale>  0 0.11247651E+04</rscale>
<asrwt>0</asrwt>
<pdfrwt beam="1">  1        1 0.23405981E+00 0.11247651E+04</pdfrwt>
<pdfrwt beam="2">  1       -2 0.31982331E-01 0.11247651E+04</pdfrwt>
<totfact> 0.50186017E+01</totfact>
</mgrwt>
</event>
<event>
12    4  0.4183215E-008  0.1439168E+04  0.7818608E-02  0.8925945E-01
          1   -1    0    0  501    0  0.00000000000E+00  0.00000000000E+00  0.44942840310E+03  0.44942840310E+03  0.00000000000E+00 0. -1.
         -2   -1    0    0    0  501 -0.00000000000E+00 -0.00000000000E+00 -0.11521321290E+04  0.11521321290E+04  0.00000000000E+00 0.  1.
        -24    2    1    2    0    0 -0.56187607580E+02 -0.83306329834E+02  0.25750938273E+03  0.28719076681E+03  0.77913172919E+02 0.  0.
        254    2    1    2    0    0  0.56187607580E+02  0.83306329834E+02 -0.96021310863E+03  0.13143697653E+04  0.89188658140E+03 0.  0.
         23    2    4    4    0    0 -0.92599014613E+02 -0.20501207522E+03 -0.94727576200E+03  0.97692251188E+03  0.80260179810E+02 0.  0.
         23    2    4    4    0    0  0.14878662219E+03  0.28831840506E+03 -0.12937346637E+02  0.33744725340E+03  0.91860286603E+02 0.  0.
          3    1    3    3  502    0 -0.62775814016E+02 -0.83041817315E+02  0.26005984099E+03  0.28012116511E+03  0.00000000000E+00 0. -1.
         -4    1    3    3    0  502  0.65882064354E+01 -0.26451251948E+00 -0.25504582601E+01  0.70696017034E+01  0.00000000000E+00 0.  1.
         11    1    5    5    0    0 -0.96887092293E+02 -0.21048482223E+03 -0.91264165744E+03  0.94159745323E+03  0.00000000000E+00 0.  1.
        -11    1    5    5    0    0  0.42880776805E+01  0.54727470113E+01 -0.34634104559E+02  0.35325058650E+02  0.00000000000E+00 0. -1.
          3    1    6    6  503    0 -0.11228156351E+02  0.34670782577E+02  0.60561002788E+01  0.36943348659E+02  0.00000000000E+00 0. -1.
         -3    1    6    6    0  503  0.16001477854E+03  0.25364762248E+03 -0.18993446915E+02  0.30050390475E+03  0.00000000000E+00 0.  1.
<mgrwt>
<rscale>  0 0.14391677E+04</rscale>
<asrwt>0</asrwt>
<pdfrwt beam="1">  1        1 0.69142832E-01 0.14391677E+04</pdfrwt>
<pdfrwt beam="2">  1       -2 0.17725110E+00 0.14391677E+04</pdfrwt>
<totfact> 0.82503052E+00</totfact>
</mgrwt>
</event>
<event>
12    4  0.4183215E-008  0.1489238E+04  0.7818608E-02  0.8891641E-01
         -2   -1    0    0    0  501 -0.00000000000E+00  0.00000000000E+00  0.47951604958E+03  0.47951604958E+03  0.00000000000E+00 0.  1.
          1   -1    0    0  501    0  0.00000000000E+00 -0.00000000000E+00 -0.11562852614E+04  0.11562852614E+04  0.00000000000E+00 0. -1.
        -24    2    1    2    0    0 -0.37775787343E+03 -0.17060892138E+03  0.21238023961E+02  0.42269860489E+03  0.80091459747E+02 0.  0.
        254    2    1    2    0    0  0.37775787343E+03  0.17060892138E+03 -0.69800723579E+03  0.12131027061E+04  0.90144087956E+03 0.  0.
         23    2    4    4    0    0  0.54333145084E+03  0.12513915403E+03 -0.84658225806E+02  0.57052890040E+03  0.86413758480E+02 0.  0.
         23    2    4    4    0    0 -0.16557357741E+03  0.45469767355E+02 -0.61334900998E+03  0.64257380570E+03  0.84982224317E+02 0.  0.
          1    1    3    3  502    0 -0.93250747575E+02 -0.76172547352E+02 -0.12409903990E+02  0.12104529983E+03  0.00000000000E+00 0. -1.
         -2    1    3    3    0  502 -0.28450712585E+03 -0.94436374029E+02  0.33647927951E+02  0.30165330506E+03  0.00000000000E+00 0.  1.
         11    1    5    5    0    0  0.67351008413E+02  0.90535170121E+01  0.17246823704E+02  0.70111179083E+02  0.00000000000E+00 0. -1.
        -11    1    5    5    0    0  0.47598044242E+03  0.11608563701E+03 -0.10190504951E+03  0.50041772132E+03  0.00000000000E+00 0.  1.
          1    1    6    6  503    0 -0.16333930340E+02  0.38752385151E+02 -0.14509047309E+03  0.15106220579E+03  0.00000000000E+00 0. -1.
         -1    1    6    6    0  503 -0.14923964707E+03  0.67173822036E+01 -0.46825853689E+03  0.49151159992E+03  0.00000000000E+00 0.  1.
<mgrwt>
<rscale>  0 0.14892378E+04</rscale>
<asrwt>0</asrwt>
<pdfrwt beam="1">  1        1 0.17789004E+00 0.14892378E+04</pdfrwt>
<pdfrwt beam="2">  1       -2 0.73771700E-01 0.14892378E+04</pdfrwt>
<totfact> 0.16184732E+01</totfact>
</mgrwt>
</event>
<event>
12    4  0.4183215E-008  0.1279894E+04  0.7818608E-02  0.9045663E-01
          3   -1    0    0  501    0  0.00000000000E+00  0.00000000000E+00  0.79014065632E+03  0.79014065632E+03  0.00000000000E+00 0. -1.
         -4   -1    0    0    0  501 -0.00000000000E+00 -0.00000000000E+00 -0.51830286295E+03  0.51830286295E+03  0.00000000000E+00 0.  1.
        -24    2    1    2    0    0 -0.17846776869E+03 -0.12222033419E+03 -0.16916629263E+03  0.28554037810E+03  0.78278467097E+02 0.  0.
        254    2    1    2    0    0  0.17846776869E+03  0.12222033419E+03  0.44100408600E+03  0.10229031412E+04  0.89725006426E+03 0.  0.
         23    2    4    4    0    0  0.45686942187E+03  0.20260101533E+02 -0.21029179329E+02  0.46654910388E+03  0.89920518221E+02 0.  0.
         23    2    4    4    0    0 -0.27840165318E+03  0.10196023266E+03  0.46203326532E+03  0.55635403729E+03  0.90286804150E+02 0.  0.
          1    1    3    3  502    0 -0.99219668649E+01  0.10900362533E+02 -0.15928713174E+02  0.21702240281E+02  0.00000000000E+00 0. -1.
         -2    1    3    3    0  502 -0.16854580182E+03 -0.13312069672E+03 -0.15323757946E+03  0.26383813782E+03  0.00000000000E+00 0.  1.
         11    1    5    5    0    0  0.35987928149E+03 -0.15081030853E+02 -0.37008415152E+02  0.36209136627E+03  0.00000000000E+00 0.  1.
        -11    1    5    5    0    0  0.96990140385E+02  0.35341132386E+02  0.15979235823E+02  0.10445773762E+03  0.00000000000E+00 0. -1.
          3    1    6    6  503    0 -0.90682039372E+02 -0.82573732256E+01  0.11480264860E+03  0.14653008088E+03  0.00000000000E+00 0. -1.
         -3    1    6    6    0  503 -0.18771961381E+03  0.11021760588E+03  0.34723061673E+03  0.40982395641E+03  0.00000000000E+00 0.  1.
<mgrwt>
<rscale>  0 0.12798940E+04</rscale>
<asrwt>0</asrwt>
<pdfrwt beam="1">  1        3 0.12156010E+00 0.12798940E+04</pdfrwt>
<pdfrwt beam="2">  1       -4 0.79738901E-01 0.12798940E+04</pdfrwt>
<totfact> 0.17239696E+00</totfact>
</mgrwt>
</event>
<event>
12    4  0.4183215E-008  0.1659489E+04  0.7818608E-02  0.8784812E-01
         -2   -1    0    0    0  501 -0.00000000000E+00  0.00000000000E+00  0.40441974719E+03  0.40441974719E+03  0.00000000000E+00 0.  1.
          1   -1    0    0  501    0  0.00000000000E+00 -0.00000000000E+00 -0.17023800878E+04  0.17023800878E+04  0.00000000000E+00 0. -1.
        -24    2    1    2    0    0 -0.57209885188E+02  0.43213944615E+03 -0.95249529297E+03  0.10506684297E+04  0.81482477586E+02 0.  0.
        254    2    1    2    0    0  0.57209885188E+02 -0.43213944615E+03 -0.34546504762E+03  0.10561314053E+04  0.89780285932E+03 0.  0.
         23    2    4    4    0    0  0.33778768745E+03  0.11776796979E+03 -0.76733776984E+02  0.37690364037E+03  0.90545375881E+02 0.  0.
         23    2    4    4    0    0 -0.28057780227E+03 -0.54990741594E+03 -0.26873127064E+03  0.67922776490E+03  0.89508611670E+02 0.  0.
          3    1    3    3  502    0  0.18503776206E+01  0.28053074342E+03 -0.61857147028E+03  0.67921394696E+03  0.00000000000E+00 0. -1.
         -4    1    3    3    0  502 -0.59060262808E+02  0.15160870272E+03 -0.33392382268E+03  0.37145448273E+03  0.00000000000E+00 0.  1.
         11    1    5    5    0    0  0.24638431913E+03  0.12647579848E+03 -0.51693419780E+02  0.28173315383E+03  0.00000000000E+00 0. -1.
        -11    1    5    5    0    0  0.91403368321E+02 -0.87078286921E+01 -0.25040357204E+02  0.95170486548E+02  0.00000000000E+00 0.  1.
          3    1    6    6  503    0 -0.26644691588E+03 -0.47988077885E+03 -0.25968288254E+03  0.60721884059E+03  0.00000000000E+00 0. -1.
         -3    1    6    6    0  503 -0.14130886389E+02 -0.70026637090E+02 -0.90483880955E+01  0.72008924304E+02  0.00000000000E+00 0.  1.
<mgrwt>
<rscale>  0 0.16594892E+04</rscale>
<asrwt>0</asrwt>
<pdfrwt beam="1">  1        1 0.26190462E+00 0.16594892E+04</pdfrwt>
<pdfrwt beam="2">  1       -2 0.62218425E-01 0.16594892E+04</pdfrwt>
<totfact> 0.95413357E+00</totfact>
</mgrwt>
</event>
<event>
12    4  0.4183215E-008  0.2217366E+04  0.7818608E-02  0.8511235E-01
          1   -1    0    0  501    0  0.00000000000E+00  0.00000000000E+00  0.15591569990E+04  0.15591569990E+04  0.00000000000E+00 0. -1.
         -2   -1    0    0    0  501 -0.00000000000E+00 -0.00000000000E+00 -0.78836030867E+03  0.78836030867E+03  0.00000000000E+00 0.  1.
        -24    2    1    2    0    0 -0.67172356311E+03  0.13638668269E+03  0.10295498024E+04  0.12396760927E+04  0.83726618990E+02 0.  0.
        254    2    1    2    0    0  0.67172356311E+03 -0.13638668269E+03 -0.25875311216E+03  0.11078412149E+04  0.83099044032E+03 0.  0.
         23    2    4    4    0    0  0.34259224553E+02 -0.11599800406E+03 -0.41735631912E+03  0.44414469537E+03  0.91918343658E+02 0.  0.
         23    2    4    4    0    0  0.63746433856E+03 -0.20388678636E+02  0.15860320696E+03  0.66369651953E+03  0.92528977194E+02 0.  0.
          3    1    3    3  502    0 -0.47682741376E+03  0.95426511188E+02  0.79555412907E+03  0.93240386842E+03  0.00000000000E+00 0. -1.
         -4    1    3    3    0  502 -0.19489614935E+03  0.40960171507E+02  0.23399567338E+03  0.30727222432E+03  0.00000000000E+00 0.  1.
         11    1    5    5    0    0  0.50583677872E+02 -0.20998422143E+02 -0.17304209953E+03  0.18150264574E+03  0.00000000000E+00 0. -1.
        -11    1    5    5    0    0 -0.16324453319E+02 -0.94999581916E+02 -0.24431421959E+03  0.26264204963E+03  0.00000000000E+00 0.  1.
          1    1    6    6  503    0  0.27799510413E+03 -0.41293812329E+02  0.10314110166E+03  0.29937358553E+03  0.00000000000E+00 0. -1.
         -1    1    6    6    0  503  0.35946923442E+03  0.20905133693E+02  0.55462105300E+02  0.36432293400E+03  0.00000000000E+00 0.  1.
<mgrwt>
<rscale>  0 0.22173655E+04</rscale>
<asrwt>0</asrwt>
<pdfrwt beam="1">  1        1 0.23987031E+00 0.22173655E+04</pdfrwt>
<pdfrwt beam="2">  1       -2 0.12128620E+00 0.22173655E+04</pdfrwt>
<totfact> 0.24605507E+00</totfact>
</mgrwt>
</event>
<event>
12    4  0.4183215E-008  0.1439130E+04  0.7818608E-02  0.8925971E-01
          1   -1    0    0  501    0  0.00000000000E+00  0.00000000000E+00  0.14876903312E+04  0.14876903312E+04  0.00000000000E+00 0. -1.
         -2   -1    0    0    0  501 -0.00000000000E+00 -0.00000000000E+00 -0.34803887407E+03  0.34803887407E+03  0.00000000000E+00 0.  1.
        -24    2    1    2    0    0  0.16523133997E+03  0.32096919630E+03  0.49313118890E+02  0.37256299622E+03  0.77773914478E+02 0.  0.
        254    2    1    2    0    0 -0.16523133997E+03 -0.32096919630E+03  0.10903383383E+04  0.14631662091E+04  0.90647396147E+03 0.  0.
         23    2    4    4    0    0 -0.36404549021E+03 -0.31597898517E+03  0.17371154084E+03  0.52050516717E+03  0.91531915864E+02 0.  0.
         23    2    4    4    0    0  0.19881415024E+03 -0.49902111367E+01  0.91662679743E+03  0.94266104191E+03  0.94091368544E+02 0.  0.
          3    1    3    3  502    0  0.10369909156E+03  0.25704943807E+03  0.15491240379E+02  0.27761104757E+03  0.00000000000E+00 0. -1.
         -4    1    3    3    0  502  0.61532248409E+02  0.63919758235E+02  0.33821878511E+02  0.94951948654E+02  0.00000000000E+00 0.  1.
         11    1    5    5    0    0 -0.70884765059E+02 -0.72267872669E+02  0.77029962475E+02  0.12720420770E+03  0.00000000000E+00 0. -1.
        -11    1    5    5    0    0 -0.29316072515E+03 -0.24371111250E+03  0.96681578361E+02  0.39330095947E+03  0.00000000000E+00 0.  1.
          2    1    6    6  503    0  0.77103841085E+02 -0.20311216976E+02  0.19482908778E+03  0.21051347057E+03  0.00000000000E+00 0. -1.
         -2    1    6    6    0  503  0.12171030916E+03  0.15321005839E+02  0.72179770965E+03  0.73214757134E+03  0.00000000000E+00 0.  1.
<mgrwt>
<rscale>  0 0.14391304E+04</rscale>
<asrwt>0</asrwt>
<pdfrwt beam="1">  1        1 0.22887543E+00 0.14391304E+04</pdfrwt>
<pdfrwt beam="2">  1       -2 0.53544443E-01 0.14391304E+04</pdfrwt>
<totfact> 0.18704379E+01</totfact>
</mgrwt>
</event>
<event>
12    4  0.4183215E-008  0.2613288E+04  0.7818608E-02  0.8363702E-01
          1   -1    0    0  501    0  0.00000000000E+00  0.00000000000E+00  0.21208665908E+04  0.21208665908E+04  0.00000000000E+00 0. -1.
         -2   -1    0    0    0  501 -0.00000000000E+00 -0.00000000000E+00 -0.80500975889E+03  0.80500975889E+03  0.00000000000E+00 0.  1.
        -24    2    1    2    0    0 -0.30330897711E+03  0.40377845299E+02 -0.66037235677E+03  0.73220308904E+03  0.80018797978E+02 0.  0.
        254    2    1    2    0    0  0.30330897711E+03 -0.40377845299E+02  0.19762291887E+04  0.21936732607E+04  0.90171717426E+03 0.  0.
         23    2    4    4    0    0  0.45436021756E+03 -0.31345421268E+03  0.16100520395E+04  0.17044624719E+04  0.90708309938E+02 0.  0.
         23    2    4    4    0    0 -0.15105124045E+03  0.27307636738E+03  0.36617714920E+03  0.48921078877E+03  0.88624554105E+02 0.  0.
          1    1    3    3  502    0 -0.12848312711E+03  0.32453039273E+02 -0.20230873607E+03  0.24184693176E+03  0.00000000000E+00 0. -1.
         -2    1    3    3    0  502 -0.17482585000E+03  0.79248060265E+01 -0.45806362069E+03  0.49035615728E+03  0.00000000000E+00 0.  1.
         11    1    5    5    0    0  0.32517763038E+03 -0.26446836277E+03  0.12715487796E+04  0.13388503669E+04  0.00000000000E+00 0.  1.
        -11    1    5    5    0    0  0.12918258718E+03 -0.48985849913E+02  0.33850325994E+03  0.36561210498E+03  0.00000000000E+00 0. -1.
          2    1    6    6  503    0  0.68395749514E+01  0.43417066864E+01 -0.31003671155E+00  0.81071773898E+01  0.00000000000E+00 0. -1.
         -2    1    6    6    0  503 -0.15789081540E+03  0.26873466069E+03  0.36648718592E+03  0.48110361138E+03  0.00000000000E+00 0.  1.
<mgrwt>
<rscale>  0 0.26132878E+04</rscale>
<asrwt>0</asrwt>
<pdfrwt beam="1">  1        1 0.32628717E+00 0.26132878E+04</pdfrwt>
<pdfrwt beam="2">  1       -2 0.12384766E+00 0.26132878E+04</pdfrwt>
<totfact> 0.93592562E-01</totfact>
</mgrwt>
</event>
<event>
12    4  0.4183215E-008  0.1555233E+04  0.7818608E-02  0.8848532E-01
          1   -1    0    0  501    0  0.00000000000E+00  0.00000000000E+00  0.58237488299E+03  0.58237488299E+03  0.00000000000E+00 0. -1.
         -4   -1    0    0    0  501 -0.00000000000E+00 -0.00000000000E+00 -0.10383133584E+04  0.10383133584E+04  0.00000000000E+00 0.  1.
        -24    2    1    2    0    0  0.42265781322E+02 -0.37309057282E+03 -0.51605602768E+03  0.64334495489E+03  0.81215364820E+02 0.  0.
        254    2    1    2    0    0 -0.42265781322E+02  0.37309057282E+03  0.60117552231E+02  0.97734328655E+03  0.90033483098E+03 0.  0.
         23    2    4    4    0    0  0.62075786618E+02  0.12214076797E+03  0.45800039335E+03  0.48686306458E+03  0.92192802640E+02 0.  0.
         23    2    4    4    0    0 -0.10434156794E+03  0.25094980484E+03 -0.39788284112E+03  0.49048022196E+03  0.91635831012E+02 0.  0.
          3    1    3    3  502    0  0.19140167407E+02 -0.17897576137E+02 -0.20847283990E+02  0.33485496707E+02  0.00000000000E+00 0. -1.
         -4    1    3    3    0  502  0.23125613915E+02 -0.35519299668E+03 -0.49520874369E+03  0.60985945818E+03  0.00000000000E+00 0.  1.
         11    1    5    5    0    0  0.58720541505E+00 -0.11894487118E+02  0.11170521145E+02  0.16328018148E+02  0.00000000000E+00 0.  1.
        -11    1    5    5    0    0  0.61488581203E+02  0.13403525509E+03  0.44682987221E+03  0.47053504644E+03  0.00000000000E+00 0. -1.
          1    1    6    6  503    0 -0.87271326455E+02  0.25198361641E+03 -0.38776461561E+03  0.47060963067E+03  0.00000000000E+00 0. -1.
         -1    1    6    6    0  503 -0.17070241485E+02 -0.10338115678E+01 -0.10118225510E+02  0.19870591290E+02  0.00000000000E+00 0.  1.
<mgrwt>
<rscale>  0 0.15552333E+04</rscale>
<asrwt>0</asrwt>
<pdfrwt beam="1">  1        1 0.89596136E-01 0.15552333E+04</pdfrwt>
<pdfrwt beam="2">  1       -4 0.15974052E+00 0.15552333E+04</pdfrwt>
<totfact> 0.41544339E+00</totfact>
</mgrwt>
</event>
<event>
12    4  0.4183215E-008  0.1309159E+04  0.7818608E-02  0.9022333E-01
          3   -1    0    0  501    0  0.00000000000E+00  0.00000000000E+00  0.25944187872E+04  0.25944187872E+04  0.00000000000E+00 0. -1.
         -4   -1    0    0    0  501 -0.00000000000E+00 -0.00000000000E+00 -0.16515230512E+03  0.16515230512E+03  0.00000000000E+00 0.  1.
        -24    2    1    2    0    0  0.28632699064E+03  0.14633081429E+03  0.70940599018E+03  0.78291305587E+03  0.79373429867E+02 0.  0.
        254    2    1    2    0    0 -0.28632699064E+03 -0.14633081429E+03  0.17198604919E+04  0.19766580364E+04  0.91970703418E+03 0.  0.
         23    2    4    4    0    0 -0.46782468180E+03  0.14591309466E+03  0.50095299679E+03  0.70673362995E+03  0.91476524954E+02 0.  0.
         23    2    4    4    0    0  0.18149769116E+03 -0.29224390894E+03  0.12189074951E+04  0.12699244065E+04  0.92868737437E+02 0.  0.
          3    1    3    3  502    0  0.14362143674E+02  0.26918259506E+02  0.10693235012E+03  0.11119978133E+03  0.00000000000E+00 0. -1.
         -4    1    3    3    0  502  0.27196484697E+03  0.11941255478E+03  0.60247364006E+03  0.67171327453E+03  0.00000000000E+00 0.  1.
         11    1    5    5    0    0 -0.44738934434E+03  0.14433382292E+03  0.44567256190E+03  0.64777581794E+03  0.00000000000E+00 0. -1.
        -11    1    5    5    0    0 -0.20435337459E+02  0.15792717312E+01  0.55280434886E+02  0.58957812014E+02  0.00000000000E+00 0.  1.
          3    1    6    6  503    0  0.80352451789E+02 -0.16448917642E+03  0.79432845019E+03  0.81515084030E+03  0.00000000000E+00 0. -1.
         -3    1    6    6    0  503  0.10114523937E+03 -0.12775473253E+03  0.42457904490E+03  0.45477356618E+03  0.00000000000E+00 0.  1.
<mgrwt>
<rscale>  0 0.13091589E+04</rscale>
<asrwt>0</asrwt>
<pdfrwt beam="1">  1        3 0.39914132E+00 0.13091589E+04</pdfrwt>
<pdfrwt beam="2">  1       -4 0.25408049E-01 0.13091589E+04</pdfrwt>
<totfact> 0.37922827E-01</totfact>
</mgrwt>
</event>
<event>
12    4  0.4183215E-008  0.1376024E+04  0.7818608E-02  0.8971359E-01
         -2   -1    0    0    0  501 -0.00000000000E+00  0.00000000000E+00  0.10585759121E+04  0.10585759121E+04  0.00000000000E+00 0.  1.
          1   -1    0    0  501    0  0.00000000000E+00 -0.00000000000E+00 -0.44716714600E+03  0.44716714600E+03  0.00000000000E+00 0. -1.
        -24    2    1    2    0    0 -0.22981350108E+03  0.84299270318E+02 -0.16001098543E+03  0.30296353768E+03  0.79137711908E+02 0.  0.
        254    2    1    2    0    0  0.22981350108E+03 -0.84299270318E+02  0.77141975152E+03  0.12027795204E+04  0.88975812974E+03 0.  0.
         23    2    4    4    0    0  0.40510115433E+03  0.11281180957E+03  0.54977289656E+02  0.43394316962E+03  0.91927811160E+02 0.  0.
         23    2    4    4    0    0 -0.17528765324E+03 -0.19711107989E+03  0.71644246186E+03  0.76883635079E+03  0.90779920397E+02 0.  0.
          3    1    3    3  502    0 -0.20084475276E+03  0.99874974677E+02 -0.13726627131E+03  0.26297462714E+03  0.00000000000E+00 0. -1.
         -4    1    3    3    0  502 -0.28968748320E+02 -0.15575704359E+02 -0.22744714119E+02  0.39988910536E+02  0.00000000000E+00 0.  1.
         11    1    5    5    0    0  0.12634375474E+03  0.79583449758E+02  0.10240732576E+02  0.14967011205E+03  0.00000000000E+00 0.  1.
        -11    1    5    5    0    0  0.27875739958E+03  0.33228359814E+02  0.44736557079E+02  0.28427305757E+03  0.00000000000E+00 0. -1.
          4    1    6    6  503    0 -0.42928461695E+02 -0.33860340859E+01  0.14005349338E+03  0.14652405624E+03  0.00000000000E+00 0. -1.
         -4    1    6    6    0  503 -0.13235919155E+03 -0.19372504580E+03  0.57638896848E+03  0.62231229455E+03  0.00000000000E+00 0.  1.
<mgrwt>
<rscale>  0 0.13760238E+04</rscale>
<asrwt>0</asrwt>
<pdfrwt beam="1">  1        1 0.68794946E-01 0.13760238E+04</pdfrwt>
<pdfrwt beam="2">  1       -2 0.16285783E+00 0.13760238E+04</pdfrwt>
<totfact> 0.10572867E+01</totfact>
</mgrwt>
</event>
<event>
12    4  0.4183215E-008  0.1736815E+04  0.7818608E-02  0.8740642E-01
          1   -1    0    0  501    0  0.00000000000E+00  0.00000000000E+00  0.66059061345E+03  0.66059061345E+03  0.00000000000E+00 0. -1.
         -2   -1    0    0    0  501 -0.00000000000E+00 -0.00000000000E+00 -0.11416015287E+04  0.11416015287E+04  0.00000000000E+00 0.  1.
        -24    2    1    2    0    0  0.36584869765E+03  0.47341313853E+03  0.34917194345E+02  0.60438333756E+03  0.78068809086E+02 0.  0.
        254    2    1    2    0    0 -0.36584869765E+03 -0.47341313853E+03 -0.51592810959E+03  0.11978088046E+04  0.90033263230E+03 0.  0.
         23    2    4    4    0    0  0.20425580877E+03  0.89422181368E+02 -0.25244072968E+03  0.34956027573E+03  0.93537705913E+02 0.  0.
         23    2    4    4    0    0 -0.57010450642E+03 -0.56283531990E+03 -0.26348737990E+03  0.84824852886E+03  0.91089087048E+02 0.  0.
          1    1    3    3  502    0  0.31381896272E+03  0.39657379247E+03  0.57208866658E+02  0.50894593883E+03  0.00000000000E+00 0. -1.
         -2    1    3    3    0  502  0.52029734937E+02  0.76839346063E+02 -0.22291672313E+02  0.95437398726E+02  0.00000000000E+00 0.  1.
         11    1    5    5    0    0  0.13872778320E+03  0.11516315312E+02 -0.15965166114E+03  0.21181755417E+03  0.00000000000E+00 0. -1.
        -11    1    5    5    0    0  0.65528025569E+02  0.77905866056E+02 -0.92789068546E+02  0.13774272156E+03  0.00000000000E+00 0.  1.
          3    1    6    6  503    0 -0.11905869766E+03 -0.87394373705E+02 -0.19599239208E+02  0.14898617459E+03  0.00000000000E+00 0. -1.
         -3    1    6    6    0  503 -0.45104580877E+03 -0.47544094619E+03 -0.24388814070E+03  0.69926235427E+03  0.00000000000E+00 0.  1.
<mgrwt>
<rscale>  0 0.17368146E+04</rscale>
<asrwt>0</asrwt>
<pdfrwt beam="1">  1        1 0.10162933E+00 0.17368146E+04</pdfrwt>
<pdfrwt beam="2">  1       -2 0.17563100E+00 0.17368146E+04</pdfrwt>
<totfact> 0.47993640E+00</totfact>
</mgrwt>
</event>
<event>
12    4  0.4183215E-008  0.1898039E+04  0.7818608E-02  0.8655833E-01
          1   -1    0    0  501    0  0.00000000000E+00  0.00000000000E+00  0.82636169077E+03  0.82636169077E+03  0.00000000000E+00 0. -1.
         -2   -1    0    0    0  501 -0.00000000000E+00 -0.00000000000E+00 -0.10898839723E+04  0.10898839723E+04  0.00000000000E+00 0.  1.
        -24    2    1    2    0    0  0.45912585350E+03  0.34079409259E+03 -0.56610069102E+03  0.80828713744E+03  0.76947652834E+02 0.  0.
        254    2    1    2    0    0 -0.45912585350E+03 -0.34079409259E+03  0.30257840953E+03  0.11079585256E+04  0.89948943165E+03 0.  0.
         23    2    4    4    0    0 -0.17354149053E+03 -0.10846266514E+03  0.59010496158E+03  0.63124953786E+03  0.91494888963E+02 0.  0.
         23    2    4    4    0    0 -0.28558436297E+03 -0.23233142745E+03 -0.28752655205E+03  0.47670898774E+03  0.95097951099E+02 0.  0.
          3    1    3    3  502    0  0.12456135517E+03  0.10083439919E+03 -0.20832611736E+03  0.26283621979E+03  0.00000000000E+00 0. -1.
         -2    1    3    3    0  502  0.33456449832E+03  0.23995969340E+03 -0.35777457366E+03  0.54545091764E+03  0.00000000000E+00 0.  1.
         11    1    5    5    0    0 -0.10030815885E+03 -0.28729478272E+02  0.39022149614E+03  0.40393059515E+03  0.00000000000E+00 0. -1.
        -11    1    5    5    0    0 -0.73233331679E+02 -0.79733186868E+02  0.19988346545E+03  0.22731894271E+03  0.00000000000E+00 0.  1.
          4    1    6    6  503    0 -0.10942913966E+03 -0.33628749228E+02 -0.94004406933E+02  0.14812986838E+03  0.00000000000E+00 0.  1.
         -4    1    6    6    0  503 -0.17615522330E+03 -0.19870267822E+03 -0.19352214512E+03  0.32857911936E+03  0.00000000000E+00 0. -1.
<mgrwt>
<rscale>  0 0.18980394E+04</rscale>
<asrwt>0</asrwt>
<pdfrwt beam="1">  1        1 0.12713257E+00 0.18980394E+04</pdfrwt>
<pdfrwt beam="2">  1       -2 0.16767446E+00 0.18980394E+04</pdfrwt>
<totfact> 0.38073499E+00</totfact>
</mgrwt>
</event>
<event>
12    4  0.4183215E-008  0.1153000E+04  0.7818608E-02  0.9155021E-01
          1   -1    0    0  501    0  0.00000000000E+00  0.00000000000E+00  0.74200213292E+03  0.74200213292E+03  0.00000000000E+00 0. -1.
         -2   -1    0    0    0  501 -0.00000000000E+00 -0.00000000000E+00 -0.44791249591E+03  0.44791249591E+03  0.00000000000E+00 0.  1.
        -24    2    1    2    0    0  0.82255347616E+02  0.14485707582E+03  0.27356535221E+03  0.32987839393E+03  0.78944526243E+02 0.  0.
        254    2    1    2    0    0 -0.82255347616E+02 -0.14485707582E+03  0.20524284798E+02  0.86003623490E+03  0.84349959363E+03 0.  0.
         23    2    4    4    0    0  0.27132830581E+03 -0.15218770269E+03 -0.24701602073E+03  0.40754693371E+03  0.91090297467E+02 0.  0.
         23    2    4    4    0    0 -0.35358365343E+03  0.73306268660E+01  0.26754030552E+03  0.45248930120E+03  0.89964518311E+02 0.  0.
          3    1    3    3  502    0  0.76767802459E+02  0.12834527358E+03  0.27434670344E+03  0.31246106707E+03  0.00000000000E+00 0. -1.
         -4    1    3    3    0  502  0.54875451569E+01  0.16511802241E+02 -0.78135123342E+00  0.17417326857E+02  0.00000000000E+00 0.  1.
         11    1    5    5    0    0  0.12963349869E+03 -0.59703394759E+02 -0.58539500203E+02  0.15426021008E+03  0.00000000000E+00 0. -1.
        -11    1    5    5    0    0  0.14169480712E+03 -0.92484307930E+02 -0.18847652052E+03  0.25328672363E+03  0.00000000000E+00 0.  1.
          2    1    6    6  503    0 -0.14990086609E+03 -0.10611684168E+02  0.61991715464E+02  0.16256029737E+03  0.00000000000E+00 0. -1.
         -2    1    6    6    0  503 -0.20368278734E+03  0.17942311034E+02  0.20554859006E+03  0.28992900383E+03  0.00000000000E+00 0.  1.
<mgrwt>
<rscale>  0 0.11529996E+04</rscale>
<asrwt>0</asrwt>
<pdfrwt beam="1">  1        1 0.11415417E+00 0.11529996E+04</pdfrwt>
<pdfrwt beam="2">  1       -2 0.68909615E-01 0.11529996E+04</pdfrwt>
<totfact> 0.41684105E+01</totfact>
</mgrwt>
</event>
<event>
12    4  0.4183215E-008  0.1377677E+04  0.7818608E-02  0.8970137E-01
         -2   -1    0    0    0  501 -0.00000000000E+00  0.00000000000E+00  0.89485114896E+03  0.89485114896E+03  0.00000000000E+00 0.  1.
          1   -1    0    0  501    0  0.00000000000E+00 -0.00000000000E+00 -0.53025440289E+03  0.53025440289E+03  0.00000000000E+00 0. -1.
        -24    2    1    2    0    0 -0.55568899100E+02  0.30311133772E+03 -0.14598196083E+03  0.34941219303E+03  0.76248030425E+02 0.  0.
        254    2    1    2    0    0  0.55568899100E+02 -0.30311133772E+03  0.51057870690E+03  0.10756933588E+04  0.89524365436E+03 0.  0.
         23    2    4    4    0    0  0.41622275590E+03 -0.14860002169E+03  0.35140546428E+02  0.45264256919E+03  0.91252881950E+02 0.  0.
         23    2    4    4    0    0 -0.36065385680E+03 -0.15451131604E+03  0.47543816047E+03  0.62305078964E+03  0.90586372215E+02 0.  0.
          3    1    3    3  502    0 -0.74658574863E+02  0.25068928834E+03 -0.11702329858E+03  0.28655448784E+03  0.00000000000E+00 0. -1.
         -4    1    3    3    0  502  0.19089675763E+02  0.52422049380E+02 -0.28958662253E+02  0.62857705187E+02  0.00000000000E+00 0.  1.
         11    1    5    5    0    0  0.10955631399E+03 -0.81508790921E+02 -0.17515033508E+01  0.13656257429E+03  0.00000000000E+00 0. -1.
        -11    1    5    5    0    0  0.30666644190E+03 -0.67091230766E+02  0.36892049779E+02  0.31607999489E+03  0.00000000000E+00 0.  1.
          3    1    6    6  503    0  0.43693396336E+01  0.13893145365E+01  0.12130587769E+02  0.12968133379E+02  0.00000000000E+00 0. -1.
         -3    1    6    6    0  503 -0.36502319643E+03 -0.15590063057E+03  0.46330757270E+03  0.61008265626E+03  0.00000000000E+00 0.  1.
<mgrwt>
<rscale>  0 0.13776774E+04</rscale>
<asrwt>0</asrwt>
<pdfrwt beam="1">  1        1 0.81577601E-01 0.13776774E+04</pdfrwt>
<pdfrwt beam="2">  1       -2 0.13766941E+00 0.13776774E+04</pdfrwt>
<totfact> 0.13081592E+01</totfact>
</mgrwt>
</event>
<event>
12    4  0.4183215E-008  0.2295280E+04  0.7818608E-02  0.8479785E-01
         -4   -1    0    0    0  501 -0.00000000000E+00  0.00000000000E+00  0.10270084659E+04  0.10270084659E+04  0.00000000000E+00 0.  1.
          3   -1    0    0  501    0  0.00000000000E+00 -0.00000000000E+00 -0.12824405294E+04  0.12824405294E+04  0.00000000000E+00 0. -1.
        -24    2    1    2    0    0  0.34183164356E+03  0.35012335453E+03 -0.94745034759E+03  0.10693880605E+04  0.80581802717E+02 0.  0.
        254    2    1    2    0    0 -0.34183164356E+03 -0.35012335453E+03  0.69201828408E+03  0.12400609349E+04  0.90522184064E+03 0.  0.
         23    2    4    4    0    0 -0.37504177103E+03 -0.11822412876E+03  0.85186986384E+03  0.94275507493E+03  0.92041250230E+02 0.  0.
         23    2    4    4    0    0  0.33210127474E+02 -0.23189922577E+03 -0.15985157975E+03  0.29730585994E+03  0.89208090044E+02 0.  0.
          3    1    3    3  502    0  0.24844915364E+03  0.29776058274E+03 -0.77001766438E+03  0.86215749723E+03  0.00000000000E+00 0. -1.
         -4    1    3    3    0  502  0.93382489915E+02  0.52362771783E+02 -0.17743268321E+03  0.20723056329E+03  0.00000000000E+00 0.  1.
         11    1    5    5    0    0 -0.19566079329E+03 -0.41859131265E+02  0.52916497644E+03  0.56573041742E+03  0.00000000000E+00 0.  1.
        -11    1    5    5    0    0 -0.17938097774E+03 -0.76364997496E+02  0.32270488739E+03  0.37702465751E+03  0.00000000000E+00 0. -1.
          4    1    6    6  503    0  0.33719838368E+02 -0.15244680143E+03 -0.15126459910E+03  0.21738912968E+03  0.00000000000E+00 0. -1.
         -4    1    6    6    0  503 -0.50971089437E+00 -0.79452424341E+02 -0.85869806579E+01  0.79916730261E+02  0.00000000000E+00 0.  1.
<mgrwt>
<rscale>  0 0.22952797E+04</rscale>
<asrwt>0</asrwt>
<pdfrwt beam="1">  1        3 0.19729854E+00 0.22952797E+04</pdfrwt>
<pdfrwt beam="2">  1       -4 0.15800130E+00 0.22952797E+04</pdfrwt>
<totfact> 0.82216893E-02</totfact>
</mgrwt>
</event>
<event>
12    4  0.4183215E-008  0.2358254E+04  0.7818608E-02  0.8455300E-01
         -2   -1    0    0    0  501 -0.00000000000E+00  0.00000000000E+00  0.41466769040E+04  0.41466769040E+04  0.00000000000E+00 0.  1.
          1   -1    0    0  501    0  0.00000000000E+00 -0.00000000000E+00 -0.33529016577E+03  0.33529016577E+03  0.00000000000E+00 0. -1.
        -24    2    1    2    0    0  0.87208269980E+03  0.26137561785E+03  0.80653500748E+03  0.12191583099E+04  0.83682838678E+02 0.  0.
        254    2    1    2    0    0 -0.87208269980E+03 -0.26137561785E+03  0.30048517308E+04  0.32628087599E+04  0.88766076323E+03 0.  0.
         23    2    4    4    0    0 -0.16536010796E+03  0.30433460927E+03  0.97261377317E+03  0.10362226136E+04  0.88409464465E+02 0.  0.
         23    2    4    4    0    0 -0.70672259184E+03 -0.56571022712E+03  0.20322379576E+04  0.22265861463E+04  0.90608319936E+02 0.  0.
          3    1    3    3  502    0  0.69196333852E+03  0.21770535576E+03  0.68361249124E+03  0.99676221937E+03  0.00000000000E+00 0. -1.
         -4    1    3    3    0  502  0.18011936128E+03  0.43670262091E+02  0.12292251624E+03  0.22239609056E+03  0.00000000000E+00 0.  1.
         11    1    5    5    0    0 -0.10213621742E+03  0.18037740679E+03  0.45079291564E+03  0.49616737960E+03  0.00000000000E+00 0. -1.
        -11    1    5    5    0    0 -0.63223890535E+02  0.12395720248E+03  0.52182085753E+03  0.54005523397E+03  0.00000000000E+00 0.  1.
          3    1    6    6  503    0 -0.51086052476E+03 -0.38277150767E+03  0.15162530507E+04  0.16451491776E+04  0.00000000000E+00 0. -1.
         -3    1    6    6    0  503 -0.19586206708E+03 -0.18293871945E+03  0.51598490695E+03  0.58143696872E+03  0.00000000000E+00 0.  1.
<mgrwt>
<rscale>  0 0.23582536E+04</rscale>
<asrwt>0</asrwt>
<pdfrwt beam="1">  1        1 0.51583105E-01 0.23582536E+04</pdfrwt>
<pdfrwt beam="2">  1       -2 0.63795026E+00 0.23582536E+04</pdfrwt>
<totfact> 0.21618229E-02</totfact>
</mgrwt>
</event>
<event>
12    4  0.4183215E-008  0.2233784E+04  0.7818608E-02  0.8504497E-01
         -2   -1    0    0    0  501 -0.00000000000E+00  0.00000000000E+00  0.10480306364E+04  0.10480306364E+04  0.00000000000E+00 0.  1.
          1   -1    0    0  501    0  0.00000000000E+00 -0.00000000000E+00 -0.11902774343E+04  0.11902774343E+04  0.00000000000E+00 0. -1.
        -24    2    1    2    0    0 -0.17625839620E+03 -0.45490562954E+03  0.73461635745E+03  0.88545092615E+03  0.79724500407E+02 0.  0.
        254    2    1    2    0    0  0.17625839620E+03  0.45490562954E+03 -0.87686315538E+03  0.13528571445E+04  0.90737385135E+03 0.  0.
         23    2    4    4    0    0  0.94530922760E+02 -0.13565111879E+03 -0.69854293883E+03  0.72394392424E+03  0.93782976424E+02 0.  0.
         23    2    4    4    0    0  0.81727473437E+02  0.59055674834E+03 -0.17832021655E+03  0.62891322025E+03  0.91088342052E+02 0.  0.
          3    1    3    3  502    0 -0.45816854811E+02 -0.86289833272E+02  0.98273232052E+02  0.13857397897E+03  0.00000000000E+00 0. -1.
         -4    1    3    3    0  502 -0.13044154139E+03 -0.36861579627E+03  0.63634312539E+03  0.74687694717E+03  0.00000000000E+00 0.  1.
         11    1    5    5    0    0 -0.36380349292E+01 -0.72826937135E+02 -0.29773187446E+03  0.30653102149E+03  0.00000000000E+00 0.  1.
        -11    1    5    5    0    0  0.98168957689E+02 -0.62824181658E+02 -0.40081106438E+03  0.41741290275E+03  0.00000000000E+00 0. -1.
          1    1    6    6  503    0  0.21794523389E+02  0.42943377435E+03 -0.14521870916E+03  0.45384671564E+03  0.00000000000E+00 0. -1.
         -1    1    6    6    0  503  0.59932950048E+02  0.16112297399E+03 -0.33101507392E+02  0.17506650462E+03  0.00000000000E+00 0.  1.
<mgrwt>
<rscale>  0 0.22337835E+04</rscale>
<asrwt>0</asrwt>
<pdfrwt beam="1">  1        1 0.18311961E+00 0.22337835E+04</pdfrwt>
<pdfrwt beam="2">  1       -2 0.16123548E+00 0.22337835E+04</pdfrwt>
<totfact> 0.21367346E+00</totfact>
</mgrwt>
</event>
<event>
12    4  0.4183215E-008  0.1068748E+04  0.7818608E-02  0.9236199E-01
         -2   -1    0    0    0  501 -0.00000000000E+00  0.00000000000E+00  0.24075384980E+03  0.24075384980E+03  0.00000000000E+00 0.  1.
          1   -1    0    0  501    0  0.00000000000E+00 -0.00000000000E+00 -0.11860891318E+04  0.11860891318E+04  0.00000000000E+00 0. -1.
        -24    2    1    2    0    0  0.59069173615E+02 -0.68646322097E+02 -0.29242182181E+03  0.31646188270E+03  0.80225410696E+02 0.  0.
        254    2    1    2    0    0 -0.59069173615E+02  0.68646322097E+02 -0.65291346021E+03  0.11103810989E+04  0.89355957469E+03 0.  0.
         23    2    4    4    0    0  0.15455733370E+03  0.27494871168E+03 -0.72133514220E+03  0.79255403221E+03  0.91283860262E+02 0.  0.
         23    2    4    4    0    0 -0.21362650731E+03 -0.20630238958E+03  0.68421681984E+02  0.31782706672E+03  0.90197323697E+02 0.  0.
          1    1    3    3  502    0  0.76208214164E+02 -0.68148694319E+02 -0.26593731134E+03  0.28491154769E+03  0.00000000000E+00 0. -1.
         -2    1    3    3    0  502 -0.17139040550E+02 -0.49762777796E+00 -0.26484510464E+02  0.31550335005E+02  0.00000000000E+00 0.  1.
         11    1    5    5    0    0  0.55144816041E+02  0.27394927057E+02 -0.13794552130E+03  0.15106422346E+03  0.00000000000E+00 0. -1.
        -11    1    5    5    0    0  0.99412517657E+02  0.24755378462E+03 -0.58338962090E+03  0.64148980874E+03  0.00000000000E+00 0.  1.
          1    1    6    6  503    0 -0.60005282222E+02 -0.28201228749E+02 -0.15522904190E+02  0.68094814428E+02  0.00000000000E+00 0. -1.
         -1    1    6    6    0  503 -0.15362122509E+03 -0.17810116083E+03  0.83944586174E+02  0.24973225229E+03  0.00000000000E+00 0.  1.
<mgrwt>
<rscale>  0 0.10687479E+04</rscale>
<asrwt>0</asrwt>
<pdfrwt beam="1">  1        1 0.18247525E+00 0.10687479E+04</pdfrwt>
<pdfrwt beam="2">  1       -2 0.37039054E-01 0.10687479E+04</pdfrwt>
<totfact> 0.65776530E+01</totfact>
</mgrwt>
</event>
<event>
12    4  0.4183215E-008  0.3034308E+04  0.7818608E-02  0.8234001E-01
         -2   -1    0    0    0  501 -0.00000000000E+00  0.00000000000E+00  0.97518374870E+03  0.97518374870E+03  0.00000000000E+00 0.  1.
          1   -1    0    0  501    0  0.00000000000E+00 -0.00000000000E+00 -0.23603312422E+04  0.23603312422E+04  0.00000000000E+00 0. -1.
        -24    2    1    2    0    0  0.68843221835E+03  0.81907480350E+03  0.33804919065E+03  0.11249162829E+04  0.79604869313E+02 0.  0.
        254    2    1    2    0    0 -0.68843221835E+03 -0.81907480350E+03 -0.17231966842E+04  0.22105987080E+04  0.87892968011E+03 0.  0.
         23    2    4    4    0    0 -0.31889236772E+03 -0.13760467380E+03 -0.12430624948E+04  0.12940556230E+04  0.93531818066E+02 0.  0.
         23    2    4    4    0    0 -0.36953985063E+03 -0.68147012970E+03 -0.48013418935E+03  0.91654308501E+03  0.92526472020E+02 0.  0.
          3    1    3    3  502    0  0.10270249428E+02  0.11230144390E+01  0.45290933558E+01  0.11280597119E+02  0.00000000000E+00 0. -1.
         -4    1    3    3    0  502  0.67816196893E+03  0.81795178906E+03  0.33352009730E+03  0.11136356858E+04  0.00000000000E+00 0.  1.
         11    1    5    5    0    0 -0.14288784042E+03 -0.24001649775E+02 -0.40254421057E+03  0.42782573041E+03  0.00000000000E+00 0. -1.
        -11    1    5    5    0    0 -0.17600452730E+03 -0.11360302403E+03 -0.84051828423E+03  0.86622989259E+03  0.00000000000E+00 0.  1.
          3    1    6    6  503    0 -0.24415388382E+03 -0.41399368521E+03 -0.34538069489E+03  0.59185278135E+03  0.00000000000E+00 0.  1.
         -3    1    6    6    0  503 -0.12538596681E+03 -0.26747644448E+03 -0.13475349446E+03  0.32469030367E+03  0.00000000000E+00 0. -1.
<mgrwt>
<rscale>  0 0.30343083E+04</rscale>
<asrwt>0</asrwt>
<pdfrwt beam="1">  1        1 0.36312788E+00 0.30343083E+04</pdfrwt>
<pdfrwt beam="2">  1       -2 0.15002827E+00 0.30343083E+04</pdfrwt>
<totfact> 0.37810142E-01</totfact>
</mgrwt>
</event>
<event>
12    4  0.4183215E-008  0.3052044E+04  0.7818608E-02  0.8229024E-01
         -2   -1    0    0    0  501 -0.00000000000E+00  0.00000000000E+00  0.14857718803E+04  0.14857718803E+04  0.00000000000E+00 0.  1.
          1   -1    0    0  501    0  0.00000000000E+00 -0.00000000000E+00 -0.15673624102E+04  0.15673624102E+04  0.00000000000E+00 0. -1.
        -24    2    1    2    0    0  0.10752143862E+04  0.77417721858E+03  0.29593158544E+03  0.13601935937E+04  0.84349079431E+02 0.  0.
        254    2    1    2    0    0 -0.10752143862E+04 -0.77417721858E+03 -0.37752211535E+03  0.16929406967E+04  0.98391509442E+03 0.  0.
         23    2    4    4    0    0 -0.27588790720E+03 -0.10369489075E+02 -0.49802469796E+03  0.57674582908E+03  0.91572309866E+02 0.  0.
         23    2    4    4    0    0 -0.79932647899E+03 -0.76380772950E+03  0.12050258261E+03  0.11161948676E+04  0.95105428307E+02 0.  0.
          3    1    3    3  502    0  0.29736055764E+03  0.21843666957E+03  0.44083997152E+02  0.37159289371E+03  0.00000000000E+00 0. -1.
         -4    1    3    3    0  502  0.77785382854E+03  0.55574054901E+03  0.25184758829E+03  0.98860070004E+03  0.00000000000E+00 0.  1.
         11    1    5    5    0    0 -0.78705091411E+02  0.35236522761E+02 -0.11750782017E+03  0.14575387388E+03  0.00000000000E+00 0. -1.
        -11    1    5    5    0    0 -0.19718281578E+03 -0.45606011836E+02 -0.38051687780E+03  0.43099195520E+03  0.00000000000E+00 0.  1.
          3    1    6    6  503    0 -0.47631610525E+03 -0.49987297012E+03  0.42037827620E+02  0.69174937465E+03  0.00000000000E+00 0. -1.
         -3    1    6    6    0  503 -0.32301037374E+03 -0.26393475938E+03  0.78464754994E+02  0.42444549300E+03  0.00000000000E+00 0.  1.
<mgrwt>
<rscale>  0 0.30520439E+04</rscale>
<asrwt>0</asrwt>
<pdfrwt beam="1">  1        1 0.24113268E+00 0.30520439E+04</pdfrwt>
<pdfrwt beam="2">  1       -2 0.22858029E+00 0.30520439E+04</pdfrwt>
<totfact> 0.38169097E-01</totfact>
</mgrwt>
</event>
<event>
12    4  0.4183215E-008  0.1077024E+04  0.7818608E-02  0.9227880E-01
         -4   -1    0    0    0  501 -0.00000000000E+00  0.00000000000E+00  0.23119905900E+03  0.23119905900E+03  0.00000000000E+00 0.  1.
          1   -1    0    0  501    0  0.00000000000E+00 -0.00000000000E+00 -0.12543098924E+04  0.12543098924E+04  0.00000000000E+00 0. -1.
        -24    2    1    2    0    0 -0.10354259258E+03 -0.76644219934E+02 -0.21063832338E+03  0.25986582780E+03  0.81032957818E+02 0.  0.
        254    2    1    2    0    0  0.10354259258E+03  0.76644219934E+02 -0.81247251001E+03  0.12256431236E+04  0.90856704867E+03 0.  0.
         23    2    4    4    0    0  0.11244844490E+03 -0.34506024355E+03 -0.88726672045E+02  0.38290063857E+03  0.83840636033E+02 0.  0.
         23    2    4    4    0    0 -0.89058523210E+01  0.42170446348E+03 -0.72374583796E+03  0.84274248501E+03  0.92156873557E+02 0.  0.
          1    1    3    3  502    0 -0.31934900413E+02  0.99401540636E+01 -0.84843561566E+02  0.91197995956E+02  0.00000000000E+00 0. -1.
         -2    1    3    3    0  502 -0.71607692169E+02 -0.86584373997E+02 -0.12579476181E+03  0.16866783184E+03  0.00000000000E+00 0.  1.
         11    1    5    5    0    0  0.36198677251E+02 -0.21577346760E+03 -0.78538763297E+02  0.23245832077E+03  0.00000000000E+00 0.  1.
        -11    1    5    5    0    0  0.76249767652E+02 -0.12928677595E+03 -0.10187908748E+02  0.15044231781E+03  0.00000000000E+00 0. -1.
          4    1    6    6  503    0  0.68727461340E+01  0.68947110282E+02 -0.19486114821E+03  0.20681345637E+03  0.00000000000E+00 0. -1.
         -4    1    6    6    0  503 -0.15778598455E+02  0.35275735320E+03 -0.52888468976E+03  0.63592902864E+03  0.00000000000E+00 0.  1.
<mgrwt>
<rscale>  0 0.10770242E+04</rscale>
<asrwt>0</asrwt>
<pdfrwt beam="1">  1        1 0.19297076E+00 0.10770242E+04</pdfrwt>
<pdfrwt beam="2">  1       -4 0.35569085E-01 0.10770242E+04</pdfrwt>
<totfact> 0.36856001E+01</totfact>
</mgrwt>
</event>
<event>
12    4  0.4183215E-008  0.1174932E+04  0.7818608E-02  0.9135086E-01
          1   -1    0    0  501    0  0.00000000000E+00  0.00000000000E+00  0.91383818081E+03  0.91383818081E+03  0.00000000000E+00 0. -1.
         -2   -1    0    0    0  501 -0.00000000000E+00 -0.00000000000E+00 -0.37765571221E+03  0.37765571221E+03  0.00000000000E+00 0.  1.
        -24    2    1    2    0    0  0.14283594713E+03  0.48673854825E+02 -0.37560969935E+02  0.17489442712E+03  0.80037380252E+02 0.  0.
        254    2    1    2    0    0 -0.14283594713E+03 -0.48673854825E+02  0.57374343854E+03  0.11165994659E+04  0.94596066623E+03 0.  0.
         23    2    4    4    0    0 -0.37001159191E+03 -0.21558377751E+03 -0.34444205303E+02  0.43939689338E+03  0.92186134296E+02 0.  0.
         23    2    4    4    0    0  0.22717564477E+03  0.16690992269E+03  0.60818764384E+03  0.67720257252E+03  0.96142697282E+02 0.  0.
          1    1    3    3  502    0  0.21356893020E+02 -0.20899753097E+02 -0.13745324370E+02  0.32891495877E+02  0.00000000000E+00 0. -1.
         -4    1    3    3    0  502  0.12147905412E+03  0.69573607922E+02 -0.23815645565E+02  0.14200293124E+03  0.00000000000E+00 0.  1.
         11    1    5    5    0    0 -0.30236584551E+01 -0.11782589559E+02 -0.14800227710E+02  0.19157731270E+02  0.00000000000E+00 0.  1.
        -11    1    5    5    0    0 -0.36698793345E+03 -0.20380118796E+03 -0.19643977593E+02  0.42023916211E+03  0.00000000000E+00 0. -1.
          2    1    6    6  503    0  0.11635037636E+03  0.67516253615E+02  0.39424559803E+03  0.41656385603E+03  0.00000000000E+00 0. -1.
         -2    1    6    6    0  503  0.11082526842E+03  0.99393669075E+02  0.21394204581E+03  0.26063871650E+03  0.00000000000E+00 0.  1.
<mgrwt>
<rscale>  0 0.11749318E+04</rscale>
<asrwt>0</asrwt>
<pdfrwt beam="1">  1        1 0.14059049E+00 0.11749318E+04</pdfrwt>
<pdfrwt beam="2">  1       -2 0.58100879E-01 0.11749318E+04</pdfrwt>
<totfact> 0.42705184E+01</totfact>
</mgrwt>
</event>
<event>
12    4  0.4183215E-008  0.2175571E+04  0.7818608E-02  0.8528665E-01
         -2   -1    0    0    0  501 -0.00000000000E+00  0.00000000000E+00  0.10212681974E+04  0.10212681974E+04  0.00000000000E+00 0.  1.
          1   -1    0    0  501    0  0.00000000000E+00 -0.00000000000E+00 -0.11586355877E+04  0.11586355877E+04  0.00000000000E+00 0. -1.
        -24    2    1    2    0    0 -0.90234717956E+03  0.77608744387E+02  0.51242703465E+02  0.91034250470E+03  0.76446788967E+02 0.  0.
        254    2    1    2    0    0  0.90234717956E+03 -0.77608744387E+02 -0.18861009371E+03  0.12695612804E+04  0.86945875556E+03 0.  0.
         23    2    4    4    0    0  0.10410752250E+04  0.22204007078E+02 -0.23166439143E+03  0.10708535895E+04  0.93425788147E+02 0.  0.
         23    2    4    4    0    0 -0.13872804540E+03 -0.99812751465E+02  0.43054297720E+02  0.19870769094E+03  0.91777001203E+02 0.  0.
          3    1    3    3  502    0 -0.79774192289E+02  0.28971107737E+02  0.31406030071E+01  0.84930031356E+02  0.00000000000E+00 0. -1.
         -4    1    3    3    0  502 -0.82257298727E+03  0.48637636650E+02  0.48102100458E+02  0.82541247334E+03  0.00000000000E+00 0.  1.
         11    1    5    5    0    0  0.90127645857E+03  0.50887592026E+02 -0.19572320045E+03  0.92368629577E+03  0.00000000000E+00 0.  1.
        -11    1    5    5    0    0  0.13979876639E+03 -0.28683584948E+02 -0.35941190989E+02  0.14716729372E+03  0.00000000000E+00 0. -1.
          3    1    6    6  503    0 -0.19276248764E+02 -0.59239013542E+02 -0.76107259435E+01  0.62759522315E+02  0.00000000000E+00 0. -1.
         -3    1    6    6    0  503 -0.11945179664E+03 -0.40573737923E+02  0.50665023663E+02  0.13594816862E+03  0.00000000000E+00 0.  1.
<mgrwt>
<rscale>  0 0.21755714E+04</rscale>
<asrwt>0</asrwt>
<pdfrwt beam="1">  1        1 0.17825163E+00 0.21755714E+04</pdfrwt>
<pdfrwt beam="2">  1       -2 0.15711818E+00 0.21755714E+04</pdfrwt>
<totfact> 0.24309982E+00</totfact>
</mgrwt>
</event>
<event>
12    4  0.4183215E-008  0.1934913E+04  0.7818608E-02  0.8637670E-01
          1   -1    0    0  501    0  0.00000000000E+00  0.00000000000E+00  0.13516524497E+04  0.13516524497E+04  0.00000000000E+00 0. -1.
         -2   -1    0    0    0  501 -0.00000000000E+00 -0.00000000000E+00 -0.69246526341E+03  0.69246526341E+03  0.00000000000E+00 0.  1.
        -24    2    1    2    0    0  0.43427044565E+03 -0.32494075340E+01  0.91086062592E+03  0.10114607541E+04  0.69169346680E+02 0.  0.
        254    2    1    2    0    0 -0.43427044565E+03  0.32494075340E+01 -0.25167343962E+03  0.10326569591E+04  0.90246301657E+03 0.  0.
         23    2    4    4    0    0 -0.75093444915E+02  0.11419198342E+03  0.30969339297E+03  0.35061379297E+03  0.91330168194E+02 0.  0.
         23    2    4    4    0    0 -0.35917700074E+03 -0.11094257588E+03 -0.56136683260E+03  0.68204316609E+03  0.93454730601E+02 0.  0.
          3    1    3    3  502    0  0.35784000354E+03 -0.25517515241E+02  0.71244764616E+03  0.79767302840E+03  0.00000000000E+00 0. -1.
         -4    1    3    3    0  502  0.76430442113E+02  0.22268107707E+02  0.19841297977E+03  0.21378772566E+03  0.00000000000E+00 0.  1.
         11    1    5    5    0    0 -0.82965650869E+02  0.96242516086E+02  0.30507165688E+03  0.33047637882E+03  0.00000000000E+00 0.  1.
        -11    1    5    5    0    0  0.78722059543E+01  0.17949467332E+02  0.46217360947E+01  0.20137414150E+02  0.00000000000E+00 0. -1.
          3    1    6    6  503    0 -0.74846937770E+02 -0.79345433421E+01 -0.58829537617E+02  0.95529762733E+02  0.00000000000E+00 0. -1.
         -3    1    6    6    0  503 -0.28433006297E+03 -0.10300803254E+03 -0.50253729498E+03  0.58651340336E+03  0.00000000000E+00 0.  1.
<mgrwt>
<rscale>  0 0.19349133E+04</rscale>
<asrwt>0</asrwt>
<pdfrwt beam="1">  1        1 0.20794653E+00 0.19349133E+04</pdfrwt>
<pdfrwt beam="2">  1       -2 0.10653312E+00 0.19349133E+04</pdfrwt>
<totfact> 0.48293295E+00</totfact>
</mgrwt>
</event>
<event>
12    4  0.4183215E-008  0.1199681E+04  0.7818608E-02  0.9113136E-01
         -2   -1    0    0    0  501 -0.00000000000E+00  0.00000000000E+00  0.41292330991E+03  0.41292330991E+03  0.00000000000E+00 0.  1.
          1   -1    0    0  501    0  0.00000000000E+00 -0.00000000000E+00 -0.87136939473E+03  0.87136939473E+03  0.00000000000E+00 0. -1.
        -24    2    1    2    0    0  0.72530015203E+02 -0.10267272004E+03  0.58869985728E+02  0.16321550092E+03  0.85856473106E+02 0.  0.
        254    2    1    2    0    0 -0.72530015203E+02  0.10267272004E+03 -0.51731607054E+03  0.11210772037E+04  0.98660827552E+03 0.  0.
         23    2    4    4    0    0  0.92652807447E+02 -0.37585586020E+03 -0.45202995168E+03  0.60220217573E+03  0.92001156876E+02 0.  0.
         23    2    4    4    0    0 -0.16518282265E+03  0.47852858025E+03 -0.65286118867E+02  0.51887502799E+03  0.93241891581E+02 0.  0.
          3    1    3    3  502    0  0.40694601218E+02 -0.64435466484E+02 -0.11458126309E+02  0.77066650166E+02  0.00000000000E+00 0. -1.
         -4    1    3    3    0  502  0.31835413985E+02 -0.38237253559E+02  0.70328112038E+02  0.86148850753E+02  0.00000000000E+00 0.  1.
         11    1    5    5    0    0  0.48894310562E+02 -0.32937486157E+03 -0.36225337215E+03  0.49204263908E+03  0.00000000000E+00 0. -1.
        -11    1    5    5    0    0  0.43758496885E+02 -0.46480998633E+02 -0.89776579532E+02  0.11015953665E+03  0.00000000000E+00 0.  1.
          1    1    6    6  503    0 -0.15513057808E+03  0.38127281267E+03 -0.22759033928E+02  0.41225286847E+03  0.00000000000E+00 0. -1.
         -1    1    6    6    0  503 -0.10052244573E+02  0.97255767574E+02 -0.42527084939E+02  0.10662215952E+03  0.00000000000E+00 0.  1.
<mgrwt>
<rscale>  0 0.11996812E+04</rscale>
<asrwt>0</asrwt>
<pdfrwt beam="1">  1        1 0.13405683E+00 0.11996812E+04</pdfrwt>
<pdfrwt beam="2">  1       -2 0.63526665E-01 0.11996812E+04</pdfrwt>
<totfact> 0.38231621E+01</totfact>
</mgrwt>
</event>
<event>
12    4  0.4183215E-008  0.1414713E+04  0.7818608E-02  0.8943237E-01
         -2   -1    0    0    0  501 -0.00000000000E+00  0.00000000000E+00  0.54408970525E+03  0.54408970525E+03  0.00000000000E+00 0.  1.
          1   -1    0    0  501    0  0.00000000000E+00 -0.00000000000E+00 -0.91961511169E+03  0.91961511169E+03  0.00000000000E+00 0. -1.
        -24    2    1    2    0    0 -0.24489725618E+02 -0.27493765856E+03 -0.42335121462E+03  0.51212825984E+03  0.82816911613E+02 0.  0.
        254    2    1    2    0    0  0.24489725618E+02  0.27493765856E+03  0.47825808176E+02  0.95157655710E+03  0.90940649510E+03 0.  0.
         23    2    4    4    0    0  0.75713330251E+02  0.56639183811E+03  0.19320757062E+03  0.60992133637E+03  0.90236625389E+02 0.  0.
         23    2    4    4    0    0 -0.51223604632E+02 -0.29145417955E+03 -0.14538176244E+03  0.34165522073E+03  0.89571404757E+02 0.  0.
          1    1    3    3  502    0 -0.21507746127E+02 -0.22278950919E+03 -0.39145399819E+03  0.45092569371E+03  0.00000000000E+00 0. -1.
         -2    1    3    3    0  502 -0.29819794912E+01 -0.52148149373E+02 -0.31897216425E+02  0.61202566126E+02  0.00000000000E+00 0.  1.
         11    1    5    5    0    0 -0.16602003281E+02  0.37822255774E+02  0.66103646739E+01  0.41831166203E+02  0.00000000000E+00 0.  1.
        -11    1    5    5    0    0  0.92315333531E+02  0.52856958234E+03  0.18659720594E+03  0.56809017017E+03  0.00000000000E+00 0. -1.
          2    1    6    6  503    0  0.17420643343E+02 -0.54226544928E+02 -0.53543595150E+02  0.78172332516E+02  0.00000000000E+00 0.  1.
         -2    1    6    6    0  503 -0.68644247975E+02 -0.23722763462E+03 -0.91838167292E+02  0.26348288821E+03  0.00000000000E+00 0. -1.
<mgrwt>
<rscale>  0 0.14147129E+04</rscale>
<asrwt>0</asrwt>
<pdfrwt beam="1">  1        1 0.14147925E+00 0.14147129E+04</pdfrwt>
<pdfrwt beam="2">  1       -2 0.83706108E-01 0.14147129E+04</pdfrwt>
<totfact> 0.18679820E+01</totfact>
</mgrwt>
</event>
<event>
12    4  0.4183215E-008  0.2732790E+04  0.7818608E-02  0.8324444E-01
         -4   -1    0    0    0  501 -0.00000000000E+00  0.00000000000E+00  0.31250304829E+04  0.31250304829E+04  0.00000000000E+00 0.  1.
          3   -1    0    0  501    0  0.00000000000E+00 -0.00000000000E+00 -0.59744545685E+03  0.59744545685E+03  0.00000000000E+00 0. -1.
        -24    2    1    2    0    0  0.54551780181E+03 -0.18303380178E+03 -0.33244770804E+03  0.66953251111E+03  0.81616543438E+02 0.  0.
        254    2    1    2    0    0 -0.54551780181E+03  0.18303380178E+03  0.28600327341E+04  0.30529434287E+04  0.89976957814E+03 0.  0.
         23    2    4    4    0    0 -0.18261999608E+03  0.16671470422E+03  0.25584792723E+04  0.25719276437E+04  0.88610166884E+02 0.  0.
         23    2    4    4    0    0 -0.36289780574E+03  0.16319097561E+02  0.30155346178E+03  0.48101578501E+03  0.92089981886E+02 0.  0.
          1    1    3    3  502    0  0.35513209444E+03 -0.82658052553E+02 -0.18711178319E+03  0.40983164539E+03  0.00000000000E+00 0. -1.
         -2    1    3    3    0  502  0.19038570738E+03 -0.10037574922E+03 -0.14533592485E+03  0.25970086572E+03  0.00000000000E+00 0.  1.
         11    1    5    5    0    0 -0.10699146993E+03  0.15134234763E+03  0.18457239591E+04  0.18550063650E+04  0.00000000000E+00 0. -1.
        -11    1    5    5    0    0 -0.75628526147E+02  0.15372356590E+02  0.71275531322E+03  0.71692127869E+03  0.00000000000E+00 0.  1.
          1    1    6    6  503    0 -0.35739347183E+03  0.17468160889E+02  0.26815974524E+03  0.44715196446E+03  0.00000000000E+00 0. -1.
         -1    1    6    6    0  503 -0.55043339095E+01 -0.11490633277E+01  0.33393716535E+02  0.33863820551E+02  0.00000000000E+00 0.  1.
<mgrwt>
<rscale>  0 0.27327900E+04</rscale>
<asrwt>0</asrwt>
<pdfrwt beam="1">  1        3 0.91914687E-01 0.27327900E+04</pdfrwt>
<pdfrwt beam="2">  1       -4 0.48077391E+00 0.27327900E+04</pdfrwt>
<totfact> 0.36198605E-03</totfact>
</mgrwt>
</event>
<event>
12    4  0.4183215E-008  0.1396079E+04  0.7818608E-02  0.8956661E-01
         -2   -1    0    0    0  501 -0.00000000000E+00  0.00000000000E+00  0.13322309039E+04  0.13322309039E+04  0.00000000000E+00 0.  1.
          1   -1    0    0  501    0  0.00000000000E+00 -0.00000000000E+00 -0.36574694145E+03  0.36574694145E+03  0.00000000000E+00 0. -1.
        -24    2    1    2    0    0 -0.15088092177E+03 -0.36982468007E+03  0.34896978857E+03  0.53635008523E+03  0.79725491845E+02 0.  0.
        254    2    1    2    0    0  0.15088092177E+03  0.36982468007E+03  0.61751417385E+03  0.11616277601E+04  0.89917737492E+03 0.  0.
         23    2    4    4    0    0 -0.21387810988E+03  0.53998292900E+02  0.62689545921E+03  0.67084744935E+03  0.91535359272E+02 0.  0.
         23    2    4    4    0    0  0.36475903166E+03  0.31582638717E+03 -0.93812853523E+01  0.49078031075E+03  0.89341182524E+02 0.  0.
          1    1    3    3  502    0 -0.14433380146E+03 -0.29926475983E+03  0.31471091179E+03  0.45764025251E+03  0.00000000000E+00 0. -1.
         -2    1    3    3    0  502 -0.65471203176E+01 -0.70559920235E+02  0.34258876775E+02  0.78709832714E+02  0.00000000000E+00 0.  1.
         11    1    5    5    0    0 -0.11797897696E+03 -0.87992389393E+01  0.24412927548E+03  0.27128503232E+03  0.00000000000E+00 0.  1.
        -11    1    5    5    0    0 -0.95899132920E+02  0.62797531840E+02  0.38276618372E+03  0.39956241703E+03  0.00000000000E+00 0. -1.
          1    1    6    6  503    0  0.13729913698E+03  0.11597850501E+03 -0.46729142001E+02  0.18570320232E+03  0.00000000000E+00 0. -1.
         -1    1    6    6    0  503  0.22745989468E+03  0.19984788216E+03  0.37347856649E+02  0.30507710843E+03  0.00000000000E+00 0.  1.
<mgrwt>
<rscale>  0 0.13960793E+04</rscale>
<asrwt>0</asrwt>
<pdfrwt beam="1">  1        1 0.56268761E-01 0.13960793E+04</pdfrwt>
<pdfrwt beam="2">  1       -2 0.20495860E+00 0.13960793E+04</pdfrwt>
<totfact> 0.71018154E+00</totfact>
</mgrwt>
</event>
<event>
12    4  0.4183215E-008  0.1656455E+04  0.7818608E-02  0.8786597E-01
         -2   -1    0    0    0  501 -0.00000000000E+00  0.00000000000E+00  0.10435521881E+04  0.10435521881E+04  0.00000000000E+00 0.  1.
          1   -1    0    0  501    0  0.00000000000E+00 -0.00000000000E+00 -0.65733265706E+03  0.65733265706E+03  0.00000000000E+00 0. -1.
        -24    2    1    2    0    0 -0.18456229867E+03  0.14496045188E+02  0.70918608049E+03  0.73751644737E+03  0.81928236660E+02 0.  0.
        254    2    1    2    0    0  0.18456229867E+03 -0.14496045188E+02 -0.32296654944E+03  0.96336839780E+03  0.88853694375E+03 0.  0.
         23    2    4    4    0    0  0.42130423726E+03 -0.20611225519E+03  0.42319341224E+02  0.47925276621E+03  0.88953725094E+02 0.  0.
         23    2    4    4    0    0 -0.23674193858E+03  0.19161621000E+03 -0.36528589066E+03  0.48411563159E+03  0.90391622469E+02 0.  0.
          3    1    3    3  502    0 -0.32763541236E+02  0.18778687365E+02  0.60711591634E+02  0.71498154467E+02  0.00000000000E+00 0. -1.
         -4    1    3    3    0  502 -0.15179875744E+03 -0.42826421775E+01  0.64847448886E+03  0.66601829290E+03  0.00000000000E+00 0.  1.
         11    1    5    5    0    0  0.23598789316E+03 -0.70620667378E+02  0.40790220257E+02  0.24968261143E+03  0.00000000000E+00 0.  1.
        -11    1    5    5    0    0  0.18531634409E+03 -0.13549158781E+03  0.15291209665E+01  0.22957015478E+03  0.00000000000E+00 0. -1.
          2    1    6    6  503    0  0.26472455104E+01  0.21865838370E+02 -0.12870816015E+02  0.25510403786E+02  0.00000000000E+00 0. -1.
         -2    1    6    6    0  503 -0.23938918409E+03  0.16975037163E+03 -0.35241507465E+03  0.45860522781E+03  0.00000000000E+00 0.  1.
<mgrwt>
<rscale>  0 0.16564552E+04</rscale>
<asrwt>0</asrwt>
<pdfrwt beam="1">  1        1 0.10112810E+00 0.16564552E+04</pdfrwt>
<pdfrwt beam="2">  1       -2 0.16054649E+00 0.16564552E+04</pdfrwt>
<totfact> 0.62456947E+00</totfact>
</mgrwt>
</event>
<event>
12    4  0.4183215E-008  0.1465277E+04  0.7818608E-02  0.8907878E-01
         -2   -1    0    0    0  501 -0.00000000000E+00  0.00000000000E+00  0.39495344690E+03  0.39495344690E+03  0.00000000000E+00 0.  1.
          1   -1    0    0  501    0  0.00000000000E+00 -0.00000000000E+00 -0.13590436009E+04  0.13590436009E+04  0.00000000000E+00 0. -1.
        -24    2    1    2    0    0 -0.17259010967E+03  0.41462921802E+03 -0.38648479220E+03  0.59798462012E+03  0.80686906670E+02 0.  0.
        254    2    1    2    0    0  0.17259010967E+03 -0.41462921802E+03 -0.57760536180E+03  0.11560124277E+04  0.89500393550E+03 0.  0.
         23    2    4    4    0    0 -0.12793865786E+02  0.23397052783E+03  0.17865415639E+02  0.25162237418E+03  0.89937507310E+02 0.  0.
         23    2    4    4    0    0  0.18538397546E+03 -0.64859974584E+03 -0.59547077744E+03  0.90439005349E+03  0.91033364245E+02 0.  0.
          1    1    3    3  502    0 -0.10071510475E+03  0.26603331356E+03 -0.29261633114E+03  0.40809505449E+03  0.00000000000E+00 0. -1.
         -2    1    3    3    0  502 -0.71875004921E+02  0.14859590446E+03 -0.93868461063E+02  0.18988956563E+03  0.00000000000E+00 0.  1.
         11    1    5    5    0    0  0.21108231973E+02  0.18802372391E+03  0.34112653503E+02  0.19225543253E+03  0.00000000000E+00 0. -1.
        -11    1    5    5    0    0 -0.33902097760E+02  0.45946803915E+02 -0.16247237864E+02  0.59366941649E+02  0.00000000000E+00 0.  1.
          4    1    6    6  503    0  0.11522643084E+03 -0.45937302529E+03 -0.36420763033E+03  0.59745117350E+03  0.00000000000E+00 0.  1.
         -4    1    6    6    0  503  0.70157544623E+02 -0.18922672055E+03 -0.23126314711E+03  0.30693887999E+03  0.00000000000E+00 0. -1.
<mgrwt>
<rscale>  0 0.14652767E+04</rscale>
<asrwt>0</asrwt>
<pdfrwt beam="1">  1        1 0.20908363E+00 0.14652767E+04</pdfrwt>
<pdfrwt beam="2">  1       -2 0.60762069E-01 0.14652767E+04</pdfrwt>
<totfact> 0.17620207E+01</totfact>
</mgrwt>
</event>
<event>
12    4  0.4183215E-008  0.3766848E+04  0.7818608E-02  0.8053307E-01
         -2   -1    0    0    0  501 -0.00000000000E+00  0.00000000000E+00  0.27519883607E+04  0.27519883607E+04  0.00000000000E+00 0.  1.
          1   -1    0    0  501    0  0.00000000000E+00 -0.00000000000E+00 -0.12889900075E+04  0.12889900075E+04  0.00000000000E+00 0. -1.
        -24    2    1    2    0    0  0.68889647897E+03 -0.64577296115E+03 -0.92392348557E+03  0.13233934932E+04  0.78324035508E+02 0.  0.
        254    2    1    2    0    0 -0.68889647897E+03  0.64577296115E+03  0.23869218388E+04  0.27175848750E+04  0.89233996456E+03 0.  0.
         23    2    4    4    0    0  0.18673508748E+03  0.23113843315E+03  0.40661874145E+03  0.51106169210E+03  0.86892370520E+02 0.  0.
         23    2    4    4    0    0 -0.87563156645E+03  0.41463452800E+03  0.19803030974E+04  0.22065231829E+04  0.92150786613E+02 0.  0.
          1    1    3    3  502    0  0.55092291642E+03 -0.51112800281E+03 -0.68961511769E+03  0.10199690709E+04  0.00000000000E+00 0. -1.
         -2    1    3    3    0  502  0.13797356255E+03 -0.13464495834E+03 -0.23430836788E+03  0.30342442227E+03  0.00000000000E+00 0.  1.
         11    1    5    5    0    0  0.15771018177E+03  0.21519720408E+03  0.39354972807E+03  0.47546159313E+03  0.00000000000E+00 0. -1.
        -11    1    5    5    0    0  0.29024905709E+02  0.15941229070E+02  0.13069013381E+02  0.35600098967E+02  0.00000000000E+00 0.  1.
          3    1    6    6  503    0 -0.87490670698E+03  0.41344737499E+03  0.19569564476E+04  0.21831351345E+04  0.00000000000E+00 0. -1.
         -3    1    6    6    0  503 -0.72485946561E+00  0.11871530046E+01  0.23346649759E+02  0.23388048411E+02  0.00000000000E+00 0.  1.
<mgrwt>
<rscale>  0 0.37668478E+04</rscale>
<asrwt>0</asrwt>
<pdfrwt beam="1">  1        1 0.19830616E+00 0.37668478E+04</pdfrwt>
<pdfrwt beam="2">  1       -2 0.42338282E+00 0.37668478E+04</pdfrwt>
<totfact> 0.33574732E-02</totfact>
</mgrwt>
</event>
<event>
12    4  0.4183215E-008  0.2173014E+04  0.7818608E-02  0.8529745E-01
         -2   -1    0    0    0  501 -0.00000000000E+00  0.00000000000E+00  0.65207177278E+03  0.65207177278E+03  0.00000000000E+00 0.  1.
          1   -1    0    0  501    0  0.00000000000E+00 -0.00000000000E+00 -0.18103789728E+04  0.18103789728E+04  0.00000000000E+00 0. -1.
        -24    2    1    2    0    0  0.64838726014E+03 -0.30384319499E+03 -0.10907688038E+04  0.13072818103E+04  0.80513488839E+02 0.  0.
        254    2    1    2    0    0 -0.64838726014E+03  0.30384319499E+03 -0.67538396201E+02  0.11551689353E+04  0.90395083263E+03 0.  0.
         23    2    4    4    0    0 -0.33523990566E+03 -0.29876438408E+03  0.46352190287E+02  0.46052309380E+03  0.91033196364E+02 0.  0.
         23    2    4    4    0    0 -0.31314735449E+03  0.60260757907E+03 -0.11389058649E+03  0.69464584148E+03  0.91458293324E+02 0.  0.
          3    1    3    3  502    0  0.44015683983E+03 -0.17799120802E+03 -0.77120328189E+03  0.90563426160E+03  0.00000000000E+00 0. -1.
         -4    1    3    3    0  502  0.20823042032E+03 -0.12585198698E+03 -0.31956552194E+03  0.40164754871E+03  0.00000000000E+00 0.  1.
         11    1    5    5    0    0 -0.19226854612E+03 -0.19954131540E+03 -0.10915041630E+02  0.27731402509E+03  0.00000000000E+00 0.  1.
        -11    1    5    5    0    0 -0.14297135954E+03 -0.99223068682E+02  0.57267231917E+02  0.18320906871E+03  0.00000000000E+00 0. -1.
          3    1    6    6  503    0 -0.27529181698E+03  0.56649215847E+03 -0.12244273491E+03  0.64163164934E+03  0.00000000000E+00 0. -1.
         -3    1    6    6    0  503 -0.37855537511E+02  0.36115420599E+02  0.85521484250E+01  0.53014192137E+02  0.00000000000E+00 0.  1.
<mgrwt>
<rscale>  0 0.21730136E+04</rscale>
<asrwt>0</asrwt>
<pdfrwt beam="1">  1        1 0.27851984E+00 0.21730136E+04</pdfrwt>
<pdfrwt beam="2">  1       -2 0.10031873E+00 0.21730136E+04</pdfrwt>
<totfact> 0.26372619E+00</totfact>
</mgrwt>
</event>
<event>
12    4  0.4183215E-008  0.1537689E+04  0.7818608E-02  0.8859770E-01
          1   -1    0    0  501    0  0.00000000000E+00  0.00000000000E+00  0.11391716570E+04  0.11391716570E+04  0.00000000000E+00 0. -1.
         -2   -1    0    0    0  501 -0.00000000000E+00 -0.00000000000E+00 -0.51890511981E+03  0.51890511981E+03  0.00000000000E+00 0.  1.
        -24    2    1    2    0    0  0.14324884576E+03 -0.14936526871E+03 -0.28447229327E+03  0.36091513442E+03  0.80653786693E+02 0.  0.
        254    2    1    2    0    0 -0.14324884576E+03  0.14936526871E+03  0.90473883048E+03  0.12971616424E+04  0.90622610857E+03 0.  0.
         23    2    4    4    0    0  0.26995592454E+03 -0.13546604191E+03  0.77134014025E+02  0.32495141089E+03  0.91741558847E+02 0.  0.
         23    2    4    4    0    0 -0.41320477029E+03  0.28483131062E+03  0.82760481645E+03  0.97221023151E+03  0.91629385767E+02 0.  0.
          1    1    3    3  502    0  0.14879412374E+02 -0.60596308117E+02 -0.53706665403E+02  0.82326881265E+02  0.00000000000E+00 0. -1.
         -2    1    3    3    0  502  0.12836943338E+03 -0.88768960594E+02 -0.23076562786E+03  0.27858825315E+03  0.00000000000E+00 0.  1.
         11    1    5    5    0    0  0.87727684962E+02 -0.77821513334E+02  0.63447111311E+02  0.13333368134E+03  0.00000000000E+00 0.  1.
        -11    1    5    5    0    0  0.18222823957E+03 -0.57644528576E+02  0.13686902714E+02  0.19161772955E+03  0.00000000000E+00 0. -1.
          3    1    6    6  503    0 -0.24763829182E+03  0.16983974454E+03  0.57820856865E+03  0.65153312368E+03  0.00000000000E+00 0. -1.
         -3    1    6    6    0  503 -0.16556647848E+03  0.11499156608E+03  0.24939624780E+03  0.32067710783E+03  0.00000000000E+00 0.  1.
<mgrwt>
<rscale>  0 0.15376892E+04</rscale>
<asrwt>0</asrwt>
<pdfrwt beam="1">  1        1 0.17525718E+00 0.15376892E+04</pdfrwt>
<pdfrwt beam="2">  1       -2 0.79831557E-01 0.15376892E+04</pdfrwt>
<totfact> 0.13919702E+01</totfact>
</mgrwt>
</event>
<event>
12    4  0.4183215E-008  0.1959701E+04  0.7818608E-02  0.8625697E-01
         -2   -1    0    0    0  501 -0.00000000000E+00  0.00000000000E+00  0.50208894319E+03  0.50208894319E+03  0.00000000000E+00 0.  1.
          1   -1    0    0  501    0  0.00000000000E+00 -0.00000000000E+00 -0.19122240170E+04  0.19122240170E+04  0.00000000000E+00 0. -1.
        -24    2    1    2    0    0  0.29954264795E+03 -0.15789086946E+03 -0.14177594422E+04  0.14605071751E+04  0.91564447978E+02 0.  0.
        254    2    1    2    0    0 -0.29954264795E+03  0.15789086946E+03  0.76243683244E+01  0.95380578509E+03  0.89164568080E+03 0.  0.
         23    2    4    4    0    0 -0.54789700498E+03 -0.19337509354E+02 -0.17940293520E+03  0.58434052805E+03  0.93291865850E+02 0.  0.
         23    2    4    4    0    0  0.24835435703E+03  0.17722837881E+03  0.18702730353E+03  0.36946525704E+03  0.91845408058E+02 0.  0.
          1    1    3    3  502    0  0.27554581759E+03 -0.13424907763E+03 -0.11317725312E+04  0.11725431228E+04  0.00000000000E+00 0. -1.
         -2    1    3    3    0  502  0.23996830353E+02 -0.23641791829E+02 -0.28598691096E+03  0.28796405232E+03  0.00000000000E+00 0.  1.
         11    1    5    5    0    0 -0.11634059800E+03  0.26660040376E+02 -0.63182592003E+02  0.13504788939E+03  0.00000000000E+00 0.  1.
        -11    1    5    5    0    0 -0.43155640698E+03 -0.45997549730E+02 -0.11622034320E+03  0.44929263867E+03  0.00000000000E+00 0. -1.
          1    1    6    6  503    0  0.11508398315E+03  0.13273016156E+03  0.81019254539E+02  0.19345733011E+03  0.00000000000E+00 0. -1.
         -1    1    6    6    0  503  0.13327037388E+03  0.44498217250E+02  0.10600804899E+03  0.17600792693E+03  0.00000000000E+00 0.  1.
<mgrwt>
<rscale>  0 0.19597005E+04</rscale>
<asrwt>0</asrwt>
<pdfrwt beam="1">  1        1 0.29418831E+00 0.19597005E+04</pdfrwt>
<pdfrwt beam="2">  1       -2 0.77244452E-01 0.19597005E+04</pdfrwt>
<totfact> 0.41779164E+00</totfact>
</mgrwt>
</event>
<event>
12    4  0.4183215E-008  0.1133820E+04  0.7818608E-02  0.9172841E-01
          1   -1    0    0  501    0  0.00000000000E+00  0.00000000000E+00  0.70608179532E+03  0.70608179532E+03  0.00000000000E+00 0. -1.
         -2   -1    0    0    0  501 -0.00000000000E+00 -0.00000000000E+00 -0.45516989095E+03  0.45516989095E+03  0.00000000000E+00 0.  1.
        -24    2    1    2    0    0 -0.14627480141E+03  0.80083471959E+02 -0.44715465214E+02  0.19111750775E+03  0.81955774221E+02 0.  0.
        254    2    1    2    0    0  0.14627480141E+03 -0.80083471959E+02  0.29562736958E+03  0.97013417853E+03  0.90882072088E+03 0.  0.
         23    2    4    4    0    0 -0.72177421599E+01 -0.37625592142E+03 -0.14184306004E+03  0.41367125951E+03  0.96870238239E+02 0.  0.
         23    2    4    4    0    0  0.15349254357E+03  0.29617244946E+03  0.43747042962E+03  0.55646291902E+03  0.83621305313E+02 0.  0.
          3    1    3    3  502    0 -0.88991396786E+02  0.51549852678E+02  0.14581655856E+02  0.10387242512E+03  0.00000000000E+00 0. -1.
         -4    1    3    3    0  502 -0.57283404627E+02  0.28533619281E+02 -0.59297121071E+02  0.87245082625E+02  0.00000000000E+00 0.  1.
         11    1    5    5    0    0 -0.14430830791E+02 -0.24238785856E+03 -0.13855896124E+03  0.27956879046E+03  0.00000000000E+00 0. -1.
        -11    1    5    5    0    0  0.72130886315E+01 -0.13386806286E+03 -0.32840987918E+01  0.13410246905E+03  0.00000000000E+00 0.  1.
          1    1    6    6  503    0  0.91068582061E+02  0.24542377790E+03  0.35683910346E+03  0.44256125356E+03  0.00000000000E+00 0. -1.
         -1    1    6    6    0  503  0.62423961512E+02  0.50748671565E+02  0.80631326161E+02  0.11390166546E+03  0.00000000000E+00 0.  1.
<mgrwt>
<rscale>  0 0.11338204E+04</rscale>
<asrwt>0</asrwt>
<pdfrwt beam="1">  1        1 0.10862797E+00 0.11338204E+04</pdfrwt>
<pdfrwt beam="2">  1       -2 0.70026137E-01 0.11338204E+04</pdfrwt>
<totfact> 0.43499477E+01</totfact>
</mgrwt>
</event>
<event>
12    4  0.4183215E-008  0.1674536E+04  0.7818608E-02  0.8776022E-01
          1   -1    0    0  501    0  0.00000000000E+00  0.00000000000E+00  0.50290493160E+03  0.50290493160E+03  0.00000000000E+00 0. -1.
         -2   -1    0    0    0  501 -0.00000000000E+00 -0.00000000000E+00 -0.13939367133E+04  0.13939367133E+04  0.00000000000E+00 0.  1.
        -24    2    1    2    0    0  0.80214858252E+02 -0.54697443194E+03 -0.54582645689E+03  0.78379189268E+03  0.10386412912E+03 0.  0.
        254    2    1    2    0    0 -0.80214858252E+02  0.54697443194E+03 -0.34520532481E+03  0.11130497522E+04  0.90227356271E+03 0.  0.
         23    2    4    4    0    0  0.36007070222E+03  0.47304847680E+03 -0.21898004025E+03  0.63989984813E+03  0.89965468995E+02 0.  0.
         23    2    4    4    0    0 -0.44028556047E+03  0.73925955138E+02 -0.12622528457E+03  0.47314990409E+03  0.92852504960E+02 0.  0.
          1    1    3    3  502    0  0.10116008975E+02 -0.30301403688E+02 -0.73978327412E+02  0.80581025246E+02  0.00000000000E+00 0. -1.
         -2    1    3    3    0  502  0.70098849277E+02 -0.51667302825E+03 -0.47184812947E+03  0.70321086744E+03  0.00000000000E+00 0.  1.
         11    1    5    5    0    0  0.72607357698E+02  0.50499194239E+02 -0.15345806566E+02  0.89763527058E+02  0.00000000000E+00 0. -1.
        -11    1    5    5    0    0  0.28746334452E+03  0.42254928257E+03 -0.20363423368E+03  0.55013632107E+03  0.00000000000E+00 0.  1.
          3    1    6    6  503    0 -0.28729325703E+02  0.24394084197E+02  0.57432618989E+01  0.38123884330E+02  0.00000000000E+00 0. -1.
         -3    1    6    6    0  503 -0.41155623476E+03  0.49531870942E+02 -0.13196854646E+03  0.43502601976E+03  0.00000000000E+00 0.  1.
<mgrwt>
<rscale>  0 0.16745359E+04</rscale>
<asrwt>0</asrwt>
<pdfrwt beam="1">  1        1 0.77369990E-01 0.16745359E+04</pdfrwt>
<pdfrwt beam="2">  1       -2 0.21445180E+00 0.16745359E+04</pdfrwt>
<totfact> 0.39299279E+00</totfact>
</mgrwt>
</event>
<event>
12    4  0.4183215E-008  0.1587747E+04  0.7818608E-02  0.8828111E-01
         -2   -1    0    0    0  501 -0.00000000000E+00  0.00000000000E+00  0.36416870839E+03  0.36416870839E+03  0.00000000000E+00 0.  1.
          1   -1    0    0  501    0  0.00000000000E+00 -0.00000000000E+00 -0.17306130689E+04  0.17306130689E+04  0.00000000000E+00 0. -1.
        -24    2    1    2    0    0 -0.13903671455E+02  0.51328515047E+03 -0.44636131520E+03  0.68488877650E+03  0.78608235538E+02 0.  0.
        254    2    1    2    0    0  0.13903671455E+02 -0.51328515047E+03 -0.92008304527E+03  0.14098930008E+04  0.93679800683E+03 0.  0.
         23    2    4    4    0    0  0.14238688596E+03 -0.59748993652E+03 -0.10278712593E+04  0.12008856095E+04  0.91316328738E+02 0.  0.
         23    2    4    4    0    0 -0.12848321451E+03  0.84204786058E+02  0.10778821403E+03  0.20900739123E+03  0.92018520427E+02 0.  0.
          3    1    3    3  502    0  0.20845491826E+01  0.60428469018E+02 -0.89928279465E+02  0.10836531115E+03  0.00000000000E+00 0. -1.
         -4    1    3    3    0  502 -0.15988220638E+02  0.45285668145E+03 -0.35643303574E+03  0.57652346535E+03  0.00000000000E+00 0.  1.
         11    1    5    5    0    0  0.32890515681E+02 -0.46055359227E+02 -0.67777900400E+02  0.88299070878E+02  0.00000000000E+00 0.  1.
        -11    1    5    5    0    0  0.10949637028E+03 -0.55143457730E+03 -0.96009335891E+03  0.11125865386E+04  0.00000000000E+00 0. -1.
          2    1    6    6  503    0 -0.56817277952E+02  0.75638212513E+02  0.97931431059E+02  0.13616132878E+03  0.00000000000E+00 0. -1.
         -2    1    6    6    0  503 -0.71665936554E+02  0.85665735451E+01  0.98567829734E+01  0.72846062454E+02  0.00000000000E+00 0.  1.
<mgrwt>
<rscale>  0 0.15877470E+04</rscale>
<asrwt>0</asrwt>
<pdfrwt beam="1">  1        1 0.26624816E+00 0.15877470E+04</pdfrwt>
<pdfrwt beam="2">  1       -2 0.56025955E-01 0.15877470E+04</pdfrwt>
<totfact> 0.11455956E+01</totfact>
</mgrwt>
</event>
<event>
12    4  0.4183215E-008  0.1690873E+04  0.7818608E-02  0.8766587E-01
         -2   -1    0    0    0  501 -0.00000000000E+00  0.00000000000E+00  0.46008329478E+03  0.46008329478E+03  0.00000000000E+00 0.  1.
          1   -1    0    0  501    0  0.00000000000E+00 -0.00000000000E+00 -0.15535501554E+04  0.15535501554E+04  0.00000000000E+00 0. -1.
        -24    2    1    2    0    0  0.70796283805E+02  0.82642280999E+02 -0.11139916900E+04  0.11222036504E+04  0.80756962638E+02 0.  0.
        254    2    1    2    0    0 -0.70796283805E+02 -0.82642280999E+02  0.20524829400E+02  0.89142979983E+03  0.88452470796E+03 0.  0.
         23    2    4    4    0    0 -0.14220536339E+02 -0.43577128597E+03  0.18772727104E+03  0.48350054584E+03  0.91828166751E+02 0.  0.
         23    2    4    4    0    0 -0.56575747466E+02  0.35312900497E+03 -0.16720244164E+03  0.40792925399E+03  0.10270691513E+03 0.  0.
          3    1    3    3  502    0  0.84852248995E+02  0.54964806418E+02 -0.73132572028E+03  0.73828066698E+03  0.00000000000E+00 0. -1.
         -4    1    3    3    0  502 -0.14055965190E+02  0.27677474581E+02 -0.38266596976E+03  0.38392298338E+03  0.00000000000E+00 0.  1.
         11    1    5    5    0    0 -0.27727339383E+02 -0.32513814000E+03  0.98892054044E+02  0.34097397816E+03  0.00000000000E+00 0. -1.
        -11    1    5    5    0    0  0.13506803044E+02 -0.11063314597E+03  0.88835216996E+02  0.14252656768E+03  0.00000000000E+00 0.  1.
          3    1    6    6  503    0 -0.40684377581E+02  0.20163109373E+03 -0.40165098831E+02  0.20957946393E+03  0.00000000000E+00 0. -1.
         -3    1    6    6    0  503 -0.15891369885E+02  0.15149791124E+03 -0.12703734281E+03  0.19834979005E+03  0.00000000000E+00 0.  1.
<mgrwt>
<rscale>  0 0.16908725E+04</rscale>
<asrwt>0</asrwt>
<pdfrwt beam="1">  1        1 0.23900772E+00 0.16908725E+04</pdfrwt>
<pdfrwt beam="2">  1       -2 0.70782044E-01 0.16908725E+04</pdfrwt>
<totfact> 0.91075837E+00</totfact>
</mgrwt>
</event>
<event>
12    4  0.4183215E-008  0.1388176E+04  0.7818608E-02  0.8962422E-01
         -2   -1    0    0    0  501 -0.00000000000E+00  0.00000000000E+00  0.38328934434E+03  0.38328934434E+03  0.00000000000E+00 0.  1.
          1   -1    0    0  501    0  0.00000000000E+00 -0.00000000000E+00 -0.12569039179E+04  0.12569039179E+04  0.00000000000E+00 0. -1.
        -24    2    1    2    0    0  0.20785953075E+03  0.10076550402E+03 -0.64325858796E+03  0.68757607456E+03  0.74966499208E+02 0.  0.
        254    2    1    2    0    0 -0.20785953075E+03 -0.10076550402E+03 -0.23035598565E+03  0.95261718771E+03  0.89501751652E+03 0.  0.
         23    2    4    4    0    0 -0.90164323227E+02  0.20618866903E+02 -0.55881160549E+03  0.57403818108E+03  0.93245268230E+02 0.  0.
         23    2    4    4    0    0 -0.11769520753E+03 -0.12138437093E+03  0.32845561984E+03  0.37857900664E+03  0.82780690253E+02 0.  0.
          1    1    3    3  502    0  0.16718901126E+03  0.10253847258E+03 -0.58080766390E+03  0.61302842209E+03  0.00000000000E+00 0. -1.
         -2    1    3    3    0  502  0.40670519498E+02 -0.17729685537E+01 -0.62450924054E+02  0.74547652471E+02  0.00000000000E+00 0.  1.
         11    1    5    5    0    0  0.18099764620E+02  0.57087139149E+01 -0.46967646150E+02  0.50657187829E+02  0.00000000000E+00 0. -1.
        -11    1    5    5    0    0 -0.10826408785E+03  0.14910152988E+02 -0.51184395934E+03  0.52338099325E+03  0.00000000000E+00 0.  1.
          1    1    6    6  503    0 -0.17133073432E+01 -0.17293712271E+02  0.10329697569E+03  0.10474861858E+03  0.00000000000E+00 0. -1.
         -1    1    6    6    0  503 -0.11598190018E+03 -0.10409065866E+03  0.22515864415E+03  0.27383038806E+03  0.00000000000E+00 0.  1.
<mgrwt>
<rscale>  0 0.13881756E+04</rscale>
<asrwt>0</asrwt>
<pdfrwt beam="1">  1        1 0.19336983E+00 0.13881756E+04</pdfrwt>
<pdfrwt beam="2">  1       -2 0.58967592E-01 0.13881756E+04</pdfrwt>
<totfact> 0.22342244E+01</totfact>
</mgrwt>
</event>
<event>
12    4  0.4183215E-008  0.1578101E+04  0.7818608E-02  0.8834115E-01
          1   -1    0    0  501    0  0.00000000000E+00  0.00000000000E+00  0.12373899318E+04  0.12373899318E+04  0.00000000000E+00 0. -1.
         -2   -1    0    0    0  501 -0.00000000000E+00 -0.00000000000E+00 -0.50315651821E+03  0.50315651821E+03  0.00000000000E+00 0.  1.
        -24    2    1    2    0    0  0.63479869283E+02 -0.33572561893E+03 -0.19748793401E+03  0.40252025224E+03  0.79244459578E+02 0.  0.
        254    2    1    2    0    0 -0.63479869283E+02  0.33572561893E+03  0.93172134764E+03  0.13380261978E+04  0.89747871918E+03 0.  0.
         23    2    4    4    0    0  0.83501396524E+02  0.48223072438E+03  0.98788657995E+03  0.11062853172E+04  0.91806064031E+02 0.  0.
         23    2    4    4    0    0 -0.14698126581E+03 -0.14650510545E+03 -0.56165232305E+02  0.23174088064E+03  0.86498924964E+02 0.  0.
          1    1    3    3  502    0  0.26004471529E+02 -0.20151647156E+02 -0.16498824031E+02  0.36803975560E+02  0.00000000000E+00 0. -1.
         -2    1    3    3    0  502  0.37475397753E+02 -0.31557397177E+03 -0.18098910997E+03  0.36571627667E+03  0.00000000000E+00 0.  1.
         11    1    5    5    0    0 -0.14136123815E+02  0.15898997113E+02  0.35892171174E+02  0.41723567169E+02  0.00000000000E+00 0.  1.
        -11    1    5    5    0    0  0.97637520339E+02  0.46633172727E+03  0.95199440877E+03  0.10645617500E+04  0.00000000000E+00 0. -1.
          1    1    6    6  503    0 -0.87021308904E+02 -0.10069991831E+03 -0.76611137919E+02  0.15356577810E+03  0.00000000000E+00 0. -1.
         -1    1    6    6    0  503 -0.59959956902E+02 -0.45805187138E+02  0.20445905614E+02  0.78175102538E+02  0.00000000000E+00 0.  1.
<mgrwt>
<rscale>  0 0.15781011E+04</rscale>
<asrwt>0</asrwt>
<pdfrwt beam="1">  1        1 0.19036768E+00 0.15781011E+04</pdfrwt>
<pdfrwt beam="2">  1       -2 0.77408696E-01 0.15781011E+04</pdfrwt>
<totfact> 0.12593002E+01</totfact>
</mgrwt>
</event>
<event>
12    4  0.4183215E-008  0.1691665E+04  0.7818608E-02  0.8766133E-01
          1   -1    0    0  501    0  0.00000000000E+00  0.00000000000E+00  0.32082488281E+04  0.32082488281E+04  0.00000000000E+00 0. -1.
         -2   -1    0    0    0  501 -0.00000000000E+00 -0.00000000000E+00 -0.22299775609E+03  0.22299775609E+03  0.00000000000E+00 0.  1.
        -24    2    1    2    0    0 -0.51324233774E+02 -0.44267011413E+03  0.18965630114E+04  0.19498100138E+04  0.78846855652E+02 0.  0.
        254    2    1    2    0    0  0.51324233774E+02  0.44267011413E+03  0.10886880606E+04  0.14814365704E+04  0.90045633540E+03 0.  0.
         23    2    4    4    0    0  0.19174778424E+03  0.16550778801E+03 -0.70256740171E+02  0.27812121475E+03  0.90859011130E+02 0.  0.
         23    2    4    4    0    0 -0.14042355047E+03  0.27716232612E+03  0.11589448008E+04  0.12033153557E+04  0.90978378738E+02 0.  0.
          1    1    3    3  502    0 -0.51411443743E+02 -0.43626882251E+03  0.18909206754E+04  0.19412765446E+04  0.00000000000E+00 0. -1.
         -2    1    3    3    0  502  0.87209968288E-01 -0.64012916166E+01  0.56423359787E+01  0.85334691208E+01  0.00000000000E+00 0.  1.
         11    1    5    5    0    0  0.19902753776E+03  0.14203178134E+03 -0.63061203454E+02  0.25251079795E+03  0.00000000000E+00 0.  1.
        -11    1    5    5    0    0 -0.72797535199E+01  0.23476006669E+02 -0.71955367169E+01  0.25610416808E+02  0.00000000000E+00 0. -1.
          1    1    6    6  503    0 -0.67205923591E+02  0.14025168050E+03  0.74851542552E+03  0.76450147959E+03  0.00000000000E+00 0. -1.
         -1    1    6    6    0  503 -0.73217626880E+02  0.13691064562E+03  0.41042937524E+03  0.43881387607E+03  0.00000000000E+00 0.  1.
<mgrwt>
<rscale>  0 0.16916646E+04</rscale>
<asrwt>0</asrwt>
<pdfrwt beam="1">  1        1 0.49357671E+00 0.16916646E+04</pdfrwt>
<pdfrwt beam="2">  1       -2 0.34307349E-01 0.16916646E+04</pdfrwt>
<totfact> 0.28052301E+00</totfact>
</mgrwt>
</event>
<event>
12    4  0.4183215E-008  0.1384967E+04  0.7818608E-02  0.8964773E-01
         -2   -1    0    0    0  501 -0.00000000000E+00  0.00000000000E+00  0.16956382092E+04  0.16956382092E+04  0.00000000000E+00 0.  1.
          1   -1    0    0  501    0  0.00000000000E+00 -0.00000000000E+00 -0.28280399567E+03  0.28280399567E+03  0.00000000000E+00 0. -1.
        -24    2    1    2    0    0 -0.15698306388E+03 -0.16197514397E+03 -0.61149404390E+02  0.24687216668E+03  0.79542362387E+02 0.  0.
        254    2    1    2    0    0  0.15698306388E+03  0.16197514397E+03  0.14739836179E+04  0.17315700382E+04  0.88024284244E+03 0.  0.
         23    2    4    4    0    0  0.14501819781E+03  0.22001950725E+03  0.27084990269E+02  0.28059024730E+03  0.92511777174E+02 0.  0.
         23    2    4    4    0    0  0.11964866067E+02 -0.58044363272E+02  0.14468986276E+04  0.14509797909E+04  0.91183379921E+02 0.  0.
          1    1    3    3  502    0 -0.15116563284E+03 -0.15134929362E+03 -0.76623915597E+02  0.22721989718E+03  0.00000000000E+00 0. -1.
         -2    1    3    3    0  502 -0.58174310449E+01 -0.10625850350E+02  0.15474511207E+02  0.19652269506E+02  0.00000000000E+00 0.  1.
         11    1    5    5    0    0  0.80700394335E+02  0.44671426566E+02  0.14753311704E+02  0.93411724123E+02  0.00000000000E+00 0. -1.
        -11    1    5    5    0    0  0.64317803478E+02  0.17534808068E+03  0.12331678565E+02  0.18717852318E+03  0.00000000000E+00 0.  1.
          4    1    6    6  503    0  0.28908419846E+02 -0.32926631156E+02  0.13115384947E+04  0.13122702019E+04  0.00000000000E+00 0.  1.
         -4    1    6    6    0  503 -0.16943553779E+02 -0.25117732116E+02  0.13536013294E+03  0.13870958897E+03  0.00000000000E+00 0. -1.
<mgrwt>
<rscale>  0 0.13849668E+04</rscale>
<asrwt>0</asrwt>
<pdfrwt beam="1">  1        1 0.43508308E-01 0.13849668E+04</pdfrwt>
<pdfrwt beam="2">  1       -2 0.26086741E+00 0.13849668E+04</pdfrwt>
<totfact> 0.44562418E+00</totfact>
</mgrwt>
</event>
<event>
12    4  0.4183215E-008  0.1153955E+04  0.7818608E-02  0.9154143E-01
          1   -1    0    0  501    0  0.00000000000E+00  0.00000000000E+00  0.17632515114E+04  0.17632515114E+04  0.00000000000E+00 0. -1.
         -2   -1    0    0    0  501 -0.00000000000E+00 -0.00000000000E+00 -0.18880069338E+03  0.18880069338E+03  0.00000000000E+00 0.  1.
        -24    2    1    2    0    0  0.32401586385E+02 -0.20195493893E+03  0.23665015838E+03  0.32324786725E+03  0.81548918240E+02 0.  0.
        254    2    1    2    0    0 -0.32401586385E+02  0.20195493893E+03  0.13378006596E+04  0.16288043375E+04  0.90634281863E+03 0.  0.
         23    2    4    4    0    0  0.30592490136E+03 -0.19242010423E+03  0.36280510287E+03  0.52011409129E+03  0.90970234230E+02 0.  0.
         23    2    4    4    0    0 -0.33832648774E+03  0.39437504315E+03  0.97499555678E+03  0.11086902462E+04  0.92634979412E+02 0.  0.
          1    1    3    3  502    0  0.29825258093E+02 -0.20831633582E+03  0.21633508777E+03  0.30180475807E+03  0.00000000000E+00 0. -1.
         -2    1    3    3    0  502  0.25763282920E+01  0.63613968939E+01  0.20315070602E+02  0.21443109184E+02  0.00000000000E+00 0.  1.
         11    1    5    5    0    0  0.30124858855E+03 -0.16569482503E+03  0.34805783323E+03  0.48923383204E+03  0.00000000000E+00 0. -1.
        -11    1    5    5    0    0  0.46763128105E+01 -0.26725279200E+02  0.14747269641E+02  0.30880259255E+02  0.00000000000E+00 0.  1.
          4    1    6    6  503    0 -0.70063585519E+02  0.80420159208E+02  0.28819727955E+03  0.30730112262E+03  0.00000000000E+00 0.  1.
         -4    1    6    6    0  503 -0.26826290222E+03  0.31395488395E+03  0.68679827723E+03  0.80138912363E+03  0.00000000000E+00 0. -1.
<mgrwt>
<rscale>  0 0.11539551E+04</rscale>
<asrwt>0</asrwt>
<pdfrwt beam="1">  1        1 0.27126945E+00 0.11539551E+04</pdfrwt>
<pdfrwt beam="2">  1       -2 0.29046262E-01 0.11539551E+04</pdfrwt>
<totfact> 0.40992502E+01</totfact>
</mgrwt>
</event>
<event>
12    4  0.4183215E-008  0.1080998E+04  0.7818608E-02  0.9223913E-01
         -2   -1    0    0    0  501 -0.00000000000E+00  0.00000000000E+00  0.67989611235E+03  0.67989611235E+03  0.00000000000E+00 0.  1.
          1   -1    0    0  501    0  0.00000000000E+00 -0.00000000000E+00 -0.42968175206E+03  0.42968175206E+03  0.00000000000E+00 0. -1.
        -24    2    1    2    0    0  0.18612541085E+02  0.13997691548E+03  0.35959628378E+02  0.17199219519E+03  0.91368795450E+02 0.  0.
        254    2    1    2    0    0 -0.18612541085E+02 -0.13997691548E+03  0.21425473191E+03  0.93758566921E+03  0.90178813111E+03 0.  0.
         23    2    4    4    0    0 -0.42817780581E+03 -0.67159615885E+02 -0.39733125608E+02  0.44250750155E+03  0.79921963571E+02 0.  0.
         23    2    4    4    0    0  0.40956526473E+03 -0.72817299594E+02  0.25398785752E+03  0.49507816766E+03  0.86870565388E+02 0.  0.
          1    1    3    3  502    0 -0.32376117237E+02  0.48517936036E+02  0.33473279296E+02  0.67250751010E+02  0.00000000000E+00 0. -1.
         -2    1    3    3    0  502  0.50988658321E+02  0.91458979443E+02  0.24863490827E+01  0.10474144418E+03  0.00000000000E+00 0.  1.
         11    1    5    5    0    0 -0.41407772818E+03 -0.71945981979E+02 -0.24181384512E+02  0.42097663671E+03  0.00000000000E+00 0.  1.
        -11    1    5    5    0    0 -0.14100077630E+02  0.47863660940E+01 -0.15551741097E+02  0.21530864838E+02  0.00000000000E+00 0. -1.
          2    1    6    6  503    0  0.20595192520E+03 -0.13251252814E+02  0.82379423455E+02  0.22221197224E+03  0.00000000000E+00 0.  1.
         -2    1    6    6    0  503  0.20361333953E+03 -0.59566046780E+02  0.17160843406E+03  0.27286619542E+03  0.00000000000E+00 0. -1.
<mgrwt>
<rscale>  0 0.10809976E+04</rscale>
<asrwt>0</asrwt>
<pdfrwt beam="1">  1        1 0.66104885E-01 0.10809976E+04</pdfrwt>
<pdfrwt beam="2">  1       -2 0.10459940E+00 0.10809976E+04</pdfrwt>
<totfact> 0.35258751E+01</totfact>
</mgrwt>
</event>
<event>
12    4  0.4183215E-008  0.1812787E+04  0.7818608E-02  0.8699529E-01
         -2   -1    0    0    0  501 -0.00000000000E+00  0.00000000000E+00  0.37974163415E+03  0.37974163415E+03  0.00000000000E+00 0.  1.
          1   -1    0    0  501    0  0.00000000000E+00 -0.00000000000E+00 -0.21634415354E+04  0.21634415354E+04  0.00000000000E+00 0. -1.
        -24    2    1    2    0    0  0.15940631925E+03 -0.58450671630E+03 -0.10935902984E+04  0.12528942884E+04  0.82133313396E+02 0.  0.
        254    2    1    2    0    0 -0.15940631925E+03  0.58450671630E+03 -0.69010960284E+03  0.12902888811E+04  0.90638604184E+03 0.  0.
         23    2    4    4    0    0 -0.42472896758E+03  0.22030075164E+02 -0.14393713083E+03  0.45802003005E+03  0.90467840589E+02 0.  0.
         23    2    4    4    0    0  0.26532264833E+03  0.56247664113E+03 -0.54617247201E+03  0.83226885109E+03  0.87126297783E+02 0.  0.
          1    1    3    3  502    0  0.13182737739E+03 -0.36282582424E+03 -0.74025994196E+03  0.83486874288E+03  0.00000000000E+00 0. -1.
         -2    1    3    3    0  502  0.27578941859E+02 -0.22168089206E+03 -0.35333035646E+03  0.41802554555E+03  0.00000000000E+00 0.  1.
         11    1    5    5    0    0 -0.32927465564E+03  0.40573990884E+02 -0.14169072149E+03  0.36075519142E+03  0.00000000000E+00 0.  1.
        -11    1    5    5    0    0 -0.95454311944E+02 -0.18543915720E+02 -0.22464093475E+01  0.97264838631E+02  0.00000000000E+00 0. -1.
          1    1    6    6  503    0  0.19552133655E+03  0.48799458726E+03 -0.44944338211E+03  0.69164055980E+03  0.00000000000E+00 0. -1.
         -1    1    6    6    0  503  0.69801311788E+02  0.74482053873E+02 -0.96729089901E+02  0.14062829128E+03  0.00000000000E+00 0.  1.
<mgrwt>
<rscale>  0 0.18127866E+04</rscale>
<asrwt>0</asrwt>
<pdfrwt beam="1">  1        1 0.33283715E+00 0.18127866E+04</pdfrwt>
<pdfrwt beam="2">  1       -2 0.58421791E-01 0.18127866E+04</pdfrwt>
<totfact> 0.52342583E+00</totfact>
</mgrwt>
</event>
<event>
12    4  0.4183215E-008  0.2643033E+04  0.7818608E-02  0.8353729E-01
          1   -1    0    0  501    0  0.00000000000E+00  0.00000000000E+00  0.20209806523E+04  0.20209806523E+04  0.00000000000E+00 0. -1.
         -2   -1    0    0    0  501 -0.00000000000E+00 -0.00000000000E+00 -0.86413762771E+03  0.86413762771E+03  0.00000000000E+00 0.  1.
        -24    2    1    2    0    0 -0.91532245349E+03  0.48506371118E+03  0.10914166933E+04  0.15068471739E+04  0.79347395478E+02 0.  0.
        254    2    1    2    0    0  0.91532245349E+03 -0.48506371118E+03  0.65426331294E+02  0.13782711062E+04  0.90677926726E+03 0.  0.
         23    2    4    4    0    0  0.22749252770E+03  0.80141754106E+02 -0.31349905764E+03  0.40642218618E+03  0.93390488644E+02 0.  0.
         23    2    4    4    0    0  0.68782992579E+03 -0.56520546528E+03  0.37892538893E+03  0.97184892000E+03  0.91316198597E+02 0.  0.
          1    1    3    3  502    0 -0.42269378867E+03  0.26840698494E+03  0.53429555185E+03  0.73224591857E+03  0.00000000000E+00 0. -1.
         -2    1    3    3    0  502 -0.49262866481E+03  0.21665672624E+03  0.55712114149E+03  0.77460125530E+03  0.00000000000E+00 0.  1.
         11    1    5    5    0    0  0.23041314018E+03  0.84602320979E+02 -0.31632618945E+03  0.40038734497E+03  0.00000000000E+00 0. -1.
        -11    1    5    5    0    0 -0.29206124835E+01 -0.44605668729E+01  0.28271318109E+01  0.60348412061E+01  0.00000000000E+00 0.  1.
          4    1    6    6  503    0  0.87087316022E+02 -0.98519561972E+02  0.29710029663E+02  0.13480723484E+03  0.00000000000E+00 0.  1.
         -4    1    6    6    0  503  0.60074260977E+03 -0.46668590331E+03  0.34921535927E+03  0.83704168515E+03  0.00000000000E+00 0. -1.
<mgrwt>
<rscale>  0 0.26430327E+04</rscale>
<asrwt>0</asrwt>
<pdfrwt beam="1">  1        1 0.31092010E+00 0.26430327E+04</pdfrwt>
<pdfrwt beam="2">  1       -2 0.13294425E+00 0.26430327E+04</pdfrwt>
<totfact> 0.91244394E-01</totfact>
</mgrwt>
</event>
<event>
12    4  0.4183215E-008  0.1908340E+04  0.7818608E-02  0.8650716E-01
          1   -1    0    0  501    0  0.00000000000E+00  0.00000000000E+00  0.38831653324E+03  0.38831653324E+03  0.00000000000E+00 0. -1.
         -4   -1    0    0    0  501 -0.00000000000E+00 -0.00000000000E+00 -0.23445837706E+04  0.23445837706E+04  0.00000000000E+00 0.  1.
        -24    2    1    2    0    0 -0.42823224061E+03 -0.58993190397E+03 -0.94118165819E+03  0.11931067551E+04  0.79235800948E+02 0.  0.
        254    2    1    2    0    0  0.42823224061E+03  0.58993190397E+03 -0.10150855792E+04  0.15397935487E+04  0.89953484449E+03 0.  0.
         23    2    4    4    0    0  0.66763710096E+03  0.53231135601E+03 -0.59521702355E+03  0.10448601711E+04  0.91404560639E+02 0.  0.
         23    2    4    4    0    0 -0.23940486035E+03  0.57620547962E+02 -0.41986855561E+03  0.49493337763E+03  0.89636095381E+02 0.  0.
          3    1    3    3  502    0 -0.34922034276E+03 -0.43155349058E+03 -0.74117962649E+03  0.92603482750E+03  0.00000000000E+00 0. -1.
         -4    1    3    3    0  502 -0.79011897853E+02 -0.15837841339E+03 -0.20000203170E+03  0.26707192760E+03  0.00000000000E+00 0.  1.
         11    1    5    5    0    0  0.14173818223E+03  0.76619109143E+02 -0.13885867792E+03  0.21270151062E+03  0.00000000000E+00 0.  1.
        -11    1    5    5    0    0  0.52589891873E+03  0.45569224686E+03 -0.45635834564E+03  0.83215866048E+03  0.00000000000E+00 0. -1.
          3    1    6    6  503    0 -0.16430190035E+03  0.71537827753E+02 -0.24001739210E+03  0.29953484567E+03  0.00000000000E+00 0.  1.
         -3    1    6    6    0  503 -0.75102960001E+02 -0.13917279790E+02 -0.17985116351E+03  0.19539853196E+03  0.00000000000E+00 0. -1.
<mgrwt>
<rscale>  0 0.19083403E+04</rscale>
<asrwt>0</asrwt>
<pdfrwt beam="1">  1        1 0.59741007E-01 0.19083403E+04</pdfrwt>
<pdfrwt beam="2">  1       -4 0.36070519E+00 0.19083403E+04</pdfrwt>
<totfact> 0.35024331E-01</totfact>
</mgrwt>
</event>
<event>
12    4  0.4183215E-008  0.1566140E+04  0.7818608E-02  0.8841624E-01
         -2   -1    0    0    0  501 -0.00000000000E+00  0.00000000000E+00  0.60214900183E+03  0.60214900183E+03  0.00000000000E+00 0.  1.
          1   -1    0    0  501    0  0.00000000000E+00 -0.00000000000E+00 -0.10183507317E+04  0.10183507317E+04  0.00000000000E+00 0. -1.
        -24    2    1    2    0    0  0.51006269832E+03 -0.92596095385E+02 -0.80131744429E+02  0.53044818673E+03  0.78842813539E+02 0.  0.
        254    2    1    2    0    0 -0.51006269832E+03  0.92596095385E+02 -0.33606998547E+03  0.10900515468E+04  0.89807090284E+03 0.  0.
         23    2    4    4    0    0  0.20630776501E+03  0.19987661567E+03 -0.48367137398E+02  0.30527607510E+03  0.91326593346E+02 0.  0.
         23    2    4    4    0    0 -0.71637046333E+03 -0.10728052028E+03 -0.28770284807E+03  0.78477547173E+03  0.91672577630E+02 0.  0.
          3    1    3    3  502    0  0.38669528614E+03 -0.98958917662E+02 -0.79065970040E+02  0.40691220100E+03  0.00000000000E+00 0. -1.
         -4    1    3    3    0  502  0.12336741218E+03  0.63628222767E+01 -0.10657743884E+01  0.12353598573E+03  0.00000000000E+00 0.  1.
         11    1    5    5    0    0  0.20069033625E+03  0.18186035931E+03 -0.66744371542E+02  0.27893478178E+03  0.00000000000E+00 0.  1.
        -11    1    5    5    0    0  0.56174287628E+01  0.18016256357E+02  0.18377234144E+02  0.26341293321E+02  0.00000000000E+00 0. -1.
          1    1    6    6  503    0 -0.51221655689E+03 -0.57068299898E+02 -0.24317199828E+03  0.56987297949E+03  0.00000000000E+00 0. -1.
         -1    1    6    6    0  503 -0.20415390643E+03 -0.50212220386E+02 -0.44530849785E+02  0.21490249224E+03  0.00000000000E+00 0.  1.
<mgrwt>
<rscale>  0 0.15661403E+04</rscale>
<asrwt>0</asrwt>
<pdfrwt beam="1">  1        1 0.15666934E+00 0.15661403E+04</pdfrwt>
<pdfrwt beam="2">  1       -2 0.92638308E-01 0.15661403E+04</pdfrwt>
<totfact> 0.12206635E+01</totfact>
</mgrwt>
</event>
<event>
12    4  0.4183215E-008  0.1416780E+04  0.7818608E-02  0.8941761E-01
         -2   -1    0    0    0  501 -0.00000000000E+00  0.00000000000E+00  0.10335285361E+04  0.10335285361E+04  0.00000000000E+00 0.  1.
          1   -1    0    0  501    0  0.00000000000E+00 -0.00000000000E+00 -0.48553704895E+03  0.48553704895E+03  0.00000000000E+00 0. -1.
        -24    2    1    2    0    0  0.36529058548E+03  0.45865311894E+02  0.31872354079E+03  0.49359327155E+03  0.80677032604E+02 0.  0.
        254    2    1    2    0    0 -0.36529058548E+03 -0.45865311894E+02  0.22926794636E+03  0.10254723135E+04  0.92924099988E+03 0.  0.
         23    2    4    4    0    0 -0.33835152160E+03  0.32689228820E+03  0.38034746859E+03  0.61155254617E+03  0.89397984434E+02 0.  0.
         23    2    4    4    0    0 -0.26939063886E+02 -0.37275760009E+03 -0.15107952222E+03  0.41391976733E+03  0.93971326279E+02 0.  0.
          1    1    3    3  502    0  0.24024922612E+03  0.54543836076E+02  0.24848093931E+03  0.34991069990E+03  0.00000000000E+00 0. -1.
         -2    1    3    3    0  502  0.12504135936E+03 -0.86785241820E+01  0.70242601480E+02  0.14368257165E+03  0.00000000000E+00 0.  1.
         11    1    5    5    0    0 -0.81990107528E+02  0.12773061887E+03  0.15082609788E+03  0.21397663548E+03  0.00000000000E+00 0.  1.
        -11    1    5    5    0    0 -0.25636141407E+03  0.19916166933E+03  0.22952137070E+03  0.39757591069E+03  0.00000000000E+00 0. -1.
          2    1    6    6  503    0  0.32504684755E+02 -0.97015201120E+02 -0.53373038064E+02  0.11540010820E+03  0.00000000000E+00 0. -1.
         -2    1    6    6    0  503 -0.59443748642E+02 -0.27574239897E+03 -0.97706484160E+02  0.29851965914E+03  0.00000000000E+00 0.  1.
<mgrwt>
<rscale>  0 0.14167800E+04</rscale>
<asrwt>0</asrwt>
<pdfrwt beam="1">  1        1 0.74698008E-01 0.14167800E+04</pdfrwt>
<pdfrwt beam="2">  1       -2 0.15900439E+00 0.14167800E+04</pdfrwt>
<totfact> 0.10059601E+01</totfact>
</mgrwt>
</event>
<event>
12    4  0.4183215E-008  0.1448720E+04  0.7818608E-02  0.8919289E-01
         -2   -1    0    0    0  501 -0.00000000000E+00  0.00000000000E+00  0.43029843730E+03  0.43029843730E+03  0.00000000000E+00 0.  1.
          1   -1    0    0  501    0  0.00000000000E+00 -0.00000000000E+00 -0.12193796283E+04  0.12193796283E+04  0.00000000000E+00 0. -1.
        -24    2    1    2    0    0  0.32168912663E+03 -0.11266492662E+03 -0.53347794343E+03  0.63631581981E+03  0.64201452668E+02 0.  0.
        254    2    1    2    0    0 -0.32168912663E+03  0.11266492662E+03 -0.25560324759E+03  0.10133622458E+04  0.91945241378E+03 0.  0.
         23    2    4    4    0    0 -0.49304486224E+03  0.54160867752E+02  0.17798108680E+03  0.53482607765E+03  0.91296387102E+02 0.  0.
         23    2    4    4    0    0  0.17135573561E+03  0.58504058864E+02 -0.43358433439E+03  0.47853616817E+03  0.90642022209E+02 0.  0.
          1    1    3    3  502    0  0.26857422205E+03 -0.98957323047E+02 -0.48474145922E+03  0.56293778237E+03  0.00000000000E+00 0. -1.
         -2    1    3    3    0  502  0.53114904583E+02 -0.13707603569E+02 -0.48736484210E+02  0.73378037434E+02  0.00000000000E+00 0.  1.
         11    1    5    5    0    0 -0.41739663044E+03  0.28015201527E+02  0.11755539911E+03  0.43453891710E+03  0.00000000000E+00 0. -1.
        -11    1    5    5    0    0 -0.75648231805E+02  0.26145666225E+02  0.60425687697E+02  0.10028716055E+03  0.00000000000E+00 0.  1.
          2    1    6    6  503    0  0.14762593741E+03  0.42087772574E+02 -0.41893825148E+03  0.44617715826E+03  0.00000000000E+00 0. -1.
         -2    1    6    6    0  503  0.23729798197E+02  0.16416286290E+02 -0.14646082910E+02  0.32359009914E+02  0.00000000000E+00 0.  1.
<mgrwt>
<rscale>  0 0.14487196E+04</rscale>
<asrwt>0</asrwt>
<pdfrwt beam="1">  1        1 0.18759686E+00 0.14487196E+04</pdfrwt>
<pdfrwt beam="2">  1       -2 0.66199761E-01 0.14487196E+04</pdfrwt>
<totfact> 0.18492884E+01</totfact>
</mgrwt>
</event>
<event>
12    4  0.4183215E-008  0.1617597E+04  0.7818608E-02  0.8809810E-01
         -4   -1    0    0    0  501 -0.00000000000E+00  0.00000000000E+00  0.21796250245E+03  0.21796250245E+03  0.00000000000E+00 0.  1.
          3   -1    0    0  501    0  0.00000000000E+00 -0.00000000000E+00 -0.30012259358E+04  0.30012259358E+04  0.00000000000E+00 0. -1.
        -24    2    1    2    0    0  0.37340466882E+03  0.22047637729E+03 -0.27920769078E+03  0.52193656637E+03  0.80124684602E+02 0.  0.
        254    2    1    2    0    0 -0.37340466882E+03 -0.22047637729E+03 -0.25040557426E+04  0.26972518719E+04  0.90378737481E+03 0.  0.
         23    2    4    4    0    0 -0.40749889154E+03 -0.12014611324E+03 -0.40700477514E+03  0.59560818996E+03  0.92767417897E+02 0.  0.
         23    2    4    4    0    0  0.34094222727E+02 -0.10033026405E+03 -0.20970509674E+04  0.21016436819E+04  0.89748692972E+02 0.  0.
          1    1    3    3  502    0  0.13951041132E+03  0.57733235065E+02 -0.60157515074E+02  0.16252756048E+03  0.00000000000E+00 0. -1.
         -2    1    3    3    0  502  0.23389425750E+03  0.16274314223E+03 -0.21905017571E+03  0.35940900588E+03  0.00000000000E+00 0.  1.
         11    1    5    5    0    0 -0.25981485033E+02  0.13288415043E+02 -0.16138157702E+02  0.33347558725E+02  0.00000000000E+00 0.  1.
        -11    1    5    5    0    0 -0.38151740651E+03 -0.13343452828E+03 -0.39086661744E+03  0.56226063124E+03  0.00000000000E+00 0. -1.
          2    1    6    6  503    0  0.46088717772E+02 -0.97564750032E+01 -0.78991756681E+03  0.79132112386E+03  0.00000000000E+00 0. -1.
         -2    1    6    6    0  503 -0.11994495044E+02 -0.90573789052E+02 -0.13071334006E+04  0.13103225581E+04  0.00000000000E+00 0.  1.
<mgrwt>
<rscale>  0 0.16175966E+04</rscale>
<asrwt>0</asrwt>
<pdfrwt beam="1">  1        3 0.46172707E+00 0.16175966E+04</pdfrwt>
<pdfrwt beam="2">  1       -4 0.33532692E-01 0.16175966E+04</pdfrwt>
<totfact> 0.10222143E-01</totfact>
</mgrwt>
</event>
<event>
12    4  0.4183215E-008  0.2732380E+04  0.7818608E-02  0.8324575E-01
          1   -1    0    0  501    0  0.00000000000E+00  0.00000000000E+00  0.20595402996E+04  0.20595402996E+04  0.00000000000E+00 0. -1.
         -2   -1    0    0    0  501 -0.00000000000E+00 -0.00000000000E+00 -0.90625788871E+03  0.90625788871E+03  0.00000000000E+00 0.  1.
        -24    2    1    2    0    0  0.89802398429E+03  0.80580774739E+03  0.32175380528E+03  0.12512673603E+04  0.79820383086E+02 0.  0.
        254    2    1    2    0    0 -0.89802398429E+03 -0.80580774739E+03  0.83152860558E+03  0.17145308280E+04  0.89017017258E+03 0.  0.
         23    2    4    4    0    0 -0.42822978970E+03 -0.84879935547E+02  0.71319033785E+03  0.84120291850E+03  0.91632613421E+02 0.  0.
         23    2    4    4    0    0 -0.46979419460E+03 -0.72092781185E+03  0.11833826773E+03  0.87332790951E+03  0.90852610015E+02 0.  0.
          3    1    3    3  502    0  0.82450803901E+03  0.72033905020E+03  0.27258342723E+03  0.11282746024E+04  0.00000000000E+00 0. -1.
         -2    1    3    3    0  502  0.73515945287E+02  0.85468697199E+02  0.49170378052E+02  0.12299275788E+03  0.00000000000E+00 0.  1.
         11    1    5    5    0    0 -0.40248297083E+03 -0.84938609893E+02  0.70085651393E+03  0.81265426990E+03  0.00000000000E+00 0. -1.
        -11    1    5    5    0    0 -0.25746818869E+02  0.58674345265E-01  0.12333823917E+02  0.28548648601E+02  0.00000000000E+00 0.  1.
          4    1    6    6  503    0 -0.41135992206E+03 -0.61306258362E+03  0.13165662183E+03  0.74993078547E+03  0.00000000000E+00 0. -1.
         -4    1    6    6    0  503 -0.58434272537E+02 -0.10786522822E+03 -0.13318354097E+02  0.12339712404E+03  0.00000000000E+00 0.  1.
<mgrwt>
<rscale>  0 0.27323797E+04</rscale>
<asrwt>0</asrwt>
<pdfrwt beam="1">  1        1 0.31685235E+00 0.27323797E+04</pdfrwt>
<pdfrwt beam="2">  1       -2 0.13942429E+00 0.27323797E+04</pdfrwt>
<totfact> 0.75439727E-01</totfact>
</mgrwt>
</event>
<event>
12    4  0.4183215E-008  0.1464390E+04  0.7818608E-02  0.8908485E-01
          1   -1    0    0  501    0  0.00000000000E+00  0.00000000000E+00  0.15823911685E+04  0.15823911685E+04  0.00000000000E+00 0. -1.
         -2   -1    0    0    0  501 -0.00000000000E+00 -0.00000000000E+00 -0.33879688607E+03  0.33879688607E+03  0.00000000000E+00 0.  1.
        -24    2    1    2    0    0  0.29636562886E+03  0.24704496924E+03  0.68459906714E+03  0.78991840544E+03  0.80196020669E+02 0.  0.
        254    2    1    2    0    0 -0.29636562886E+03 -0.24704496924E+03  0.55899521525E+03  0.11312696491E+04  0.90467207623E+03 0.  0.
         23    2    4    4    0    0  0.17980620351E+02 -0.22772248108E+03 -0.19212065226E+03  0.31204455033E+03  0.90997941014E+02 0.  0.
         23    2    4    4    0    0 -0.31434624921E+03 -0.19322488156E+02  0.75111586751E+03  0.81922509877E+03  0.88135084317E+02 0.  0.
          1    1    3    3  502    0  0.88325184421E+02  0.97727446012E+02  0.16942024244E+03  0.21460477734E+03  0.00000000000E+00 0. -1.
         -2    1    3    3    0  502  0.20804044444E+03  0.14931752322E+03  0.51517882470E+03  0.57531362810E+03  0.00000000000E+00 0.  1.
         11    1    5    5    0    0  0.55213199333E+02 -0.14491589201E+03 -0.12305937395E+03  0.19797151981E+03  0.00000000000E+00 0. -1.
        -11    1    5    5    0    0 -0.37232578982E+02 -0.82806589070E+02 -0.69061278305E+02  0.11407303052E+03  0.00000000000E+00 0.  1.
          3    1    6    6  503    0 -0.26458673414E+03 -0.47052630279E+02  0.64594786002E+03  0.69962041691E+03  0.00000000000E+00 0. -1.
         -3    1    6    6    0  503 -0.49759515073E+02  0.27730142124E+02  0.10516800749E+03  0.11960468186E+03  0.00000000000E+00 0.  1.
<mgrwt>
<rscale>  0 0.14643896E+04</rscale>
<asrwt>0</asrwt>
<pdfrwt beam="1">  1        1 0.24344479E+00 0.14643896E+04</pdfrwt>
<pdfrwt beam="2">  1       -2 0.52122599E-01 0.14643896E+04</pdfrwt>
<totfact> 0.16974643E+01</totfact>
</mgrwt>
</event>
<event>
12    4  0.4183215E-008  0.2010599E+04  0.7818608E-02  0.8601681E-01
          1   -1    0    0  501    0  0.00000000000E+00  0.00000000000E+00  0.59872291323E+03  0.59872291323E+03  0.00000000000E+00 0. -1.
         -2   -1    0    0    0  501 -0.00000000000E+00 -0.00000000000E+00 -0.16879717938E+04  0.16879717938E+04  0.00000000000E+00 0.  1.
        -24    2    1    2    0    0  0.45955629492E+03 -0.64356660094E+03 -0.56989928770E+03  0.97803576564E+03  0.79992516515E+02 0.  0.
        254    2    1    2    0    0 -0.45955629492E+03  0.64356660094E+03 -0.51934959288E+03  0.13086589414E+04  0.90415389580E+03 0.  0.
         23    2    4    4    0    0  0.24888579837E+03  0.28623205730E+03 -0.88157287332E+02  0.40022901257E+03  0.92404674878E+02 0.  0.
         23    2    4    4    0    0 -0.70844209328E+03  0.35733454363E+03 -0.43119230555E+03  0.90842992884E+03  0.98691213605E+02 0.  0.
          1    1    3    3  502    0  0.28515487615E+02 -0.21492813044E+02 -0.42867280525E+02  0.55791377345E+02  0.00000000000E+00 0. -1.
         -2    1    3    3    0  502  0.43104080730E+03 -0.62207378789E+03 -0.52703200718E+03  0.92224438829E+03  0.00000000000E+00 0.  1.
         11    1    5    5    0    0  0.24454636653E+03  0.24849488465E+03 -0.95616223470E+02  0.36151776619E+03  0.00000000000E+00 0. -1.
        -11    1    5    5    0    0  0.43394318425E+01  0.37737172653E+02  0.74589361381E+01  0.38711246387E+02  0.00000000000E+00 0.  1.
          1    1    6    6  503    0 -0.58844521198E+03  0.25576681765E+03 -0.36159942626E+03  0.73650429570E+03  0.00000000000E+00 0. -1.
         -1    1    6    6    0  503 -0.11999688131E+03  0.10156772598E+03 -0.69592879290E+02  0.17192563315E+03  0.00000000000E+00 0.  1.
<mgrwt>
<rscale>  0 0.20105993E+04</rscale>
<asrwt>0</asrwt>
<pdfrwt beam="1">  1        1 0.92111219E-01 0.20105993E+04</pdfrwt>
<pdfrwt beam="2">  1       -2 0.25968796E+00 0.20105993E+04</pdfrwt>
<totfact> 0.15624688E+00</totfact>
</mgrwt>
</event>
<event>
12    4  0.4183215E-008  0.1157916E+04  0.7818608E-02  0.9150512E-01
          1   -1    0    0  501    0  0.00000000000E+00  0.00000000000E+00  0.68846928719E+03  0.68846928719E+03  0.00000000000E+00 0. -1.
         -2   -1    0    0    0  501 -0.00000000000E+00 -0.00000000000E+00 -0.48686600744E+03  0.48686600744E+03  0.00000000000E+00 0.  1.
        -24    2    1    2    0    0  0.11323512502E+02  0.13903274253E+03 -0.12717386700E+03  0.20551238987E+03  0.81263918888E+02 0.  0.
        254    2    1    2    0    0 -0.11323512502E+02 -0.13903274253E+03  0.32877714675E+03  0.96982290476E+03  0.90166719412E+03 0.  0.
         23    2    4    4    0    0 -0.38924550842E+03  0.12558107039E+03  0.48472013076E+02  0.42213660612E+03  0.92558668512E+02 0.  0.
         23    2    4    4    0    0  0.37792199591E+03 -0.26461381291E+03  0.28030513367E+03  0.54768629864E+03  0.92432725663E+02 0.  0.
          3    1    3    3  502    0  0.44432176578E+01 -0.10129441391E+02 -0.34280454695E+01  0.11580123565E+02  0.00000000000E+00 0. -1.
         -4    1    3    3    0  502  0.68802948443E+01  0.14916218392E+03 -0.12374582153E+03  0.19393226630E+03  0.00000000000E+00 0.  1.
         11    1    5    5    0    0 -0.19150751645E+03  0.67080155327E+02 -0.22258810317E+02  0.20413312012E+03  0.00000000000E+00 0. -1.
        -11    1    5    5    0    0 -0.19773799197E+03  0.58500915060E+02  0.70730823393E+02  0.21800348600E+03  0.00000000000E+00 0.  1.
          1    1    6    6  503    0  0.18426871713E+02  0.49793879884E+01  0.22968156239E+02  0.29864361820E+02  0.00000000000E+00 0. -1.
         -1    1    6    6    0  503  0.35949512420E+03 -0.26959320090E+03  0.25733697743E+03  0.51782193682E+03  0.00000000000E+00 0.  1.
<mgrwt>
<rscale>  0 0.11579159E+04</rscale>
<asrwt>0</asrwt>
<pdfrwt beam="1">  1        1 0.10591835E+00 0.11579159E+04</pdfrwt>
<pdfrwt beam="2">  1       -2 0.74902462E-01 0.11579159E+04</pdfrwt>
<totfact> 0.38905882E+01</totfact>
</mgrwt>
</event>
<event>
12    4  0.4183215E-008  0.2008123E+04  0.7818608E-02  0.8602832E-01
          1   -1    0    0  501    0  0.00000000000E+00  0.00000000000E+00  0.12478209666E+04  0.12478209666E+04  0.00000000000E+00 0. -1.
         -2   -1    0    0    0  501 -0.00000000000E+00 -0.00000000000E+00 -0.80791977421E+03  0.80791977421E+03  0.00000000000E+00 0.  1.
        -24    2    1    2    0    0  0.13586459525E+03  0.76294382879E+03  0.39126464839E+03  0.87192594754E+03  0.81390163911E+02 0.  0.
        254    2    1    2    0    0 -0.13586459525E+03 -0.76294382879E+03  0.48636544012E+02  0.11838147933E+04  0.89359357497E+03 0.  0.
         23    2    4    4    0    0 -0.50984239637E+03 -0.44859344789E+03  0.11638895497E+02  0.68524086016E+03  0.90797697749E+02 0.  0.
         23    2    4    4    0    0  0.37397780112E+03 -0.31435038091E+03  0.36997648515E+02  0.49857393311E+03  0.92366569039E+02 0.  0.
          3    1    3    3  502    0  0.70164222260E+02  0.51081770415E+03  0.22301186382E+03  0.56177578834E+03  0.00000000000E+00 0. -1.
         -4    1    3    3    0  502  0.65700372991E+02  0.25212612464E+03  0.16825278457E+03  0.31015015920E+03  0.00000000000E+00 0.  1.
         11    1    5    5    0    0 -0.33242595313E+03 -0.27402990716E+03  0.48872236415E+02  0.43357571406E+03  0.00000000000E+00 0.  1.
        -11    1    5    5    0    0 -0.17741644324E+03 -0.17456354072E+03 -0.37233340917E+02  0.25166514610E+03  0.00000000000E+00 0. -1.
          1    1    6    6  503    0  0.17911075019E+03 -0.12652186336E+03  0.58822486413E+02  0.22704300837E+03  0.00000000000E+00 0. -1.
         -1    1    6    6    0  503  0.19486705094E+03 -0.18782851755E+03 -0.21824837898E+02  0.27153092475E+03  0.00000000000E+00 0.  1.
<mgrwt>
<rscale>  0 0.20081227E+04</rscale>
<asrwt>0</asrwt>
<pdfrwt beam="1">  1        1 0.19197246E+00 0.20081227E+04</pdfrwt>
<pdfrwt beam="2">  1       -2 0.12429535E+00 0.20081227E+04</pdfrwt>
<totfact> 0.39008921E+00</totfact>
</mgrwt>
</event>
<event>
12    4  0.4183215E-008  0.1100553E+04  0.7818608E-02  0.9204653E-01
          3   -1    0    0  501    0  0.00000000000E+00  0.00000000000E+00  0.30064503518E+03  0.30064503518E+03  0.00000000000E+00 0. -1.
         -4   -1    0    0    0  501 -0.00000000000E+00 -0.00000000000E+00 -0.10071824916E+04  0.10071824916E+04  0.00000000000E+00 0.  1.
        -24    2    1    2    0    0  0.13913030348E+03  0.80374148657E+02 -0.63669433845E+02  0.19053586193E+03  0.80205191576E+02 0.  0.
        254    2    1    2    0    0 -0.13913030348E+03 -0.80374148657E+02 -0.64286802255E+03  0.11172916648E+04  0.89957997131E+03 0.  0.
         23    2    4    4    0    0  0.69449978609E+02 -0.45648651834E+03 -0.37324746432E+03  0.60168029417E+03  0.97479566140E+02 0.  0.
         23    2    4    4    0    0 -0.20858028209E+03  0.37611236968E+03 -0.26962055823E+03  0.51561137067E+03  0.90518459133E+02 0.  0.
          3    1    3    3  502    0  0.14734898569E+03  0.73658718452E+02 -0.47953361941E+02  0.17157172060E+03  0.00000000000E+00 0. -1.
         -4    1    3    3    0  502 -0.82186822128E+01  0.67154302056E+01 -0.15716071904E+02  0.18964141327E+02  0.00000000000E+00 0.  1.
         11    1    5    5    0    0  0.34180978104E+01 -0.10609680497E+02 -0.38918098671E+02  0.40482923771E+02  0.00000000000E+00 0. -1.
        -11    1    5    5    0    0  0.66031880799E+02 -0.44587683784E+03 -0.33432936565E+03  0.56119737040E+03  0.00000000000E+00 0.  1.
          4    1    6    6  503    0  0.77982413977E+01  0.27734157944E+02 -0.11402479160E+02  0.30984070371E+02  0.00000000000E+00 0. -1.
         -4    1    6    6    0  503 -0.21637852349E+03  0.34837821173E+03 -0.25821807907E+03  0.48462730030E+03  0.00000000000E+00 0.  1.
<mgrwt>
<rscale>  0 0.11005533E+04</rscale>
<asrwt>0</asrwt>
<pdfrwt beam="1">  1        3 0.46253082E-01 0.11005533E+04</pdfrwt>
<pdfrwt beam="2">  1       -4 0.15495115E+00 0.11005533E+04</pdfrwt>
<totfact> 0.28783870E+00</totfact>
</mgrwt>
</event>
<event>
12    4  0.4183215E-008  0.2066682E+04  0.7818608E-02  0.8576064E-01
          1   -1    0    0  501    0  0.00000000000E+00  0.00000000000E+00  0.11334163100E+04  0.11334163100E+04  0.00000000000E+00 0. -1.
         -2   -1    0    0    0  501 -0.00000000000E+00 -0.00000000000E+00 -0.94210183893E+03  0.94210183893E+03  0.00000000000E+00 0.  1.
        -24    2    1    2    0    0 -0.77374889766E+02 -0.15955995483E+03 -0.72402224865E+03  0.74977590416E+03  0.80681083067E+02 0.  0.
        254    2    1    2    0    0  0.77374889766E+02  0.15955995483E+03  0.91533671974E+03  0.13257422448E+04  0.94249930311E+03 0.  0.
         23    2    4    4    0    0  0.89758098631E+02  0.40130192549E+03  0.97345350692E+03  0.10606953981E+04  0.91450783612E+02 0.  0.
         23    2    4    4    0    0 -0.12383208866E+02 -0.24174197066E+03 -0.58116787182E+02  0.26504684665E+03  0.90993108146E+02 0.  0.
          3    1    3    3  502    0 -0.40187325615E+02 -0.25536240847E+02 -0.29369162253E+03  0.29752628435E+03  0.00000000000E+00 0. -1.
         -4    1    3    3    0  502 -0.37187564151E+02 -0.13402371398E+03 -0.43033062612E+03  0.45224961981E+03  0.00000000000E+00 0.  1.
         11    1    5    5    0    0  0.73467486755E+02  0.13476442177E+03  0.38601565317E+03  0.41541185044E+03  0.00000000000E+00 0. -1.
        -11    1    5    5    0    0  0.16290611876E+02  0.26653750371E+03  0.58743785374E+03  0.64528354770E+03  0.00000000000E+00 0.  1.
          1    1    6    6  503    0 -0.35493296832E+02 -0.52386995450E+02 -0.36539051294E+02  0.73070333801E+02  0.00000000000E+00 0. -1.
         -1    1    6    6    0  503  0.23110087966E+02 -0.18935497521E+03 -0.21577735888E+02  0.19197651285E+03  0.00000000000E+00 0.  1.
<mgrwt>
<rscale>  0 0.20666820E+04</rscale>
<asrwt>0</asrwt>
<pdfrwt beam="1">  1        1 0.17437174E+00 0.20666820E+04</pdfrwt>
<pdfrwt beam="2">  1       -2 0.14493874E+00 0.20666820E+04</pdfrwt>
<totfact> 0.31757291E+00</totfact>
</mgrwt>
</event>
<event>
12    4  0.4183215E-008  0.3711492E+04  0.7818608E-02  0.8065420E-01
          1   -1    0    0  501    0  0.00000000000E+00  0.00000000000E+00  0.21001635578E+04  0.21001635578E+04  0.00000000000E+00 0. -1.
         -2   -1    0    0    0  501 -0.00000000000E+00 -0.00000000000E+00 -0.16397740519E+04  0.16397740519E+04  0.00000000000E+00 0.  1.
        -24    2    1    2    0    0 -0.74852055680E+03 -0.10789112605E+04  0.13644051131E+04  0.18960759845E+04  0.95761654166E+02 0.  0.
        254    2    1    2    0    0  0.74852055680E+03  0.10789112605E+04 -0.90401560723E+03  0.18438616251E+04  0.92641726162E+03 0.  0.
         23    2    4    4    0    0  0.74717804660E+03  0.12230609776E+04 -0.79195985875E+03  0.16400704081E+04  0.92072457184E+02 0.  0.
         23    2    4    4    0    0  0.13425101983E+01 -0.14414971714E+03 -0.11205574848E+03  0.20379121704E+03  0.90517545749E+02 0.  0.
          1    1    3    3  502    0 -0.54360314168E+03 -0.77203896196E+03  0.10407777119E+04  0.14052639539E+04  0.00000000000E+00 0. -1.
         -2    1    3    3    0  502 -0.20491741512E+03 -0.30687229852E+03  0.32362740124E+03  0.49081203067E+03  0.00000000000E+00 0.  1.
         11    1    5    5    0    0  0.19340118741E+03  0.24541962114E+03 -0.18152755620E+03  0.36136832096E+03  0.00000000000E+00 0.  1.
        -11    1    5    5    0    0  0.55377685919E+03  0.97764135649E+03 -0.61043230254E+03  0.12787020872E+04  0.00000000000E+00 0. -1.
          4    1    6    6  503    0  0.44439259997E+02 -0.61459617080E+02 -0.38682885655E+02  0.85138111345E+02  0.00000000000E+00 0. -1.
         -4    1    6    6    0  503 -0.43096749799E+02 -0.82690100062E+02 -0.73372862825E+02  0.11865310569E+03  0.00000000000E+00 0.  1.
<mgrwt>
<rscale>  0 0.37114923E+04</rscale>
<asrwt>0</asrwt>
<pdfrwt beam="1">  1        1 0.32310209E+00 0.37114923E+04</pdfrwt>
<pdfrwt beam="2">  1       -2 0.25227293E+00 0.37114923E+04</pdfrwt>
<totfact> 0.11174769E-01</totfact>
</mgrwt>
</event>
<event>
12    4  0.4183215E-008  0.1736164E+04  0.7818608E-02  0.8741003E-01
         -2   -1    0    0    0  501 -0.00000000000E+00  0.00000000000E+00  0.10179299716E+04  0.10179299716E+04  0.00000000000E+00 0.  1.
          1   -1    0    0  501    0  0.00000000000E+00 -0.00000000000E+00 -0.74029291447E+03  0.74029291447E+03  0.00000000000E+00 0. -1.
        -24    2    1    2    0    0  0.25755137074E+03  0.22993855901E+03 -0.43061978007E+03  0.55743119720E+03  0.78049312130E+02 0.  0.
        254    2    1    2    0    0 -0.25755137074E+03 -0.22993855901E+03  0.70825683724E+03  0.12007916889E+04  0.90612829288E+03 0.  0.
         23    2    4    4    0    0 -0.32715909376E+03  0.26951990738E+03  0.19622360958E+03  0.47594798147E+03  0.91371346752E+02 0.  0.
         23    2    4    4    0    0  0.69607723018E+02 -0.49945846639E+03  0.51203322766E+03  0.72484370744E+03  0.94426581155E+02 0.  0.
          3    1    3    3  502    0  0.24132451406E+03  0.19167947829E+03 -0.40380374486E+03  0.50797244792E+03  0.00000000000E+00 0. -1.
         -4    1    3    3    0  502  0.16226856687E+02  0.38259080718E+02 -0.26816035216E+02  0.49458749277E+02  0.00000000000E+00 0.  1.
         11    1    5    5    0    0 -0.31315915946E+02 -0.17303857474E+01  0.22461676947E+02  0.38577295884E+02  0.00000000000E+00 0. -1.
        -11    1    5    5    0    0 -0.29584317782E+03  0.27125029313E+03  0.17376193263E+03  0.43737068559E+03  0.00000000000E+00 0.  1.
          2    1    6    6  503    0 -0.10426646789E+02 -0.48699403274E+01  0.71081313977E+01  0.13526152964E+02  0.00000000000E+00 0. -1.
         -2    1    6    6    0  503  0.80034369807E+02 -0.49458852606E+03  0.50492509626E+03  0.71131755447E+03  0.00000000000E+00 0.  1.
<mgrwt>
<rscale>  0 0.17361640E+04</rscale>
<asrwt>0</asrwt>
<pdfrwt beam="1">  1        1 0.11389122E+00 0.17361640E+04</pdfrwt>
<pdfrwt beam="2">  1       -2 0.15660461E+00 0.17361640E+04</pdfrwt>
<totfact> 0.55423364E+00</totfact>
</mgrwt>
</event>
<event>
12    4  0.4183215E-008  0.2434479E+04  0.7818608E-02  0.8426707E-01
         -2   -1    0    0    0  501 -0.00000000000E+00  0.00000000000E+00  0.12970708914E+04  0.12970708914E+04  0.00000000000E+00 0.  1.
          1   -1    0    0  501    0  0.00000000000E+00 -0.00000000000E+00 -0.11423215810E+04  0.11423215810E+04  0.00000000000E+00 0. -1.
        -24    2    1    2    0    0 -0.14745674419E+03 -0.32162854286E+03 -0.92806329742E+03  0.99644573834E+03  0.80088790981E+02 0.  0.
        254    2    1    2    0    0  0.14745674419E+03  0.32162854286E+03  0.10828126078E+04  0.14429467340E+04  0.88567698548E+03 0.  0.
         23    2    4    4    0    0  0.16519963644E+03  0.56773824839E+03  0.42594373768E+03  0.73559332435E+03  0.10025882805E+03 0.  0.
         23    2    4    4    0    0 -0.17742892245E+02 -0.24610970553E+03  0.65686887015E+03  0.70735340968E+03  0.89371898488E+02 0.  0.
          3    1    3    3  502    0 -0.13716279340E+03 -0.28250306896E+03 -0.73652535829E+03  0.80068172158E+03  0.00000000000E+00 0. -1.
         -4    1    3    3    0  502 -0.10293950793E+02 -0.39125473893E+02 -0.19153793913E+03  0.19576401676E+03  0.00000000000E+00 0.  1.
         11    1    5    5    0    0  0.54762290565E+01  0.93638945865E+02  0.10699484050E+03  0.14228892143E+03  0.00000000000E+00 0. -1.
        -11    1    5    5    0    0  0.15972340738E+03  0.47409930252E+03  0.31894889718E+03  0.59330440293E+03  0.00000000000E+00 0.  1.
          3    1    6    6  503    0  0.10052876897E+02  0.40905025870E+00  0.85935131888E+01  0.13231633495E+02  0.00000000000E+00 0. -1.
         -3    1    6    6    0  503 -0.27795769142E+02 -0.24651875579E+03  0.64827535696E+03  0.69412177619E+03  0.00000000000E+00 0.  1.
<mgrwt>
<rscale>  0 0.24344791E+04</rscale>
<asrwt>0</asrwt>
<pdfrwt beam="1">  1        1 0.17574178E+00 0.24344791E+04</pdfrwt>
<pdfrwt beam="2">  1       -2 0.19954937E+00 0.24344791E+04</pdfrwt>
<totfact> 0.12370147E+00</totfact>
</mgrwt>
</event>
<event>
12    4  0.4183215E-008  0.1634144E+04  0.7818608E-02  0.8799842E-01
         -2   -1    0    0    0  501 -0.00000000000E+00  0.00000000000E+00  0.32441657348E+03  0.32441657348E+03  0.00000000000E+00 0.  1.
          1   -1    0    0  501    0  0.00000000000E+00 -0.00000000000E+00 -0.20578695847E+04  0.20578695847E+04  0.00000000000E+00 0. -1.
        -24    2    1    2    0    0  0.49343973630E+03  0.14937604631E+03 -0.10317875761E+04  0.11562195573E+04  0.80387100789E+02 0.  0.
        254    2    1    2    0    0 -0.49343973630E+03 -0.14937604631E+03 -0.70166543518E+03  0.12260666009E+04  0.86319693603E+03 0.  0.
         23    2    4    4    0    0 -0.14001172181E+03  0.34911641355E+03 -0.25222831548E+03  0.46226600971E+03  0.92656290405E+02 0.  0.
         23    2    4    4    0    0 -0.35342801450E+03 -0.49849245986E+03 -0.44943711969E+03  0.76380059120E+03  0.89395327521E+02 0.  0.
          3    1    3    3  502    0  0.48984588577E+03  0.14607577731E+03 -0.99026237706E+03  0.11144086773E+04  0.00000000000E+00 0. -1.
         -4    1    3    3    0  502  0.35938505316E+01  0.33002690030E+01 -0.41525199007E+02  0.41810880040E+02  0.00000000000E+00 0.  1.
         11    1    5    5    0    0 -0.92452120090E+02  0.11130187448E+03 -0.10100165397E+03  0.17645632853E+03  0.00000000000E+00 0. -1.
        -11    1    5    5    0    0 -0.47559601718E+02  0.23781453907E+03 -0.15122666151E+03  0.28580968119E+03  0.00000000000E+00 0.  1.
          4    1    6    6  503    0 -0.53873787371E+02 -0.14217243650E+03 -0.11388277383E+03  0.18995966109E+03  0.00000000000E+00 0. -1.
         -4    1    6    6    0  503 -0.29955422713E+03 -0.35632002336E+03 -0.33555434586E+03  0.57384093010E+03  0.00000000000E+00 0.  1.
<mgrwt>
<rscale>  0 0.16341444E+04</rscale>
<asrwt>0</asrwt>
<pdfrwt beam="1">  1        1 0.31659532E+00 0.16341444E+04</pdfrwt>
<pdfrwt beam="2">  1       -2 0.49910243E-01 0.16341444E+04</pdfrwt>
<totfact> 0.86901178E+00</totfact>
</mgrwt>
</event>
<event>
12    4  0.4183215E-008  0.1570485E+04  0.7818608E-02  0.8838888E-01
         -2   -1    0    0    0  501 -0.00000000000E+00  0.00000000000E+00  0.31420166881E+03  0.31420166881E+03  0.00000000000E+00 0.  1.
          1   -1    0    0  501    0  0.00000000000E+00 -0.00000000000E+00 -0.19624525488E+04  0.19624525488E+04  0.00000000000E+00 0. -1.
        -24    2    1    2    0    0 -0.37602813648E+03  0.36035518854E+03 -0.52674502718E+03  0.74446233232E+03  0.74234892326E+02 0.  0.
        254    2    1    2    0    0  0.37602813648E+03 -0.36035518854E+03 -0.11215058528E+04  0.15321918852E+04  0.90475608541E+03 0.  0.
         23    2    4    4    0    0  0.39001980266E+03 -0.62979856452E+03 -0.90835037908E+03  0.11755721330E+04  0.90043046694E+02 0.  0.
         23    2    4    4    0    0 -0.13991666185E+02  0.26944337598E+03 -0.21315547368E+03  0.35661975229E+03  0.94588012883E+02 0.  0.
          1    1    3    3  502    0 -0.40710425053E+02  0.33145040206E+02 -0.25544866374E+02  0.58382125657E+02  0.00000000000E+00 0. -1.
         -2    1    3    3    0  502 -0.33531771143E+03  0.32721014834E+03 -0.50120016081E+03  0.68608020666E+03  0.00000000000E+00 0.  1.
         11    1    5    5    0    0  0.14791946264E+03 -0.18861972036E+03 -0.24288473574E+03  0.34124853288E+03  0.00000000000E+00 0.  1.
        -11    1    5    5    0    0  0.24210034003E+03 -0.44117884416E+03 -0.66546564334E+03  0.83432360008E+03  0.00000000000E+00 0. -1.
          3    1    6    6  503    0 -0.83817090816E+01  0.67243808290E+02 -0.11090135562E+03  0.12996573963E+03  0.00000000000E+00 0.  1.
         -3    1    6    6    0  503 -0.56099571035E+01  0.20219956769E+03 -0.10225411806E+03  0.22665401266E+03  0.00000000000E+00 0. -1.
<mgrwt>
<rscale>  0 0.15704851E+04</rscale>
<asrwt>0</asrwt>
<pdfrwt beam="1">  1        1 0.30191578E+00 0.15704851E+04</pdfrwt>
<pdfrwt beam="2">  1       -2 0.48338718E-01 0.15704851E+04</pdfrwt>
<totfact> 0.10821703E+01</totfact>
</mgrwt>
</event>
<event>
12    4  0.4183215E-008  0.1524010E+04  0.7818608E-02  0.8868642E-01
         -2   -1    0    0    0  501 -0.00000000000E+00  0.00000000000E+00  0.40916969376E+03  0.40916969376E+03  0.00000000000E+00 0.  1.
          1   -1    0    0  501    0  0.00000000000E+00 -0.00000000000E+00 -0.14190973669E+04  0.14190973669E+04  0.00000000000E+00 0. -1.
        -24    2    1    2    0    0 -0.31977225574E+02  0.48529316647E+03 -0.39603072930E+03  0.63225500615E+03  0.79837672064E+02 0.  0.
        254    2    1    2    0    0  0.31977225574E+02 -0.48529316647E+03 -0.61389694383E+03  0.11960120545E+04  0.90390451734E+03 0.  0.
         23    2    4    4    0    0  0.45861721858E+03 -0.23933099178E+03 -0.28316758634E+03  0.59710718911E+03  0.93509553088E+02 0.  0.
         23    2    4    4    0    0 -0.42663999301E+03 -0.24596217469E+03 -0.33072935748E+03  0.59890486538E+03  0.82377514348E+02 0.  0.
          3    1    3    3  502    0 -0.19805575512E+02  0.41094690458E+02 -0.58770327214E+02  0.74397484944E+02  0.00000000000E+00 0. -1.
         -4    1    3    3    0  502 -0.12171650062E+02  0.44419847601E+03 -0.33726040209E+03  0.55785752121E+03  0.00000000000E+00 0.  1.
         11    1    5    5    0    0  0.32631482928E+02 -0.13986355194E+02 -0.51105294049E+02  0.62226866301E+02  0.00000000000E+00 0.  1.
        -11    1    5    5    0    0  0.42598573565E+03 -0.22534463659E+03 -0.23206229230E+03  0.53488032281E+03  0.00000000000E+00 0. -1.
          3    1    6    6  503    0 -0.39424441590E+03 -0.21042829611E+03 -0.27261428280E+03  0.52347614507E+03  0.00000000000E+00 0. -1.
         -3    1    6    6    0  503 -0.32395577108E+02 -0.35533878574E+02 -0.58115074681E+02  0.75428720311E+02  0.00000000000E+00 0.  1.
<mgrwt>
<rscale>  0 0.15240100E+04</rscale>
<asrwt>0</asrwt>
<pdfrwt beam="1">  1        1 0.21832268E+00 0.15240100E+04</pdfrwt>
<pdfrwt beam="2">  1       -2 0.62949182E-01 0.15240100E+04</pdfrwt>
<totfact> 0.14756276E+01</totfact>
</mgrwt>
</event>
<event>
12    4  0.4183215E-008  0.2717693E+04  0.7818608E-02  0.8329287E-01
          1   -1    0    0  501    0  0.00000000000E+00  0.00000000000E+00  0.11497301834E+04  0.11497301834E+04  0.00000000000E+00 0. -1.
         -2   -1    0    0    0  501 -0.00000000000E+00 -0.00000000000E+00 -0.16059975343E+04  0.16059975343E+04  0.00000000000E+00 0.  1.
        -24    2    1    2    0    0 -0.45529912460E+03 -0.28962070001E+03  0.89371563087E+03  0.10469308843E+04  0.78480601613E+02 0.  0.
        254    2    1    2    0    0  0.45529912460E+03  0.28962070001E+03 -0.13499829817E+04  0.17087968334E+04  0.89797278602E+03 0.  0.
         23    2    4    4    0    0  0.38568891162E+03  0.21855820588E+03 -0.14634460466E+04  0.15321200240E+04  0.95884362121E+02 0.  0.
         23    2    4    4    0    0  0.69610212979E+02  0.71062494128E+02  0.11346306488E+03  0.17667680943E+03  0.91898683744E+02 0.  0.
          1    1    3    3  502    0 -0.29264212260E+03 -0.21500874169E+03  0.65017688486E+03  0.74471347009E+03  0.00000000000E+00 0. -1.
         -2    1    3    3    0  502 -0.16265700200E+03 -0.74611958323E+02  0.24353874600E+03  0.30221741417E+03  0.00000000000E+00 0.  1.
         11    1    5    5    0    0  0.28215448513E+03  0.13929248896E+03 -0.11583384452E+04  0.12003172517E+04  0.00000000000E+00 0.  1.
        -11    1    5    5    0    0  0.10353442649E+03  0.79265716928E+02 -0.30510760133E+03  0.33180277235E+03  0.00000000000E+00 0. -1.
          1    1    6    6  503    0  0.18689002373E+02  0.56578110757E+02  0.99484747613E+01  0.60409714257E+02  0.00000000000E+00 0. -1.
         -1    1    6    6    0  503  0.50921210606E+02  0.14484383370E+02  0.10351459012E+03  0.11626709517E+03  0.00000000000E+00 0.  1.
<mgrwt>
<rscale>  0 0.27176930E+04</rscale>
<asrwt>0</asrwt>
<pdfrwt beam="1">  1        1 0.17688157E+00 0.27176930E+04</pdfrwt>
<pdfrwt beam="2">  1       -2 0.24707654E+00 0.27176930E+04</pdfrwt>
<totfact> 0.59635569E-01</totfact>
</mgrwt>
</event>
<event>
12    4  0.4183215E-008  0.1686163E+04  0.7818608E-02  0.8769296E-01
          1   -1    0    0  501    0  0.00000000000E+00  0.00000000000E+00  0.80319722711E+03  0.80319722711E+03  0.00000000000E+00 0. -1.
         -2   -1    0    0    0  501 -0.00000000000E+00 -0.00000000000E+00 -0.88494588358E+03  0.88494588358E+03  0.00000000000E+00 0.  1.
        -24    2    1    2    0    0  0.29954510078E+03  0.29214549830E+03  0.39036109013E+03  0.57785530007E+03  0.80366084600E+02 0.  0.
        254    2    1    2    0    0 -0.29954510078E+03 -0.29214549830E+03 -0.47210974660E+03  0.11102878106E+04  0.91366030339E+03 0.  0.
         23    2    4    4    0    0 -0.16184388038E+03 -0.49858080190E+03 -0.61266630257E+03  0.81103009542E+03  0.87370245063E+02 0.  0.
         23    2    4    4    0    0 -0.13770122040E+03  0.20643530360E+03  0.14055655597E+03  0.29925771520E+03  0.90674549943E+02 0.  0.
          3    1    3    3  502    0  0.21508537000E+03  0.19223944269E+03  0.31391716135E+03  0.42633520134E+03  0.00000000000E+00 0. -1.
         -4    1    3    3    0  502  0.84459730774E+02  0.99906055616E+02  0.76443928781E+02  0.15152009873E+03  0.00000000000E+00 0.  1.
         11    1    5    5    0    0 -0.10609193174E+03 -0.18809295707E+03 -0.25231956165E+03  0.33211386552E+03  0.00000000000E+00 0. -1.
        -11    1    5    5    0    0 -0.55751948646E+02 -0.31048784484E+03 -0.36034674092E+03  0.47891622990E+03  0.00000000000E+00 0.  1.
          4    1    6    6  503    0 -0.14877570671E+03  0.18528165119E+03  0.11402038989E+03  0.26356052528E+03  0.00000000000E+00 0.  1.
         -4    1    6    6    0  503  0.11074486318E+02  0.21153652414E+02  0.26536166088E+02  0.35697189922E+02  0.00000000000E+00 0. -1.
<mgrwt>
<rscale>  0 0.16861626E+04</rscale>
<asrwt>0</asrwt>
<pdfrwt beam="1">  1        1 0.12356880E+00 0.16861626E+04</pdfrwt>
<pdfrwt beam="2">  1       -2 0.13614552E+00 0.16861626E+04</pdfrwt>
<totfact> 0.70762188E+00</totfact>
</mgrwt>
</event>
<event>
12    4  0.4183215E-008  0.2085509E+04  0.7818608E-02  0.8567654E-01
          1   -1    0    0  501    0  0.00000000000E+00  0.00000000000E+00  0.13448976056E+04  0.13448976056E+04  0.00000000000E+00 0. -1.
         -2   -1    0    0    0  501 -0.00000000000E+00 -0.00000000000E+00 -0.80849013659E+03  0.80849013659E+03  0.00000000000E+00 0.  1.
        -24    2    1    2    0    0  0.80745123109E+03 -0.14161464128E+03  0.43599332337E+03  0.93229788225E+03  0.84005749937E+02 0.  0.
        254    2    1    2    0    0 -0.80745123109E+03  0.14161464128E+03  0.10041414561E+03  0.12210898599E+04  0.89941383585E+03 0.  0.
         23    2    4    4    0    0 -0.93000890587E+03 -0.75215032331E+02  0.12964694006E+00  0.93757492145E+03  0.92048087666E+02 0.  0.
         23    2    4    4    0    0  0.12255767478E+03  0.21682967361E+03  0.10028449867E+03  0.28351493845E+03  0.91039819019E+02 0.  0.
          3    1    3    3  502    0  0.79329231572E+03 -0.15031216938E+03  0.42854160092E+03  0.91408662071E+03  0.00000000000E+00 0. -1.
         -4    1    3    3    0  502  0.14158915367E+02  0.86975281030E+01  0.74517224487E+01  0.18211261541E+02  0.00000000000E+00 0.  1.
         11    1    5    5    0    0 -0.50708963210E+03 -0.40258429779E+02  0.45902009024E+02  0.51075202455E+03  0.00000000000E+00 0.  1.
        -11    1    5    5    0    0 -0.42291927377E+03 -0.34956602552E+02 -0.45772362084E+02  0.42682289690E+03  0.00000000000E+00 0. -1.
          1    1    6    6  503    0  0.12263817150E+03  0.15893090600E+03  0.50123472021E+02  0.20690944019E+03  0.00000000000E+00 0.  1.
         -1    1    6    6    0  503 -0.80496717446E-01  0.57898767606E+02  0.50161026644E+02  0.76605498262E+02  0.00000000000E+00 0. -1.
<mgrwt>
<rscale>  0 0.20855085E+04</rscale>
<asrwt>0</asrwt>
<pdfrwt beam="1">  1        1 0.20690732E+00 0.20855085E+04</pdfrwt>
<pdfrwt beam="2">  1       -2 0.12438310E+00 0.20855085E+04</pdfrwt>
<totfact> 0.32966290E+00</totfact>
</mgrwt>
</event>
<event>
12    4  0.4183215E-008  0.1822526E+04  0.7818608E-02  0.8694411E-01
          1   -1    0    0  501    0  0.00000000000E+00  0.00000000000E+00  0.10307276880E+04  0.10307276880E+04  0.00000000000E+00 0. -1.
         -2   -1    0    0    0  501 -0.00000000000E+00 -0.00000000000E+00 -0.80564456430E+03  0.80564456430E+03  0.00000000000E+00 0.  1.
        -24    2    1    2    0    0 -0.67402908844E+03 -0.13947134627E+03  0.10036191146E+03  0.70007670543E+03  0.79166986301E+02 0.  0.
        254    2    1    2    0    0  0.67402908844E+03  0.13947134627E+03  0.12472121222E+03  0.11362955469E+04  0.89545782733E+03 0.  0.
         23    2    4    4    0    0  0.87454962630E+02 -0.71618171851E+02  0.41669316094E+03  0.44139581291E+03  0.91758052798E+02 0.  0.
         23    2    4    4    0    0  0.58657412581E+03  0.21108951812E+03 -0.29197194872E+03  0.69489973394E+03  0.94921186598E+02 0.  0.
          3    1    3    3  502    0 -0.34988064242E+03 -0.69468685179E+02  0.91851432543E+02  0.36834636936E+03  0.00000000000E+00 0. -1.
         -4    1    3    3    0  502 -0.32414844602E+03 -0.70002661087E+02  0.85104789124E+01  0.33173033607E+03  0.00000000000E+00 0.  1.
         11    1    5    5    0    0  0.96305217199E+02 -0.84126465670E+02  0.39204927042E+03  0.41237675435E+03  0.00000000000E+00 0. -1.
        -11    1    5    5    0    0 -0.88502545689E+01  0.12508293819E+02  0.24643890519E+02  0.29019058567E+02  0.00000000000E+00 0.  1.
          1    1    6    6  503    0  0.56329482452E+03  0.22120136319E+03 -0.27877494428E+03  0.66629315768E+03  0.00000000000E+00 0. -1.
         -1    1    6    6    0  503  0.23279301288E+02 -0.10111845077E+02 -0.13197004437E+02  0.28606576262E+02  0.00000000000E+00 0.  1.
<mgrwt>
<rscale>  0 0.18225259E+04</rscale>
<asrwt>0</asrwt>
<pdfrwt beam="1">  1        1 0.15857349E+00 0.18225259E+04</pdfrwt>
<pdfrwt beam="2">  1       -2 0.12394532E+00 0.18225259E+04</pdfrwt>
<totfact> 0.57912803E+00</totfact>
</mgrwt>
</event>
<event>
12    4  0.4183215E-008  0.1806955E+04  0.7818608E-02  0.8702610E-01
          1   -1    0    0  501    0  0.00000000000E+00  0.00000000000E+00  0.17751345466E+04  0.17751345466E+04  0.00000000000E+00 0. -1.
         -2   -1    0    0    0  501 -0.00000000000E+00 -0.00000000000E+00 -0.45983647374E+03  0.45983647374E+03  0.00000000000E+00 0.  1.
        -24    2    1    2    0    0 -0.35348568924E+03 -0.26335001540E+02 -0.21493966110E+03  0.42189570274E+03  0.78429976927E+02 0.  0.
        254    2    1    2    0    0  0.35348568924E+03  0.26335001540E+02  0.15302377339E+04  0.18130753176E+04  0.90552135260E+03 0.  0.
         23    2    4    4    0    0  0.40743680330E+03  0.35390209310E+03  0.55608506264E+03  0.77945090143E+03  0.84033747170E+02 0.  0.
         23    2    4    4    0    0 -0.53951114062E+02 -0.32756709156E+03  0.97415267128E+03  0.10336244161E+04  0.95891003075E+02 0.  0.
          1    1    3    3  502    0 -0.13633932969E+03  0.23801450794E+02 -0.62310494062E+02  0.15178115677E+03  0.00000000000E+00 0. -1.
         -2    1    3    3    0  502 -0.21714635954E+03 -0.50136452334E+02 -0.15262916704E+03  0.27011454597E+03  0.00000000000E+00 0.  1.
         11    1    5    5    0    0  0.25790856021E+03  0.18171221796E+03  0.28460382359E+03  0.42489468340E+03  0.00000000000E+00 0.  1.
        -11    1    5    5    0    0  0.14952824309E+03  0.17218987514E+03  0.27148123905E+03  0.35455621802E+03  0.00000000000E+00 0. -1.
          4    1    6    6  503    0 -0.40240803824E+01 -0.13539427923E+03  0.53135427382E+03  0.54834767108E+03  0.00000000000E+00 0.  1.
         -4    1    6    6    0  503 -0.49927033680E+02 -0.19217281233E+03  0.44279839746E+03  0.48527674505E+03  0.00000000000E+00 0. -1.
<mgrwt>
<rscale>  0 0.18069550E+04</rscale>
<asrwt>0</asrwt>
<pdfrwt beam="1">  1        1 0.27309762E+00 0.18069550E+04</pdfrwt>
<pdfrwt beam="2">  1       -2 0.70744074E-01 0.18069550E+04</pdfrwt>
<totfact> 0.63696207E+00</totfact>
</mgrwt>
</event>
<event>
12    4  0.4183215E-008  0.1200847E+04  0.7818608E-02  0.9112116E-01
         -2   -1    0    0    0  501 -0.00000000000E+00  0.00000000000E+00  0.26896154503E+03  0.26896154503E+03  0.00000000000E+00 0.  1.
          1   -1    0    0  501    0  0.00000000000E+00 -0.00000000000E+00 -0.13403707695E+04  0.13403707695E+04  0.00000000000E+00 0. -1.
        -24    2    1    2    0    0  0.10990514130E+03 -0.22210127032E+03 -0.59657556104E+02  0.26819383549E+03  0.83431379184E+02 0.  0.
        254    2    1    2    0    0 -0.10990514130E+03  0.22210127032E+03 -0.10117516684E+04  0.13411384791E+04  0.84475018036E+03 0.  0.
         23    2    4    4    0    0  0.35449130875E+03  0.14956442908E+03 -0.38161475923E+03  0.54954226559E+03  0.91286750325E+02 0.  0.
         23    2    4    4    0    0 -0.46439645005E+03  0.72536841234E+02 -0.63013690918E+03  0.79159621350E+03  0.92878333155E+02 0.  0.
          3    1    3    3  502    0  0.94789764592E+02 -0.12141993355E+03 -0.62769238388E+02  0.16633663765E+03  0.00000000000E+00 0. -1.
         -4    1    3    3    0  502  0.15115376707E+02 -0.10068133676E+03  0.31116822837E+01  0.10185719784E+03  0.00000000000E+00 0.  1.
         11    1    5    5    0    0  0.94320126013E+02  0.83539923639E+02 -0.14063923394E+03  0.18882425463E+03  0.00000000000E+00 0.  1.
        -11    1    5    5    0    0  0.26017118273E+03  0.66024505444E+02 -0.24097552529E+03  0.36071801096E+03  0.00000000000E+00 0. -1.
          3    1    6    6  503    0 -0.16763940205E+03 -0.13092842127E+02 -0.18754171466E+03  0.25188546281E+03  0.00000000000E+00 0. -1.
         -3    1    6    6    0  503 -0.29675704800E+03  0.85629683361E+02 -0.44259519452E+03  0.53971075070E+03  0.00000000000E+00 0.  1.
<mgrwt>
<rscale>  0 0.12008467E+04</rscale>
<asrwt>0</asrwt>
<pdfrwt beam="1">  1        1 0.20621089E+00 0.12008467E+04</pdfrwt>
<pdfrwt beam="2">  1       -2 0.41378699E-01 0.12008467E+04</pdfrwt>
<totfact> 0.40656135E+01</totfact>
</mgrwt>
</event>
<event>
12    4  0.4183215E-008  0.2198066E+04  0.7818608E-02  0.8519234E-01
         -2   -1    0    0    0  501 -0.00000000000E+00  0.00000000000E+00  0.10581386584E+04  0.10581386584E+04  0.00000000000E+00 0.  1.
          1   -1    0    0  501    0  0.00000000000E+00 -0.00000000000E+00 -0.11415075732E+04  0.11415075732E+04  0.00000000000E+00 0. -1.
        -24    2    1    2    0    0  0.79068211651E+03  0.19869624705E+03 -0.44585832582E+03  0.93257448055E+03  0.79038643179E+02 0.  0.
        254    2    1    2    0    0 -0.79068211651E+03 -0.19869624705E+03  0.36248941101E+03  0.12670717510E+04  0.89967429725E+03 0.  0.
         23    2    4    4    0    0 -0.89269523525E+03  0.61195167285E+02  0.16886834430E+03  0.91517725747E+03  0.91560162429E+02 0.  0.
         23    2    4    4    0    0  0.10201311874E+03 -0.25989141433E+03  0.19362106671E+03  0.35189449353E+03  0.91599090945E+02 0.  0.
          3    1    3    3  502    0  0.73036848574E+03  0.20414036041E+03 -0.40785828057E+03  0.86108059364E+03  0.00000000000E+00 0. -1.
         -4    1    3    3    0  502  0.60313630766E+02 -0.54441133662E+01 -0.38000045255E+02  0.71493886913E+02  0.00000000000E+00 0.  1.
         11    1    5    5    0    0 -0.45051893394E+03 -0.10175917093E+02  0.10548796268E+03  0.46281591308E+03  0.00000000000E+00 0.  1.
        -11    1    5    5    0    0 -0.44217630131E+03  0.71371084378E+02  0.63380381620E+02  0.45236134439E+03  0.00000000000E+00 0. -1.
          4    1    6    6  503    0 -0.14306642251E+02 -0.13237142914E+02  0.44302909658E+01  0.19988232614E+02  0.00000000000E+00 0.  1.
         -4    1    6    6    0  503  0.11631976100E+03 -0.24665427142E+03  0.18919077575E+03  0.33190626092E+03  0.00000000000E+00 0. -1.
<mgrwt>
<rscale>  0 0.21980658E+04</rscale>
<asrwt>0</asrwt>
<pdfrwt beam="1">  1        1 0.17561655E+00 0.21980658E+04</pdfrwt>
<pdfrwt beam="2">  1       -2 0.16279056E+00 0.21980658E+04</pdfrwt>
<totfact> 0.22680570E+00</totfact>
</mgrwt>
</event>
<event>
12    4  0.4183215E-008  0.1289847E+04  0.7818608E-02  0.9037655E-01
         -2   -1    0    0    0  501 -0.00000000000E+00  0.00000000000E+00  0.81524473362E+03  0.81524473362E+03  0.00000000000E+00 0.  1.
          1   -1    0    0  501    0  0.00000000000E+00 -0.00000000000E+00 -0.51018613373E+03  0.51018613373E+03  0.00000000000E+00 0. -1.
        -24    2    1    2    0    0 -0.17834697034E+03  0.11674013858E+03 -0.16671521585E+03  0.28235965768E+03  0.80604660567E+02 0.  0.
        254    2    1    2    0    0  0.17834697034E+03 -0.11674013858E+03  0.47177381573E+03  0.10430712097E+04  0.90553360703E+03 0.  0.
         23    2    4    4    0    0 -0.24985390767E+03  0.23433987355E+03  0.27468168258E+03  0.44830945434E+03  0.90494135708E+02 0.  0.
         23    2    4    4    0    0  0.42820087800E+03 -0.35108001214E+03  0.19709213315E+03  0.59476175533E+03  0.91011371871E+02 0.  0.
          1    1    3    3  502    0 -0.16023877342E+03  0.86699913268E+02 -0.16719530542E+03  0.24728042709E+03  0.00000000000E+00 0. -1.
         -4    1    3    3    0  502 -0.18108196919E+02  0.30040225316E+02  0.48008957516E+00  0.35079230589E+02  0.00000000000E+00 0.  1.
         11    1    5    5    0    0 -0.24638004384E+03  0.24078820716E+03  0.25900288737E+03  0.43100415587E+03  0.00000000000E+00 0.  1.
        -11    1    5    5    0    0 -0.34738638255E+01 -0.64483336067E+01  0.15678795205E+02  0.17305298474E+02  0.00000000000E+00 0. -1.
          3    1    6    6  503    0  0.21908731534E+03 -0.16956420662E+03  0.14608966414E+03  0.31319875779E+03  0.00000000000E+00 0. -1.
         -3    1    6    6    0  503  0.20911356266E+03 -0.18151580551E+03  0.51002469010E+02  0.28156299754E+03  0.00000000000E+00 0.  1.
<mgrwt>
<rscale>  0 0.12898474E+04</rscale>
<asrwt>0</asrwt>
<pdfrwt beam="1">  1        1 0.78490175E-01 0.12898474E+04</pdfrwt>
<pdfrwt beam="2">  1       -2 0.12542227E+00 0.12898474E+04</pdfrwt>
<totfact> 0.17613249E+01</totfact>
</mgrwt>
</event>
<event>
12    4  0.4183215E-008  0.1549953E+04  0.7818608E-02  0.8851897E-01
         -2   -1    0    0    0  501 -0.00000000000E+00  0.00000000000E+00  0.27889165625E+03  0.27889165625E+03  0.00000000000E+00 0.  1.
          1   -1    0    0  501    0  0.00000000000E+00 -0.00000000000E+00 -0.21534848505E+04  0.21534848505E+04  0.00000000000E+00 0. -1.
        -24    2    1    2    0    0  0.23784695464E+03  0.43343261930E+03 -0.72193982170E+03  0.87867738207E+03  0.80260988690E+02 0.  0.
        254    2    1    2    0    0 -0.23784695464E+03 -0.43343261930E+03 -0.11526533725E+04  0.15536991247E+04  0.91702571581E+03 0.  0.
         23    2    4    4    0    0  0.32646865401E+03 -0.98835504852E+02 -0.57420652579E+03  0.67434421167E+03  0.93149033737E+02 0.  0.
         23    2    4    4    0    0 -0.56431560864E+03 -0.33459711445E+03 -0.57844684674E+03  0.87935491299E+03  0.90867889456E+02 0.  0.
          1    1    3    3  502    0  0.17911090782E+03  0.38071343466E+03 -0.58441502224E+03  0.72011412627E+03  0.00000000000E+00 0. -1.
         -2    1    3    3    0  502  0.58736046813E+02  0.52719184640E+02 -0.13752479946E+03  0.15856325581E+03  0.00000000000E+00 0.  1.
         11    1    5    5    0    0  0.28238970811E+03 -0.78639792276E+02 -0.54183191381E+03  0.61604381906E+03  0.00000000000E+00 0. -1.
        -11    1    5    5    0    0  0.44078945899E+02 -0.20195712576E+02 -0.32374611975E+02  0.58300392611E+02  0.00000000000E+00 0.  1.
          3    1    6    6  503    0 -0.29406428769E+03 -0.22600489453E+03 -0.33429537423E+03  0.49930493176E+03  0.00000000000E+00 0. -1.
         -3    1    6    6    0  503 -0.27025132095E+03 -0.10859221992E+03 -0.24415147251E+03  0.38004998123E+03  0.00000000000E+00 0.  1.
<mgrwt>
<rscale>  0 0.15499535E+04</rscale>
<asrwt>0</asrwt>
<pdfrwt beam="1">  1        1 0.33130537E+00 0.15499535E+04</pdfrwt>
<pdfrwt beam="2">  1       -2 0.42906408E-01 0.15499535E+04</pdfrwt>
<totfact> 0.10218689E+01</totfact>
</mgrwt>
</event>
<event>
12    4  0.4183215E-008  0.1823703E+04  0.7818608E-02  0.8693795E-01
          1   -1    0    0  501    0  0.00000000000E+00  0.00000000000E+00  0.16629115342E+04  0.16629115342E+04  0.00000000000E+00 0. -1.
         -2   -1    0    0    0  501 -0.00000000000E+00 -0.00000000000E+00 -0.50001058124E+03  0.50001058124E+03  0.00000000000E+00 0.  1.
        -24    2    1    2    0    0 -0.68040406509E+03  0.79925378348E+02  0.43626235954E+03  0.81599162375E+03  0.78611231942E+02 0.  0.
        254    2    1    2    0    0  0.68040406509E+03 -0.79925378348E+02  0.72663859338E+03  0.13469304916E+04  0.90381433161E+03 0.  0.
         23    2    4    4    0    0  0.50512399274E+03 -0.39901843661E+03  0.72320035820E+03  0.97241587999E+03  0.90597597951E+02 0.  0.
         23    2    4    4    0    0  0.17528007235E+03  0.31909305827E+03  0.34382351741E+01  0.37451461165E+03  0.87783194759E+02 0.  0.
          3    1    3    3  502    0 -0.67134938212E+03  0.84060380252E+02  0.41830280912E+03  0.79545796905E+03  0.00000000000E+00 0. -1.
         -4    1    3    3    0  502 -0.90546829732E+01 -0.41350019037E+01  0.17959550415E+02  0.20533654707E+02  0.00000000000E+00 0.  1.
         11    1    5    5    0    0  0.38616763453E+03 -0.25279685438E+03  0.51532247400E+03  0.69180123139E+03  0.00000000000E+00 0.  1.
        -11    1    5    5    0    0  0.11895635822E+03 -0.14622158223E+03  0.20787788420E+03  0.28061464860E+03  0.00000000000E+00 0. -1.
          2    1    6    6  503    0  0.78957500070E+02  0.14224547295E+03  0.45199134521E+02  0.16885207477E+03  0.00000000000E+00 0. -1.
         -2    1    6    6    0  503  0.96322572280E+02  0.17684758532E+03 -0.41760899346E+02  0.20566253688E+03  0.00000000000E+00 0.  1.
<mgrwt>
<rscale>  0 0.18237032E+04</rscale>
<asrwt>0</asrwt>
<pdfrwt beam="1">  1        1 0.25583254E+00 0.18237032E+04</pdfrwt>
<pdfrwt beam="2">  1       -2 0.76924706E-01 0.18237032E+04</pdfrwt>
<totfact> 0.63030676E+00</totfact>
</mgrwt>
</event>
<event>
12    4  0.4183215E-008  0.1358251E+04  0.7818608E-02  0.8984606E-01
         -2   -1    0    0    0  501 -0.00000000000E+00  0.00000000000E+00  0.42178304548E+03  0.42178304548E+03  0.00000000000E+00 0.  1.
          1   -1    0    0  501    0  0.00000000000E+00 -0.00000000000E+00 -0.10934804228E+04  0.10934804228E+04  0.00000000000E+00 0. -1.
        -24    2    1    2    0    0 -0.24150310907E+03  0.18966488687E+03 -0.43744837986E+03  0.54002033305E+03  0.77229230598E+02 0.  0.
        254    2    1    2    0    0  0.24150310907E+03 -0.18966488687E+03 -0.23424899745E+03  0.97524313521E+03  0.89550547680E+03 0.  0.
         23    2    4    4    0    0  0.43397623996E+03  0.16282903786E+02 -0.43265080456E+03  0.61961928607E+03  0.90226554688E+02 0.  0.
         23    2    4    4    0    0 -0.19247313089E+03 -0.20594779066E+03  0.19840180712E+03  0.35562384915E+03  0.87433668729E+02 0.  0.
          3    1    3    3  502    0 -0.23450351563E+03  0.17008997622E+03 -0.42884099836E+03  0.51752014524E+03  0.00000000000E+00 0. -1.
         -4    1    3    3    0  502 -0.69995934405E+01  0.19574910648E+02 -0.86073815079E+01  0.22500187813E+02  0.00000000000E+00 0.  1.
         11    1    5    5    0    0  0.76951549871E+01 -0.14013976445E+02 -0.12217652879E+02  0.20121580156E+02  0.00000000000E+00 0. -1.
        -11    1    5    5    0    0  0.42628108497E+03  0.30296880231E+02 -0.42043315168E+03  0.59949770591E+03  0.00000000000E+00 0.  1.
          3    1    6    6  503    0  0.68466899860E+01 -0.22250881131E+02  0.90508764181E+01  0.24977935039E+02  0.00000000000E+00 0. -1.
         -3    1    6    6    0  503 -0.19931982087E+03 -0.18369690953E+03  0.18935093070E+03  0.33064591411E+03  0.00000000000E+00 0.  1.
<mgrwt>
<rscale>  0 0.13582511E+04</rscale>
<asrwt>0</asrwt>
<pdfrwt beam="1">  1        1 0.16822776E+00 0.13582511E+04</pdfrwt>
<pdfrwt beam="2">  1       -2 0.64889699E-01 0.13582511E+04</pdfrwt>
<totfact> 0.24101520E+01</totfact>
</mgrwt>
</event>
<event>
12    4  0.4183215E-008  0.1204026E+04  0.7818608E-02  0.9109340E-01
          1   -1    0    0  501    0  0.00000000000E+00  0.00000000000E+00  0.27149381516E+04  0.27149381516E+04  0.00000000000E+00 0. -1.
         -2   -1    0    0    0  501 -0.00000000000E+00 -0.00000000000E+00 -0.13349094803E+03  0.13349094803E+03  0.00000000000E+00 0.  1.
        -24    2    1    2    0    0 -0.75252372552E+02  0.15885414669E+02 -0.28541411460E+01  0.11092590045E+03  0.79882058650E+02 0.  0.
        254    2    1    2    0    0  0.75252372552E+02 -0.15885414669E+02  0.25843013447E+04  0.27375031992E+04  0.89966385906E+03 0.  0.
         23    2    4    4    0    0 -0.21376014683E+03 -0.36833443263E+03  0.11881069789E+04  0.12655153545E+04  0.92559518385E+02 0.  0.
         23    2    4    4    0    0  0.28901251938E+03  0.35244901796E+03  0.13961943658E+04  0.14719878447E+04  0.98188396744E+02 0.  0.
          1    1    3    3  502    0 -0.26889483005E+02 -0.32698771926E+02 -0.76268902109E+00  0.42341890325E+02  0.00000000000E+00 0. -1.
         -2    1    3    3    0  502 -0.48362889547E+02  0.48584186594E+02 -0.20914521249E+01  0.68584010122E+02  0.00000000000E+00 0.  1.
         11    1    5    5    0    0 -0.10667938802E+03 -0.25573069715E+03  0.83365776871E+03  0.87850097132E+03  0.00000000000E+00 0. -1.
        -11    1    5    5    0    0 -0.10708075881E+03 -0.11260373548E+03  0.35444921022E+03  0.38701438317E+03  0.00000000000E+00 0.  1.
          1    1    6    6  503    0  0.91253187865E+02  0.15320981768E+03  0.42144121648E+03  0.45761675174E+03  0.00000000000E+00 0. -1.
         -1    1    6    6    0  503  0.19775933152E+03  0.19923920028E+03  0.97475314934E+03  0.10143710930E+04  0.00000000000E+00 0.  1.
<mgrwt>
<rscale>  0 0.12040260E+04</rscale>
<asrwt>0</asrwt>
<pdfrwt beam="1">  1        1 0.41768275E+00 0.12040260E+04</pdfrwt>
<pdfrwt beam="2">  1       -2 0.20537071E-01 0.12040260E+04</pdfrwt>
<totfact> 0.17124956E+01</totfact>
</mgrwt>
</event>
<event>
12    4  0.4183215E-008  0.1184564E+04  0.7818608E-02  0.9126476E-01
         -2   -1    0    0    0  501 -0.00000000000E+00  0.00000000000E+00  0.50025126629E+03  0.50025126629E+03  0.00000000000E+00 0.  1.
          1   -1    0    0  501    0  0.00000000000E+00 -0.00000000000E+00 -0.70124380515E+03  0.70124380515E+03  0.00000000000E+00 0. -1.
        -24    2    1    2    0    0  0.14834378812E+03  0.72023482418E+01  0.15626681031E+03  0.23036936802E+03  0.81197145411E+02 0.  0.
        254    2    1    2    0    0 -0.14834378812E+03 -0.72023482418E+01 -0.35725934917E+03  0.97112570343E+03  0.89072618463E+03 0.  0.
         23    2    4    4    0    0 -0.38623374723E+03  0.20430945627E+03 -0.44273000404E+03  0.62881059864E+03  0.92054609131E+02 0.  0.
         23    2    4    4    0    0  0.23788995911E+03 -0.21151180451E+03  0.85470654867E+02  0.34231510479E+03  0.92441992777E+02 0.  0.
          1    1    3    3  502    0  0.86225845056E+02  0.29880822662E+02  0.46996300555E+02  0.10264702716E+03  0.00000000000E+00 0. -1.
         -2    1    3    3    0  502  0.62117943060E+02 -0.22678474420E+02  0.10927050976E+03  0.12772234086E+03  0.00000000000E+00 0.  1.
         11    1    5    5    0    0  0.40195060552E+01 -0.25974063314E+01 -0.56317257617E+01  0.73904860214E+01  0.00000000000E+00 0.  1.
        -11    1    5    5    0    0 -0.39025325328E+03  0.20690686260E+03 -0.43709827828E+03  0.62142011262E+03  0.00000000000E+00 0. -1.
          2    1    6    6  503    0  0.83152614833E+02 -0.97248553763E+02  0.77927027360E+02  0.14981408530E+03  0.00000000000E+00 0. -1.
         -2    1    6    6    0  503  0.15473734428E+03 -0.11426325075E+03  0.75436275074E+01  0.19250101948E+03  0.00000000000E+00 0.  1.
<mgrwt>
<rscale>  0 0.11845642E+04</rscale>
<asrwt>0</asrwt>
<pdfrwt beam="1">  1        1 0.10788366E+00 0.11845642E+04</pdfrwt>
<pdfrwt beam="2">  1       -2 0.76961734E-01 0.11845642E+04</pdfrwt>
<totfact> 0.35553100E+01</totfact>
</mgrwt>
</event>
<event>
12    4  0.4183215E-008  0.1637248E+04  0.7818608E-02  0.8797986E-01
         -2   -1    0    0    0  501 -0.00000000000E+00  0.00000000000E+00  0.56111641694E+03  0.56111641694E+03  0.00000000000E+00 0.  1.
          1   -1    0    0  501    0  0.00000000000E+00 -0.00000000000E+00 -0.11943075871E+04  0.11943075871E+04  0.00000000000E+00 0. -1.
        -24    2    1    2    0    0 -0.16514652404E+03  0.83927165959E+02  0.35478114850E+03  0.40829310646E+03  0.80724555489E+02 0.  0.
        254    2    1    2    0    0  0.16514652404E+03 -0.83927165959E+02 -0.98797231865E+03  0.13471308976E+04  0.89685852237E+03 0.  0.
         23    2    4    4    0    0 -0.28184184827E+02 -0.28720990775E+03 -0.10043679153E+04  0.10490808486E+04  0.92367950154E+02 0.  0.
         23    2    4    4    0    0  0.19333070887E+03  0.20328274179E+03  0.16395596669E+02  0.29805004895E+03  0.99319585117E+02 0.  0.
          1    1    3    3  502    0 -0.10965685991E+03  0.65677142086E+02  0.15913515229E+03  0.20411298492E+03  0.00000000000E+00 0. -1.
         -2    1    3    3    0  502 -0.55489664126E+02  0.18250023873E+02  0.19564599622E+03  0.20418012154E+03  0.00000000000E+00 0.  1.
         11    1    5    5    0    0 -0.36362441883E+02 -0.27398415071E+03 -0.99018252455E+03  0.10280325744E+04  0.00000000000E+00 0. -1.
        -11    1    5    5    0    0  0.81782570568E+01 -0.13225757035E+02 -0.14185390769E+02  0.21048274250E+02  0.00000000000E+00 0.  1.
          1    1    6    6  503    0  0.17406183659E+03  0.12137571162E+03  0.24046559183E+02  0.21355988232E+03  0.00000000000E+00 0. -1.
         -1    1    6    6    0  503  0.19268872283E+02  0.81907030168E+02 -0.76509625137E+01  0.84490166632E+02  0.00000000000E+00 0.  1.
<mgrwt>
<rscale>  0 0.16372484E+04</rscale>
<asrwt>0</asrwt>
<pdfrwt beam="1">  1        1 0.18373963E+00 0.16372484E+04</pdfrwt>
<pdfrwt beam="2">  1       -2 0.86325602E-01 0.16372484E+04</pdfrwt>
<totfact> 0.10528102E+01</totfact>
</mgrwt>
</event>
<event>
12    4  0.4183215E-008  0.1942804E+04  0.7818608E-02  0.8633839E-01
         -2   -1    0    0    0  501 -0.00000000000E+00  0.00000000000E+00  0.47299565174E+03  0.47299565174E+03  0.00000000000E+00 0.  1.
          1   -1    0    0  501    0  0.00000000000E+00 -0.00000000000E+00 -0.19949903179E+04  0.19949903179E+04  0.00000000000E+00 0. -1.
        -24    2    1    2    0    0 -0.88933355771E+02  0.37266910378E+03  0.23590745204E+03  0.45622652801E+03  0.75491166689E+02 0.  0.
        254    2    1    2    0    0  0.88933355771E+02 -0.37266910378E+03 -0.17579021181E+04  0.20117594416E+04  0.90009154599E+03 0.  0.
         23    2    4    4    0    0 -0.26774235160E+03 -0.26427008399E+03 -0.26115916638E+03  0.46655847070E+03  0.89151849494E+02 0.  0.
         23    2    4    4    0    0  0.35667570737E+03 -0.10839901980E+03 -0.14967429518E+04  0.15452009709E+04  0.91862228607E+02 0.  0.
          3    1    3    3  502    0 -0.21578839167E+02  0.64238343142E+02  0.77713689139E+02  0.10310978862E+03  0.00000000000E+00 0. -1.
         -4    1    3    3    0  502 -0.67354516603E+02  0.30843076064E+03  0.15819376290E+03  0.35311673939E+03  0.00000000000E+00 0.  1.
         11    1    5    5    0    0 -0.15083128012E+03 -0.20595165503E+03 -0.15939965712E+03  0.30095582726E+03  0.00000000000E+00 0.  1.
        -11    1    5    5    0    0 -0.11691107148E+03 -0.58318428962E+02 -0.10175950925E+03  0.16560264344E+03  0.00000000000E+00 0. -1.
          3    1    6    6  503    0  0.87178725800E+02 -0.40351924774E+02 -0.55662135747E+03  0.56485019577E+03  0.00000000000E+00 0. -1.
         -3    1    6    6    0  503  0.26949698157E+03 -0.68047095021E+02 -0.94012159429E+03  0.98035077512E+03  0.00000000000E+00 0.  1.
<mgrwt>
<rscale>  0 0.19428039E+04</rscale>
<asrwt>0</asrwt>
<pdfrwt beam="1">  1        1 0.30692158E+00 0.19428039E+04</pdfrwt>
<pdfrwt beam="2">  1       -2 0.72768563E-01 0.19428039E+04</pdfrwt>
<totfact> 0.41974262E+00</totfact>
</mgrwt>
</event>
<event>
12    4  0.4183215E-008  0.1684031E+04  0.7818608E-02  0.8770525E-01
         -2   -1    0    0    0  501 -0.00000000000E+00  0.00000000000E+00  0.18124797832E+04  0.18124797832E+04  0.00000000000E+00 0.  1.
          1   -1    0    0  501    0  0.00000000000E+00 -0.00000000000E+00 -0.39117111277E+03  0.39117111277E+03  0.00000000000E+00 0. -1.
        -24    2    1    2    0    0 -0.46986953327E+03  0.10363890370E+03  0.97516313325E+03  0.10928210544E+04  0.10861086441E+03 0.  0.
        254    2    1    2    0    0  0.46986953327E+03 -0.10363890370E+03  0.44614553721E+03  0.11108298416E+04  0.89631394942E+03 0.  0.
         23    2    4    4    0    0  0.28757406013E+03 -0.25088886747E+03  0.67046454432E+03  0.77694742944E+03  0.92089842245E+02 0.  0.
         23    2    4    4    0    0  0.18229547314E+03  0.14724996378E+03 -0.22431900711E+03  0.33388241214E+03  0.79020610134E+02 0.  0.
          3    1    3    3  502    0  0.30611636140E+01 -0.10866182830E+01 -0.72751150845E+00  0.33287737922E+01  0.00000000000E+00 0. -1.
         -4    1    3    3    0  502 -0.47293069688E+03  0.10472552198E+03  0.97589064476E+03  0.10894922806E+04  0.00000000000E+00 0.  1.
         11    1    5    5    0    0  0.16905411201E+03 -0.20417955843E+03  0.44405345095E+03  0.51715766664E+03  0.00000000000E+00 0. -1.
        -11    1    5    5    0    0  0.11851994812E+03 -0.46709309046E+02  0.22641109336E+03  0.25978976279E+03  0.00000000000E+00 0.  1.
          1    1    6    6  503    0  0.14204847845E+03  0.12829109761E+03 -0.13540323299E+03  0.23445769653E+03  0.00000000000E+00 0. -1.
         -1    1    6    6    0  503  0.40246994691E+02  0.18958866166E+02 -0.88915774116E+02  0.99424715612E+02  0.00000000000E+00 0.  1.
<mgrwt>
<rscale>  0 0.16840306E+04</rscale>
<asrwt>0</asrwt>
<pdfrwt beam="1">  1        1 0.60180172E-01 0.16840306E+04</pdfrwt>
<pdfrwt beam="2">  1       -2 0.27884304E+00 0.16840306E+04</pdfrwt>
<totfact> 0.22069927E+00</totfact>
</mgrwt>
</event>
<event>
12    4  0.4183215E-008  0.1874047E+04  0.7818608E-02  0.8667884E-01
         -2   -1    0    0    0  501 -0.00000000000E+00  0.00000000000E+00  0.15171697546E+04  0.15171697546E+04  0.00000000000E+00 0.  1.
          1   -1    0    0  501    0  0.00000000000E+00 -0.00000000000E+00 -0.57871763245E+03  0.57871763245E+03  0.00000000000E+00 0. -1.
        -24    2    1    2    0    0 -0.11995368099E+03 -0.70137131398E+03  0.19692420444E+03  0.74252334240E+03  0.79064315969E+02 0.  0.
        254    2    1    2    0    0  0.11995368099E+03  0.70137131398E+03  0.74152791769E+03  0.13533640446E+04  0.88057934279E+03 0.  0.
         23    2    4    4    0    0 -0.30261459290E+03  0.46666287520E+03  0.14790771388E+03  0.58268384799E+03  0.91071092904E+02 0.  0.
         23    2    4    4    0    0  0.42256827389E+03  0.23470843878E+03  0.59362020381E+03  0.77068019665E+03  0.88943925021E+02 0.  0.
          3    1    3    3  502    0 -0.80654070499E+02 -0.30146852124E+03  0.11389736248E+03  0.33220619736E+03  0.00000000000E+00 0. -1.
         -4    1    3    3    0  502 -0.39299610488E+02 -0.39990279274E+03  0.83026841959E+02  0.41031714504E+03  0.00000000000E+00 0.  1.
         11    1    5    5    0    0 -0.88353083300E+02  0.21697428336E+03  0.52034117315E+02  0.23998261673E+03  0.00000000000E+00 0. -1.
        -11    1    5    5    0    0 -0.21426150960E+03  0.24968859184E+03  0.95873596568E+02  0.34270123126E+03  0.00000000000E+00 0.  1.
          2    1    6    6  503    0  0.31916866225E+03  0.13089064260E+03  0.41701569917E+03  0.54120521860E+03  0.00000000000E+00 0. -1.
         -2    1    6    6    0  503  0.10339961164E+03  0.10381779619E+03  0.17660450464E+03  0.22947497805E+03  0.00000000000E+00 0.  1.
<mgrwt>
<rscale>  0 0.18740468E+04</rscale>
<asrwt>0</asrwt>
<pdfrwt beam="1">  1        1 0.89033482E-01 0.18740468E+04</pdfrwt>
<pdfrwt beam="2">  1       -2 0.23341073E+00 0.18740468E+04</pdfrwt>
<totfact> 0.24097749E+00</totfact>
</mgrwt>
</event>
<event>
12    4  0.4183215E-008  0.1529460E+04  0.7818608E-02  0.8865095E-01
          1   -1    0    0  501    0  0.00000000000E+00  0.00000000000E+00  0.22554786862E+04  0.22554786862E+04  0.00000000000E+00 0. -1.
         -2   -1    0    0    0  501 -0.00000000000E+00 -0.00000000000E+00 -0.25928502023E+03  0.25928502023E+03  0.00000000000E+00 0.  1.
        -24    2    1    2    0    0  0.92412563474E+02  0.19596777093E+03  0.13926931198E+04  0.14117291508E+04  0.80259704407E+02 0.  0.
        254    2    1    2    0    0 -0.92412563474E+02 -0.19596777093E+03  0.60350054616E+03  0.11030345556E+04  0.89751260300E+03 0.  0.
         23    2    4    4    0    0 -0.32043632582E+03  0.25961401972E+02  0.68497317451E+03  0.76175138160E+03  0.87883356062E+02 0.  0.
         23    2    4    4    0    0  0.22802376235E+03 -0.22192917290E+03 -0.81472628355E+02  0.34128317402E+03  0.92676975115E+02 0.  0.
          1    1    3    3  502    0  0.38948800251E+02  0.16037472470E+03  0.10766654264E+04  0.10892407915E+04  0.00000000000E+00 0. -1.
         -2    1    3    3    0  502  0.53463763223E+02  0.35593046232E+02  0.31602769335E+03  0.32248835930E+03  0.00000000000E+00 0.  1.
         11    1    5    5    0    0 -0.21018526654E+03 -0.20169752139E+02  0.48172573565E+03  0.52596991317E+03  0.00000000000E+00 0. -1.
        -11    1    5    5    0    0 -0.11025105928E+03  0.46131154112E+02  0.20324743886E+03  0.23578146843E+03  0.00000000000E+00 0.  1.
          3    1    6    6  503    0 -0.75712419170E+01 -0.18857912389E+02 -0.65612538715E+01  0.21354030444E+02  0.00000000000E+00 0.  1.
         -3    1    6    6    0  503  0.23559500427E+03 -0.20307126051E+03 -0.74911374484E+02  0.31992914358E+03  0.00000000000E+00 0. -1.
<mgrwt>
<rscale>  0 0.15294598E+04</rscale>
<asrwt>0</asrwt>
<pdfrwt beam="1">  1        1 0.34699671E+00 0.15294598E+04</pdfrwt>
<pdfrwt beam="2">  1       -2 0.39890005E-01 0.15294598E+04</pdfrwt>
<totfact> 0.10072641E+01</totfact>
</mgrwt>
</event>
<event>
12    4  0.4183215E-008  0.1405885E+04  0.7818608E-02  0.8949570E-01
          1   -1    0    0  501    0  0.00000000000E+00  0.00000000000E+00  0.12752825734E+04  0.12752825734E+04  0.00000000000E+00 0. -1.
         -2   -1    0    0    0  501 -0.00000000000E+00 -0.00000000000E+00 -0.38746549970E+03  0.38746549970E+03  0.00000000000E+00 0.  1.
        -24    2    1    2    0    0  0.29305000432E+03  0.21682002466E+03  0.81202851029E+02  0.38046374862E+03  0.72591548214E+02 0.  0.
        254    2    1    2    0    0 -0.29305000432E+03 -0.21682002466E+03  0.80661422267E+03  0.12822843245E+04  0.92775932034E+03 0.  0.
         23    2    4    4    0    0 -0.13388240050E+03  0.18541960675E+03  0.80326506112E+03  0.84011545392E+03  0.90853121903E+02 0.  0.
         23    2    4    4    0    0 -0.15916760381E+03 -0.40223963141E+03  0.33491615509E+01  0.44216887057E+03  0.91493420702E+02 0.  0.
          1    1    3    3  502    0  0.17136476954E+03  0.11988181289E+03  0.82663611101E+02  0.22487953642E+03  0.00000000000E+00 0. -1.
         -2    1    3    3    0  502  0.12168523478E+03  0.96938211776E+02 -0.14607600716E+01  0.15558421220E+03  0.00000000000E+00 0.  1.
         11    1    5    5    0    0 -0.11306866264E+03  0.80243905067E+02  0.43514764381E+03  0.45670239619E+03  0.00000000000E+00 0.  1.
        -11    1    5    5    0    0 -0.20813737867E+02  0.10517570168E+03  0.36811741731E+03  0.38341305773E+03  0.00000000000E+00 0. -1.
          2    1    6    6  503    0 -0.16659606426E+03 -0.39991898094E+03 -0.10427209848E+01  0.43323264791E+03  0.00000000000E+00 0. -1.
         -2    1    6    6    0  503  0.74284604470E+01 -0.23206504710E+01  0.43918825357E+01  0.89362226600E+01  0.00000000000E+00 0.  1.
<mgrwt>
<rscale>  0 0.14058848E+04</rscale>
<asrwt>0</asrwt>
<pdfrwt beam="1">  1        1 0.19619732E+00 0.14058848E+04</pdfrwt>
<pdfrwt beam="2">  1       -2 0.59610078E-01 0.14058848E+04</pdfrwt>
<totfact> 0.21152172E+01</totfact>
</mgrwt>
</event>
<event>
12    4  0.4183215E-008  0.1278829E+04  0.7818608E-02  0.9046524E-01
          1   -1    0    0  501    0  0.00000000000E+00  0.00000000000E+00  0.10949450091E+04  0.10949450091E+04  0.00000000000E+00 0. -1.
         -2   -1    0    0    0  501 -0.00000000000E+00 -0.00000000000E+00 -0.37339858030E+03  0.37339858030E+03  0.00000000000E+00 0.  1.
        -24    2    1    2    0    0 -0.28390019220E+03 -0.84262879597E+02  0.34014440355E+02  0.30874485969E+03  0.80416753375E+02 0.  0.
        254    2    1    2    0    0  0.28390019220E+03  0.84262879597E+02  0.68753198845E+03  0.11595987297E+04  0.88558987504E+03 0.  0.
         23    2    4    4    0    0  0.18120781998E+03 -0.38524190611E+03  0.24137407206E+03  0.49785866096E+03  0.91401331422E+02 0.  0.
         23    2    4    4    0    0  0.10269237222E+03  0.46950478570E+03  0.44615791639E+03  0.66174006875E+03  0.88671106411E+02 0.  0.
          1    1    3    3  502    0 -0.16903030385E+03 -0.71434271833E+02  0.54352403806E+02  0.19138516822E+03  0.00000000000E+00 0. -1.
         -2    1    3    3    0  502 -0.11486988835E+03 -0.12828607764E+02 -0.20337963451E+02  0.11735969148E+03  0.00000000000E+00 0.  1.
         11    1    5    5    0    0  0.18201600603E+03 -0.34986400168E+03  0.24154684140E+03  0.46247110473E+03  0.00000000000E+00 0.  1.
        -11    1    5    5    0    0 -0.80818605145E+00 -0.35377904432E+02 -0.17276933720E+00  0.35387556230E+02  0.00000000000E+00 0. -1.
          4    1    6    6  503    0  0.78090567110E+01  0.17681941179E+01 -0.56450052926E+00  0.80266143549E+01  0.00000000000E+00 0. -1.
         -4    1    6    6    0  503  0.94883315509E+02  0.46773659159E+03  0.44672241692E+03  0.65371345439E+03  0.00000000000E+00 0.  1.
<mgrwt>
<rscale>  0 0.12788290E+04</rscale>
<asrwt>0</asrwt>
<pdfrwt beam="1">  1        1 0.16845308E+00 0.12788290E+04</pdfrwt>
<pdfrwt beam="2">  1       -2 0.57445936E-01 0.12788290E+04</pdfrwt>
<totfact> 0.31329563E+01</totfact>
</mgrwt>
</event>
<event>
12    4  0.4183215E-008  0.1953961E+04  0.7818608E-02  0.8628453E-01
         -2   -1    0    0    0  501 -0.00000000000E+00  0.00000000000E+00  0.50245116710E+03  0.50245116710E+03  0.00000000000E+00 0.  1.
          1   -1    0    0  501    0  0.00000000000E+00 -0.00000000000E+00 -0.18996696737E+04  0.18996696737E+04  0.00000000000E+00 0. -1.
        -24    2    1    2    0    0 -0.18356095753E+03 -0.65322898456E+03 -0.84905305454E+03  0.10898314507E+04  0.80241947289E+02 0.  0.
        254    2    1    2    0    0  0.18356095753E+03  0.65322898456E+03 -0.54816545205E+03  0.13122893901E+04  0.98041590620E+03 0.  0.
         23    2    4    4    0    0  0.20335780454E+03  0.88979588499E+03 -0.52379731954E+03  0.10562883406E+04  0.91051154977E+02 0.  0.
         23    2    4    4    0    0 -0.19796847015E+02 -0.23656690043E+03 -0.24368132508E+02  0.25600104954E+03  0.92665624431E+02 0.  0.
          3    1    3    3  502    0 -0.62474369834E+02 -0.30820538390E+03 -0.44482366965E+03  0.54475838922E+03  0.00000000000E+00 0. -1.
         -4    1    3    3    0  502 -0.12108658769E+03 -0.34502360066E+03 -0.40422938489E+03  0.54507306147E+03  0.00000000000E+00 0.  1.
         11    1    5    5    0    0  0.13310194652E+03  0.54843863920E+03 -0.27302919442E+03  0.62693381639E+03  0.00000000000E+00 0.  1.
        -11    1    5    5    0    0  0.70255858021E+02  0.34135724579E+03 -0.25076812513E+03  0.42935452416E+03  0.00000000000E+00 0. -1.
          3    1    6    6  503    0 -0.10835356987E+02 -0.23939348900E+03 -0.34583464227E+02  0.24212117531E+03  0.00000000000E+00 0. -1.
         -3    1    6    6    0  503 -0.89614900278E+01  0.28265885668E+01  0.10215331719E+02  0.13879874228E+02  0.00000000000E+00 0.  1.
<mgrwt>
<rscale>  0 0.19539614E+04</rscale>
<asrwt>0</asrwt>
<pdfrwt beam="1">  1        1 0.29225687E+00 0.19539614E+04</pdfrwt>
<pdfrwt beam="2">  1       -2 0.77300180E-01 0.19539614E+04</pdfrwt>
<totfact> 0.42558577E+00</totfact>
</mgrwt>
</event>
<event>
12    4  0.4183215E-008  0.2082308E+04  0.7818608E-02  0.8569077E-01
         -2   -1    0    0    0  501 -0.00000000000E+00  0.00000000000E+00  0.31415759292E+04  0.31415759292E+04  0.00000000000E+00 0.  1.
          1   -1    0    0  501    0  0.00000000000E+00 -0.00000000000E+00 -0.34505043469E+03  0.34505043469E+03  0.00000000000E+00 0. -1.
        -24    2    1    2    0    0 -0.20946932682E+03 -0.33557735150E+03 -0.11046497396E+03  0.41837406020E+03  0.79654165349E+02 0.  0.
        254    2    1    2    0    0  0.20946932682E+03  0.33557735150E+03  0.29069904685E+04  0.30682523037E+04  0.89838135421E+03 0.  0.
         23    2    4    4    0    0  0.23895128645E+03 -0.30377120936E+02  0.24978536230E+04  0.25110730114E+04  0.90523253501E+02 0.  0.
         23    2    4    4    0    0 -0.29481959633E+02  0.36595447244E+03  0.40913684547E+03  0.55717929237E+03  0.90906235714E+02 0.  0.
          1    1    3    3  502    0 -0.18865079564E+03 -0.30005271657E+03 -0.71266722525E+02  0.36152413634E+03  0.00000000000E+00 0. -1.
         -2    1    3    3    0  502 -0.20818531179E+02 -0.35524634934E+02 -0.39198251434E+02  0.56849923862E+02  0.00000000000E+00 0.  1.
         11    1    5    5    0    0  0.24157455389E+02 -0.31845111344E+02  0.27936888069E+03  0.28221386441E+03  0.00000000000E+00 0. -1.
        -11    1    5    5    0    0  0.21479383106E+03  0.14679904078E+01  0.22184847424E+04  0.22288591470E+04  0.00000000000E+00 0.  1.
          4    1    6    6  503    0 -0.70685262010E+01  0.15992909386E+03  0.24568322399E+03  0.29323629665E+03  0.00000000000E+00 0. -1.
         -4    1    6    6    0  503 -0.22413433432E+02  0.20602537858E+03  0.16345362148E+03  0.26394299572E+03  0.00000000000E+00 0.  1.
<mgrwt>
<rscale>  0 0.20823085E+04</rscale>
<asrwt>0</asrwt>
<pdfrwt beam="1">  1        1 0.53084685E-01 0.20823085E+04</pdfrwt>
<pdfrwt beam="2">  1       -2 0.48331935E+00 0.20823085E+04</pdfrwt>
<totfact> 0.12343447E-01</totfact>
</mgrwt>
</event>
<event>
12    4  0.4183215E-008  0.2366709E+04  0.7818608E-02  0.8452073E-01
          1   -1    0    0  501    0  0.00000000000E+00  0.00000000000E+00  0.10693878971E+04  0.10693878971E+04  0.00000000000E+00 0. -1.
         -2   -1    0    0    0  501 -0.00000000000E+00 -0.00000000000E+00 -0.13094664324E+04  0.13094664324E+04  0.00000000000E+00 0.  1.
        -24    2    1    2    0    0 -0.64141183718E+03 -0.12804547360E+03  0.67474009121E+03  0.94302773889E+03  0.78881794033E+02 0.  0.
        254    2    1    2    0    0  0.64141183718E+03  0.12804547360E+03 -0.91481862653E+03  0.14358265906E+04  0.89269260702E+03 0.  0.
         23    2    4    4    0    0  0.68252608644E+03 -0.12477971416E+03 -0.29617818268E+03  0.75992866087E+03  0.91423290166E+02 0.  0.
         23    2    4    4    0    0 -0.41114249258E+02  0.25282518776E+03 -0.61864044385E+03  0.67589792972E+03  0.92255382370E+02 0.  0.
          1    1    3    3  502    0 -0.52478395636E+03 -0.13298327222E+03  0.53793281164E+03  0.76318704220E+03  0.00000000000E+00 0. -1.
         -2    1    3    3    0  502 -0.11662788082E+03  0.49377986141E+01  0.13680727958E+03  0.17984069669E+03  0.00000000000E+00 0.  1.
         11    1    5    5    0    0  0.60526797992E+03 -0.13484575198E+03 -0.27982617623E+03  0.68032006677E+03  0.00000000000E+00 0.  1.
        -11    1    5    5    0    0  0.77258106522E+02  0.10066037820E+02 -0.16352006447E+02  0.79608594106E+02  0.00000000000E+00 0. -1.
          3    1    6    6  503    0 -0.27107931374E+02  0.16053486279E+02 -0.11439985234E+03  0.11865867259E+03  0.00000000000E+00 0. -1.
         -3    1    6    6    0  503 -0.14006317883E+02  0.23677170148E+03 -0.50424059151E+03  0.55723925713E+03  0.00000000000E+00 0.  1.
<mgrwt>
<rscale>  0 0.23667087E+04</rscale>
<asrwt>0</asrwt>
<pdfrwt beam="1">  1        1 0.16452121E+00 0.23667087E+04</pdfrwt>
<pdfrwt beam="2">  1       -2 0.20145637E+00 0.23667087E+04</pdfrwt>
<totfact> 0.13714685E+00</totfact>
</mgrwt>
</event>
<event>
12    4  0.4183215E-008  0.1910425E+04  0.7818608E-02  0.8649684E-01
          1   -1    0    0  501    0  0.00000000000E+00  0.00000000000E+00  0.14473225152E+04  0.14473225152E+04  0.00000000000E+00 0. -1.
         -2   -1    0    0    0  501 -0.00000000000E+00 -0.00000000000E+00 -0.63042704989E+03  0.63042704989E+03  0.00000000000E+00 0.  1.
        -24    2    1    2    0    0  0.14958738804E+03  0.21747318877E+03  0.10678118306E+04  0.11028628038E+04  0.80082982295E+02 0.  0.
        254    2    1    2    0    0 -0.14958738804E+03 -0.21747318877E+03 -0.25091636520E+03  0.97488676133E+03  0.90430868657E+03 0.  0.
         23    2    4    4    0    0 -0.21186923584E+03 -0.13951720899E+03 -0.56856248118E+03  0.62931681232E+03  0.91775435493E+02 0.  0.
         23    2    4    4    0    0  0.62281847808E+02 -0.77955979772E+02  0.31764611598E+03  0.34556994901E+03  0.92538485563E+02 0.  0.
          3    1    3    3  502    0  0.14891528998E+03  0.17009296624E+03  0.82172734075E+03  0.85225770943E+03  0.00000000000E+00 0. -1.
         -4    1    3    3    0  502  0.67209805842E+00  0.47380222521E+02  0.24608448980E+03  0.25060509437E+03  0.00000000000E+00 0.  1.
         11    1    5    5    0    0 -0.30213067883E+02 -0.15629560845E+02 -0.17702582031E+03  0.18026439943E+03  0.00000000000E+00 0.  1.
        -11    1    5    5    0    0 -0.18165616796E+03 -0.12388764815E+03 -0.39153666087E+03  0.44905241290E+03  0.00000000000E+00 0. -1.
          2    1    6    6  503    0  0.77451394309E+02 -0.33837972258E+02  0.24561162997E+03  0.25974756904E+03  0.00000000000E+00 0. -1.
         -2    1    6    6    0  503 -0.15169546501E+02 -0.44118007514E+02  0.72034486019E+02  0.85822379972E+02  0.00000000000E+00 0.  1.
<mgrwt>
<rscale>  0 0.19104254E+04</rscale>
<asrwt>0</asrwt>
<pdfrwt beam="1">  1        1 0.22266500E+00 0.19104254E+04</pdfrwt>
<pdfrwt beam="2">  1       -2 0.96988778E-01 0.19104254E+04</pdfrwt>
<totfact> 0.51842750E+00</totfact>
</mgrwt>
</event>
<event>
12    4  0.4183215E-008  0.1186702E+04  0.7818608E-02  0.9124577E-01
          1   -1    0    0  501    0  0.00000000000E+00  0.00000000000E+00  0.27385883469E+04  0.27385883469E+04  0.00000000000E+00 0. -1.
         -2   -1    0    0    0  501 -0.00000000000E+00 -0.00000000000E+00 -0.12855722181E+03  0.12855722181E+03  0.00000000000E+00 0.  1.
        -24    2    1    2    0    0  0.21188086651E+03 -0.10254910298E+03  0.54214975977E+03  0.59629699079E+03  0.78955171444E+02 0.  0.
        254    2    1    2    0    0 -0.21188086651E+03  0.10254910298E+03  0.20678813653E+04  0.22708485779E+04  0.90841075660E+03 0.  0.
         23    2    4    4    0    0 -0.30549341188E+01 -0.28257457031E+03  0.22076899355E+03  0.37029227218E+03  0.92302209710E+02 0.  0.
         23    2    4    4    0    0 -0.20882593239E+03  0.38512367329E+03  0.18471123718E+04  0.19005563057E+04  0.91442022975E+02 0.  0.
          1    1    3    3  502    0  0.21279684043E+03 -0.93130362160E+02  0.47797351945E+03  0.53142680112E+03  0.00000000000E+00 0. -1.
         -2    1    3    3    0  502 -0.91597392126E+00 -0.94187408163E+01  0.64176240316E+02  0.64870189671E+02  0.00000000000E+00 0.  1.
         11    1    5    5    0    0  0.29798616149E+02 -0.50391823536E+02  0.20855802338E+02  0.62147066663E+02  0.00000000000E+00 0. -1.
        -11    1    5    5    0    0 -0.32853550267E+02 -0.23218274678E+03  0.19991319121E+03  0.30814520552E+03  0.00000000000E+00 0.  1.
          1    1    6    6  503    0 -0.51294928556E+02  0.96011657752E+02  0.64730817652E+03  0.65639719950E+03  0.00000000000E+00 0. -1.
         -1    1    6    6    0  503 -0.15753100384E+03  0.28911201554E+03  0.11998041952E+04  0.12441591062E+04  0.00000000000E+00 0.  1.
<mgrwt>
<rscale>  0 0.11867018E+04</rscale>
<asrwt>0</asrwt>
<pdfrwt beam="1">  1        1 0.42132124E+00 0.11867018E+04</pdfrwt>
<pdfrwt beam="2">  1       -2 0.19778036E-01 0.11867018E+04</pdfrwt>
<totfact> 0.17642468E+01</totfact>
</mgrwt>
</event>
<event>
12    4  0.4183215E-008  0.1622875E+04  0.7818608E-02  0.8806617E-01
         -4   -1    0    0    0  501 -0.00000000000E+00  0.00000000000E+00  0.20747585052E+03  0.20747585052E+03  0.00000000000E+00 0.  1.
          1   -1    0    0  501    0  0.00000000000E+00 -0.00000000000E+00 -0.31735313343E+04  0.31735313343E+04  0.00000000000E+00 0. -1.
        -24    2    1    2    0    0 -0.51165751699E+03  0.10148329842E+03 -0.98631502979E+03  0.11185579361E+04  0.79134340192E+02 0.  0.
        254    2    1    2    0    0  0.51165751699E+03 -0.10148329842E+03 -0.19797404540E+04  0.22624492487E+04  0.96291851342E+03 0.  0.
         23    2    4    4    0    0  0.68966050269E+03 -0.19903272496E+03 -0.18878037570E+04  0.20215756184E+04  0.87859667615E+02 0.  0.
         23    2    4    4    0    0 -0.17800298570E+03  0.97549426536E+02 -0.91936696954E+02  0.24087363037E+03  0.91470192016E+02 0.  0.
          1    1    3    3  502    0 -0.32016873583E+03  0.66347440498E+02 -0.69640854629E+03  0.76934703847E+03  0.00000000000E+00 0. -1.
         -2    1    3    3    0  502 -0.19148878116E+03  0.35135857926E+02 -0.28990648350E+03  0.34921089760E+03  0.00000000000E+00 0.  1.
         11    1    5    5    0    0  0.54293118972E+03 -0.12131768213E+03 -0.14126470016E+04  0.15182436589E+04  0.00000000000E+00 0. -1.
        -11    1    5    5    0    0  0.14672931297E+03 -0.77715042827E+02 -0.47515675546E+03  0.50333195947E+03  0.00000000000E+00 0.  1.
          2    1    6    6  503    0 -0.18111832442E+03  0.92387980090E+02 -0.65279842488E+02  0.21354354156E+03  0.00000000000E+00 0. -1.
         -2    1    6    6    0  503  0.31153387192E+01  0.51614464457E+01 -0.26656854466E+02  0.27330088818E+02  0.00000000000E+00 0.  1.
<mgrwt>
<rscale>  0 0.16228754E+04</rscale>
<asrwt>0</asrwt>
<pdfrwt beam="1">  1        1 0.48823554E+00 0.16228754E+04</pdfrwt>
<pdfrwt beam="2">  1       -4 0.31919365E-01 0.16228754E+04</pdfrwt>
<totfact> 0.20452455E+00</totfact>
</mgrwt>
</event>
<event>
12    4  0.4183215E-008  0.2677708E+04  0.7818608E-02  0.8342274E-01
         -2   -1    0    0    0  501 -0.00000000000E+00  0.00000000000E+00  0.18140416359E+04  0.18140416359E+04  0.00000000000E+00 0.  1.
          1   -1    0    0  501    0  0.00000000000E+00 -0.00000000000E+00 -0.98814129662E+03  0.98814129662E+03  0.00000000000E+00 0. -1.
        -24    2    1    2    0    0 -0.58669395314E+03  0.10322141024E+04  0.32172128549E+03  0.12326634408E+04  0.79239037275E+02 0.  0.
        254    2    1    2    0    0  0.58669395314E+03 -0.10322141024E+04  0.50417905379E+03  0.15695194917E+04  0.89415835777E+03 0.  0.
         23    2    4    4    0    0  0.37247410564E+03 -0.10860965329E+02  0.33208201831E+03  0.50800835042E+03  0.94546799337E+02 0.  0.
         23    2    4    4    0    0  0.21421984750E+03 -0.10213531370E+04  0.17209703547E+03  0.10615111413E+04  0.90200553425E+02 0.  0.
          1    1    3    3  502    0 -0.25378749889E+02  0.20536585136E+02  0.13648953749E+02  0.35385395482E+02  0.00000000000E+00 0. -1.
         -2    1    3    3    0  502 -0.56131520325E+03  0.10116775172E+04  0.30807233175E+03  0.11972780453E+04  0.00000000000E+00 0.  1.
         11    1    5    5    0    0  0.33650567080E+03 -0.38559720212E+02  0.28576444208E+03  0.44315260900E+03  0.00000000000E+00 0. -1.
        -11    1    5    5    0    0  0.35968434842E+02  0.27698754883E+02  0.46317576233E+02  0.64855741420E+02  0.00000000000E+00 0.  1.
          4    1    6    6  503    0  0.74901000380E+02 -0.34744737026E+03  0.15525501535E+02  0.35576800890E+03  0.00000000000E+00 0. -1.
         -4    1    6    6    0  503  0.13931884712E+03 -0.67390576679E+03  0.15657153394E+03  0.70574313239E+03  0.00000000000E+00 0.  1.
<mgrwt>
<rscale>  0 0.26777076E+04</rscale>
<asrwt>0</asrwt>
<pdfrwt beam="1">  1        1 0.15202174E+00 0.26777076E+04</pdfrwt>
<pdfrwt beam="2">  1       -2 0.27908333E+00 0.26777076E+04</pdfrwt>
<totfact> 0.50606374E-01</totfact>
</mgrwt>
</event>
<event>
12    4  0.4183215E-008  0.1333293E+04  0.7818608E-02  0.9003573E-01
          1   -1    0    0  501    0  0.00000000000E+00  0.00000000000E+00  0.25088788844E+04  0.25088788844E+04  0.00000000000E+00 0. -1.
         -2   -1    0    0    0  501 -0.00000000000E+00 -0.00000000000E+00 -0.17713780574E+03  0.17713780574E+03  0.00000000000E+00 0.  1.
        -24    2    1    2    0    0 -0.31897660335E+03 -0.11821383213E+03  0.41689597966E+03  0.54399952675E+03  0.80078983883E+02 0.  0.
        254    2    1    2    0    0  0.31897660335E+03  0.11821383213E+03  0.19148450990E+04  0.21420171634E+04  0.89771108464E+03 0.  0.
         23    2    4    4    0    0 -0.24808445795E+03 -0.65721849686E+02  0.10694392311E+04  0.11036053186E+04  0.91537808109E+02 0.  0.
         23    2    4    4    0    0  0.56706106130E+03  0.18393568182E+03  0.84540586789E+03  0.10384118448E+04  0.90540022813E+02 0.  0.
          3    1    3    3  502    0 -0.17028884287E+03 -0.43418474658E+02  0.26915559861E+03  0.32144702551E+03  0.00000000000E+00 0. -1.
         -4    1    3    3    0  502 -0.14868776048E+03 -0.74795357471E+02  0.14774038105E+03  0.22255250124E+03  0.00000000000E+00 0.  1.
         11    1    5    5    0    0 -0.11167873177E+03 -0.65379662386E+02  0.64256875684E+03  0.65547024849E+03  0.00000000000E+00 0.  1.
        -11    1    5    5    0    0 -0.13640572618E+03 -0.34218730015E+00  0.42687047430E+03  0.44813507011E+03  0.00000000000E+00 0. -1.
          4    1    6    6  503    0  0.12917293690E+03  0.64779077100E+02  0.26288941120E+03  0.29998803139E+03  0.00000000000E+00 0. -1.
         -4    1    6    6    0  503  0.43788812439E+03  0.11915660472E+03  0.58251645670E+03  0.73842381344E+03  0.00000000000E+00 0.  1.
<mgrwt>
<rscale>  0 0.13332926E+04</rscale>
<asrwt>0</asrwt>
<pdfrwt beam="1">  1        1 0.38598134E+00 0.13332926E+04</pdfrwt>
<pdfrwt beam="2">  1       -2 0.27251972E-01 0.13332926E+04</pdfrwt>
<totfact> 0.14144710E+01</totfact>
</mgrwt>
</event>
<event>
12    4  0.4183215E-008  0.1474955E+04  0.7818608E-02  0.8901281E-01
          1   -1    0    0  501    0  0.00000000000E+00  0.00000000000E+00  0.13199322690E+04  0.13199322690E+04  0.00000000000E+00 0. -1.
         -2   -1    0    0    0  501 -0.00000000000E+00 -0.00000000000E+00 -0.41204605134E+03  0.41204605134E+03  0.00000000000E+00 0.  1.
        -24    2    1    2    0    0 -0.59326717759E+02 -0.33283973077E+02  0.83124780530E+03  0.83786067200E+03  0.80063159812E+02 0.  0.
        254    2    1    2    0    0  0.59326717759E+02  0.33283973077E+02  0.76638412325E+02  0.89411764832E+03  0.88822600755E+03 0.  0.
         23    2    4    4    0    0  0.92045646866E+02  0.25689518513E+03 -0.31858157560E+03  0.42936134165E+03  0.91593690511E+02 0.  0.
         23    2    4    4    0    0 -0.32718929107E+02 -0.22361121206E+03  0.39521998792E+03  0.46475630666E+03  0.93418859174E+02 0.  0.
          3    1    3    3  502    0 -0.66751747728E+02 -0.47770042242E+01  0.39581905953E+03  0.40143659958E+03  0.00000000000E+00 0. -1.
         -4    1    3    3    0  502  0.74250299691E+01 -0.28506968853E+02  0.43542874577E+03  0.43642407242E+03  0.00000000000E+00 0.  1.
         11    1    5    5    0    0  0.62164634229E+02  0.12883026235E+03 -0.22983151612E+03  0.27071055400E+03  0.00000000000E+00 0. -1.
        -11    1    5    5    0    0  0.29881012637E+02  0.12806492279E+03 -0.88750059480E+02  0.15865078765E+03  0.00000000000E+00 0.  1.
          4    1    6    6  503    0 -0.93776781737E+01 -0.22081797624E+03  0.35870984770E+03  0.42133273587E+03  0.00000000000E+00 0.  1.
         -4    1    6    6    0  503 -0.23341250933E+02 -0.27932358210E+01  0.36510140222E+02  0.43423570794E+02  0.00000000000E+00 0. -1.
<mgrwt>
<rscale>  0 0.14749548E+04</rscale>
<asrwt>0</asrwt>
<pdfrwt beam="1">  1        1 0.20306650E+00 0.14749548E+04</pdfrwt>
<pdfrwt beam="2">  1       -2 0.63391701E-01 0.14749548E+04</pdfrwt>
<totfact> 0.17147825E+01</totfact>
</mgrwt>
</event>
<event>
12    4  0.4183215E-008  0.2121968E+04  0.7818608E-02  0.8551628E-01
          1   -1    0    0  501    0  0.00000000000E+00  0.00000000000E+00  0.31051493565E+04  0.31051493565E+04  0.00000000000E+00 0. -1.
         -2   -1    0    0    0  501 -0.00000000000E+00 -0.00000000000E+00 -0.36252272613E+03  0.36252272613E+03  0.00000000000E+00 0.  1.
        -24    2    1    2    0    0  0.15889084092E+03 -0.62954342367E+03  0.20682279370E+04  0.21692657982E+04  0.81093045300E+02 0.  0.
        254    2    1    2    0    0 -0.15889084092E+03  0.62954342367E+03  0.67439869330E+03  0.12984062844E+04  0.89970776382E+03 0.  0.
         23    2    4    4    0    0  0.24944121507E+03  0.53792585757E+03  0.13936494568E+03  0.61433999301E+03  0.80036809696E+02 0.  0.
         23    2    4    4    0    0 -0.40833205599E+03  0.91617566099E+02  0.53503374763E+03  0.68406629141E+03  0.80973659812E+02 0.  0.
          1    1    3    3  502    0  0.78584133357E+02 -0.34539593695E+03  0.12575803135E+04  0.13065152369E+04  0.00000000000E+00 0. -1.
         -2    1    3    3    0  502  0.80306707560E+02 -0.28414748672E+03  0.81064762353E+03  0.86275056130E+03  0.00000000000E+00 0.  1.
         11    1    5    5    0    0  0.58750545716E+02  0.20387980937E+03  0.70498482317E+02  0.22358139301E+03  0.00000000000E+00 0.  1.
        -11    1    5    5    0    0  0.19069066936E+03  0.33404604820E+03  0.68866463359E+02  0.39075860000E+03  0.00000000000E+00 0. -1.
          4    1    6    6  503    0 -0.16122086536E+03  0.64885989169E+02  0.26649836553E+03  0.31815678186E+03  0.00000000000E+00 0. -1.
         -4    1    6    6    0  503 -0.24711119063E+03  0.26731576930E+02  0.26853538210E+03  0.36590950955E+03  0.00000000000E+00 0.  1.
<mgrwt>
<rscale>  0 0.21219682E+04</rscale>
<asrwt>0</asrwt>
<pdfrwt beam="1">  1        1 0.47771527E+00 0.21219682E+04</pdfrwt>
<pdfrwt beam="2">  1       -2 0.55772729E-01 0.21219682E+04</pdfrwt>
<totfact> 0.12205201E+00</totfact>
</mgrwt>
</event>
<event>
12    4  0.4183215E-008  0.1390822E+04  0.7818608E-02  0.8960489E-01
          1   -1    0    0  501    0  0.00000000000E+00  0.00000000000E+00  0.17061599757E+04  0.17061599757E+04  0.00000000000E+00 0. -1.
         -2   -1    0    0    0  501 -0.00000000000E+00 -0.00000000000E+00 -0.28344127498E+03  0.28344127498E+03  0.00000000000E+00 0.  1.
        -24    2    1    2    0    0 -0.20789159274E+03  0.31339263051E+03  0.58371138737E+03  0.69914798316E+03  0.81578572032E+02 0.  0.
        254    2    1    2    0    0  0.20789159274E+03 -0.31339263051E+03  0.83900731337E+03  0.12904532675E+04  0.90548468160E+03 0.  0.
         23    2    4    4    0    0 -0.13256775833E+03 -0.19770193168E+03  0.88077440099E+03  0.91698927040E+03  0.91899468133E+02 0.  0.
         23    2    4    4    0    0  0.34045935107E+03 -0.11569069883E+03 -0.41767087628E+02  0.37346399713E+03  0.91836594112E+02 0.  0.
          1    1    3    3  502    0  0.43669190966E+01  0.29797701047E+02  0.36975364906E+02  0.47688054899E+02  0.00000000000E+00 0. -1.
         -2    1    3    3    0  502 -0.21225851184E+03  0.28359492946E+03  0.54673602246E+03  0.65145992826E+03  0.00000000000E+00 0.  1.
         11    1    5    5    0    0  0.98765630861E+01 -0.45221990340E+02  0.14612990812E+03  0.15328576241E+03  0.00000000000E+00 0.  1.
        -11    1    5    5    0    0 -0.14244432141E+03 -0.15247994134E+03  0.73464449287E+03  0.76370350799E+03  0.00000000000E+00 0. -1.
          1    1    6    6  503    0  0.19640105453E+03 -0.21608916066E+02 -0.38913618146E+02  0.20138170014E+03  0.00000000000E+00 0. -1.
         -1    1    6    6    0  503  0.14405829654E+03 -0.94081782762E+02 -0.28534694817E+01  0.17208229699E+03  0.00000000000E+00 0.  1.
<mgrwt>
<rscale>  0 0.13908216E+04</rscale>
<asrwt>0</asrwt>
<pdfrwt beam="1">  1        1 0.26248614E+00 0.13908216E+04</pdfrwt>
<pdfrwt beam="2">  1       -2 0.43606351E-01 0.13908216E+04</pdfrwt>
<totfact> 0.20161623E+01</totfact>
</mgrwt>
</event>
<event>
12    4  0.4183215E-008  0.2301933E+04  0.7818608E-02  0.8477159E-01
         -2   -1    0    0    0  501 -0.00000000000E+00  0.00000000000E+00  0.20886657084E+04  0.20886657084E+04  0.00000000000E+00 0.  1.
          1   -1    0    0  501    0  0.00000000000E+00 -0.00000000000E+00 -0.63424426661E+03  0.63424426661E+03  0.00000000000E+00 0. -1.
        -24    2    1    2    0    0  0.13820744992E+03 -0.10499079579E+03  0.17559779478E+04  0.17670728514E+04  0.94675987595E+02 0.  0.
        254    2    1    2    0    0 -0.13820744992E+03  0.10499079579E+03 -0.30155650598E+03  0.95583712363E+03  0.89026058781E+03 0.  0.
         23    2    4    4    0    0  0.30846889841E+03  0.17889465506E+03 -0.32719404169E+03  0.49328853765E+03  0.95505400713E+02 0.  0.
         23    2    4    4    0    0 -0.44667634833E+03 -0.73903859270E+02  0.25637535711E+02  0.46254858598E+03  0.91172202937E+02 0.  0.
          1    1    3    3  502    0  0.71652410521E+01  0.14942857527E+02  0.79443877154E+02  0.81153923427E+02  0.00000000000E+00 0. -1.
         -2    1    3    3    0  502  0.13104220887E+03 -0.11993365332E+03  0.16765340706E+04  0.16859189280E+04  0.00000000000E+00 0.  1.
         11    1    5    5    0    0  0.16115531392E+03  0.14762963113E+03 -0.19193570434E+03  0.29086914204E+03  0.00000000000E+00 0.  1.
        -11    1    5    5    0    0  0.14731358448E+03  0.31265023936E+02 -0.13525833735E+03  0.20241939561E+03  0.00000000000E+00 0. -1.
          3    1    6    6  503    0 -0.19879795893E+03 -0.11634133163E+02  0.51424701196E+02  0.20567080838E+03  0.00000000000E+00 0. -1.
         -3    1    6    6    0  503 -0.24787838940E+03 -0.62269726107E+02 -0.25787165485E+02  0.25687777760E+03  0.00000000000E+00 0.  1.
<mgrwt>
<rscale>  0 0.23019333E+04</rscale>
<asrwt>0</asrwt>
<pdfrwt beam="1">  1        1 0.97576042E-01 0.23019333E+04</pdfrwt>
<pdfrwt beam="2">  1       -2 0.32133318E+00 0.23019333E+04</pdfrwt>
<totfact> 0.58796099E-01</totfact>
</mgrwt>
</event>
<event>
12    4  0.4183215E-008  0.1248129E+04  0.7818608E-02  0.9071742E-01
          1   -1    0    0  501    0  0.00000000000E+00  0.00000000000E+00  0.83970146045E+03  0.83970146045E+03  0.00000000000E+00 0. -1.
         -2   -1    0    0    0  501 -0.00000000000E+00 -0.00000000000E+00 -0.46380349407E+03  0.46380349407E+03  0.00000000000E+00 0.  1.
        -24    2    1    2    0    0 -0.23342663589E+02 -0.23955850944E+03  0.25000278305E+03  0.35846405855E+03  0.89788252857E+02 0.  0.
        254    2    1    2    0    0  0.23342663589E+02  0.23955850944E+03  0.12589518333E+03  0.94504089597E+03  0.90516271382E+03 0.  0.
         23    2    4    4    0    0 -0.40317162291E+03 -0.35114686960E+02 -0.55098014686E+00  0.41488844430E+03  0.91387739175E+02 0.  0.
         23    2    4    4    0    0  0.42651428650E+03  0.27467319640E+03  0.12644616347E+03  0.53015245168E+03  0.87824759340E+02 0.  0.
          3    1    3    3  502    0  0.21574632990E+02 -0.10095423855E+03  0.14864119018E+03  0.18097355190E+03  0.00000000000E+00 0. -1.
         -4    1    3    3    0  502 -0.44917296579E+02 -0.13860427089E+03  0.10136159287E+03  0.17749050665E+03  0.00000000000E+00 0.  1.
         11    1    5    5    0    0 -0.34755302958E+03 -0.61707033334E+02 -0.56029282286E+01  0.35303294341E+03  0.00000000000E+00 0. -1.
        -11    1    5    5    0    0 -0.55618593334E+02  0.26592346374E+02  0.50519480817E+01  0.61855500884E+02  0.00000000000E+00 0.  1.
          4    1    6    6  503    0  0.38305496517E+03  0.24388476541E+03  0.13999841750E+03  0.47519516206E+03  0.00000000000E+00 0. -1.
         -4    1    6    6    0  503  0.43459321328E+02  0.30788430989E+02 -0.13552254024E+02  0.54957289618E+02  0.00000000000E+00 0.  1.
<mgrwt>
<rscale>  0 0.12481290E+04</rscale>
<asrwt>0</asrwt>
<pdfrwt beam="1">  1        1 0.12918484E+00 0.12481290E+04</pdfrwt>
<pdfrwt beam="2">  1       -2 0.71354384E-01 0.12481290E+04</pdfrwt>
<totfact> 0.31485141E+01</totfact>
</mgrwt>
</event>
<event>
12    4  0.4183215E-008  0.1585536E+04  0.7818608E-02  0.8829483E-01
          1   -1    0    0  501    0  0.00000000000E+00  0.00000000000E+00  0.68825369628E+03  0.68825369628E+03  0.00000000000E+00 0. -1.
         -2   -1    0    0    0  501 -0.00000000000E+00 -0.00000000000E+00 -0.91315364072E+03  0.91315364072E+03  0.00000000000E+00 0.  1.
        -24    2    1    2    0    0 -0.73989041290E+01 -0.91017114062E+02  0.45126345628E+03  0.46704169216E+03  0.78424335596E+02 0.  0.
        254    2    1    2    0    0  0.73989041290E+01  0.91017114062E+02 -0.67616340071E+03  0.11343656448E+04  0.90622823443E+03 0.  0.
         23    2    4    4    0    0  0.30094154391E+03  0.16263637482E+03  0.36782923104E+02  0.35470373813E+03  0.86286471400E+02 0.  0.
         23    2    4    4    0    0 -0.29354263978E+03 -0.71619260758E+02 -0.71294632382E+03  0.77966190670E+03  0.91014439708E+02 0.  0.
          1    1    3    3  502    0 -0.47769444514E+01 -0.23223363708E+02  0.30375702236E+03  0.30468093549E+03  0.00000000000E+00 0. -1.
         -2    1    3    3    0  502 -0.26219596776E+01 -0.67793750354E+02  0.14750643392E+03  0.16236075667E+03  0.00000000000E+00 0.  1.
         11    1    5    5    0    0  0.26636343336E+03  0.10654417141E+03  0.31224658439E+02  0.28857601839E+03  0.00000000000E+00 0. -1.
        -11    1    5    5    0    0  0.34578110551E+02  0.56092203411E+02  0.55582646653E+01  0.66127719747E+02  0.00000000000E+00 0.  1.
          1    1    6    6  503    0 -0.26803944140E+03 -0.34317073598E+02 -0.61896522219E+03  0.67538192896E+03  0.00000000000E+00 0. -1.
         -1    1    6    6    0  503 -0.25503198388E+02 -0.37302187160E+02 -0.93981101623E+02  0.10427997774E+03  0.00000000000E+00 0.  1.
<mgrwt>
<rscale>  0 0.15855363E+04</rscale>
<asrwt>0</asrwt>
<pdfrwt beam="1">  1        1 0.10588518E+00 0.15855363E+04</pdfrwt>
<pdfrwt beam="2">  1       -2 0.14048518E+00 0.15855363E+04</pdfrwt>
<totfact> 0.83650076E+00</totfact>
</mgrwt>
</event>
<event>
12    4  0.4183215E-008  0.1433462E+04  0.7818608E-02  0.8929947E-01
         -2   -1    0    0    0  501 -0.00000000000E+00  0.00000000000E+00  0.91843873339E+03  0.91843873339E+03  0.00000000000E+00 0.  1.
          1   -1    0    0  501    0  0.00000000000E+00 -0.00000000000E+00 -0.55932235885E+03  0.55932235885E+03  0.00000000000E+00 0. -1.
        -24    2    1    2    0    0 -0.23381417118E+02 -0.33939187585E+03 -0.15664843640E+03  0.38234947726E+03  0.76934089152E+02 0.  0.
        254    2    1    2    0    0  0.23381417118E+02  0.33939187585E+03  0.51576481094E+03  0.10954116150E+04  0.90453287944E+03 0.  0.
         23    2    4    4    0    0 -0.29161435432E+03  0.68929887764E+02  0.58708741568E+03  0.66494182245E+03  0.87668309662E+02 0.  0.
         23    2    4    4    0    0  0.31499577144E+03  0.27046198809E+03 -0.71322604744E+02  0.43046979253E+03  0.88573728129E+02 0.  0.
          1    1    3    3  502    0 -0.68488876085E+00 -0.97346395405E+02 -0.84107573598E+02  0.12865019902E+03  0.00000000000E+00 0. -1.
         -2    1    3    3    0  502 -0.22696528357E+02 -0.24204548045E+03 -0.72540862803E+02  0.25369927824E+03  0.00000000000E+00 0.  1.
         11    1    5    5    0    0 -0.26385086547E+03  0.31888311276E+02  0.50711194537E+03  0.57253529913E+03  0.00000000000E+00 0.  1.
        -11    1    5    5    0    0 -0.27763488851E+02  0.37041576488E+02  0.79975470308E+02  0.92406523324E+02  0.00000000000E+00 0. -1.
          1    1    6    6  503    0  0.32885027348E+01  0.29253569352E+02  0.22592569508E+01  0.29524393508E+02  0.00000000000E+00 0. -1.
         -1    1    6    6    0  503  0.31170726870E+03  0.24120841874E+03 -0.73581861695E+02  0.40094539903E+03  0.00000000000E+00 0.  1.
<mgrwt>
<rscale>  0 0.14334620E+04</rscale>
<asrwt>0</asrwt>
<pdfrwt beam="1">  1        1 0.86049593E-01 0.14334620E+04</pdfrwt>
<pdfrwt beam="2">  1       -2 0.14129827E+00 0.14334620E+04</pdfrwt>
<totfact> 0.11292318E+01</totfact>
</mgrwt>
</event>
<event>
12    4  0.4183215E-008  0.1205717E+04  0.7818608E-02  0.9107867E-01
          1   -1    0    0  501    0  0.00000000000E+00  0.00000000000E+00  0.57383785259E+03  0.57383785259E+03  0.00000000000E+00 0. -1.
         -2   -1    0    0    0  501 -0.00000000000E+00 -0.00000000000E+00 -0.63334684744E+03  0.63334684744E+03  0.00000000000E+00 0.  1.
        -24    2    1    2    0    0  0.11818035303E+03 -0.18498349016E+02  0.18368621452E+03  0.23298528448E+03  0.78947657471E+02 0.  0.
        254    2    1    2    0    0 -0.11818035303E+03  0.18498349016E+02 -0.24319520937E+03  0.97419941556E+03  0.93574131397E+03 0.  0.
         23    2    4    4    0    0 -0.41744175480E+03  0.18939894995E+03 -0.36996781926E+03  0.59607754546E+03  0.91118999258E+02 0.  0.
         23    2    4    4    0    0  0.29926140177E+03 -0.17090060093E+03  0.12677260989E+03  0.37812187010E+03  0.90224453675E+02 0.  0.
          1    1    3    3  502    0  0.56355881329E+02 -0.23544847799E+01  0.15104548701E+03  0.16123358244E+03  0.00000000000E+00 0. -1.
         -2    1    3    3    0  502  0.61824471699E+02 -0.16143864236E+02  0.32640727507E+02  0.71751702039E+02  0.00000000000E+00 0.  1.
         11    1    5    5    0    0 -0.33492746678E+03  0.15577103884E+03 -0.34009086406E+03  0.50209841701E+03  0.00000000000E+00 0. -1.
        -11    1    5    5    0    0 -0.82514288023E+02  0.33627911102E+02 -0.29876955197E+02  0.93979128453E+02  0.00000000000E+00 0.  1.
          1    1    6    6  503    0  0.28754081159E+03 -0.17342353272E+03  0.13670633010E+03  0.36255214896E+03  0.00000000000E+00 0. -1.
         -1    1    6    6    0  503  0.11720590186E+02  0.25229317915E+01 -0.99337202072E+01  0.15569721137E+02  0.00000000000E+00 0.  1.
<mgrwt>
<rscale>  0 0.12057170E+04</rscale>
<asrwt>0</asrwt>
<pdfrwt beam="1">  1        1 0.88282747E-01 0.12057170E+04</pdfrwt>
<pdfrwt beam="2">  1       -2 0.97437976E-01 0.12057170E+04</pdfrwt>
<totfact> 0.27766485E+01</totfact>
</mgrwt>
</event>
<event>
12    4  0.4183215E-008  0.1155961E+04  0.7818608E-02  0.9152302E-01
          1   -1    0    0  501    0  0.00000000000E+00  0.00000000000E+00  0.15049388927E+04  0.15049388927E+04  0.00000000000E+00 0. -1.
         -2   -1    0    0    0  501 -0.00000000000E+00 -0.00000000000E+00 -0.22197682857E+03  0.22197682857E+03  0.00000000000E+00 0.  1.
        -24    2    1    2    0    0  0.19028028882E+03 -0.28999605757E+02  0.25885250963E+03  0.33189869465E+03  0.78131660194E+02 0.  0.
        254    2    1    2    0    0 -0.19028028882E+03  0.28999605757E+02  0.10241095545E+04  0.13950170266E+04  0.92748291599E+03 0.  0.
         23    2    4    4    0    0 -0.42699719928E+03  0.14309828751E+03  0.10183100689E+04  0.11175265744E+04  0.95428088102E+02 0.  0.
         23    2    4    4    0    0  0.23671691047E+03 -0.11409868175E+03  0.57994856122E+01  0.27749045221E+03  0.88960171741E+02 0.  0.
          1    1    3    3  502    0  0.18558761592E+03 -0.43681505610E+02  0.22650420081E+03  0.29606585433E+03  0.00000000000E+00 0. -1.
         -2    1    3    3    0  502  0.46926728971E+01  0.14681899854E+02  0.32348308815E+02  0.35832840320E+02  0.00000000000E+00 0.  1.
         11    1    5    5    0    0 -0.63567346166E+02  0.33443722095E+02  0.25660497614E+03  0.26646839179E+03  0.00000000000E+00 0. -1.
        -11    1    5    5    0    0 -0.36342985312E+03  0.10965456541E+03  0.76170509273E+03  0.85105818258E+03  0.00000000000E+00 0.  1.
          4    1    6    6  503    0  0.14543627753E+03 -0.80788127362E+02  0.45572075537E+02  0.17249709103E+03  0.00000000000E+00 0. -1.
         -4    1    6    6    0  503  0.91280632935E+02 -0.33310554390E+02 -0.39772589924E+02  0.10499336118E+03  0.00000000000E+00 0.  1.
<mgrwt>
<rscale>  0 0.11559612E+04</rscale>
<asrwt>0</asrwt>
<pdfrwt beam="1">  1        1 0.23152905E+00 0.11559612E+04</pdfrwt>
<pdfrwt beam="2">  1       -2 0.34150282E-01 0.11559612E+04</pdfrwt>
<totfact> 0.45392141E+01</totfact>
</mgrwt>
</event>
<event>
12    4  0.4183215E-008  0.1665828E+04  0.7818608E-02  0.8781097E-01
          1   -1    0    0  501    0  0.00000000000E+00  0.00000000000E+00  0.18214556155E+04  0.18214556155E+04  0.00000000000E+00 0. -1.
         -2   -1    0    0    0  501 -0.00000000000E+00 -0.00000000000E+00 -0.38087435556E+03  0.38087435556E+03  0.00000000000E+00 0.  1.
        -24    2    1    2    0    0  0.45939669807E+03 -0.13536656161E+03  0.88001563330E+03  0.10049023151E+04  0.77664121601E+02 0.  0.
        254    2    1    2    0    0 -0.45939669807E+03  0.13536656161E+03  0.56056562663E+03  0.11974276560E+04  0.94351986589E+03 0.  0.
         23    2    4    4    0    0 -0.63436925376E+03  0.66935231860E+02  0.49781373330E+02  0.64558641990E+03  0.86017236926E+02 0.  0.
         23    2    4    4    0    0  0.17497255570E+03  0.68431329749E+02  0.51078425330E+03  0.55184123607E+03  0.91268583145E+02 0.  0.
          3    1    3    3  502    0  0.13780363425E+03 -0.35797109034E+02  0.19297824931E+03  0.23981634501E+03  0.00000000000E+00 0. -1.
         -4    1    3    3    0  502  0.32159306382E+03 -0.99569452575E+02  0.68703738400E+03  0.76508597006E+03  0.00000000000E+00 0.  1.
         11    1    5    5    0    0 -0.59053713160E+03  0.76606750016E+02  0.62962538515E+02  0.59880462523E+03  0.00000000000E+00 0. -1.
        -11    1    5    5    0    0 -0.43832122168E+02 -0.96715181562E+01 -0.13181165185E+02  0.46781794673E+02  0.00000000000E+00 0.  1.
          3    1    6    6  503    0  0.25352066700E+02 -0.18968197946E+02  0.46321520652E+02  0.56108850414E+02  0.00000000000E+00 0.  1.
         -3    1    6    6    0  503  0.14962048900E+03  0.87399527695E+02  0.46446273265E+03  0.49573238566E+03  0.00000000000E+00 0. -1.
<mgrwt>
<rscale>  0 0.16658280E+04</rscale>
<asrwt>0</asrwt>
<pdfrwt beam="1">  1        1 0.28022394E+00 0.16658280E+04</pdfrwt>
<pdfrwt beam="2">  1       -2 0.58596056E-01 0.16658280E+04</pdfrwt>
<totfact> 0.89867585E+00</totfact>
</mgrwt>
</event>
<event>
12    4  0.4183215E-008  0.1158794E+04  0.7818608E-02  0.9149709E-01
          1   -1    0    0  501    0  0.00000000000E+00  0.00000000000E+00  0.15444078969E+04  0.15444078969E+04  0.00000000000E+00 0. -1.
         -2   -1    0    0    0  501 -0.00000000000E+00 -0.00000000000E+00 -0.21736528650E+03  0.21736528650E+03  0.00000000000E+00 0.  1.
        -24    2    1    2    0    0  0.62458472710E+02  0.12891275319E+03  0.81411634613E+01  0.16508177797E+03  0.81646531628E+02 0.  0.
        254    2    1    2    0    0 -0.62458472710E+02 -0.12891275319E+03  0.13189014469E+04  0.15966914054E+04  0.88848345999E+03 0.  0.
         23    2    4    4    0    0  0.96592822012E+02 -0.47540217439E+03  0.59093541214E+03  0.76982628266E+03  0.89946892527E+02 0.  0.
         23    2    4    4    0    0 -0.15905129472E+03  0.34648942120E+03  0.72796603478E+03  0.82686512275E+03  0.91755926610E+02 0.  0.
          3    1    3    3  502    0 -0.20030772099E+02  0.28055518595E+02  0.42044434666E+01  0.34727817372E+02  0.00000000000E+00 0. -1.
         -4    1    3    3    0  502  0.82489244810E+02  0.10085723460E+03  0.39367199947E+01  0.13035396060E+03  0.00000000000E+00 0.  1.
         11    1    5    5    0    0  0.60245789264E+02 -0.21488901493E+03  0.33712559630E+03  0.40430250004E+03  0.00000000000E+00 0. -1.
        -11    1    5    5    0    0  0.36347032749E+02 -0.26051315946E+03  0.25380981584E+03  0.36552378262E+03  0.00000000000E+00 0.  1.
          2    1    6    6  503    0 -0.94992972948E+02  0.18909719664E+03  0.30673168582E+03  0.37264693985E+03  0.00000000000E+00 0. -1.
         -2    1    6    6    0  503 -0.64058321774E+02  0.15739222456E+03  0.42123434895E+03  0.45421818290E+03  0.00000000000E+00 0.  1.
<mgrwt>
<rscale>  0 0.11587936E+04</rscale>
<asrwt>0</asrwt>
<pdfrwt beam="1">  1        1 0.23760121E+00 0.11587936E+04</pdfrwt>
<pdfrwt beam="2">  1       -2 0.33440814E-01 0.11587936E+04</pdfrwt>
<totfact> 0.44361355E+01</totfact>
</mgrwt>
</event>
<event>
12    4  0.4183215E-008  0.2791328E+04  0.7818608E-02  0.8305966E-01
          1   -1    0    0  501    0  0.00000000000E+00  0.00000000000E+00  0.24391959954E+04  0.24391959954E+04  0.00000000000E+00 0. -1.
         -2   -1    0    0    0  501 -0.00000000000E+00 -0.00000000000E+00 -0.79857356004E+03  0.79857356004E+03  0.00000000000E+00 0.  1.
        -24    2    1    2    0    0 -0.59534953741E+03 -0.12782490255E+03  0.20021139834E+04  0.20942491914E+04  0.81480032307E+02 0.  0.
        254    2    1    2    0    0  0.59534953741E+03  0.12782490255E+03 -0.36149154809E+03  0.11435203640E+04  0.89787660964E+03 0.  0.
         23    2    4    4    0    0  0.44469187779E+03  0.49101994656E+03 -0.13911016330E+03  0.68282108594E+03  0.89674655203E+02 0.  0.
         23    2    4    4    0    0  0.15065765962E+03 -0.36319504401E+03 -0.22238138479E+03  0.46069927806E+03  0.90454265313E+02 0.  0.
          3    1    3    3  502    0 -0.40473060913E+03 -0.63324565716E+02  0.14430675425E+04  0.15000869304E+04  0.00000000000E+00 0. -1.
         -4    1    3    3    0  502 -0.19061892828E+03 -0.64500336835E+02  0.55904644091E+03  0.59416226098E+03  0.00000000000E+00 0.  1.
         11    1    5    5    0    0  0.44187969050E+03  0.46217291368E+03 -0.13539412427E+03  0.65360005500E+03  0.00000000000E+00 0. -1.
        -11    1    5    5    0    0  0.28121872957E+01  0.28847032877E+02 -0.37160390238E+01  0.29221030940E+02  0.00000000000E+00 0.  1.
          4    1    6    6  503    0  0.19682743514E+02 -0.14641542363E+03 -0.57738644935E+02  0.15861474644E+03  0.00000000000E+00 0. -1.
         -4    1    6    6    0  503  0.13097491611E+03 -0.21677962038E+03 -0.16464273985E+03  0.30208453162E+03  0.00000000000E+00 0.  1.
<mgrwt>
<rscale>  0 0.27913276E+04</rscale>
<asrwt>0</asrwt>
<pdfrwt beam="1">  1        1 0.37526092E+00 0.27913276E+04</pdfrwt>
<pdfrwt beam="2">  1       -2 0.12285747E+00 0.27913276E+04</pdfrwt>
<totfact> 0.56935014E-01</totfact>
</mgrwt>
</event>
<event>
12    4  0.4183215E-008  0.1844108E+04  0.7818608E-02  0.8683189E-01
          1   -1    0    0  501    0  0.00000000000E+00  0.00000000000E+00  0.10796422471E+04  0.10796422471E+04  0.00000000000E+00 0. -1.
         -2   -1    0    0    0  501 -0.00000000000E+00 -0.00000000000E+00 -0.78746799334E+03  0.78746799334E+03  0.00000000000E+00 0.  1.
        -24    2    1    2    0    0 -0.29783849617E+03 -0.55816069902E+03  0.42350717219E+03  0.76530828100E+03  0.78021178750E+02 0.  0.
        254    2    1    2    0    0  0.29783849617E+03  0.55816069902E+03 -0.13133291841E+03  0.11018019595E+04  0.89245060743E+03 0.  0.
         23    2    4    4    0    0 -0.21277671318E+03  0.52171714159E+03 -0.26075652581E+02  0.57115636764E+03  0.89871859513E+02 0.  0.
         23    2    4    4    0    0  0.51061520935E+03  0.36443557428E+02 -0.10525726582E+03  0.53064559183E+03  0.91921853876E+02 0.  0.
          3    1    3    3  502    0 -0.23238604235E+03 -0.48969210736E+03  0.34748990967E+03  0.64385624949E+03  0.00000000000E+00 0. -1.
         -4    1    3    3    0  502 -0.65452453820E+02 -0.68468591661E+02  0.76017262524E+02  0.12145203150E+03  0.00000000000E+00 0.  1.
         11    1    5    5    0    0 -0.29771679960E+02  0.14391244823E+03  0.22079895132E+02  0.14860910958E+03  0.00000000000E+00 0. -1.
        -11    1    5    5    0    0 -0.18300503322E+03  0.37780469336E+03 -0.48155547712E+02  0.42254725805E+03  0.00000000000E+00 0.  1.
          3    1    6    6  503    0  0.68682130849E+02  0.14632743946E+02 -0.46658691760E+02  0.84311243675E+02  0.00000000000E+00 0. -1.
         -3    1    6    6    0  503  0.44193307850E+03  0.21810813482E+02 -0.58598574065E+02  0.44633434816E+03  0.00000000000E+00 0.  1.
<mgrwt>
<rscale>  0 0.18441081E+04</rscale>
<asrwt>0</asrwt>
<pdfrwt beam="1">  1        1 0.16609881E+00 0.18441081E+04</pdfrwt>
<pdfrwt beam="2">  1       -2 0.12114892E+00 0.18441081E+04</pdfrwt>
<totfact> 0.56150554E+00</totfact>
</mgrwt>
</event>
<event>
12    4  0.4183215E-008  0.1396193E+04  0.7818608E-02  0.8956579E-01
         -2   -1    0    0    0  501 -0.00000000000E+00  0.00000000000E+00  0.59787439663E+03  0.59787439663E+03  0.00000000000E+00 0.  1.
          1   -1    0    0  501    0  0.00000000000E+00 -0.00000000000E+00 -0.81511883517E+03  0.81511883517E+03  0.00000000000E+00 0. -1.
        -24    2    1    2    0    0 -0.30941294488E+02 -0.29069990292E+02 -0.46361147150E+03  0.47242004356E+03  0.80266263199E+02 0.  0.
        254    2    1    2    0    0  0.30941294488E+02  0.29069990292E+02  0.24636703296E+03  0.94057318825E+03  0.90674074546E+03 0.  0.
         23    2    4    4    0    0 -0.23759342127E+03  0.20807566564E+03  0.44267328855E+03  0.55225225437E+03  0.96316123246E+02 0.  0.
         23    2    4    4    0    0  0.26853471576E+03 -0.17900567535E+03 -0.19630625558E+03  0.38832093388E+03  0.90017089132E+02 0.  0.
          1    1    3    3  502    0 -0.25602074013E+02 -0.56335481420E+02 -0.28319083179E+03  0.28987273047E+03  0.00000000000E+00 0. -1.
         -2    1    3    3    0  502 -0.53392204750E+01  0.27265491128E+02 -0.18042063972E+03  0.18254731309E+03  0.00000000000E+00 0.  1.
         11    1    5    5    0    0 -0.21667726267E+03  0.20176058844E+03  0.35678765246E+03  0.46363110352E+03  0.00000000000E+00 0. -1.
        -11    1    5    5    0    0 -0.20916158600E+02  0.63150771978E+01  0.85885636087E+02  0.88621150843E+02  0.00000000000E+00 0.  1.
          4    1    6    6  503    0  0.20937111141E+03 -0.11869208164E+03 -0.10113829616E+03  0.26106134813E+03  0.00000000000E+00 0. -1.
         -4    1    6    6    0  503  0.59163604347E+02 -0.60313593706E+02 -0.95167959420E+02  0.12725958575E+03  0.00000000000E+00 0.  1.
<mgrwt>
<rscale>  0 0.13961929E+04</rscale>
<asrwt>0</asrwt>
<pdfrwt beam="1">  1        1 0.12540290E+00 0.13961929E+04</pdfrwt>
<pdfrwt beam="2">  1       -2 0.91980677E-01 0.13961929E+04</pdfrwt>
<totfact> 0.18420786E+01</totfact>
</mgrwt>
</event>
<event>
12    4  0.4183215E-008  0.1828924E+04  0.7818608E-02  0.8691068E-01
          1   -1    0    0  501    0  0.00000000000E+00  0.00000000000E+00  0.86285183640E+03  0.86285183640E+03  0.00000000000E+00 0. -1.
         -2   -1    0    0    0  501 -0.00000000000E+00 -0.00000000000E+00 -0.96915868789E+03  0.96915868789E+03  0.00000000000E+00 0.  1.
        -24    2    1    2    0    0  0.11466183950E+03 -0.38419603949E+03  0.52177313006E+03  0.66273698510E+03  0.78861764930E+02 0.  0.
        254    2    1    2    0    0 -0.11466183950E+03  0.38419603949E+03 -0.62807998155E+03  0.11692735392E+04  0.90108945839E+03 0.  0.
         23    2    4    4    0    0 -0.99911340261E+02 -0.77782107452E+02 -0.67718767327E+03  0.69478378969E+03  0.90050193952E+02 0.  0.
         23    2    4    4    0    0 -0.14750499240E+02  0.46197814694E+03  0.49107691719E+02  0.47448974950E+03  0.95328754927E+02 0.  0.
          3    1    3    3  502    0  0.44882680290E+02 -0.15725663379E+03  0.27741369453E+03  0.32202866608E+03  0.00000000000E+00 0. -1.
         -4    1    3    3    0  502  0.69779159211E+02 -0.22693940570E+03  0.24435943553E+03  0.34070831902E+03  0.00000000000E+00 0.  1.
         11    1    5    5    0    0 -0.89516354171E+02 -0.85356712831E+02 -0.43468473376E+03  0.45194000028E+03  0.00000000000E+00 0. -1.
        -11    1    5    5    0    0 -0.10394986090E+02  0.75746053791E+01 -0.24250293951E+03  0.24284378941E+03  0.00000000000E+00 0.  1.
          3    1    6    6  503    0  0.37005996840E+02  0.26756109577E+03  0.15865281077E+02  0.27057363308E+03  0.00000000000E+00 0. -1.
         -3    1    6    6    0  503 -0.51756496081E+02  0.19441705117E+03  0.33242410642E+02  0.20391611643E+03  0.00000000000E+00 0.  1.
<mgrwt>
<rscale>  0 0.18289236E+04</rscale>
<asrwt>0</asrwt>
<pdfrwt beam="1">  1        1 0.13274644E+00 0.18289236E+04</pdfrwt>
<pdfrwt beam="2">  1       -2 0.14910134E+00 0.18289236E+04</pdfrwt>
<totfact> 0.49037121E+00</totfact>
</mgrwt>
</event>
<event>
12    4  0.4183215E-008  0.2130361E+04  0.7818608E-02  0.8547986E-01
          1   -1    0    0  501    0  0.00000000000E+00  0.00000000000E+00  0.83877994064E+03  0.83877994064E+03  0.00000000000E+00 0. -1.
         -2   -1    0    0    0  501 -0.00000000000E+00 -0.00000000000E+00 -0.13526906641E+04  0.13526906641E+04  0.00000000000E+00 0.  1.
        -24    2    1    2    0    0  0.22547284556E+03 -0.80735307866E+03  0.27023733134E+02  0.84246928609E+03  0.79794850441E+02 0.  0.
        254    2    1    2    0    0 -0.22547284556E+03  0.80735307866E+03 -0.54093445663E+03  0.13490013187E+04  0.90804045822E+03 0.  0.
         23    2    4    4    0    0  0.14620812069E+03  0.82850119627E+03 -0.30557693795E+03  0.89954366309E+03  0.89501340965E+02 0.  0.
         23    2    4    4    0    0 -0.37168096626E+03 -0.21148117609E+02 -0.23535751868E+03  0.44945765560E+03  0.89582582116E+02 0.  0.
          1    1    3    3  502    0  0.11147541986E+03 -0.42578825944E+03  0.53400645139E+02  0.44336671053E+03  0.00000000000E+00 0. -1.
         -2    1    3    3    0  502  0.11399742570E+03 -0.38156481922E+03 -0.26376912004E+02  0.39910257556E+03  0.00000000000E+00 0.  1.
         11    1    5    5    0    0  0.32752476296E+02  0.17047228482E+03 -0.10256756050E+03  0.20162745116E+03  0.00000000000E+00 0. -1.
        -11    1    5    5    0    0  0.11345564440E+03  0.65802891145E+03 -0.20300937745E+03  0.69791621193E+03  0.00000000000E+00 0.  1.
          4    1    6    6  503    0 -0.34758223798E+03  0.40128932550E+01 -0.22005947549E+03  0.41140696181E+03  0.00000000000E+00 0.  1.
         -4    1    6    6    0  503 -0.24098728274E+02 -0.25161010864E+02 -0.15298043191E+02  0.38050693786E+02  0.00000000000E+00 0. -1.
<mgrwt>
<rscale>  0 0.21303613E+04</rscale>
<asrwt>0</asrwt>
<pdfrwt beam="1">  1        1 0.12904307E+00 0.21303613E+04</pdfrwt>
<pdfrwt beam="2">  1       -2 0.20810625E+00 0.21303613E+04</pdfrwt>
<totfact> 0.19374649E+00</totfact>
</mgrwt>
</event>
<event>
12    4  0.4183215E-008  0.1262563E+04  0.7818608E-02  0.9059792E-01
         -2   -1    0    0    0  501 -0.00000000000E+00  0.00000000000E+00  0.48975086373E+03  0.48975086373E+03  0.00000000000E+00 0.  1.
          1   -1    0    0  501    0  0.00000000000E+00 -0.00000000000E+00 -0.81371172415E+03  0.81371172415E+03  0.00000000000E+00 0. -1.
        -24    2    1    2    0    0  0.26163562636E+03 -0.38694425347E+02  0.66242157750E+02  0.28451160196E+03  0.81291873224E+02 0.  0.
        254    2    1    2    0    0 -0.26163562636E+03  0.38694425347E+02 -0.39020301817E+03  0.10189509859E+04  0.90335610742E+03 0.  0.
         23    2    4    4    0    0 -0.58236417346E+03  0.57615765081E+02 -0.33259073931E+03  0.67913534137E+03  0.90225301944E+02 0.  0.
         23    2    4    4    0    0  0.32072854711E+03 -0.18921339734E+02 -0.57612278864E+02  0.33981564456E+03  0.94502272909E+02 0.  0.
          1    1    3    3  502    0  0.56333542799E+02  0.10494382246E+02 -0.13447370046E+02  0.58859424599E+02  0.00000000000E+00 0. -1.
         -2    1    3    3    0  502  0.20530208356E+03 -0.49188807592E+02  0.79689527796E+02  0.22565217736E+03  0.00000000000E+00 0.  1.
         11    1    5    5    0    0 -0.42736783380E+03  0.55401496430E+02 -0.19973815352E+03  0.47498202192E+03  0.00000000000E+00 0.  1.
        -11    1    5    5    0    0 -0.15499633966E+03  0.22142686511E+01 -0.13285258579E+03  0.20415331946E+03  0.00000000000E+00 0. -1.
          2    1    6    6  503    0  0.40099993113E-01 -0.21572123569E+01  0.11194501155E+02  0.11400527588E+02  0.00000000000E+00 0. -1.
         -2    1    6    6    0  503  0.32068844711E+03 -0.16764127378E+02 -0.68806780019E+02  0.32841511697E+03  0.00000000000E+00 0.  1.
<mgrwt>
<rscale>  0 0.12625625E+04</rscale>
<asrwt>0</asrwt>
<pdfrwt beam="1">  1        1 0.12518642E+00 0.12625625E+04</pdfrwt>
<pdfrwt beam="2">  1       -2 0.75346287E-01 0.12625625E+04</pdfrwt>
<totfact> 0.29355125E+01</totfact>
</mgrwt>
</event>
<event>
12    4  0.4183215E-008  0.2170838E+04  0.7818608E-02  0.8530665E-01
         -2   -1    0    0    0  501 -0.00000000000E+00  0.00000000000E+00  0.95449758108E+03  0.95449758108E+03  0.00000000000E+00 0.  1.
          1   -1    0    0  501    0  0.00000000000E+00 -0.00000000000E+00 -0.12342978635E+04  0.12342978635E+04  0.00000000000E+00 0. -1.
        -24    2    1    2    0    0  0.59958114879E+03  0.33632363945E+03 -0.69985001824E+03  0.98389838049E+03  0.75198608121E+02 0.  0.
        254    2    1    2    0    0 -0.59958114879E+03 -0.33632363945E+03  0.42004973581E+03  0.12048970641E+04  0.89594866487E+03 0.  0.
         23    2    4    4    0    0 -0.30665903023E+03 -0.19907464302E+03 -0.25173636216E+03  0.45385520844E+03  0.94566801159E+02 0.  0.
         23    2    4    4    0    0 -0.29292211856E+03 -0.13724899643E+03  0.67178609797E+03  0.75104185566E+03  0.90147950440E+02 0.  0.
          3    1    3    3  502    0  0.10892753624E+03  0.73612347466E+02 -0.17514688287E+03  0.21899866764E+03  0.00000000000E+00 0. -1.
         -4    1    3    3    0  502  0.49065361256E+03  0.26271129198E+03 -0.52470313537E+03  0.76489971285E+03  0.00000000000E+00 0.  1.
         11    1    5    5    0    0  0.47288240410E+01 -0.11913491102E+02 -0.19524269564E+01  0.12965531924E+02  0.00000000000E+00 0. -1.
        -11    1    5    5    0    0 -0.31138785427E+03 -0.18716115192E+03 -0.24978393520E+03  0.44088967652E+03  0.00000000000E+00 0.  1.
          2    1    6    6  503    0 -0.49332291444E+02 -0.64933480209E+02  0.15334072791E+03  0.17367616609E+03  0.00000000000E+00 0. -1.
         -2    1    6    6    0  503 -0.24358982712E+03 -0.72315516219E+02  0.51844537005E+03  0.57736568957E+03  0.00000000000E+00 0.  1.
<mgrwt>
<rscale>  0 0.21708379E+04</rscale>
<asrwt>0</asrwt>
<pdfrwt beam="1">  1        1 0.18989198E+00 0.21708379E+04</pdfrwt>
<pdfrwt beam="2">  1       -2 0.14684578E+00 0.21708379E+04</pdfrwt>
<totfact> 0.25640300E+00</totfact>
</mgrwt>
</event>
<event>
12    4  0.4183215E-008  0.1702105E+04  0.7818608E-02  0.8760165E-01
          1   -1    0    0  501    0  0.00000000000E+00  0.00000000000E+00  0.48961652746E+03  0.48961652746E+03  0.00000000000E+00 0. -1.
         -2   -1    0    0    0  501 -0.00000000000E+00 -0.00000000000E+00 -0.14793007842E+04  0.14793007842E+04  0.00000000000E+00 0.  1.
        -24    2    1    2    0    0  0.59151772805E+02 -0.51465688022E+03 -0.75529787334E+03  0.91917075544E+03  0.77648976826E+02 0.  0.
        254    2    1    2    0    0 -0.59151772805E+02  0.51465688022E+03 -0.23438638339E+03  0.10497465562E+04  0.88241725900E+03 0.  0.
         23    2    4    4    0    0  0.86435905790E+02 -0.37215941850E+02 -0.42108423030E+03  0.44190161297E+03  0.95440632835E+02 0.  0.
         23    2    4    4    0    0 -0.14558767860E+03  0.55187282207E+03  0.18669784691E+03  0.60784494324E+03  0.94127600049E+02 0.  0.
          1    1    3    3  502    0 -0.45216124572E+01 -0.72544566534E+02 -0.68366668605E+02  0.99785572549E+02  0.00000000000E+00 0. -1.
         -2    1    3    3    0  502  0.63673385262E+02 -0.44211231368E+03 -0.68693120474E+03  0.81938518289E+03  0.00000000000E+00 0.  1.
         11    1    5    5    0    0  0.13828400151E+02 -0.25475128718E+02 -0.29119157633E+03  0.29263072457E+03  0.00000000000E+00 0. -1.
        -11    1    5    5    0    0  0.72607505640E+02 -0.11740813132E+02 -0.12989265397E+03  0.14927088840E+03  0.00000000000E+00 0.  1.
          4    1    6    6  503    0 -0.43395251188E+02  0.34506312327E+03  0.11163338019E+03  0.36525842693E+03  0.00000000000E+00 0. -1.
         -4    1    6    6    0  503 -0.10219242741E+03  0.20680969879E+03  0.75064466721E+02  0.24258651632E+03  0.00000000000E+00 0.  1.
<mgrwt>
<rscale>  0 0.17021047E+04</rscale>
<asrwt>0</asrwt>
<pdfrwt beam="1">  1        1 0.75325622E-01 0.17021047E+04</pdfrwt>
<pdfrwt beam="2">  1       -2 0.22758473E+00 0.17021047E+04</pdfrwt>
<totfact> 0.33604352E+00</totfact>
</mgrwt>
</event>
<event>
12    4  0.4183215E-008  0.1350322E+04  0.7818608E-02  0.8990584E-01
          1   -1    0    0  501    0  0.00000000000E+00  0.00000000000E+00  0.12226901962E+03  0.12226901962E+03  0.00000000000E+00 0. -1.
         -2   -1    0    0    0  501 -0.00000000000E+00 -0.00000000000E+00 -0.37281947004E+04  0.37281947004E+04  0.00000000000E+00 0.  1.
        -24    2    1    2    0    0  0.16282613664E+03 -0.23508400064E+03 -0.35940409468E+03  0.47011056714E+03  0.10027863152E+03 0.  0.
        254    2    1    2    0    0 -0.16282613664E+03  0.23508400064E+03 -0.32465215861E+04  0.33803531528E+04  0.89727821267E+03 0.  0.
         23    2    4    4    0    0  0.14290116909E+02 -0.96172858871E+02 -0.27373080885E+04  0.27405449078E+04  0.90980184019E+02 0.  0.
         23    2    4    4    0    0 -0.17711625355E+03  0.33125685951E+03 -0.50921349755E+03  0.63980824505E+03  0.94630492466E+02 0.  0.
          3    1    3    3  502    0  0.10104641788E+03 -0.13100975446E+03 -0.12879616937E+03  0.20967209537E+03  0.00000000000E+00 0. -1.
         -4    1    3    3    0  502  0.61779718763E+02 -0.10407424617E+03 -0.23060792531E+03  0.26043847178E+03  0.00000000000E+00 0.  1.
         11    1    5    5    0    0  0.10098808169E+02  0.14260860083E+02 -0.17899054539E+03  0.17984152301E+03  0.00000000000E+00 0.  1.
        -11    1    5    5    0    0  0.41913087405E+01 -0.11043371895E+03 -0.25583175431E+04  0.25607033848E+04  0.00000000000E+00 0. -1.
          2    1    6    6  503    0 -0.11781767969E+03  0.29280416138E+03 -0.43362231787E+03  0.53632415303E+03  0.00000000000E+00 0. -1.
         -2    1    6    6    0  503 -0.59298573867E+02  0.38452698126E+02 -0.75591179680E+02  0.10348409202E+03  0.00000000000E+00 0.  1.
<mgrwt>
<rscale>  0 0.13503225E+04</rscale>
<asrwt>0</asrwt>
<pdfrwt beam="1">  1        1 0.18810620E-01 0.13503225E+04</pdfrwt>
<pdfrwt beam="2">  1       -2 0.57356836E+00 0.13503225E+04</pdfrwt>
<totfact> 0.15736171E-01</totfact>
</mgrwt>
</event>
<event>
12    4  0.4183215E-008  0.1040937E+04  0.7818608E-02  0.9264751E-01
          1   -1    0    0  501    0  0.00000000000E+00  0.00000000000E+00  0.74150873660E+03  0.74150873660E+03  0.00000000000E+00 0. -1.
         -2   -1    0    0    0  501 -0.00000000000E+00 -0.00000000000E+00 -0.36531926282E+03  0.36531926282E+03  0.00000000000E+00 0.  1.
        -24    2    1    2    0    0 -0.31996741349E+01  0.81620439430E+01 -0.63581449463E+02  0.10316154559E+03  0.80764143633E+02 0.  0.
        254    2    1    2    0    0  0.31996741349E+01 -0.81620439430E+01  0.43977092325E+03  0.10036664538E+04  0.90214800822E+03 0.  0.
         23    2    4    4    0    0  0.38308346489E+03  0.15864388918E+03  0.50492731514E+02  0.42746437062E+03  0.90859493517E+02 0.  0.
         23    2    4    4    0    0 -0.37988379076E+03 -0.16680593313E+03  0.38927819173E+03  0.57620208321E+03  0.91298501257E+02 0.  0.
          1    1    3    3  502    0  0.23700145469E+02  0.18758402176E+02  0.31961333423E+01  0.30393910834E+02  0.00000000000E+00 0. -1.
         -2    1    3    3    0  502 -0.26899819604E+02 -0.10596358234E+02 -0.66777582805E+02  0.72767634755E+02  0.00000000000E+00 0.  1.
         11    1    5    5    0    0  0.20249396152E+03  0.11035481932E+03 -0.10444573904E+02  0.23084860780E+03  0.00000000000E+00 0. -1.
        -11    1    5    5    0    0  0.18058950337E+03  0.48289069864E+02  0.60937305418E+02  0.19661576282E+03  0.00000000000E+00 0.  1.
          4    1    6    6  503    0 -0.70635033910E+02 -0.72053995641E+02  0.81144741608E+02  0.12948187284E+03  0.00000000000E+00 0. -1.
         -4    1    6    6    0  503 -0.30924875685E+03 -0.94751937487E+02  0.30813345013E+03  0.44672021037E+03  0.00000000000E+00 0.  1.
<mgrwt>
<rscale>  0 0.10409369E+04</rscale>
<asrwt>0</asrwt>
<pdfrwt beam="1">  1        1 0.11407827E+00 0.10409369E+04</pdfrwt>
<pdfrwt beam="2">  1       -2 0.56202964E-01 0.10409369E+04</pdfrwt>
<totfact> 0.64928255E+01</totfact>
</mgrwt>
</event>
<event>
12    4  0.4183215E-008  0.1788425E+04  0.7818608E-02  0.8712479E-01
         -2   -1    0    0    0  501 -0.00000000000E+00  0.00000000000E+00  0.23643300427E+04  0.23643300427E+04  0.00000000000E+00 0.  1.
          1   -1    0    0  501    0  0.00000000000E+00 -0.00000000000E+00 -0.33819988986E+03  0.33819988986E+03  0.00000000000E+00 0. -1.
        -24    2    1    2    0    0  0.23287212902E+03 -0.16624802344E+03  0.16672996544E+04  0.16935430137E+04  0.79573664792E+02 0.  0.
        254    2    1    2    0    0 -0.23287212902E+03  0.16624802344E+03  0.35883049849E+03  0.10089869188E+04  0.89856966452E+03 0.  0.
         23    2    4    4    0    0  0.17612953076E+03  0.13084303512E+03 -0.19909534502E+03  0.31023654002E+03  0.92012188940E+02 0.  0.
         23    2    4    4    0    0 -0.40900165978E+03  0.35404988320E+02  0.55792584350E+03  0.69875037882E+03  0.91842115390E+02 0.  0.
          1    1    3    3  502    0  0.73181075279E+02 -0.19466384824E+02  0.31602912893E+03  0.32497510712E+03  0.00000000000E+00 0. -1.
         -2    1    3    3    0  502  0.15969105374E+03 -0.14678163862E+03  0.13512705254E+04  0.13685679066E+04  0.00000000000E+00 0.  1.
         11    1    5    5    0    0  0.11558947372E+03  0.13185271329E+03 -0.16487889907E+03  0.24068883604E+03  0.00000000000E+00 0. -1.
        -11    1    5    5    0    0  0.60540057034E+02 -0.10096781665E+01 -0.34216445947E+02  0.69547703980E+02  0.00000000000E+00 0.  1.
          4    1    6    6  503    0 -0.24805388723E+03 -0.35235872157E+01  0.39504036231E+03  0.46647618855E+03  0.00000000000E+00 0. -1.
         -4    1    6    6    0  503 -0.16094777254E+03  0.38928575536E+02  0.16288548120E+03  0.23227419027E+03  0.00000000000E+00 0.  1.
<mgrwt>
<rscale>  0 0.17884252E+04</rscale>
<asrwt>0</asrwt>
<pdfrwt beam="1">  1        1 0.52030754E-01 0.17884252E+04</pdfrwt>
<pdfrwt beam="2">  1       -2 0.36374307E+00 0.17884252E+04</pdfrwt>
<totfact> 0.79093384E-01</totfact>
</mgrwt>
</event>
<event>
12    4  0.4183215E-008  0.1768425E+04  0.7818608E-02  0.8723273E-01
         -4   -1    0    0    0  501 -0.00000000000E+00  0.00000000000E+00  0.28195202141E+03  0.28195202141E+03  0.00000000000E+00 0.  1.
          1   -1    0    0  501    0  0.00000000000E+00 -0.00000000000E+00 -0.27729251617E+04  0.27729251617E+04  0.00000000000E+00 0. -1.
        -24    2    1    2    0    0 -0.58592122093E+03 -0.11850471981E+02 -0.13747872541E+04  0.14966069950E+04  0.79676799547E+02 0.  0.
        254    2    1    2    0    0  0.58592122093E+03  0.11850471981E+02 -0.11161858862E+04  0.15582701882E+04  0.91590989514E+03 0.  0.
         23    2    4    4    0    0  0.81293092948E+03  0.78039752259E+02 -0.74634481816E+03  0.11098534628E+04  0.88301881214E+02 0.  0.
         23    2    4    4    0    0 -0.22700970856E+03 -0.66189280278E+02 -0.36984106800E+03  0.44841672537E+03  0.91546247367E+02 0.  0.
          3    1    3    3  502    0 -0.51556112587E+03 -0.33884424146E+02 -0.11720628360E+04  0.12808913772E+04  0.00000000000E+00 0. -1.
         -4    1    3    3    0  502 -0.70360095061E+02  0.22033952166E+02 -0.20272441814E+03  0.21571561773E+03  0.00000000000E+00 0.  1.
         11    1    5    5    0    0  0.22400358112E+03 -0.61132961307E+00 -0.16153936813E+03  0.27617557013E+03  0.00000000000E+00 0.  1.
        -11    1    5    5    0    0  0.58892734836E+03  0.78651081872E+02 -0.58480545002E+03  0.83367789266E+03  0.00000000000E+00 0. -1.
          4    1    6    6  503    0 -0.10714027453E+03 -0.24110315240E+02 -0.93340973736E+02  0.14412800944E+03  0.00000000000E+00 0. -1.
         -4    1    6    6    0  503 -0.11986943403E+03 -0.42078965038E+02 -0.27650009427E+03  0.30428871593E+03  0.00000000000E+00 0.  1.
<mgrwt>
<rscale>  0 0.17684251E+04</rscale>
<asrwt>0</asrwt>
<pdfrwt beam="1">  1        1 0.42660387E+00 0.17684251E+04</pdfrwt>
<pdfrwt beam="2">  1       -4 0.43377234E-01 0.17684251E+04</pdfrwt>
<totfact> 0.21268079E+00</totfact>
</mgrwt>
</event>
<event>
12    4  0.4183215E-008  0.1702175E+04  0.7818608E-02  0.8760125E-01
         -4   -1    0    0    0  501 -0.00000000000E+00  0.00000000000E+00  0.36377396771E+03  0.36377396771E+03  0.00000000000E+00 0.  1.
          3   -1    0    0  501    0  0.00000000000E+00 -0.00000000000E+00 -0.19912089555E+04  0.19912089555E+04  0.00000000000E+00 0. -1.
        -24    2    1    2    0    0  0.25091639159E+03  0.28409080531E+03  0.74776535281E+02  0.39442092735E+03  0.79433723750E+02 0.  0.
        254    2    1    2    0    0 -0.25091639159E+03 -0.28409080531E+03 -0.17022115230E+04  0.19605619958E+04  0.89588651575E+03 0.  0.
         23    2    4    4    0    0 -0.43381622866E+03  0.16275791959E+03 -0.96270572512E+03  0.10725286348E+04  0.93961154583E+02 0.  0.
         23    2    4    4    0    0  0.18289983707E+03 -0.44684872490E+03 -0.73950579790E+03  0.88803336105E+03  0.92780880913E+02 0.  0.
          1    1    3    3  502    0  0.88419200013E+02  0.77619643229E+02 -0.10649192608E+02  0.11813623174E+03  0.00000000000E+00 0. -1.
         -2    1    3    3    0  502  0.16249719157E+03  0.20647116209E+03  0.85425727889E+02  0.27628469561E+03  0.00000000000E+00 0.  1.
         11    1    5    5    0    0 -0.22853979971E+03  0.99624430355E+02 -0.41375449892E+03  0.48306133414E+03  0.00000000000E+00 0.  1.
        -11    1    5    5    0    0 -0.20527642896E+03  0.63133489234E+02 -0.54895122620E+03  0.58946730062E+03  0.00000000000E+00 0. -1.
          3    1    6    6  503    0  0.10765480873E+03 -0.30890334533E+03 -0.56771473848E+03  0.65521817655E+03  0.00000000000E+00 0.  1.
         -3    1    6    6    0  503  0.75245028346E+02 -0.13794537958E+03 -0.17179105943E+03  0.23281518450E+03  0.00000000000E+00 0. -1.
<mgrwt>
<rscale>  0 0.17021751E+04</rscale>
<asrwt>0</asrwt>
<pdfrwt beam="1">  1        3 0.30633984E+00 0.17021751E+04</pdfrwt>
<pdfrwt beam="2">  1       -4 0.55965226E-01 0.17021751E+04</pdfrwt>
<totfact> 0.23772181E-01</totfact>
</mgrwt>
</event>
<event>
12    4  0.4183215E-008  0.2697746E+04  0.7818608E-02  0.8335737E-01
          1   -1    0    0  501    0  0.00000000000E+00  0.00000000000E+00  0.14606302160E+04  0.14606302160E+04  0.00000000000E+00 0. -1.
         -2   -1    0    0    0  501 -0.00000000000E+00 -0.00000000000E+00 -0.12456662226E+04  0.12456662226E+04  0.00000000000E+00 0.  1.
        -24    2    1    2    0    0 -0.89608054241E+01  0.11620210571E+04  0.96300138212E+02  0.11683585993E+04  0.73585779107E+02 0.  0.
        254    2    1    2    0    0  0.89608054241E+01 -0.11620210571E+04  0.11866385519E+03  0.15379378392E+04  0.10003991472E+04 0.  0.
         23    2    4    4    0    0  0.69127646970E+02 -0.67724463851E+03  0.55039353901E+03  0.87982042920E+03  0.87818038537E+02 0.  0.
         23    2    4    4    0    0 -0.60166841546E+02 -0.48477641857E+03 -0.43172968382E+03  0.65811741001E+03  0.89998781384E+02 0.  0.
          1    1    3    3  502    0  0.27578497859E+02  0.23305209436E+03  0.16828475223E+02  0.23528078928E+03  0.00000000000E+00 0. -1.
         -2    1    3    3    0  502 -0.36539303283E+02  0.92896896272E+03  0.79471662988E+02  0.93307781005E+03  0.00000000000E+00 0.  1.
         11    1    5    5    0    0  0.33603861958E+02 -0.49919785368E+03  0.44679855600E+03  0.67078809344E+03  0.00000000000E+00 0.  1.
        -11    1    5    5    0    0  0.35523785013E+02 -0.17804678483E+03  0.10359498301E+03  0.20903233576E+03  0.00000000000E+00 0. -1.
          4    1    6    6  503    0 -0.76624291490E+02 -0.28431146630E+03 -0.27803754696E+03  0.40498045562E+03  0.00000000000E+00 0. -1.
         -4    1    6    6    0  503  0.16457449944E+02 -0.20046495226E+03 -0.15369213686E+03  0.25313695439E+03  0.00000000000E+00 0.  1.
<mgrwt>
<rscale>  0 0.26977455E+04</rscale>
<asrwt>0</asrwt>
<pdfrwt beam="1">  1        1 0.22471234E+00 0.26977455E+04</pdfrwt>
<pdfrwt beam="2">  1       -2 0.19164096E+00 0.26977455E+04</pdfrwt>
<totfact> 0.80750345E-01</totfact>
</mgrwt>
</event>
<event>
12    4  0.4183215E-008  0.1727068E+04  0.7818608E-02  0.8746075E-01
         -2   -1    0    0    0  501 -0.00000000000E+00  0.00000000000E+00  0.11577382323E+04  0.11577382323E+04  0.00000000000E+00 0.  1.
          1   -1    0    0  501    0  0.00000000000E+00 -0.00000000000E+00 -0.64409325377E+03  0.64409325377E+03  0.00000000000E+00 0. -1.
        -24    2    1    2    0    0 -0.25083928990E+03 -0.95915971636E+02  0.77302281956E+03  0.82226286620E+03  0.80197996221E+02 0.  0.
        254    2    1    2    0    0  0.25083928990E+03  0.95915971636E+02 -0.25937784107E+03  0.97956861983E+03  0.90562552611E+03 0.  0.
         23    2    4    4    0    0 -0.27522931107E+03 -0.17874398348E+03 -0.50870436982E+02  0.34398999205E+03  0.89670106351E+02 0.  0.
         23    2    4    4    0    0  0.52606860096E+03  0.27465995512E+03 -0.20850740409E+03  0.63557862778E+03  0.91096600734E+02 0.  0.
          3    1    3    3  502    0  0.11823194610E+01 -0.11126384450E+02  0.64994545548E+02  0.65950627451E+02  0.00000000000E+00 0. -1.
         -4    1    3    3    0  502 -0.25202160936E+03 -0.84789587186E+02  0.70802827401E+03  0.75631223874E+03  0.00000000000E+00 0.  1.
         11    1    5    5    0    0 -0.18947488261E+03 -0.13617364134E+03 -0.75301941187E+02  0.24518232824E+03  0.00000000000E+00 0. -1.
        -11    1    5    5    0    0 -0.85754428456E+02 -0.42570342138E+02  0.24431504205E+02  0.98807663808E+02  0.00000000000E+00 0.  1.
          3    1    6    6  503    0  0.35729706389E+03  0.15205730448E+03 -0.10261347313E+03  0.40163682672E+03  0.00000000000E+00 0. -1.
         -3    1    6    6    0  503  0.16877153708E+03  0.12260265064E+03 -0.10589393096E+03  0.23394180106E+03  0.00000000000E+00 0.  1.
<mgrwt>
<rscale>  0 0.17270685E+04</rscale>
<asrwt>0</asrwt>
<pdfrwt beam="1">  1        1 0.99091270E-01 0.17270685E+04</pdfrwt>
<pdfrwt beam="2">  1       -2 0.17811357E+00 0.17270685E+04</pdfrwt>
<totfact> 0.47916386E+00</totfact>
</mgrwt>
</event>
<event>
12    4  0.4183215E-008  0.2283400E+04  0.7818608E-02  0.8484495E-01
         -2   -1    0    0    0  501 -0.00000000000E+00  0.00000000000E+00  0.37103706363E+03  0.37103706363E+03  0.00000000000E+00 0.  1.
          1   -1    0    0  501    0  0.00000000000E+00 -0.00000000000E+00 -0.35130687525E+04  0.35130687525E+04  0.00000000000E+00 0. -1.
        -24    2    1    2    0    0  0.94425404982E+03 -0.17019745865E+01 -0.10325278839E+04  0.14014658487E+04  0.79837877048E+02 0.  0.
        254    2    1    2    0    0 -0.94425404982E+03  0.17019745865E+01 -0.21095038050E+04  0.24826399674E+04  0.90657393385E+03 0.  0.
         23    2    4    4    0    0 -0.69120451142E+03 -0.36728669669E+03 -0.16787800663E+04  0.18545156120E+04  0.90898021181E+02 0.  0.
         23    2    4    4    0    0 -0.25304953841E+03  0.36898867128E+03 -0.43072373869E+03  0.62812435541E+03  0.93971050696E+02 0.  0.
          3    1    3    3  502    0  0.11746666130E+03 -0.24820547984E+02 -0.11681022395E+03  0.16750852079E+03  0.00000000000E+00 0. -1.
         -4    1    3    3    0  502  0.82678738853E+03  0.23118573398E+02 -0.91571765997E+03  0.12339573279E+04  0.00000000000E+00 0.  1.
         11    1    5    5    0    0 -0.16698228989E+03 -0.48354154855E+02 -0.34307987705E+03  0.38461020718E+03  0.00000000000E+00 0. -1.
        -11    1    5    5    0    0 -0.52422222153E+03 -0.31893254183E+03 -0.13357001892E+04  0.14699054049E+04  0.00000000000E+00 0.  1.
          2    1    6    6  503    0 -0.71537902352E+02  0.16063214071E+03 -0.12330609970E+03  0.21476673468E+03  0.00000000000E+00 0. -1.
         -2    1    6    6    0  503 -0.18151163605E+03  0.20835653057E+03 -0.30741763899E+03  0.41335762073E+03  0.00000000000E+00 0.  1.
<mgrwt>
<rscale>  0 0.22833998E+04</rscale>
<asrwt>0</asrwt>
<pdfrwt beam="1">  1        1 0.54047212E+00 0.22833998E+04</pdfrwt>
<pdfrwt beam="2">  1       -2 0.57082624E-01 0.22833998E+04</pdfrwt>
<totfact> 0.55975202E-01</totfact>
</mgrwt>
</event>
<event>
12    4  0.4183215E-008  0.1560754E+04  0.7818608E-02  0.8845028E-01
         -2   -1    0    0    0  501 -0.00000000000E+00  0.00000000000E+00  0.25864749649E+03  0.25864749649E+03  0.00000000000E+00 0.  1.
          1   -1    0    0  501    0  0.00000000000E+00 -0.00000000000E+00 -0.23545096114E+04  0.23545096114E+04  0.00000000000E+00 0. -1.
        -24    2    1    2    0    0 -0.34966331166E+02  0.89864311468E+01 -0.15634129386E+04  0.15661027855E+04  0.84347601475E+02 0.  0.
        254    2    1    2    0    0  0.34966331166E+02 -0.89864311468E+01 -0.53244917636E+03  0.10470543225E+04  0.90084251037E+03 0.  0.
         23    2    4    4    0    0 -0.36285551741E+03 -0.22026823291E+03 -0.31906669105E+03  0.54040581397E+03  0.10026300161E+03 0.  0.
         23    2    4    4    0    0  0.39782184858E+03  0.21128180177E+03 -0.21338248531E+03  0.50664850848E+03  0.90875756651E+02 0.  0.
          1    1    3    3  502    0 -0.49404237127E+02 -0.20789484991E+02 -0.69690810867E+03  0.69896630338E+03  0.00000000000E+00 0. -1.
         -2    1    3    3    0  502  0.14437905961E+02  0.29775916138E+02 -0.86650482993E+03  0.86713648211E+03  0.00000000000E+00 0.  1.
         11    1    5    5    0    0 -0.48190020067E+02 -0.71889863714E+02 -0.83496255021E+02  0.12025828513E+03  0.00000000000E+00 0. -1.
        -11    1    5    5    0    0 -0.31466549734E+03 -0.14837836920E+03 -0.23557043603E+03  0.42014752885E+03  0.00000000000E+00 0.  1.
          3    1    6    6  503    0  0.26324062897E+03  0.16935134222E+03 -0.10975765295E+03  0.33169601782E+03  0.00000000000E+00 0. -1.
         -3    1    6    6    0  503  0.13458121960E+03  0.41930459541E+02 -0.10362483236E+03  0.17495249066E+03  0.00000000000E+00 0.  1.
<mgrwt>
<rscale>  0 0.15607537E+04</rscale>
<asrwt>0</asrwt>
<pdfrwt beam="1">  1        1 0.36223225E+00 0.15607537E+04</pdfrwt>
<pdfrwt beam="2">  1       -2 0.39791922E-01 0.15607537E+04</pdfrwt>
<totfact> 0.86371400E+00</totfact>
</mgrwt>
</event>
<event>
12    4  0.4183215E-008  0.2411642E+04  0.7818608E-02  0.8435158E-01
         -2   -1    0    0    0  501 -0.00000000000E+00  0.00000000000E+00  0.54997486342E+03  0.54997486342E+03  0.00000000000E+00 0.  1.
          1   -1    0    0  501    0  0.00000000000E+00 -0.00000000000E+00 -0.26437659533E+04  0.26437659533E+04  0.00000000000E+00 0. -1.
        -24    2    1    2    0    0 -0.56015679937E+03 -0.77587577244E+03 -0.14313920625E+04  0.17235553015E+04  0.77464744076E+02 0.  0.
        254    2    1    2    0    0  0.56015679937E+03  0.77587577244E+03 -0.66239902735E+03  0.14701855152E+04  0.89828398825E+03 0.  0.
         23    2    4    4    0    0  0.44771375988E+03 -0.51054606461E+02 -0.13733595546E+03  0.47993776821E+03  0.91787325193E+02 0.  0.
         23    2    4    4    0    0  0.11244303949E+03  0.82693037891E+03 -0.52506307189E+03  0.99024774700E+03  0.91880804788E+02 0.  0.
          3    1    3    3  502    0 -0.25732688556E+03 -0.39607313899E+03 -0.76136662789E+03  0.89597444134E+03  0.00000000000E+00 0. -1.
         -4    1    3    3    0  502 -0.30282991381E+03 -0.37980263345E+03 -0.67002543461E+03  0.82758086016E+03  0.00000000000E+00 0.  1.
         11    1    5    5    0    0  0.32981765178E+03 -0.49078683899E+01 -0.12495270501E+03  0.35272786831E+03  0.00000000000E+00 0. -1.
        -11    1    5    5    0    0  0.11789610810E+03 -0.46146738071E+02 -0.12383250456E+02  0.12720989990E+03  0.00000000000E+00 0.  1.
          2    1    6    6  503    0  0.82180830782E+02  0.76068132139E+03 -0.49608677292E+03  0.91186174826E+03  0.00000000000E+00 0. -1.
         -2    1    6    6    0  503  0.30262208709E+02  0.66249057511E+02 -0.28976298970E+02  0.78385998744E+02  0.00000000000E+00 0.  1.
<mgrwt>
<rscale>  0 0.24116424E+04</rscale>
<asrwt>0</asrwt>
<pdfrwt beam="1">  1        1 0.40673322E+00 0.24116424E+04</pdfrwt>
<pdfrwt beam="2">  1       -2 0.84611518E-01 0.24116424E+04</pdfrwt>
<totfact> 0.10300284E+00</totfact>
</mgrwt>
</event>
<event>
12    4  0.4183215E-008  0.1693974E+04  0.7818608E-02  0.8764809E-01
          1   -1    0    0  501    0  0.00000000000E+00  0.00000000000E+00  0.31819479564E+04  0.31819479564E+04  0.00000000000E+00 0. -1.
         -2   -1    0    0    0  501 -0.00000000000E+00 -0.00000000000E+00 -0.22545524784E+03  0.22545524784E+03  0.00000000000E+00 0.  1.
        -24    2    1    2    0    0 -0.49163535023E+03 -0.26699771744E+03  0.15408198516E+04  0.16411849819E+04  0.79807463930E+02 0.  0.
        254    2    1    2    0    0  0.49163535023E+03  0.26699771744E+03  0.14156728570E+04  0.17662182223E+04  0.89577009999E+03 0.  0.
         23    2    4    4    0    0  0.19791943407E+03 -0.27053466255E+03  0.19784254713E+03  0.39997589558E+03  0.92075716460E+02 0.  0.
         23    2    4    4    0    0  0.29371591616E+03  0.53753237999E+03  0.12178303099E+04  0.13662423268E+04  0.91089696196E+02 0.  0.
          3    1    3    3  502    0 -0.28477944923E+03 -0.14460982561E+03  0.98898237098E+03  0.10392773771E+04  0.00000000000E+00 0. -1.
         -4    1    3    3    0  502 -0.20685590101E+03 -0.12238789183E+03  0.55183748057E+03  0.60190760488E+03  0.00000000000E+00 0.  1.
         11    1    5    5    0    0  0.20309290889E+03 -0.27325784452E+03  0.19847968289E+03  0.39409486644E+03  0.00000000000E+00 0. -1.
        -11    1    5    5    0    0 -0.51734748227E+01  0.27231819675E+01 -0.63713575266E+00  0.58810291392E+01  0.00000000000E+00 0.  1.
          3    1    6    6  503    0  0.21897505670E+03  0.46484761970E+03  0.97923339470E+03  0.11058622999E+04  0.00000000000E+00 0. -1.
         -3    1    6    6    0  503  0.74740859464E+02  0.72684760292E+02  0.23859691520E+03  0.26038002688E+03  0.00000000000E+00 0.  1.
<mgrwt>
<rscale>  0 0.16939739E+04</rscale>
<asrwt>0</asrwt>
<pdfrwt beam="1">  1        1 0.48953042E+00 0.16939739E+04</pdfrwt>
<pdfrwt beam="2">  1       -2 0.34685425E-01 0.16939739E+04</pdfrwt>
<totfact> 0.28735548E+00</totfact>
</mgrwt>
</event>
<event>
12    4  0.4183215E-008  0.1605916E+04  0.7818608E-02  0.8816922E-01
          1   -1    0    0  501    0  0.00000000000E+00  0.00000000000E+00  0.15325746893E+04  0.15325746893E+04  0.00000000000E+00 0. -1.
         -2   -1    0    0    0  501 -0.00000000000E+00 -0.00000000000E+00 -0.42069182502E+03  0.42069182502E+03  0.00000000000E+00 0.  1.
        -24    2    1    2    0    0 -0.69564151742E+02 -0.19170769899E+03  0.10004642154E+04  0.10241177286E+04  0.79356553550E+02 0.  0.
        254    2    1    2    0    0  0.69564151742E+02  0.19170769899E+03  0.11141864892E+03  0.92914878581E+03  0.89961788431E+03 0.  0.
         23    2    4    4    0    0 -0.12962197150E+03  0.30508850063E+03  0.41407197754E+03  0.53727203672E+03  0.85584987825E+02 0.  0.
         23    2    4    4    0    0  0.19918612325E+03 -0.11338080164E+03 -0.30265332862E+03  0.39187674909E+03  0.97149530505E+02 0.  0.
          3    1    3    3  502    0 -0.63723882181E+02 -0.18035881639E+03  0.98775298190E+03  0.10061043629E+04  0.00000000000E+00 0. -1.
         -4    1    3    3    0  502 -0.58402695617E+01 -0.11348882608E+02  0.12711233499E+02  0.18013365651E+02  0.00000000000E+00 0.  1.
         11    1    5    5    0    0 -0.14226866871E+03  0.28631349869E+03  0.38732657930E+03  0.50223268777E+03  0.00000000000E+00 0. -1.
        -11    1    5    5    0    0  0.12646697202E+02  0.18775001946E+02  0.26745398238E+02  0.35039348954E+02  0.00000000000E+00 0.  1.
          1    1    6    6  503    0  0.14469450024E+03 -0.12656924981E+03 -0.22224169595E+03  0.29384969766E+03  0.00000000000E+00 0. -1.
         -1    1    6    6    0  503  0.54491623010E+02  0.13188448169E+02 -0.80411632671E+02  0.98027051430E+02  0.00000000000E+00 0.  1.
<mgrwt>
<rscale>  0 0.16059161E+04</rscale>
<asrwt>0</asrwt>
<pdfrwt beam="1">  1        1 0.23578072E+00 0.16059161E+04</pdfrwt>
<pdfrwt beam="2">  1       -2 0.64721820E-01 0.16059161E+04</pdfrwt>
<totfact> 0.11516394E+01</totfact>
</mgrwt>
</event>
<event>
12    4  0.4183215E-008  0.1695957E+04  0.7818608E-02  0.8763674E-01
          1   -1    0    0  501    0  0.00000000000E+00  0.00000000000E+00  0.95136789314E+03  0.95136789314E+03  0.00000000000E+00 0. -1.
         -2   -1    0    0    0  501 -0.00000000000E+00 -0.00000000000E+00 -0.75582500575E+03  0.75582500575E+03  0.00000000000E+00 0.  1.
        -24    2    1    2    0    0 -0.16724619549E+03  0.15296482635E+03 -0.49162010149E+03  0.54752499578E+03  0.81998590269E+02 0.  0.
        254    2    1    2    0    0  0.16724619549E+03 -0.15296482635E+03  0.68716298888E+03  0.11596679031E+04  0.90623790707E+03 0.  0.
         23    2    4    4    0    0 -0.48832565416E+02 -0.50221011395E+03  0.39865685229E+03  0.64950426974E+03  0.91262766443E+02 0.  0.
         23    2    4    4    0    0  0.21607876091E+03  0.34924528760E+03  0.28850613659E+03  0.51016363337E+03  0.91481364977E+02 0.  0.
          3    1    3    3  502    0 -0.25502079582E+02  0.68723481218E+02 -0.11477996307E+03  0.13618998809E+03  0.00000000000E+00 0. -1.
         -4    1    3    3    0  502 -0.14174411591E+03  0.84241345132E+02 -0.37684013842E+03  0.41133500769E+03  0.00000000000E+00 0.  1.
         11    1    5    5    0    0 -0.34811888406E+02 -0.96625251378E+02  0.48879153495E+02  0.11374303682E+03  0.00000000000E+00 0. -1.
        -11    1    5    5    0    0 -0.14020677010E+02 -0.40558486257E+03  0.34977769879E+03  0.53576123292E+03  0.00000000000E+00 0.  1.
          1    1    6    6  503    0  0.20377872034E+03  0.25854462039E+03  0.22789268336E+03  0.40038252050E+03  0.00000000000E+00 0. -1.
         -1    1    6    6    0  503  0.12300040573E+02  0.90700667209E+02  0.60613453227E+02  0.10978111287E+03  0.00000000000E+00 0.  1.
<mgrwt>
<rscale>  0 0.16959571E+04</rscale>
<asrwt>0</asrwt>
<pdfrwt beam="1">  1        1 0.14636429E+00 0.16959571E+04</pdfrwt>
<pdfrwt beam="2">  1       -2 0.11628077E+00 0.16959571E+04</pdfrwt>
<totfact> 0.79161241E+00</totfact>
</mgrwt>
</event>
<event>
12    4  0.4183215E-008  0.1327359E+04  0.7818608E-02  0.9008146E-01
         -2   -1    0    0    0  501 -0.00000000000E+00  0.00000000000E+00  0.90268840547E+03  0.90268840547E+03  0.00000000000E+00 0.  1.
          1   -1    0    0  501    0  0.00000000000E+00 -0.00000000000E+00 -0.48795393086E+03  0.48795393086E+03  0.00000000000E+00 0. -1.
        -24    2    1    2    0    0  0.26325839472E+03 -0.25225302797E+03  0.76443375674E+02  0.38123141974E+03  0.80976744819E+02 0.  0.
        254    2    1    2    0    0 -0.26325839472E+03  0.25225302797E+03  0.33829109893E+03  0.10094109166E+04  0.87836948854E+03 0.  0.
         23    2    4    4    0    0 -0.55823912862E+03  0.24861897778E+03  0.11499858958E+03  0.62829612100E+03  0.89938975006E+02 0.  0.
         23    2    4    4    0    0  0.29498073390E+03  0.36340501840E+01  0.22329250936E+03  0.38111479558E+03  0.91444535037E+02 0.  0.
          1    1    3    3  502    0  0.17118030560E+03 -0.16295347443E+03  0.94665460842E+01  0.23652937946E+03  0.00000000000E+00 0. -1.
         -2    1    3    3    0  502  0.92078089121E+02 -0.89299553538E+02  0.66976829589E+02  0.14470204028E+03  0.00000000000E+00 0.  1.
         11    1    5    5    0    0 -0.48850881885E+03  0.24739109393E+03  0.10876610979E+03  0.55827706928E+03  0.00000000000E+00 0.  1.
        -11    1    5    5    0    0 -0.69730309773E+02  0.12278838571E+01  0.62324797916E+01  0.70019051723E+02  0.00000000000E+00 0. -1.
          4    1    6    6  503    0  0.72730521023E+02 -0.38434197438E+02  0.51177179785E+02  0.96881473728E+02  0.00000000000E+00 0. -1.
         -4    1    6    6    0  503  0.22225021287E+03  0.42068247622E+02  0.17211532957E+03  0.28423332186E+03  0.00000000000E+00 0.  1.
<mgrwt>
<rscale>  0 0.13273588E+04</rscale>
<asrwt>0</asrwt>
<pdfrwt beam="1">  1        1 0.75069836E-01 0.13273588E+04</pdfrwt>
<pdfrwt beam="2">  1       -2 0.13887514E+00 0.13273588E+04</pdfrwt>
<totfact> 0.14404230E+01</totfact>
</mgrwt>
</event>
<event>
12    4  0.4183215E-008  0.1552406E+04  0.7818608E-02  0.8850333E-01
         -2   -1    0    0    0  501 -0.00000000000E+00  0.00000000000E+00  0.30351415488E+03  0.30351415488E+03  0.00000000000E+00 0.  1.
          1   -1    0    0  501    0  0.00000000000E+00 -0.00000000000E+00 -0.19850500526E+04  0.19850500526E+04  0.00000000000E+00 0. -1.
        -24    2    1    2    0    0 -0.21111961082E+03 -0.15298644695E+03  0.91213313374E+02  0.28887008336E+03  0.84555978516E+02 0.  0.
        254    2    1    2    0    0  0.21111961082E+03  0.15298644695E+03 -0.17727492110E+04  0.19996941241E+04  0.88778402866E+03 0.  0.
         23    2    4    4    0    0 -0.29556119916E+03  0.25427713447E+03 -0.74062350694E+03  0.84196201662E+03  0.91452582425E+02 0.  0.
         23    2    4    4    0    0  0.50668080997E+03 -0.10129068752E+03 -0.10321257041E+04  0.11577321075E+04  0.89860541833E+02 0.  0.
          3    1    3    3  502    0 -0.58814590603E+01  0.96985643124E+01  0.86643312217E+01  0.14273203772E+02  0.00000000000E+00 0. -1.
         -4    1    3    3    0  502 -0.20523815176E+03 -0.16268501126E+03  0.82548982153E+02  0.27459687959E+03  0.00000000000E+00 0.  1.
         11    1    5    5    0    0 -0.42699069780E+02  0.62874749747E+02 -0.87393808691E+02  0.11581935293E+03  0.00000000000E+00 0. -1.
        -11    1    5    5    0    0 -0.25286212938E+03  0.19140238472E+03 -0.65322969825E+03  0.72614266368E+03  0.00000000000E+00 0.  1.
          3    1    6    6  503    0  0.37762116531E+03 -0.11267826752E+03 -0.80398781070E+03  0.89537173074E+03  0.00000000000E+00 0. -1.
         -3    1    6    6    0  503  0.12905964467E+03  0.11387580004E+02 -0.22813789341E+03  0.26236037671E+03  0.00000000000E+00 0.  1.
<mgrwt>
<rscale>  0 0.15524056E+04</rscale>
<asrwt>0</asrwt>
<pdfrwt beam="1">  1        1 0.30539231E+00 0.15524056E+04</pdfrwt>
<pdfrwt beam="2">  1       -2 0.46694486E-01 0.15524056E+04</pdfrwt>
<totfact> 0.11221254E+01</totfact>
</mgrwt>
</event>
<event>
12    4  0.4183215E-008  0.2079592E+04  0.7818608E-02  0.8570287E-01
          1   -1    0    0  501    0  0.00000000000E+00  0.00000000000E+00  0.10995201493E+04  0.10995201493E+04  0.00000000000E+00 0. -1.
         -2   -1    0    0    0  501 -0.00000000000E+00 -0.00000000000E+00 -0.98331613505E+03  0.98331613505E+03  0.00000000000E+00 0.  1.
        -24    2    1    2    0    0  0.70246189930E+03 -0.33594738123E+03  0.27905943652E+03  0.83094656331E+03  0.79275841482E+02 0.  0.
        254    2    1    2    0    0 -0.70246189930E+03  0.33594738123E+03 -0.16285542229E+03  0.12518897210E+04  0.96663986162E+03 0.  0.
         23    2    4    4    0    0 -0.26502940046E+02 -0.13533722886E+03  0.27039129632E+03  0.31646183829E+03  0.89543679960E+02 0.  0.
         23    2    4    4    0    0 -0.67595895926E+03  0.47128461009E+03 -0.43324671861E+03  0.93542788272E+03  0.91065395655E+02 0.  0.
          3    1    3    3  502    0  0.39341561384E+03 -0.15133680744E+03  0.17321652498E+03  0.45572210724E+03  0.00000000000E+00 0. -1.
         -4    1    3    3    0  502  0.30904628546E+03 -0.18461057379E+03  0.10584291154E+03  0.37522445607E+03  0.00000000000E+00 0.  1.
         11    1    5    5    0    0  0.18031099697E+02 -0.42268607945E+01  0.88460208259E+01  0.20524107603E+02  0.00000000000E+00 0. -1.
        -11    1    5    5    0    0 -0.44534039743E+02 -0.13111036807E+03  0.26154527549E+03  0.29593773069E+03  0.00000000000E+00 0.  1.
          3    1    6    6  503    0 -0.62972249966E+02  0.56199893669E+02 -0.16897156967E+02  0.86078140244E+02  0.00000000000E+00 0. -1.
         -3    1    6    6    0  503 -0.61298670929E+03  0.41508471642E+03 -0.41634956164E+03  0.84934974248E+03  0.00000000000E+00 0.  1.
<mgrwt>
<rscale>  0 0.20795922E+04</rscale>
<asrwt>0</asrwt>
<pdfrwt beam="1">  1        1 0.16915695E+00 0.20795922E+04</pdfrwt>
<pdfrwt beam="2">  1       -2 0.15127941E+00 0.20795922E+04</pdfrwt>
<totfact> 0.30031195E+00</totfact>
</mgrwt>
</event>
<event>
12    4  0.4183215E-008  0.1542494E+04  0.7818608E-02  0.8856676E-01
          1   -1    0    0  501    0  0.00000000000E+00  0.00000000000E+00  0.16360370151E+04  0.16360370151E+04  0.00000000000E+00 0. -1.
         -2   -1    0    0    0  501 -0.00000000000E+00 -0.00000000000E+00 -0.36357492478E+03  0.36357492478E+03  0.00000000000E+00 0.  1.
        -24    2    1    2    0    0 -0.41396157763E+03 -0.25363620763E+03  0.24354048753E+03  0.54870636072E+03  0.77917826257E+02 0.  0.
        254    2    1    2    0    0  0.41396157763E+03  0.25363620763E+03  0.10289216028E+04  0.14509055791E+04  0.90041758167E+03 0.  0.
         23    2    4    4    0    0  0.47174154795E+03 -0.99074186096E+02  0.17458075391E+03  0.52043413108E+03  0.89540285616E+02 0.  0.
         23    2    4    4    0    0 -0.57779970312E+02  0.35271039373E+03  0.85434084885E+03  0.93047144806E+03  0.90198020089E+02 0.  0.
          1    1    3    3  502    0 -0.67204606606E+02 -0.71692530235E+02  0.30368747396E+02  0.10285202409E+03  0.00000000000E+00 0. -1.
         -2    1    3    3    0  502 -0.34675697103E+03 -0.18194367739E+03  0.21317174013E+03  0.44585433663E+03  0.00000000000E+00 0.  1.
         11    1    5    5    0    0  0.31616864373E+03 -0.10612017812E+03  0.10305924324E+03  0.34906347718E+03  0.00000000000E+00 0.  1.
        -11    1    5    5    0    0  0.15557290422E+03  0.70459920286E+01  0.71521510671E+02  0.17137065390E+03  0.00000000000E+00 0. -1.
          1    1    6    6  503    0 -0.91555354829E+00  0.23082045762E+02  0.13751750982E+03  0.13944419881E+03  0.00000000000E+00 0. -1.
         -1    1    6    6    0  503 -0.56864416764E+02  0.32962834796E+03  0.71682333903E+03  0.79102724925E+03  0.00000000000E+00 0.  1.
<mgrwt>
<rscale>  0 0.15424941E+04</rscale>
<asrwt>0</asrwt>
<pdfrwt beam="1">  1        1 0.25169800E+00 0.15424941E+04</pdfrwt>
<pdfrwt beam="2">  1       -2 0.55934605E-01 0.15424941E+04</pdfrwt>
<totfact> 0.13386822E+01</totfact>
</mgrwt>
</event>
<event>
12    4  0.4183215E-008  0.1740525E+04  0.7818608E-02  0.8738583E-01
          1   -1    0    0  501    0  0.00000000000E+00  0.00000000000E+00  0.26766377198E+04  0.26766377198E+04  0.00000000000E+00 0. -1.
         -2   -1    0    0    0  501 -0.00000000000E+00 -0.00000000000E+00 -0.28295085931E+03  0.28295085931E+03  0.00000000000E+00 0.  1.
        -24    2    1    2    0    0 -0.59951507875E+03  0.81668245501E+02  0.12246748981E+04  0.13682446538E+04  0.78592585773E+02 0.  0.
        254    2    1    2    0    0  0.59951507875E+03 -0.81668245501E+02  0.11690119623E+04  0.15913439253E+04  0.89425862508E+03 0.  0.
         23    2    4    4    0    0  0.28738577336E+03  0.39683623612E+03  0.47813908716E+03  0.69055863075E+03  0.90469082068E+02 0.  0.
         23    2    4    4    0    0  0.31212930540E+03 -0.47850448162E+03  0.69087287517E+03  0.90078529455E+03  0.87849729714E+02 0.  0.
          1    1    3    3  502    0 -0.56524709748E+03  0.57512086284E+02  0.11445673546E+04  0.12778287641E+04  0.00000000000E+00 0. -1.
         -2    1    3    3    0  502 -0.34267981278E+02  0.24156159217E+02  0.80107543562E+02  0.90415889669E+02  0.00000000000E+00 0.  1.
         11    1    5    5    0    0  0.13476461662E+03  0.16594995924E+03  0.26930749698E+03  0.34384214226E+03  0.00000000000E+00 0. -1.
        -11    1    5    5    0    0  0.15262115673E+03  0.23088627688E+03  0.20883159018E+03  0.34671648849E+03  0.00000000000E+00 0.  1.
          2    1    6    6  503    0  0.10013419399E+03 -0.22499894064E+03  0.32489129838E+03  0.40768337697E+03  0.00000000000E+00 0. -1.
         -2    1    6    6    0  503  0.21199511141E+03 -0.25350554097E+03  0.36598157679E+03  0.49310191758E+03  0.00000000000E+00 0.  1.
<mgrwt>
<rscale>  0 0.17405251E+04</rscale>
<asrwt>0</asrwt>
<pdfrwt beam="1">  1        1 0.41179040E+00 0.17405251E+04</pdfrwt>
<pdfrwt beam="2">  1       -2 0.43530903E-01 0.17405251E+04</pdfrwt>
<totfact> 0.42572242E+00</totfact>
</mgrwt>
</event>
<event>
12    4  0.4183215E-008  0.2364937E+04  0.7818608E-02  0.8452748E-01
         -2   -1    0    0    0  501 -0.00000000000E+00  0.00000000000E+00  0.68886717476E+03  0.68886717476E+03  0.00000000000E+00 0.  1.
          1   -1    0    0  501    0  0.00000000000E+00 -0.00000000000E+00 -0.20297558110E+04  0.20297558110E+04  0.00000000000E+00 0. -1.
        -24    2    1    2    0    0  0.96943553558E+03 -0.81940080575E+02 -0.56992061327E+03  0.11305973797E+04  0.83195523930E+02 0.  0.
        254    2    1    2    0    0 -0.96943553558E+03  0.81940080575E+02 -0.77096802300E+03  0.15880256061E+04  0.99041112602E+03 0.  0.
         23    2    4    4    0    0  0.17141733458E+03  0.40407515259E+02  0.15691679878E+02  0.19872270163E+03  0.90707295428E+02 0.  0.
         23    2    4    4    0    0 -0.11408528702E+04  0.41532565316E+02 -0.78665970288E+03  0.13893029044E+04  0.89771079793E+02 0.  0.
          1    1    3    3  502    0  0.81906447094E+03 -0.79296028364E+02 -0.44766581100E+03  0.93678126903E+03  0.00000000000E+00 0. -1.
         -2    1    3    3    0  502  0.15037106464E+03 -0.26440522107E+01 -0.12225480228E+03  0.19381611072E+03  0.00000000000E+00 0.  1.
         11    1    5    5    0    0  0.89353441573E+02 -0.45918770007E-02 -0.32807872002E+02  0.95186101965E+02  0.00000000000E+00 0. -1.
        -11    1    5    5    0    0  0.82063893005E+02  0.40412107136E+02  0.48499551880E+02  0.10353659967E+03  0.00000000000E+00 0.  1.
          3    1    6    6  503    0 -0.45109046294E+03  0.26041831017E+02 -0.25981557094E+03  0.52121484401E+03  0.00000000000E+00 0. -1.
         -3    1    6    6    0  503 -0.68976240722E+03  0.15490734299E+02 -0.52684413194E+03  0.86808806041E+03  0.00000000000E+00 0.  1.
<mgrwt>
<rscale>  0 0.23649373E+04</rscale>
<asrwt>0</asrwt>
<pdfrwt beam="1">  1        1 0.31227012E+00 0.23649373E+04</pdfrwt>
<pdfrwt beam="2">  1       -2 0.10597957E+00 0.23649373E+04</pdfrwt>
<totfact> 0.16147798E+00</totfact>
</mgrwt>
</event>
<event>
12    4  0.4183215E-008  0.2437156E+04  0.7818608E-02  0.8425723E-01
          1   -1    0    0  501    0  0.00000000000E+00  0.00000000000E+00  0.21297541187E+04  0.21297541187E+04  0.00000000000E+00 0. -1.
         -2   -1    0    0    0  501 -0.00000000000E+00 -0.00000000000E+00 -0.69723165829E+03  0.69723165829E+03  0.00000000000E+00 0.  1.
        -24    2    1    2    0    0 -0.86000162926E+03  0.55162333128E+03  0.36020908984E+03  0.10861447237E+04  0.77901671320E+02 0.  0.
        254    2    1    2    0    0  0.86000162926E+03 -0.55162333128E+03  0.10723133706E+04  0.17408410533E+04  0.91475707503E+03 0.  0.
         23    2    4    4    0    0  0.48986141651E+03 -0.75979004418E+03  0.88186451572E+03  0.12662760514E+04  0.92330361170E+02 0.  0.
         23    2    4    4    0    0  0.37014021275E+03  0.20816671290E+03  0.19044885487E+03  0.47456500196E+03  0.92757842300E+02 0.  0.
          3    1    3    3  502    0 -0.12553166359E+03  0.52014765846E+02  0.36331125198E+02  0.14065448833E+03  0.00000000000E+00 0. -1.
         -4    1    3    3    0  502 -0.73446996567E+03  0.49960856543E+03  0.32387796465E+03  0.94549023534E+03  0.00000000000E+00 0.  1.
         11    1    5    5    0    0  0.41518676247E+03 -0.67226943864E+03  0.80453844685E+03  0.11276561348E+04  0.00000000000E+00 0.  1.
        -11    1    5    5    0    0  0.74674654038E+02 -0.87520605541E+02  0.77326068871E+02  0.13861991660E+03  0.00000000000E+00 0. -1.
          4    1    6    6  503    0 -0.20376239780E+01 -0.46693645598E+01 -0.70802980683E+00  0.51435574338E+01  0.00000000000E+00 0. -1.
         -4    1    6    6    0  503  0.37217783673E+03  0.21283607746E+03  0.19115688467E+03  0.46942144452E+03  0.00000000000E+00 0.  1.
<mgrwt>
<rscale>  0 0.24371557E+04</rscale>
<asrwt>0</asrwt>
<pdfrwt beam="1">  1        1 0.32765448E+00 0.24371557E+04</pdfrwt>
<pdfrwt beam="2">  1       -2 0.10726641E+00 0.24371557E+04</pdfrwt>
<totfact> 0.13330932E+00</totfact>
</mgrwt>
</event>
<event>
12    4  0.4183215E-008  0.1314839E+04  0.7818608E-02  0.9017880E-01
         -2   -1    0    0    0  501 -0.00000000000E+00  0.00000000000E+00  0.26923450582E+03  0.26923450582E+03  0.00000000000E+00 0.  1.
          1   -1    0    0  501    0  0.00000000000E+00 -0.00000000000E+00 -0.16052927210E+04  0.16052927210E+04  0.00000000000E+00 0. -1.
        -24    2    1    2    0    0 -0.15663519150E+03 -0.35693508925E+02  0.73406318501E+02  0.19407418225E+03  0.80421954875E+02 0.  0.
        254    2    1    2    0    0  0.15663519150E+03  0.35693508925E+02 -0.14094645337E+04  0.16804530446E+04  0.90084602097E+03 0.  0.
         23    2    4    4    0    0  0.29825188857E+03 -0.65971193456E+02 -0.14429588946E+04  0.14779295844E+04  0.94016474021E+02 0.  0.
         23    2    4    4    0    0 -0.14161669707E+03  0.10166470238E+03  0.33494360935E+02  0.20252346020E+03  0.97482711892E+02 0.  0.
          3    1    3    3  502    0 -0.11468681694E+02 -0.31682332384E+02  0.20909596505E+02  0.39654912320E+02  0.00000000000E+00 0. -1.
         -4    1    3    3    0  502 -0.14516650981E+03 -0.40111765406E+01  0.52496721996E+02  0.15441926993E+03  0.00000000000E+00 0.  1.
         11    1    5    5    0    0  0.11819286076E+03 -0.48326341304E+02 -0.79487757359E+03  0.80506853409E+03  0.00000000000E+00 0. -1.
        -11    1    5    5    0    0  0.18005902781E+03 -0.17644852152E+02 -0.64808132105E+03  0.67286105029E+03  0.00000000000E+00 0.  1.
          2    1    6    6  503    0 -0.26661195516E+02  0.64534522202E+02  0.41893805067E+02  0.81428587149E+02  0.00000000000E+00 0. -1.
         -2    1    6    6    0  503 -0.11495550155E+03  0.37130180179E+02 -0.83994441323E+01  0.12109487305E+03  0.00000000000E+00 0.  1.
<mgrwt>
<rscale>  0 0.13148387E+04</rscale>
<asrwt>0</asrwt>
<pdfrwt beam="1">  1        1 0.24696811E+00 0.13148387E+04</pdfrwt>
<pdfrwt beam="2">  1       -2 0.41420693E-01 0.13148387E+04</pdfrwt>
<totfact> 0.26318807E+01</totfact>
</mgrwt>
</event>
<event>
12    4  0.4183215E-008  0.1500785E+04  0.7818608E-02  0.8883931E-01
          1   -1    0    0  501    0  0.00000000000E+00  0.00000000000E+00  0.21258459881E+04  0.21258459881E+04  0.00000000000E+00 0. -1.
         -2   -1    0    0    0  501 -0.00000000000E+00 -0.00000000000E+00 -0.26487744692E+03  0.26487744692E+03  0.00000000000E+00 0.  1.
        -24    2    1    2    0    0 -0.49506768083E+02 -0.45716747385E+03  0.41040837450E+03  0.62158404976E+03  0.80490234351E+02 0.  0.
        254    2    1    2    0    0  0.49506768083E+02  0.45716747385E+03  0.14505601667E+04  0.17691393852E+04  0.90237262152E+03 0.  0.
         23    2    4    4    0    0  0.30618209537E+03  0.14256236424E+03  0.12681040973E+04  0.13154601686E+04  0.90972250798E+02 0.  0.
         23    2    4    4    0    0 -0.25667532729E+03  0.31460510960E+03  0.18245606935E+03  0.45367921661E+03  0.87612874121E+02 0.  0.
          1    1    3    3  502    0 -0.12803387134E+02 -0.92997185008E+01  0.56540790028E+01  0.16804168997E+02  0.00000000000E+00 0. -1.
         -2    1    3    3    0  502 -0.36703380949E+02 -0.44786775535E+03  0.40475429550E+03  0.60477988077E+03  0.00000000000E+00 0.  1.
         11    1    5    5    0    0  0.14990339372E+03  0.11872437952E+03  0.66003564377E+03  0.68717796587E+03  0.00000000000E+00 0. -1.
        -11    1    5    5    0    0  0.15627870166E+03  0.23837984725E+02  0.60806845355E+03  0.62828220276E+03  0.00000000000E+00 0.  1.
          2    1    6    6  503    0 -0.18949467308E+03  0.18227972095E+03  0.85812533439E+02  0.27658257120E+03  0.00000000000E+00 0. -1.
         -2    1    6    6    0  503 -0.67180654210E+02  0.13232538866E+03  0.96643535907E+02  0.17709664541E+03  0.00000000000E+00 0.  1.
<mgrwt>
<rscale>  0 0.15007847E+04</rscale>
<asrwt>0</asrwt>
<pdfrwt beam="1">  1        1 0.32705322E+00 0.15007847E+04</pdfrwt>
<pdfrwt beam="2">  1       -2 0.40750378E-01 0.15007847E+04</pdfrwt>
<totfact> 0.11863309E+01</totfact>
</mgrwt>
</event>
<event>
12    4  0.4183215E-008  0.1831536E+04  0.7818608E-02  0.8689706E-01
          1   -1    0    0  501    0  0.00000000000E+00  0.00000000000E+00  0.94456384337E+03  0.94456384337E+03  0.00000000000E+00 0. -1.
         -2   -1    0    0    0  501 -0.00000000000E+00 -0.00000000000E+00 -0.88785010214E+03  0.88785010214E+03  0.00000000000E+00 0.  1.
        -24    2    1    2    0    0 -0.38041531631E+03  0.40290790662E+03  0.44448781646E+03  0.71484163796E+03  0.79865851829E+02 0.  0.
        254    2    1    2    0    0  0.38041531631E+03 -0.40290790662E+03 -0.38777407522E+03  0.11175723075E+04  0.88969013431E+03 0.  0.
         23    2    4    4    0    0  0.66526395721E+02  0.26354270983E+03 -0.20723818637E+03  0.35371547361E+03  0.91029935443E+02 0.  0.
         23    2    4    4    0    0  0.31388892059E+03 -0.66645061645E+03 -0.18053588885E+03  0.76385683394E+03  0.90561454054E+02 0.  0.
          3    1    3    3  502    0 -0.29065739890E+03  0.34061232461E+03  0.32741358157E+03  0.55470544671E+03  0.00000000000E+00 0. -1.
         -4    1    3    3    0  502 -0.89757917408E+02  0.62295582012E+02  0.11707423489E+03  0.16013619126E+03  0.00000000000E+00 0.  1.
         11    1    5    5    0    0  0.81746229050E+02  0.23434945505E+03 -0.20275999514E+03  0.32048982616E+03  0.00000000000E+00 0. -1.
        -11    1    5    5    0    0 -0.15219833329E+02  0.29193254786E+02 -0.44781912312E+01  0.33225647446E+02  0.00000000000E+00 0.  1.
          4    1    6    6  503    0  0.10007537547E+02 -0.16533180184E+02 -0.21653063113E+02  0.29023300931E+02  0.00000000000E+00 0.  1.
         -4    1    6    6    0  503  0.30388138304E+03 -0.64991743627E+03 -0.15888282574E+03  0.73483353301E+03  0.00000000000E+00 0. -1.
<mgrwt>
<rscale>  0 0.18315361E+04</rscale>
<asrwt>0</asrwt>
<pdfrwt beam="1">  1        1 0.14531751E+00 0.18315361E+04</pdfrwt>
<pdfrwt beam="2">  1       -2 0.13659232E+00 0.18315361E+04</pdfrwt>
<totfact> 0.52860591E+00</totfact>
</mgrwt>
</event>
<event>
12    4  0.4183215E-008  0.1387910E+04  0.7818608E-02  0.8962617E-01
          3   -1    0    0  501    0  0.00000000000E+00  0.00000000000E+00  0.65009673040E+03  0.65009673040E+03  0.00000000000E+00 0. -1.
         -4   -1    0    0    0  501 -0.00000000000E+00 -0.00000000000E+00 -0.74077170830E+03  0.74077170830E+03  0.00000000000E+00 0.  1.
        -24    2    1    2    0    0  0.11972573385E+03  0.93391871292E+01 -0.41334510732E+03  0.43795146471E+03  0.80782646219E+02 0.  0.
        254    2    1    2    0    0 -0.11972573385E+03 -0.93391871292E+01  0.32267012942E+03  0.95291697399E+03  0.88854559541E+03 0.  0.
         23    2    4    4    0    0 -0.46760989633E+02 -0.43960382791E+03  0.17120854721E+03  0.48328111247E+03  0.93862406531E+02 0.  0.
         23    2    4    4    0    0 -0.72964744217E+02  0.43026464078E+03  0.15146158221E+03  0.46963586152E+03  0.84650555417E+02 0.  0.
          3    1    3    3  502    0 -0.48873871671E+01  0.23553750181E+01 -0.10727822647E+03  0.10741532581E+03  0.00000000000E+00 0. -1.
         -4    1    3    3    0  502  0.12461312102E+03  0.69838121111E+01 -0.30606688085E+03  0.33053613889E+03  0.00000000000E+00 0.  1.
         11    1    5    5    0    0 -0.37367610433E+02 -0.51437268657E+02  0.27281456259E+02  0.69183876532E+02  0.00000000000E+00 0.  1.
        -11    1    5    5    0    0 -0.93933792002E+01 -0.38816655926E+03  0.14392709096E+03  0.41409723593E+03  0.00000000000E+00 0. -1.
          2    1    6    6  503    0 -0.70714775113E+02  0.18433264719E+03  0.50578712287E+02  0.20380704202E+03  0.00000000000E+00 0. -1.
         -2    1    6    6    0  503 -0.22499691041E+01  0.24593199359E+03  0.10088286992E+03  0.26582881950E+03  0.00000000000E+00 0.  1.
<mgrwt>
<rscale>  0 0.13879096E+04</rscale>
<asrwt>0</asrwt>
<pdfrwt beam="1">  1        3 0.10001488E+00 0.13879096E+04</pdfrwt>
<pdfrwt beam="2">  1       -4 0.11396488E+00 0.13879096E+04</pdfrwt>
<totfact> 0.11727959E+00</totfact>
</mgrwt>
</event>
<event>
12    4  0.4183215E-008  0.1236155E+04  0.7818608E-02  0.9081786E-01
         -2   -1    0    0    0  501 -0.00000000000E+00  0.00000000000E+00  0.27882307122E+03  0.27882307122E+03  0.00000000000E+00 0.  1.
          1   -1    0    0  501    0  0.00000000000E+00 -0.00000000000E+00 -0.13701157414E+04  0.13701157414E+04  0.00000000000E+00 0. -1.
        -24    2    1    2    0    0 -0.10540865331E+03 -0.25562165366E+03 -0.11833737167E+03  0.31099962924E+03  0.79143046710E+02 0.  0.
        254    2    1    2    0    0  0.10540865331E+03  0.25562165366E+03 -0.97295529850E+03  0.13379391834E+04  0.87577727279E+03 0.  0.
         23    2    4    4    0    0  0.15014626419E+03  0.20884280427E+03  0.77622306719E+02  0.28179835189E+03  0.85005123872E+02 0.  0.
         23    2    4    4    0    0 -0.44737610886E+02  0.46778849389E+02 -0.10505776052E+04  0.10561408315E+04  0.86778089167E+02 0.  0.
          3    1    3    3  502    0 -0.64977593111E+00 -0.62145582005E+02 -0.52465829199E+02  0.81333626534E+02  0.00000000000E+00 0. -1.
         -4    1    3    3    0  502 -0.10475887738E+03 -0.19347607165E+03 -0.65871542468E+02  0.22966600270E+03  0.00000000000E+00 0.  1.
         11    1    5    5    0    0  0.88112821803E+02  0.94505975872E+02 -0.21076885533E+01  0.12922728502E+03  0.00000000000E+00 0.  1.
        -11    1    5    5    0    0  0.62033442392E+02  0.11433682839E+03  0.79729995272E+02  0.15257106688E+03  0.00000000000E+00 0. -1.
          3    1    6    6  503    0 -0.67839677652E+01  0.18952035300E+02 -0.84521962055E+03  0.84545928868E+03  0.00000000000E+00 0. -1.
         -3    1    6    6    0  503 -0.37953643120E+02  0.27826814089E+02 -0.20535798467E+03  0.21068154280E+03  0.00000000000E+00 0.  1.
<mgrwt>
<rscale>  0 0.12361551E+04</rscale>
<asrwt>0</asrwt>
<pdfrwt beam="1">  1        1 0.21078704E+00 0.12361551E+04</pdfrwt>
<pdfrwt beam="2">  1       -2 0.42895857E-01 0.12361551E+04</pdfrwt>
<totfact> 0.35978984E+01</totfact>
</mgrwt>
</event>
<event>
12    4  0.4183215E-008  0.1523233E+04  0.7818608E-02  0.8869149E-01
          1   -1    0    0  501    0  0.00000000000E+00  0.00000000000E+00  0.15079032367E+04  0.15079032367E+04  0.00000000000E+00 0. -1.
         -2   -1    0    0    0  501 -0.00000000000E+00 -0.00000000000E+00 -0.38467952050E+03  0.38467952050E+03  0.00000000000E+00 0.  1.
        -24    2    1    2    0    0  0.59225243751E+02  0.41604970453E+03  0.45973214302E+02  0.43019787209E+03  0.79697469127E+02 0.  0.
        254    2    1    2    0    0 -0.59225243751E+02 -0.41604970453E+03  0.10772505019E+04  0.14623848851E+04  0.89526304638E+03 0.  0.
         23    2    4    4    0    0  0.53301556598E+01  0.27323161992E+03  0.31389262646E+03  0.42765790889E+03  0.98380777631E+02 0.  0.
         23    2    4    4    0    0 -0.64555399411E+02 -0.68928132445E+03  0.76335787543E+03  0.10347269762E+04  0.93104916562E+02 0.  0.
          3    1    3    3  502    0 -0.45532944432E+01  0.23421987309E+03  0.38133664980E+02  0.23734754653E+03  0.00000000000E+00 0. -1.
         -4    1    3    3    0  502  0.63778538194E+02  0.18182983144E+03  0.78395493214E+01  0.19285032556E+03  0.00000000000E+00 0.  1.
         11    1    5    5    0    0 -0.31360091472E+02  0.92693979055E+02  0.62963948016E+02  0.11636188311E+03  0.00000000000E+00 0. -1.
        -11    1    5    5    0    0  0.36690247132E+02  0.18053764087E+03  0.25092867845E+03  0.31129602579E+03  0.00000000000E+00 0.  1.
          2    1    6    6  503    0 -0.62789846733E+02 -0.69072388106E+03  0.75145525933E+03  0.10226079657E+04  0.00000000000E+00 0.  1.
         -2    1    6    6    0  503 -0.17655526778E+01  0.14425566161E+01  0.11902616101E+02  0.12119010516E+02  0.00000000000E+00 0. -1.
<mgrwt>
<rscale>  0 0.15232327E+04</rscale>
<asrwt>0</asrwt>
<pdfrwt beam="1">  1        1 0.23198511E+00 0.15232327E+04</pdfrwt>
<pdfrwt beam="2">  1       -2 0.59181465E-01 0.15232327E+04</pdfrwt>
<totfact> 0.14591598E+01</totfact>
</mgrwt>
</event>
<event>
12    4  0.4183215E-008  0.1406146E+04  0.7818608E-02  0.8949382E-01
          1   -1    0    0  501    0  0.00000000000E+00  0.00000000000E+00  0.93154887522E+03  0.93154887522E+03  0.00000000000E+00 0. -1.
         -2   -1    0    0    0  501 -0.00000000000E+00 -0.00000000000E+00 -0.53063379816E+03  0.53063379816E+03  0.00000000000E+00 0.  1.
        -24    2    1    2    0    0 -0.10936626676E+03  0.15042158275E+03 -0.25501236164E+03  0.32562865114E+03  0.80094200756E+02 0.  0.
        254    2    1    2    0    0  0.10936626676E+03 -0.15042158275E+03  0.65592743870E+03  0.11365540222E+04  0.90935505043E+03 0.  0.
         23    2    4    4    0    0 -0.14376397112E+03 -0.20062024673E+03  0.78909828614E+03  0.83188405473E+03  0.91860832427E+02 0.  0.
         23    2    4    4    0    0  0.25313023788E+03  0.50198663983E+02 -0.13317084743E+03  0.30466996751E+03  0.92165564611E+02 0.  0.
          1    1    3    3  502    0  0.51265795062E+01  0.18676304417E+02 -0.38078595565E+01  0.19737931971E+02  0.00000000000E+00 0. -1.
         -2    1    3    3    0  502 -0.11449284626E+03  0.13174527833E+03 -0.25120450208E+03  0.30589071917E+03  0.00000000000E+00 0.  1.
         11    1    5    5    0    0 -0.15422191362E+00 -0.20608194033E+02  0.17181602644E+03  0.17304758995E+03  0.00000000000E+00 0. -1.
        -11    1    5    5    0    0 -0.14360974921E+03 -0.18001205270E+03  0.61728225970E+03  0.65883646478E+03  0.00000000000E+00 0.  1.
          2    1    6    6  503    0  0.15063600199E+03  0.25530986779E+02 -0.12767170705E+03  0.19910575372E+03  0.00000000000E+00 0. -1.
         -2    1    6    6    0  503  0.10249423589E+03  0.24667677204E+02 -0.54991403875E+01  0.10556421379E+03  0.00000000000E+00 0.  1.
<mgrwt>
<rscale>  0 0.14061455E+04</rscale>
<asrwt>0</asrwt>
<pdfrwt beam="1">  1        1 0.14331521E+00 0.14061455E+04</pdfrwt>
<pdfrwt beam="2">  1       -2 0.81635969E-01 0.14061455E+04</pdfrwt>
<totfact> 0.19349176E+01</totfact>
</mgrwt>
</event>
<event>
12    4  0.4183215E-008  0.1615383E+04  0.7818608E-02  0.8811153E-01
         -2   -1    0    0    0  501 -0.00000000000E+00  0.00000000000E+00  0.34809585472E+03  0.34809585472E+03  0.00000000000E+00 0.  1.
          1   -1    0    0  501    0  0.00000000000E+00 -0.00000000000E+00 -0.18740966188E+04  0.18740966188E+04  0.00000000000E+00 0. -1.
        -24    2    1    2    0    0 -0.15913603667E+03  0.92834881468E+00  0.19167139992E+03  0.26071536691E+03  0.76872862560E+02 0.  0.
        254    2    1    2    0    0  0.15913603667E+03 -0.92834881468E+00 -0.17176721640E+04  0.19614771066E+04  0.93363249557E+03 0.  0.
         23    2    4    4    0    0  0.45486507530E+03  0.25822972133E+03 -0.11312394995E+04  0.12495963246E+04  0.90572310242E+02 0.  0.
         23    2    4    4    0    0 -0.29572903862E+03 -0.25915807014E+03 -0.58643266445E+03  0.71188078203E+03  0.90842766790E+02 0.  0.
          1    1    3    3  502    0 -0.40488506920E+02  0.19051377907E+02  0.15124853809E+02  0.47233837400E+02  0.00000000000E+00 0. -1.
         -2    1    3    3    0  502 -0.11864752975E+03 -0.18123029092E+02  0.17654654611E+03  0.21348152951E+03  0.00000000000E+00 0.  1.
         11    1    5    5    0    0  0.42993946769E+03  0.24884657350E+03 -0.10111176037E+04  0.11265573095E+04  0.00000000000E+00 0. -1.
        -11    1    5    5    0    0  0.24925607609E+02  0.93831478272E+01 -0.12012189585E+03  0.12303901511E+03  0.00000000000E+00 0.  1.
          4    1    6    6  503    0 -0.22552107549E+03 -0.14763332438E+03 -0.42797253408E+03  0.50578240765E+03  0.00000000000E+00 0. -1.
         -4    1    6    6    0  503 -0.70207963131E+02 -0.11152474576E+03 -0.15846013037E+03  0.20609837438E+03  0.00000000000E+00 0.  1.
<mgrwt>
<rscale>  0 0.16153826E+04</rscale>
<asrwt>0</asrwt>
<pdfrwt beam="1">  1        1 0.28832255E+00 0.16153826E+04</pdfrwt>
<pdfrwt beam="2">  1       -2 0.53553209E-01 0.16153826E+04</pdfrwt>
<totfact> 0.10031246E+01</totfact>
</mgrwt>
</event>
<event>
12    4  0.4183215E-008  0.1161440E+04  0.7818608E-02  0.9147294E-01
         -2   -1    0    0    0  501 -0.00000000000E+00  0.00000000000E+00  0.33175168276E+03  0.33175168276E+03  0.00000000000E+00 0.  1.
          1   -1    0    0  501    0  0.00000000000E+00 -0.00000000000E+00 -0.10165298188E+04  0.10165298188E+04  0.00000000000E+00 0. -1.
        -24    2    1    2    0    0 -0.76862568603E+00  0.15341033477E+03  0.19343859969E+02  0.17572606553E+03  0.83487385810E+02 0.  0.
        254    2    1    2    0    0  0.76862568603E+00 -0.15341033477E+03 -0.70412199603E+03  0.11725554360E+04  0.92496656356E+03 0.  0.
         23    2    4    4    0    0  0.34664450000E+03 -0.36972566843E+03 -0.34654407701E+03  0.62232559051E+03  0.10167036939E+03 0.  0.
         23    2    4    4    0    0 -0.34587587431E+03  0.21631533367E+03 -0.35757791902E+03  0.55022984554E+03  0.92024294320E+02 0.  0.
          1    1    3    3  502    0  0.31086780025E+02  0.45491242596E+02 -0.16696615580E+02  0.57572719382E+02  0.00000000000E+00 0. -1.
         -2    1    3    3    0  502 -0.31855405711E+02  0.10791909217E+03  0.36040475549E+02  0.11815334615E+03  0.00000000000E+00 0.  1.
         11    1    5    5    0    0  0.26289405719E+03 -0.21457958622E+03 -0.20723942698E+03  0.39762528117E+03  0.00000000000E+00 0.  1.
        -11    1    5    5    0    0  0.83750442804E+02 -0.15514608221E+03 -0.13930465003E+03  0.22470030934E+03  0.00000000000E+00 0. -1.
          3    1    6    6  503    0 -0.10734978701E+03  0.10083401263E+03 -0.17338759483E+03  0.22749666572E+03  0.00000000000E+00 0. -1.
         -3    1    6    6    0  503 -0.23852608730E+03  0.11548132104E+03 -0.18419032419E+03  0.32273317981E+03  0.00000000000E+00 0.  1.
<mgrwt>
<rscale>  0 0.11614396E+04</rscale>
<asrwt>0</asrwt>
<pdfrwt beam="1">  1        1 0.15638920E+00 0.11614396E+04</pdfrwt>
<pdfrwt beam="2">  1       -2 0.51038720E-01 0.11614396E+04</pdfrwt>
<totfact> 0.46362408E+01</totfact>
</mgrwt>
</event>
<event>
12    4  0.4183215E-008  0.1686462E+04  0.7818608E-02  0.8769124E-01
         -2   -1    0    0    0  501 -0.00000000000E+00  0.00000000000E+00  0.79433079906E+03  0.79433079906E+03  0.00000000000E+00 0.  1.
          1   -1    0    0  501    0  0.00000000000E+00 -0.00000000000E+00 -0.89514139222E+03  0.89514139222E+03  0.00000000000E+00 0. -1.
        -24    2    1    2    0    0 -0.32135136710E+02 -0.59232321332E+03 -0.73429807948E+02  0.60283974742E+03  0.78386021273E+02 0.  0.
        254    2    1    2    0    0  0.32135136710E+02  0.59232321332E+03 -0.27380785210E+02  0.10866324439E+04  0.91002247478E+03 0.  0.
         23    2    4    4    0    0 -0.14110882176E+03  0.40775906825E+02  0.35082317053E+03  0.38945203411E+03  0.83795081821E+02 0.  0.
         23    2    4    4    0    0  0.17324395847E+03  0.55154730649E+03 -0.37820395574E+03  0.69718040975E+03  0.93831717217E+02 0.  0.
          1    1    3    3  502    0 -0.23479245119E+02 -0.57908823032E+02 -0.20389042932E+02  0.65729900411E+02  0.00000000000E+00 0. -1.
         -2    1    3    3    0  502 -0.86558915909E+01 -0.53441439028E+03 -0.53040765016E+02  0.53710984701E+03  0.00000000000E+00 0.  1.
         11    1    5    5    0    0 -0.83116431562E+02  0.61190353085E+02  0.17474876404E+03  0.20295253395E+03  0.00000000000E+00 0.  1.
        -11    1    5    5    0    0 -0.57992390197E+02 -0.20414446260E+02  0.17607440649E+03  0.18649950016E+03  0.00000000000E+00 0. -1.
          3    1    6    6  503    0  0.10344501221E+03  0.44949675341E+03 -0.31281703745E+03  0.55731741476E+03  0.00000000000E+00 0. -1.
         -3    1    6    6    0  503  0.69798946262E+02  0.10205055308E+03 -0.65386918292E+02  0.13986299499E+03  0.00000000000E+00 0.  1.
<mgrwt>
<rscale>  0 0.16864618E+04</rscale>
<asrwt>0</asrwt>
<pdfrwt beam="1">  1        1 0.13771406E+00 0.16864618E+04</pdfrwt>
<pdfrwt beam="2">  1       -2 0.12220474E+00 0.16864618E+04</pdfrwt>
<totfact> 0.77791905E+00</totfact>
</mgrwt>
</event>
<event>
12    4  0.4183215E-008  0.1745668E+04  0.7818608E-02  0.8735738E-01
          1   -1    0    0  501    0  0.00000000000E+00  0.00000000000E+00  0.21509029683E+04  0.21509029683E+04  0.00000000000E+00 0. -1.
         -2   -1    0    0    0  501 -0.00000000000E+00 -0.00000000000E+00 -0.35419507594E+03  0.35419507594E+03  0.00000000000E+00 0.  1.
        -24    2    1    2    0    0 -0.11919217434E+03  0.62500534562E+03  0.62291106314E+03  0.89402568528E+03  0.80157824898E+02 0.  0.
        254    2    1    2    0    0  0.11919217434E+03 -0.62500534562E+03  0.11737968293E+04  0.16110723590E+04  0.90161892897E+03 0.  0.
         23    2    4    4    0    0 -0.13265646814E+02  0.94353859386E+02  0.74842323566E+03  0.75997119446E+03  0.91324961392E+02 0.  0.
         23    2    4    4    0    0  0.13245782115E+03 -0.71935920500E+03  0.42537359360E+03  0.85110116454E+03  0.91693827165E+02 0.  0.
          3    1    3    3  502    0 -0.68033644260E+02  0.46246109599E+03  0.41386861836E+03  0.62432849953E+03  0.00000000000E+00 0. -1.
         -2    1    3    3    0  502 -0.51158530078E+02  0.16254424962E+03  0.20904244478E+03  0.26969718575E+03  0.00000000000E+00 0.  1.
         11    1    5    5    0    0 -0.29869178163E+02 -0.48717920359E+01  0.13480901226E+03  0.13816429331E+03  0.00000000000E+00 0. -1.
        -11    1    5    5    0    0  0.16603531349E+02  0.99225651422E+02  0.61361422340E+03  0.62180690115E+03  0.00000000000E+00 0.  1.
          4    1    6    6  503    0  0.74050905960E+02 -0.58609569734E+03  0.32403851145E+03  0.67378977435E+03  0.00000000000E+00 0.  1.
         -4    1    6    6    0  503  0.58406915192E+02 -0.13326350766E+03  0.10133508215E+03  0.17731139019E+03  0.00000000000E+00 0. -1.
<mgrwt>
<rscale>  0 0.17456681E+04</rscale>
<asrwt>0</asrwt>
<pdfrwt beam="1">  1        1 0.33090814E+00 0.17456681E+04</pdfrwt>
<pdfrwt beam="2">  1       -2 0.54491552E-01 0.17456681E+04</pdfrwt>
<totfact> 0.62110837E+00</totfact>
</mgrwt>
</event>
<event>
12    4  0.4183215E-008  0.1288830E+04  0.7818608E-02  0.9038470E-01
         -2   -1    0    0    0  501 -0.00000000000E+00  0.00000000000E+00  0.92950563362E+02  0.92950563362E+02  0.00000000000E+00 0.  1.
          1   -1    0    0  501    0  0.00000000000E+00 -0.00000000000E+00 -0.44676536110E+04  0.44676536110E+04  0.00000000000E+00 0. -1.
        -24    2    1    2    0    0 -0.24258554500E+03 -0.20668865676E+03 -0.10032968102E+04  0.10557636855E+04  0.80402255110E+02 0.  0.
        254    2    1    2    0    0  0.24258554500E+03  0.20668865676E+03 -0.33714062374E+04  0.35048404889E+04  0.90330442686E+03 0.  0.
         23    2    4    4    0    0 -0.32691672755E+03 -0.24337935038E+01 -0.13621512621E+04  0.14040205459E+04  0.94536567447E+02 0.  0.
         23    2    4    4    0    0  0.56950227255E+03  0.20912245026E+03 -0.20092549753E+04  0.21008199429E+04  0.90960646308E+02 0.  0.
          1    1    3    3  502    0 -0.10393982797E+03 -0.76640754202E+02 -0.53478744604E+03  0.55015898201E+03  0.00000000000E+00 0. -1.
         -2    1    3    3    0  502 -0.13864571704E+03 -0.13004790256E+03 -0.46850936419E+03  0.50560470345E+03  0.00000000000E+00 0.  1.
         11    1    5    5    0    0 -0.32179486630E+03  0.79549448292E+00 -0.12195537048E+04  0.12612944968E+04  0.00000000000E+00 0.  1.
        -11    1    5    5    0    0 -0.51218612503E+01 -0.32292879868E+01 -0.14259755730E+03  0.14272604917E+03  0.00000000000E+00 0. -1.
          1    1    6    6  503    0  0.13079791802E+02  0.17644302353E+02 -0.12173323031E+03  0.12369875392E+03  0.00000000000E+00 0. -1.
         -1    1    6    6    0  503  0.55642248075E+03  0.19147814791E+03 -0.18875217450E+04  0.19771211890E+04  0.00000000000E+00 0.  1.
<mgrwt>
<rscale>  0 0.12888304E+04</rscale>
<asrwt>0</asrwt>
<pdfrwt beam="1">  1        1 0.68733153E+00 0.12888304E+04</pdfrwt>
<pdfrwt beam="2">  1       -2 0.14300082E-01 0.12888304E+04</pdfrwt>
<totfact> 0.11913680E+00</totfact>
</mgrwt>
</event>
<event>
12    4  0.4183215E-008  0.2289246E+04  0.7818608E-02  0.8482173E-01
         -2   -1    0    0    0  501 -0.00000000000E+00  0.00000000000E+00  0.59254623477E+03  0.59254623477E+03  0.00000000000E+00 0.  1.
          1   -1    0    0  501    0  0.00000000000E+00 -0.00000000000E+00 -0.22110712655E+04  0.22110712655E+04  0.00000000000E+00 0. -1.
        -24    2    1    2    0    0 -0.88871891175E+03 -0.54206924891E+02 -0.24313305664E+03  0.92638048587E+03  0.79419308595E+02 0.  0.
        254    2    1    2    0    0  0.88871891175E+03  0.54206924891E+02 -0.13753919741E+04  0.18772370144E+04  0.91627290204E+03 0.  0.
         23    2    4    4    0    0  0.11257553373E+03 -0.30555314207E+03 -0.72006040664E+03  0.79569782215E+03  0.92801193690E+02 0.  0.
         23    2    4    4    0    0  0.77614337802E+03  0.35976006696E+03 -0.65533156743E+03  0.10815391922E+04  0.91878789822E+02 0.  0.
          1    1    3    3  502    0 -0.22593946394E+03 -0.19138697756E+02 -0.97841100488E+02  0.24695710571E+03  0.00000000000E+00 0. -1.
         -2    1    3    3    0  502 -0.66277944781E+03 -0.35068227135E+02 -0.14529195615E+03  0.67942338016E+03  0.00000000000E+00 0.  1.
         11    1    5    5    0    0  0.70006654109E+02 -0.27967289584E+03 -0.62823525562E+03  0.69122890325E+03  0.00000000000E+00 0. -1.
        -11    1    5    5    0    0  0.42568879619E+02 -0.25880246225E+02 -0.91825151021E+02  0.10446891890E+03  0.00000000000E+00 0.  1.
          2    1    6    6  503    0  0.47145757049E+03  0.19215317358E+03 -0.34078431456E+03  0.61264103025E+03  0.00000000000E+00 0. -1.
         -2    1    6    6    0  503  0.30468580753E+03  0.16760689338E+03 -0.31454725287E+03  0.46889816198E+03  0.00000000000E+00 0.  1.
<mgrwt>
<rscale>  0 0.22892461E+04</rscale>
<asrwt>0</asrwt>
<pdfrwt beam="1">  1        1 0.34016481E+00 0.22892461E+04</pdfrwt>
<pdfrwt beam="2">  1       -2 0.91160960E-01 0.22892461E+04</pdfrwt>
<totfact> 0.17459792E+00</totfact>
</mgrwt>
</event>
<event>
12    4  0.4183215E-008  0.1686369E+04  0.7818608E-02  0.8769177E-01
          1   -1    0    0  501    0  0.00000000000E+00  0.00000000000E+00  0.30251221110E+03  0.30251221110E+03  0.00000000000E+00 0. -1.
         -2   -1    0    0    0  501 -0.00000000000E+00 -0.00000000000E+00 -0.23501864541E+04  0.23501864541E+04  0.00000000000E+00 0.  1.
        -24    2    1    2    0    0 -0.24862679810E+03  0.52770559402E+03 -0.51031487843E+03  0.77936472548E+03  0.81851215492E+02 0.  0.
        254    2    1    2    0    0  0.24862679810E+03 -0.52770559402E+03 -0.15373593646E+04  0.18733339398E+04  0.89756211775E+03 0.  0.
         23    2    4    4    0    0  0.18970259730E+03  0.20329430569E+03 -0.69050231948E+03  0.74907337274E+03  0.83676845032E+02 0.  0.
         23    2    4    4    0    0  0.58924200808E+02 -0.73099989970E+03 -0.84685704514E+03  0.11242605670E+04  0.94668119645E+02 0.  0.
          3    1    3    3  502    0 -0.15054503547E+03  0.34218867326E+03 -0.37595529012E+03  0.53018796288E+03  0.00000000000E+00 0. -1.
         -4    1    3    3    0  502 -0.98081762629E+02  0.18551692075E+03 -0.13435958831E+03  0.24917676260E+03  0.00000000000E+00 0.  1.
         11    1    5    5    0    0  0.10307831495E+03  0.16196840536E+03 -0.41300290187E+03  0.45544516717E+03  0.00000000000E+00 0. -1.
        -11    1    5    5    0    0  0.86624282349E+02  0.41325900321E+02 -0.27749941761E+03  0.29362820556E+03  0.00000000000E+00 0.  1.
          2    1    6    6  503    0  0.78403686104E+02 -0.60816063914E+03 -0.67250102256E+03  0.91009017484E+03  0.00000000000E+00 0. -1.
         -2    1    6    6    0  503 -0.19479485296E+02 -0.12283926056E+03 -0.17435602258E+03  0.21417039220E+03  0.00000000000E+00 0.  1.
<mgrwt>
<rscale>  0 0.16863690E+04</rscale>
<asrwt>0</asrwt>
<pdfrwt beam="1">  1        1 0.46540341E-01 0.16863690E+04</pdfrwt>
<pdfrwt beam="2">  1       -2 0.36156714E+00 0.16863690E+04</pdfrwt>
<totfact> 0.95374569E-01</totfact>
</mgrwt>
</event>
<event>
12    4  0.4183215E-008  0.2534697E+04  0.7818608E-02  0.8390728E-01
         -2   -1    0    0    0  501 -0.00000000000E+00  0.00000000000E+00  0.51250423945E+03  0.51250423945E+03  0.00000000000E+00 0.  1.
          1   -1    0    0  501    0  0.00000000000E+00 -0.00000000000E+00 -0.31339678244E+04  0.31339678244E+04  0.00000000000E+00 0. -1.
        -24    2    1    2    0    0  0.62440595889E+03 -0.32106130211E+03  0.78328908465E+02  0.71100824258E+03  0.80213103156E+02 0.  0.
        254    2    1    2    0    0 -0.62440595889E+03  0.32106130211E+03 -0.26997924934E+04  0.29354638212E+04  0.91384089275E+03 0.  0.
         23    2    4    4    0    0 -0.25625773072E+03  0.20059424795E+03 -0.24339140972E+04  0.24573494462E+04  0.93393743163E+02 0.  0.
         23    2    4    4    0    0 -0.36814822816E+03  0.12046705416E+03 -0.26587839618E+03  0.47811437505E+03  0.88637492276E+02 0.  0.
          1    1    3    3  502    0  0.32136552522E+03 -0.13627351516E+03  0.79155962062E+01  0.34915459097E+03  0.00000000000E+00 0. -1.
         -2    1    3    3    0  502  0.30304043367E+03 -0.18478778695E+03  0.70413312259E+02  0.36185365161E+03  0.00000000000E+00 0.  1.
         11    1    5    5    0    0 -0.18285999786E+03  0.14177522794E+03 -0.20011191565E+04  0.20144517548E+04  0.00000000000E+00 0. -1.
        -11    1    5    5    0    0 -0.73397732864E+02  0.58819020004E+02 -0.43279494075E+03  0.44289769139E+03  0.00000000000E+00 0.  1.
          1    1    6    6  503    0 -0.30761850877E+03  0.74612053522E+02 -0.18267394119E+03  0.36546665274E+03  0.00000000000E+00 0. -1.
         -1    1    6    6    0  503 -0.60529719388E+02  0.45855000639E+02 -0.83204454987E+02  0.11264772231E+03  0.00000000000E+00 0.  1.
<mgrwt>
<rscale>  0 0.25346967E+04</rscale>
<asrwt>0</asrwt>
<pdfrwt beam="1">  1        1 0.48214890E+00 0.25346967E+04</pdfrwt>
<pdfrwt beam="2">  1       -2 0.78846806E-01 0.25346967E+04</pdfrwt>
<totfact> 0.52977364E-01</totfact>
</mgrwt>
</event>
<event>
12    4  0.4183215E-008  0.2269344E+04  0.7818608E-02  0.8490107E-01
          1   -1    0    0  501    0  0.00000000000E+00  0.00000000000E+00  0.14370085083E+04  0.14370085083E+04  0.00000000000E+00 0. -1.
         -2   -1    0    0    0  501 -0.00000000000E+00 -0.00000000000E+00 -0.89594507614E+03  0.89594507614E+03  0.00000000000E+00 0.  1.
        -24    2    1    2    0    0 -0.28196985191E+03 -0.15395458930E+03 -0.69676121131E+03  0.77133910544E+03  0.79238986946E+02 0.  0.
        254    2    1    2    0    0  0.28196985191E+03  0.15395458930E+03  0.12378246435E+04  0.15616144790E+04  0.89622593139E+03 0.  0.
         23    2    4    4    0    0  0.17678870213E+03 -0.32895495740E+03  0.83061784758E+03  0.91519050434E+03  0.90454636766E+02 0.  0.
         23    2    4    4    0    0  0.10518114978E+03  0.48290954671E+03  0.40720679592E+03  0.64642397468E+03  0.88214941095E+02 0.  0.
          1    1    3    3  502    0 -0.29002241967E+02  0.59150451782E+01 -0.41445967645E+02  0.50930207466E+02  0.00000000000E+00 0. -1.
         -2    1    3    3    0  502 -0.25296760994E+03 -0.15986963448E+03 -0.65531524366E+03  0.72040889798E+03  0.00000000000E+00 0.  1.
         11    1    5    5    0    0 -0.37313805097E+00 -0.53634415541E+02  0.16337185866E+03  0.17195102199E+03  0.00000000000E+00 0.  1.
        -11    1    5    5    0    0  0.17716184018E+03 -0.27532054186E+03  0.66724598892E+03  0.74323948235E+03  0.00000000000E+00 0. -1.
          3    1    6    6  503    0  0.73391376004E+02  0.44197163694E+03  0.38208927061E+03  0.58882716704E+03  0.00000000000E+00 0. -1.
         -3    1    6    6    0  503  0.31789773773E+02  0.40937909773E+02  0.25117525302E+02  0.57596807641E+02  0.00000000000E+00 0.  1.
<mgrwt>
<rscale>  0 0.22693441E+04</rscale>
<asrwt>0</asrwt>
<pdfrwt beam="1">  1        1 0.22107823E+00 0.22693441E+04</pdfrwt>
<pdfrwt beam="2">  1       -2 0.13783770E+00 0.22693441E+04</pdfrwt>
<totfact> 0.21532155E+00</totfact>
</mgrwt>
</event>
<event>
12    4  0.4183215E-008  0.1157611E+04  0.7818608E-02  0.9150791E-01
         -2   -1    0    0    0  501 -0.00000000000E+00  0.00000000000E+00  0.60477340157E+03  0.60477340157E+03  0.00000000000E+00 0.  1.
          1   -1    0    0  501    0  0.00000000000E+00 -0.00000000000E+00 -0.55395225708E+03  0.55395225708E+03  0.00000000000E+00 0. -1.
        -24    2    1    2    0    0 -0.53036904850E+02 -0.20885759273E+03  0.26783570517E+01  0.22922726016E+03  0.78125257660E+02 0.  0.
        254    2    1    2    0    0  0.53036904850E+02  0.20885759273E+03  0.48142787439E+02  0.92949839850E+03  0.90289265005E+03 0.  0.
         23    2    4    4    0    0  0.24623672305E+03  0.50935713124E+02  0.40446400708E+03  0.48507621307E+03  0.92091415509E+02 0.  0.
         23    2    4    4    0    0 -0.19319981820E+03  0.15792187961E+03 -0.35632121964E+03  0.44442218543E+03  0.90998777626E+02 0.  0.
          3    1    3    3  502    0 -0.63191516202E+02 -0.91574799529E+02 -0.38138175673E+01  0.11132680195E+03  0.00000000000E+00 0. -1.
         -4    1    3    3    0  502  0.10154611352E+02 -0.11728279320E+03  0.64921746190E+01  0.11790045820E+03  0.00000000000E+00 0.  1.
         11    1    5    5    0    0  0.25138851719E+03  0.58713388918E+02  0.39417790922E+03  0.47118963563E+03  0.00000000000E+00 0.  1.
        -11    1    5    5    0    0 -0.51517941392E+01 -0.77776757939E+01  0.10286097864E+02  0.13886577436E+02  0.00000000000E+00 0. -1.
          4    1    6    6  503    0 -0.83428367049E+02  0.11337236237E+03 -0.24098775905E+03  0.27908544389E+03  0.00000000000E+00 0. -1.
         -4    1    6    6    0  503 -0.10977145115E+03  0.44549517234E+02 -0.11533346059E+03  0.16533674155E+03  0.00000000000E+00 0.  1.
<mgrwt>
<rscale>  0 0.11576106E+04</rscale>
<asrwt>0</asrwt>
<pdfrwt beam="1">  1        1 0.85223424E-01 0.11576106E+04</pdfrwt>
<pdfrwt beam="2">  1       -2 0.93042062E-01 0.11576106E+04</pdfrwt>
<totfact> 0.32636637E+01</totfact>
</mgrwt>
</event>
<event>
12    4  0.4183215E-008  0.2958067E+04  0.7818608E-02  0.8255807E-01
         -2   -1    0    0    0  501 -0.00000000000E+00  0.00000000000E+00  0.15918719657E+04  0.15918719657E+04  0.00000000000E+00 0.  1.
          1   -1    0    0  501    0  0.00000000000E+00 -0.00000000000E+00 -0.13741937298E+04  0.13741937298E+04  0.00000000000E+00 0. -1.
        -24    2    1    2    0    0 -0.58960878885E+03 -0.11780530717E+04  0.35546256528E+03  0.13668647019E+04  0.80733601226E+02 0.  0.
        254    2    1    2    0    0  0.58960878885E+03  0.11780530717E+04 -0.13778432945E+03  0.15992009936E+04  0.89610921914E+03 0.  0.
         23    2    4    4    0    0  0.42354641485E+03  0.10002449679E+04  0.26314397603E+03  0.11214028899E+04  0.91750357169E+02 0.  0.
         23    2    4    4    0    0  0.16606237400E+03  0.17780810385E+03 -0.40092830548E+03  0.47779810365E+03  0.91406169768E+02 0.  0.
          1    1    3    3  502    0 -0.27049719726E+03 -0.46234438834E+03  0.12499381309E+03  0.55004956182E+03  0.00000000000E+00 0. -1.
         -2    1    3    3    0  502 -0.31911159159E+03 -0.71570868340E+03  0.23046875219E+03  0.81681514011E+03  0.00000000000E+00 0.  1.
         11    1    5    5    0    0  0.39411384358E+02  0.10719461710E+03  0.56922292623E+02  0.12760913193E+03  0.00000000000E+00 0.  1.
        -11    1    5    5    0    0  0.38413503049E+03  0.89305035078E+03  0.20622168340E+03  0.99379375797E+03  0.00000000000E+00 0. -1.
          2    1    6    6  503    0  0.17499202558E+03  0.16348102365E+03 -0.39010445221E+03  0.45774418374E+03  0.00000000000E+00 0. -1.
         -2    1    6    6    0  503 -0.89296515856E+01  0.14327080198E+02 -0.10823853262E+02  0.20053919913E+02  0.00000000000E+00 0.  1.
<mgrwt>
<rscale>  0 0.29580673E+04</rscale>
<asrwt>0</asrwt>
<pdfrwt beam="1">  1        1 0.21141442E+00 0.29580673E+04</pdfrwt>
<pdfrwt beam="2">  1       -2 0.24490338E+00 0.29580673E+04</pdfrwt>
<totfact> 0.41504489E-01</totfact>
</mgrwt>
</event>
<event>
12    4  0.4183215E-008  0.1731572E+04  0.7818608E-02  0.8743560E-01
         -2   -1    0    0    0  501 -0.00000000000E+00  0.00000000000E+00  0.58802533379E+03  0.58802533379E+03  0.00000000000E+00 0.  1.
          1   -1    0    0  501    0  0.00000000000E+00 -0.00000000000E+00 -0.12747504939E+04  0.12747504939E+04  0.00000000000E+00 0. -1.
        -24    2    1    2    0    0  0.14519978859E+03  0.50173158655E+02 -0.90476558999E+03  0.92124254668E+03  0.80540254043E+02 0.  0.
        254    2    1    2    0    0 -0.14519978859E+03 -0.50173158655E+02  0.21804042984E+03  0.94153328106E+03  0.90296343549E+03 0.  0.
         23    2    4    4    0    0  0.33058065989E+03  0.50851478665E+02 -0.88377747854E+02  0.35822355377E+03  0.92973343421E+02 0.  0.
         23    2    4    4    0    0 -0.47578044848E+03 -0.10102463732E+03  0.30641817769E+03  0.58330972728E+03  0.98919794880E+02 0.  0.
          3    1    3    3  502    0  0.12701342327E+03  0.71237222408E+02 -0.75863189686E+03  0.77248269009E+03  0.00000000000E+00 0. -1.
         -4    1    3    3    0  502  0.18186365314E+02 -0.21064063753E+02 -0.14613369312E+03  0.14875985659E+03  0.00000000000E+00 0.  1.
         11    1    5    5    0    0  0.81688988013E+01  0.16034808827E+02 -0.19817698225E+02  0.26769145760E+02  0.00000000000E+00 0.  1.
        -11    1    5    5    0    0  0.32241176109E+03  0.34816669838E+02 -0.68560049628E+02  0.33145440801E+03  0.00000000000E+00 0. -1.
          4    1    6    6  503    0 -0.41085556736E+03 -0.12111946952E+03  0.26174673275E+03  0.50197965620E+03  0.00000000000E+00 0. -1.
         -4    1    6    6    0  503 -0.64924881116E+02  0.20094832202E+02  0.44671444944E+02  0.81330071084E+02  0.00000000000E+00 0.  1.
<mgrwt>
<rscale>  0 0.17315722E+04</rscale>
<asrwt>0</asrwt>
<pdfrwt beam="1">  1        1 0.19611546E+00 0.17315722E+04</pdfrwt>
<pdfrwt beam="2">  1       -2 0.90465438E-01 0.17315722E+04</pdfrwt>
<totfact> 0.81999031E+00</totfact>
</mgrwt>
</event>
<event>
12    4  0.4183215E-008  0.1590668E+04  0.7818608E-02  0.8826302E-01
         -2   -1    0    0    0  501 -0.00000000000E+00  0.00000000000E+00  0.56036149536E+03  0.56036149536E+03  0.00000000000E+00 0.  1.
          1   -1    0    0  501    0  0.00000000000E+00 -0.00000000000E+00 -0.11288360936E+04  0.11288360936E+04  0.00000000000E+00 0. -1.
        -24    2    1    2    0    0  0.33425894305E+02 -0.36715054904E+03  0.22477963050E+03  0.43886979581E+03  0.78511141343E+02 0.  0.
        254    2    1    2    0    0 -0.33425894305E+02  0.36715054904E+03 -0.79325422873E+03  0.12503277931E+04  0.89339269240E+03 0.  0.
         23    2    4    4    0    0 -0.96671447994E+02 -0.21524502581E+03 -0.55634813530E+03  0.61213224845E+03  0.97503086814E+02 0.  0.
         23    2    4    4    0    0  0.63245553690E+02  0.58239557486E+03 -0.23690609343E+03  0.63819554470E+03  0.89355752464E+02 0.  0.
          1    1    3    3  502    0  0.23754547736E+02 -0.13321294554E+03  0.41520339387E+02  0.14154118121E+03  0.00000000000E+00 0. -1.
         -2    1    3    3    0  502  0.96713465691E+01 -0.23393760351E+03  0.18325929112E+03  0.29732861460E+03  0.00000000000E+00 0.  1.
         11    1    5    5    0    0  0.13652990028E+02 -0.18724737037E+01 -0.47114111871E+02  0.49088184238E+02  0.00000000000E+00 0.  1.
        -11    1    5    5    0    0 -0.11032443802E+03 -0.21337255211E+03 -0.50923402343E+03  0.56304406421E+03  0.00000000000E+00 0. -1.
          1    1    6    6  503    0  0.85400060522E+02  0.41450250943E+03 -0.16592220228E+03  0.45457197216E+03  0.00000000000E+00 0. -1.
         -1    1    6    6    0  503 -0.22154506833E+02  0.16789306542E+03 -0.70983891148E+02  0.18362357254E+03  0.00000000000E+00 0.  1.
<mgrwt>
<rscale>  0 0.15906681E+04</rscale>
<asrwt>0</asrwt>
<pdfrwt beam="1">  1        1 0.17366709E+00 0.15906681E+04</pdfrwt>
<pdfrwt beam="2">  1       -2 0.86209462E-01 0.15906681E+04</pdfrwt>
<totfact> 0.11850795E+01</totfact>
</mgrwt>
</event>
<event>
12    4  0.4183215E-008  0.1575578E+04  0.7818608E-02  0.8835693E-01
          1   -1    0    0  501    0  0.00000000000E+00  0.00000000000E+00  0.18898211486E+04  0.18898211486E+04  0.00000000000E+00 0. -1.
         -2   -1    0    0    0  501 -0.00000000000E+00 -0.00000000000E+00 -0.32839710111E+03  0.32839710111E+03  0.00000000000E+00 0.  1.
        -24    2    1    2    0    0  0.23850161976E+03 -0.45672565180E+03  0.69159312112E+03  0.86621751781E+03  0.80934537310E+02 0.  0.
        254    2    1    2    0    0 -0.23850161976E+03  0.45672565180E+03  0.86983092634E+03  0.13520007319E+04  0.89767410286E+03 0.  0.
         23    2    4    4    0    0 -0.31837867736E+03  0.53870089058E+03  0.98059515312E+03  0.11669353830E+04  0.92777702848E+02 0.  0.
         23    2    4    4    0    0  0.79877057599E+02 -0.81975238784E+02 -0.11076422678E+03  0.18506534885E+03  0.94234735132E+02 0.  0.
          1    1    3    3  502    0  0.14958355811E+03 -0.32019868943E+03  0.41391384824E+03  0.54426750347E+03  0.00000000000E+00 0. -1.
         -2    1    3    3    0  502  0.88918061644E+02 -0.13652696237E+03  0.27767927288E+03  0.32195001433E+03  0.00000000000E+00 0.  1.
         11    1    5    5    0    0 -0.75572040952E+02  0.88541021537E+02  0.13084247311E+03  0.17512966236E+03  0.00000000000E+00 0. -1.
        -11    1    5    5    0    0 -0.24280663640E+03  0.45015986904E+03  0.84975268000E+03  0.99180572067E+03  0.00000000000E+00 0.  1.
          1    1    6    6  503    0  0.58561784322E+02 -0.36939153101E+01 -0.17037429636E+02  0.61101567917E+02  0.00000000000E+00 0. -1.
         -1    1    6    6    0  503  0.21315273277E+02 -0.78281323474E+02 -0.93726797145E+02  0.12396378093E+03  0.00000000000E+00 0.  1.
<mgrwt>
<rscale>  0 0.15755784E+04</rscale>
<asrwt>0</asrwt>
<pdfrwt beam="1">  1        1 0.29074171E+00 0.15755784E+04</pdfrwt>
<pdfrwt beam="2">  1       -2 0.50522632E-01 0.15755784E+04</pdfrwt>
<totfact> 0.11071601E+01</totfact>
</mgrwt>
</event>
<event>
12    4  0.4183215E-008  0.1824931E+04  0.7818608E-02  0.8693153E-01
         -2   -1    0    0    0  501 -0.00000000000E+00  0.00000000000E+00  0.17319260567E+04  0.17319260567E+04  0.00000000000E+00 0.  1.
          1   -1    0    0  501    0  0.00000000000E+00 -0.00000000000E+00 -0.48073248017E+03  0.48073248017E+03  0.00000000000E+00 0. -1.
        -24    2    1    2    0    0 -0.44386792221E+01 -0.56906818138E+02 -0.34180414191E+03  0.35467906287E+03  0.75558443496E+02 0.  0.
        254    2    1    2    0    0  0.44386792221E+01  0.56906818138E+02  0.15929977185E+04  0.18579794740E+04  0.95456163080E+03 0.  0.
         23    2    4    4    0    0 -0.30468877439E+02  0.89315755492E+02  0.17028235701E+04  0.17078744855E+04  0.91222206244E+02 0.  0.
         23    2    4    4    0    0  0.34907556661E+02 -0.32408937354E+02 -0.10982585159E+03  0.15010498849E+03  0.90558893327E+02 0.  0.
          3    1    3    3  502    0  0.91010151957E+01 -0.63471679186E+02 -0.32816369773E+03  0.33436939908E+03  0.00000000000E+00 0. -1.
         -4    1    3    3    0  502 -0.13539694418E+02  0.65648610472E+01 -0.13640444186E+02  0.20309663786E+02  0.00000000000E+00 0.  1.
         11    1    5    5    0    0 -0.30394288009E+02  0.25905650163E+02  0.21358768044E+03  0.21728923740E+03  0.00000000000E+00 0.  1.
        -11    1    5    5    0    0 -0.74589429521E-01  0.63410105329E+02  0.14892358896E+04  0.14905852481E+04  0.00000000000E+00 0. -1.
          1    1    6    6  503    0 -0.12780635581E+02 -0.16694165841E+02  0.76304571277E+01  0.22366575397E+02  0.00000000000E+00 0.  1.
         -1    1    6    6    0  503  0.47688192242E+02 -0.15714771513E+02 -0.11745630871E+03  0.12773841309E+03  0.00000000000E+00 0. -1.
<mgrwt>
<rscale>  0 0.18249308E+04</rscale>
<asrwt>0</asrwt>
<pdfrwt beam="1">  1        1 0.73958844E-01 0.18249308E+04</pdfrwt>
<pdfrwt beam="2">  1       -2 0.26645016E+00 0.18249308E+04</pdfrwt>
<totfact> 0.19648928E+00</totfact>
</mgrwt>
</event>
<event>
12    4  0.4183215E-008  0.2531276E+04  0.7818608E-02  0.8391927E-01
          1   -1    0    0  501    0  0.00000000000E+00  0.00000000000E+00  0.17305932911E+04  0.17305932911E+04  0.00000000000E+00 0. -1.
         -4   -1    0    0    0  501 -0.00000000000E+00 -0.00000000000E+00 -0.92560141306E+03  0.92560141306E+03  0.00000000000E+00 0.  1.
        -24    2    1    2    0    0  0.37726087767E+03  0.10156754759E+04  0.13615781468E+03  0.10948424423E+04  0.78857979405E+02 0.  0.
        254    2    1    2    0    0 -0.37726087767E+03 -0.10156754759E+04  0.66883406340E+03  0.15613522619E+04  0.90363678499E+03 0.  0.
         23    2    4    4    0    0  0.14293850345E+03 -0.44940754409E+03  0.62150088421E+03  0.78555423901E+03  0.91834399347E+02 0.  0.
         23    2    4    4    0    0 -0.52019938112E+03 -0.56626793178E+03  0.47333179191E+02  0.77579802286E+03  0.91407744430E+02 0.  0.
          3    1    3    3  502    0  0.31419792849E+02  0.15041827814E+03  0.41134182419E+01  0.15371981652E+03  0.00000000000E+00 0. -1.
         -4    1    3    3    0  502  0.34584108482E+03  0.86525719774E+03  0.13204439644E+03  0.94112262581E+03  0.00000000000E+00 0.  1.
         11    1    5    5    0    0 -0.35253669796E+00  0.39519278618E+01  0.15277414210E+01  0.42515890908E+01  0.00000000000E+00 0. -1.
        -11    1    5    5    0    0  0.14329104015E+03 -0.45335947196E+03  0.61997314279E+03  0.78130264992E+03  0.00000000000E+00 0.  1.
          1    1    6    6  503    0 -0.21100118952E+03 -0.18330324932E+03  0.47993092628E+02  0.28359287743E+03  0.00000000000E+00 0. -1.
         -1    1    6    6    0  503 -0.30919819160E+03 -0.38296468246E+03 -0.65991343787E+00  0.49220514543E+03  0.00000000000E+00 0.  1.
<mgrwt>
<rscale>  0 0.25312760E+04</rscale>
<asrwt>0</asrwt>
<pdfrwt beam="1">  1        1 0.26624512E+00 0.25312760E+04</pdfrwt>
<pdfrwt beam="2">  1       -4 0.14240022E+00 0.25312760E+04</pdfrwt>
<totfact> 0.67268196E-01</totfact>
</mgrwt>
</event>
<event>
12    4  0.4183215E-008  0.2341631E+04  0.7818608E-02  0.8461685E-01
          3   -1    0    0  501    0  0.00000000000E+00  0.00000000000E+00  0.28125158530E+04  0.28125158530E+04  0.00000000000E+00 0. -1.
         -4   -1    0    0    0  501 -0.00000000000E+00 -0.00000000000E+00 -0.48739602766E+03  0.48739602766E+03  0.00000000000E+00 0.  1.
        -24    2    1    2    0    0  0.48102996242E+03  0.10660067449E+03  0.22022860247E+04  0.22578201721E+04  0.70247181105E+02 0.  0.
        254    2    1    2    0    0 -0.48102996242E+03 -0.10660067449E+03  0.12283380067E+03  0.10420917086E+04  0.91000739445E+03 0.  0.
         23    2    4    4    0    0 -0.26653748325E+03  0.39321182412E+03  0.40076278663E+02  0.48494803613E+03  0.88942234235E+02 0.  0.
         23    2    4    4    0    0 -0.21449247917E+03 -0.49981249861E+03  0.82757522007E+02  0.55714367245E+03  0.87981287298E+02 0.  0.
          1    1    3    3  502    0  0.46368589830E+03  0.10605217147E+03  0.21658018921E+04  0.22174195614E+04  0.00000000000E+00 0. -1.
         -2    1    3    3    0  502  0.17344064121E+02  0.54850302303E+00  0.36484132555E+02  0.40400610689E+02  0.00000000000E+00 0.  1.
         11    1    5    5    0    0 -0.23711451502E+03  0.38025535094E+03  0.23415143941E+02  0.44873789022E+03  0.00000000000E+00 0.  1.
        -11    1    5    5    0    0 -0.29422968238E+02  0.12956473183E+02  0.16661134722E+02  0.36210145919E+02  0.00000000000E+00 0. -1.
          2    1    6    6  503    0  0.22940804699E+01 -0.55169199517E+02 -0.20303101251E+01  0.55254190246E+02  0.00000000000E+00 0. -1.
         -2    1    6    6    0  503 -0.21678655964E+03 -0.44464329909E+03  0.84787832133E+02  0.50188948220E+03  0.00000000000E+00 0.  1.
<mgrwt>
<rscale>  0 0.23416311E+04</rscale>
<asrwt>0</asrwt>
<pdfrwt beam="1">  1        3 0.43269474E+00 0.23416311E+04</pdfrwt>
<pdfrwt beam="2">  1       -4 0.74984006E-01 0.23416311E+04</pdfrwt>
<totfact> 0.24948040E-02</totfact>
</mgrwt>
</event>
<event>
12    4  0.4183215E-008  0.3061703E+04  0.7818608E-02  0.8226328E-01
          3   -1    0    0  501    0  0.00000000000E+00  0.00000000000E+00  0.22575266415E+04  0.22575266415E+04  0.00000000000E+00 0. -1.
         -4   -1    0    0    0  501 -0.00000000000E+00 -0.00000000000E+00 -0.10380854991E+04  0.10380854991E+04  0.00000000000E+00 0.  1.
        -24    2    1    2    0    0 -0.21312232284E+03 -0.11341746129E+04 -0.29435597691E+03  0.11936067936E+04  0.79237361435E+02 0.  0.
        254    2    1    2    0    0  0.21312232284E+03  0.11341746129E+04  0.15137971193E+04  0.21020053470E+04  0.89166786600E+03 0.  0.
         23    2    4    4    0    0  0.53416829333E+02  0.10651029326E+04  0.15659232217E+04  0.18969233019E+04  0.94365577769E+02 0.  0.
         23    2    4    4    0    0  0.15970549350E+03  0.69071680327E+02 -0.52126102449E+02  0.20508204507E+03  0.95209101328E+02 0.  0.
          3    1    3    3  502    0 -0.60286019773E+02 -0.49292565214E+03 -0.10278618404E+03  0.50712434604E+03  0.00000000000E+00 0. -1.
         -4    1    3    3    0  502 -0.15283630306E+03 -0.64124896081E+03 -0.19156979288E+03  0.68648244757E+03  0.00000000000E+00 0.  1.
         11    1    5    5    0    0  0.50105584491E+02  0.86210555043E+03  0.13288649723E+04  0.15848087153E+04  0.00000000000E+00 0. -1.
        -11    1    5    5    0    0  0.33112448420E+01  0.20299738219E+03  0.23705824945E+03  0.31211458657E+03  0.00000000000E+00 0.  1.
          2    1    6    6  503    0  0.92684976466E+02  0.51075244184E+02 -0.77526134130E+02  0.13118493398E+03  0.00000000000E+00 0. -1.
         -2    1    6    6    0  503  0.67020517038E+02  0.17996436143E+02  0.25400031681E+02  0.73897111089E+02  0.00000000000E+00 0.  1.
<mgrwt>
<rscale>  0 0.30617026E+04</rscale>
<asrwt>0</asrwt>
<pdfrwt beam="1">  1        3 0.34731179E+00 0.30617026E+04</pdfrwt>
<pdfrwt beam="2">  1       -4 0.15970546E+00 0.30617026E+04</pdfrwt>
<totfact> 0.10397754E-02</totfact>
</mgrwt>
</event>
<event>
12    4  0.4183215E-008  0.1439231E+04  0.7818608E-02  0.8925900E-01
         -2   -1    0    0    0  501 -0.00000000000E+00  0.00000000000E+00  0.53005870700E+03  0.53005870700E+03  0.00000000000E+00 0.  1.
          1   -1    0    0  501    0  0.00000000000E+00 -0.00000000000E+00 -0.97696095867E+03  0.97696095867E+03  0.00000000000E+00 0. -1.
        -24    2    1    2    0    0 -0.27545014966E+03 -0.12771329277E+03  0.18388459439E+03  0.36378593181E+03  0.79644146255E+02 0.  0.
        254    2    1    2    0    0  0.27545014966E+03  0.12771329277E+03 -0.63078684606E+03  0.11432337339E+04  0.90382954974E+03 0.  0.
         23    2    4    4    0    0  0.19477189200E+03  0.50302155123E+03 -0.45420701275E+03  0.71098482194E+03  0.90711827649E+02 0.  0.
         23    2    4    4    0    0  0.80678257651E+02 -0.37530825846E+03 -0.17657983330E+03  0.43224891193E+03  0.91068184383E+02 0.  0.
          3    1    3    3  502    0  0.34582728529E+01 -0.73010492698E+01  0.12790586912E+02  0.15128254530E+02  0.00000000000E+00 0. -1.
         -4    1    3    3    0  502 -0.27890842251E+03 -0.12041224350E+03  0.17109400748E+03  0.34865767728E+03  0.00000000000E+00 0.  1.
         11    1    5    5    0    0  0.11625839253E+03  0.17848746204E+03 -0.17099020872E+03  0.27315094622E+03  0.00000000000E+00 0. -1.
        -11    1    5    5    0    0  0.78513499475E+02  0.32453408918E+03 -0.28321680403E+03  0.43783387572E+03  0.00000000000E+00 0.  1.
          4    1    6    6  503    0  0.86808375026E+02 -0.36460780300E+03 -0.15142280079E+03  0.40423187477E+03  0.00000000000E+00 0.  1.
         -4    1    6    6    0  503 -0.61301173745E+01 -0.10700455462E+02 -0.25157032514E+02  0.28017037156E+02  0.00000000000E+00 0. -1.
<mgrwt>
<rscale>  0 0.14392313E+04</rscale>
<asrwt>0</asrwt>
<pdfrwt beam="1">  1        1 0.15030169E+00 0.14392313E+04</pdfrwt>
<pdfrwt beam="2">  1       -2 0.81547494E-01 0.14392313E+04</pdfrwt>
<totfact> 0.17797222E+01</totfact>
</mgrwt>
</event>
<event>
12    4  0.4183215E-008  0.2094573E+04  0.7818608E-02  0.8563638E-01
          1   -1    0    0  501    0  0.00000000000E+00  0.00000000000E+00  0.11918391653E+04  0.11918391653E+04  0.00000000000E+00 0. -1.
         -2   -1    0    0    0  501 -0.00000000000E+00 -0.00000000000E+00 -0.92026581509E+03  0.92026581509E+03  0.00000000000E+00 0.  1.
        -24    2    1    2    0    0  0.61402613886E+03 -0.30073839313E+03 -0.40403667501E+03  0.79814839040E+03  0.79520676862E+02 0.  0.
        254    2    1    2    0    0 -0.61402613886E+03  0.30073839313E+03  0.67561002521E+03  0.13139565900E+04  0.89585787596E+03 0.  0.
         23    2    4    4    0    0 -0.56287859653E+03  0.51721171134E+03  0.22238902840E+03  0.80106468103E+03  0.88923981368E+02 0.  0.
         23    2    4    4    0    0 -0.51147542323E+02 -0.21647331821E+03  0.45322099682E+03  0.51289190896E+03  0.90399500780E+02 0.  0.
          1    1    3    3  502    0  0.40447557886E+03 -0.19284198589E+03 -0.22043436641E+03  0.49937945022E+03  0.00000000000E+00 0. -1.
         -2    1    3    3    0  502  0.20955056000E+03 -0.10789640724E+03 -0.18360230860E+03  0.29876894018E+03  0.00000000000E+00 0.  1.
         11    1    5    5    0    0 -0.11858604092E+03  0.15012266968E+03  0.80324936519E+02  0.20748869964E+03  0.00000000000E+00 0.  1.
        -11    1    5    5    0    0 -0.44429255561E+03  0.36708904166E+03  0.14206409188E+03  0.59357598139E+03  0.00000000000E+00 0. -1.
          1    1    6    6  503    0 -0.12745929440E+02 -0.48817062074E+02  0.20355592750E+03  0.20971547365E+03  0.00000000000E+00 0. -1.
         -1    1    6    6    0  503 -0.38401612883E+02 -0.16765625614E+03  0.24966506932E+03  0.30317643532E+03  0.00000000000E+00 0.  1.
<mgrwt>
<rscale>  0 0.20945728E+04</rscale>
<asrwt>0</asrwt>
<pdfrwt beam="1">  1        1 0.18335987E+00 0.20945728E+04</pdfrwt>
<pdfrwt beam="2">  1       -2 0.14157936E+00 0.20945728E+04</pdfrwt>
<totfact> 0.30501809E+00</totfact>
</mgrwt>
</event>
<event>
12    4  0.4183215E-008  0.1780048E+04  0.7818608E-02  0.8716982E-01
         -2   -1    0    0    0  501 -0.00000000000E+00  0.00000000000E+00  0.46732174366E+03  0.46732174366E+03  0.00000000000E+00 0.  1.
          1   -1    0    0  501    0  0.00000000000E+00 -0.00000000000E+00 -0.16950695796E+04  0.16950695796E+04  0.00000000000E+00 0. -1.
        -24    2    1    2    0    0  0.55273528722E+03 -0.17168196426E+03 -0.60477125316E+02  0.58791386424E+03  0.83631539993E+02 0.  0.
        254    2    1    2    0    0 -0.55273528722E+03  0.17168196426E+03 -0.11672707106E+04  0.15744774590E+04  0.88400642672E+03 0.  0.
         23    2    4    4    0    0  0.15354365468E+03  0.22207140135E+03 -0.12122081458E+03  0.30801825217E+03  0.85377963154E+02 0.  0.
         23    2    4    4    0    0 -0.70627894190E+03 -0.50389437093E+02 -0.10460498960E+04  0.12664592068E+04  0.91266086031E+02 0.  0.
          3    1    3    3  502    0  0.45307211502E+02  0.87455622557E+01 -0.18444438523E+01  0.46180409768E+02  0.00000000000E+00 0. -1.
         -4    1    3    3    0  502  0.50742807572E+03 -0.18042752652E+03 -0.58632681463E+02  0.54173345447E+03  0.00000000000E+00 0.  1.
         11    1    5    5    0    0  0.15596084617E+03  0.17371017211E+03 -0.88918518187E+02  0.24981095314E+03  0.00000000000E+00 0.  1.
        -11    1    5    5    0    0 -0.24171914861E+01  0.48361229239E+02 -0.32302296395E+02  0.58207299032E+02  0.00000000000E+00 0. -1.
          2    1    6    6  503    0 -0.56768384533E+02 -0.26453061667E+02 -0.11570633900E+03  0.13156888249E+03  0.00000000000E+00 0. -1.
         -2    1    6    6    0  503 -0.64951055737E+03 -0.23936375426E+02 -0.93034355703E+03  0.11348903243E+04  0.00000000000E+00 0.  1.
<mgrwt>
<rscale>  0 0.17800482E+04</rscale>
<asrwt>0</asrwt>
<pdfrwt beam="1">  1        1 0.26077994E+00 0.17800482E+04</pdfrwt>
<pdfrwt beam="2">  1       -2 0.71895652E-01 0.17800482E+04</pdfrwt>
<totfact> 0.69862188E+00</totfact>
</mgrwt>
</event>
<event>
12    4  0.4183215E-008  0.1512479E+04  0.7818608E-02  0.8876197E-01
          1   -1    0    0  501    0  0.00000000000E+00  0.00000000000E+00  0.10755039286E+04  0.10755039286E+04  0.00000000000E+00 0. -1.
         -2   -1    0    0    0  501 -0.00000000000E+00 -0.00000000000E+00 -0.53174875541E+03  0.53174875541E+03  0.00000000000E+00 0.  1.
        -24    2    1    2    0    0 -0.30392456623E+03 -0.19877220253E+03 -0.16521140579E+03  0.40651136239E+03  0.77949654850E+02 0.  0.
        254    2    1    2    0    0  0.30392456623E+03  0.19877220253E+03  0.70896657898E+03  0.12007413216E+04  0.89847959403E+03 0.  0.
         23    2    4    4    0    0 -0.18897420891E+03 -0.15658643335E+03 -0.49613765188E+00  0.26131475697E+03  0.89747386114E+02 0.  0.
         23    2    4    4    0    0  0.49289877514E+03  0.35535863588E+03  0.70946271664E+03  0.93942656466E+03  0.99779564346E+02 0.  0.
          1    1    3    3  502    0 -0.42325427766E+02 -0.17854412185E+02  0.42248217612E+01  0.46131019813E+02  0.00000000000E+00 0. -1.
         -2    1    3    3    0  502 -0.26159913847E+03 -0.18091779034E+03 -0.16943622755E+03  0.36038034258E+03  0.00000000000E+00 0.  1.
         11    1    5    5    0    0 -0.16316930111E+03 -0.11738072554E+03  0.32942987172E+02  0.20368528655E+03  0.00000000000E+00 0. -1.
        -11    1    5    5    0    0 -0.25804907794E+02 -0.39205707813E+02 -0.33439124824E+02  0.57629470415E+02  0.00000000000E+00 0.  1.
          1    1    6    6  503    0  0.17707741538E+03  0.74291150118E+02  0.19757002277E+03  0.27551678700E+03  0.00000000000E+00 0. -1.
         -1    1    6    6    0  503  0.31582135976E+03  0.28106748576E+03  0.51189269387E+03  0.66390977766E+03  0.00000000000E+00 0.  1.
<mgrwt>
<rscale>  0 0.15124786E+04</rscale>
<asrwt>0</asrwt>
<pdfrwt beam="1">  1        1 0.16546214E+00 0.15124786E+04</pdfrwt>
<pdfrwt beam="2">  1       -2 0.81807501E-01 0.15124786E+04</pdfrwt>
<totfact> 0.14736976E+01</totfact>
</mgrwt>
</event>
<event>
12    4  0.4183215E-008  0.2040901E+04  0.7818608E-02  0.8587733E-01
         -2   -1    0    0    0  501 -0.00000000000E+00  0.00000000000E+00  0.52032482283E+03  0.52032482283E+03  0.00000000000E+00 0.  1.
          1   -1    0    0  501    0  0.00000000000E+00 -0.00000000000E+00 -0.20012873560E+04  0.20012873560E+04  0.00000000000E+00 0. -1.
        -24    2    1    2    0    0  0.49880255673E+03  0.33791814524E+03  0.10442020864E+03  0.61679468091E+03  0.80866772861E+02 0.  0.
        254    2    1    2    0    0 -0.49880255673E+03 -0.33791814524E+03 -0.15853827418E+04  0.19048174980E+04  0.86712086753E+03 0.  0.
         23    2    4    4    0    0 -0.50497304641E+03 -0.75530824927E+02 -0.32003705457E+03  0.60908165703E+03  0.88623165807E+02 0.  0.
         23    2    4    4    0    0  0.61704896812E+01 -0.26238732031E+03 -0.12653456873E+04  0.12957358409E+04  0.94585835924E+02 0.  0.
          1    1    3    3  502    0  0.52480488238E+02  0.42554758921E+02  0.37909686828E+02  0.77474211890E+02  0.00000000000E+00 0. -1.
         -2    1    3    3    0  502  0.44632206849E+03  0.29536338632E+03  0.66510521813E+02  0.53932046903E+03  0.00000000000E+00 0.  1.
         11    1    5    5    0    0 -0.29026713786E+03 -0.52683299325E+02 -0.23442633452E+03  0.37681062573E+03  0.00000000000E+00 0.  1.
        -11    1    5    5    0    0 -0.21470590855E+03 -0.22847525602E+02 -0.85610720051E+02  0.23227103129E+03  0.00000000000E+00 0. -1.
          2    1    6    6  503    0  0.92314100772E+01 -0.94275320974E+02 -0.26643721592E+03  0.28277525547E+03  0.00000000000E+00 0.  1.
         -2    1    6    6    0  503 -0.30609203960E+01 -0.16811199934E+03 -0.99890847135E+03  0.10129605855E+04  0.00000000000E+00 0. -1.
<mgrwt>
<rscale>  0 0.20409013E+04</rscale>
<asrwt>0</asrwt>
<pdfrwt beam="1">  1        1 0.30789036E+00 0.20409013E+04</pdfrwt>
<pdfrwt beam="2">  1       -2 0.80049973E-01 0.20409013E+04</pdfrwt>
<totfact> 0.33327312E+00</totfact>
</mgrwt>
</event>
<event>
12    4  0.4183215E-008  0.1262587E+04  0.7818608E-02  0.9059772E-01
         -2   -1    0    0    0  501 -0.00000000000E+00  0.00000000000E+00  0.47298468686E+03  0.47298468686E+03  0.00000000000E+00 0.  1.
          1   -1    0    0  501    0  0.00000000000E+00 -0.00000000000E+00 -0.84258877283E+03  0.84258877283E+03  0.00000000000E+00 0. -1.
        -24    2    1    2    0    0  0.32059884733E+03 -0.33596753072E+02 -0.53935313877E+02  0.33683266717E+03  0.81454679806E+02 0.  0.
        254    2    1    2    0    0 -0.32059884733E+03  0.33596753072E+02 -0.31566877209E+03  0.97874079251E+03  0.86854729435E+03 0.  0.
         23    2    4    4    0    0 -0.23120490110E+03 -0.21124560601E+02  0.27607218923E+03  0.37117617625E+03  0.87486837837E+02 0.  0.
         23    2    4    4    0    0 -0.89393946232E+02  0.54721313672E+02 -0.59174096132E+03  0.60756461627E+03  0.89396296574E+02 0.  0.
          3    1    3    3  502    0  0.56317343229E+02 -0.37031147846E+02 -0.20331959097E+02  0.70401261494E+02  0.00000000000E+00 0. -1.
         -4    1    3    3    0  502  0.26428150410E+03  0.34343947740E+01 -0.33603354780E+02  0.26643140568E+03  0.00000000000E+00 0.  1.
         11    1    5    5    0    0 -0.37639672921E+02 -0.88996612418E+01  0.10735971383E+03  0.11411422831E+03  0.00000000000E+00 0. -1.
        -11    1    5    5    0    0 -0.19356522818E+03 -0.12224899359E+02  0.16871247539E+03  0.25706194794E+03  0.00000000000E+00 0.  1.
          1    1    6    6  503    0  0.14215371794E+02  0.26984327982E+02 -0.13004761639E+03  0.13357624520E+03  0.00000000000E+00 0. -1.
         -1    1    6    6    0  503 -0.10360931803E+03  0.27736985690E+02 -0.46169334493E+03  0.47398837107E+03  0.00000000000E+00 0.  1.
<mgrwt>
<rscale>  0 0.12625872E+04</rscale>
<asrwt>0</asrwt>
<pdfrwt beam="1">  1        1 0.12962904E+00 0.12625872E+04</pdfrwt>
<pdfrwt beam="2">  1       -2 0.72766876E-01 0.12625872E+04</pdfrwt>
<totfact> 0.29954366E+01</totfact>
</mgrwt>
</event>
<event>
12    4  0.4183215E-008  0.1734652E+04  0.7818608E-02  0.8741844E-01
          3   -1    0    0  501    0  0.00000000000E+00  0.00000000000E+00  0.24607261697E+04  0.24607261697E+04  0.00000000000E+00 0. -1.
         -4   -1    0    0    0  501 -0.00000000000E+00 -0.00000000000E+00 -0.30570432427E+03  0.30570432427E+03  0.00000000000E+00 0.  1.
        -24    2    1    2    0    0  0.29594466218E+03  0.45177698897E+03  0.13461187349E+04  0.14526510376E+04  0.80459292637E+02 0.  0.
        254    2    1    2    0    0 -0.29594466218E+03 -0.45177698897E+03  0.80890311054E+03  0.13137794564E+04  0.88317978177E+03 0.  0.
         23    2    4    4    0    0 -0.54678958042E+03 -0.50901641484E+03  0.50868883547E+03  0.90830338142E+03  0.90410981304E+02 0.  0.
         23    2    4    4    0    0  0.25084491824E+03  0.57239425873E+02  0.30021427508E+03  0.40547607496E+03  0.89903901601E+02 0.  0.
          1    1    3    3  502    0  0.26979524846E+03  0.44088318448E+03  0.12564734962E+04  0.13586364874E+04  0.00000000000E+00 0. -1.
         -2    1    3    3    0  502  0.26149413724E+02  0.10893804495E+02  0.89645238769E+02  0.94014550195E+02  0.00000000000E+00 0.  1.
         11    1    5    5    0    0 -0.63358233569E+02 -0.68837634194E+02  0.30919316977E+02  0.98533698828E+02  0.00000000000E+00 0.  1.
        -11    1    5    5    0    0 -0.48343134685E+03 -0.44017878065E+03  0.47776951849E+03  0.80976968260E+03  0.00000000000E+00 0. -1.
          2    1    6    6  503    0  0.22732506063E+03  0.41261697929E+02  0.29783721261E+03  0.37694325319E+03  0.00000000000E+00 0. -1.
         -2    1    6    6    0  503  0.23519857613E+02  0.15977727944E+02  0.23770624633E+01  0.28532821773E+02  0.00000000000E+00 0.  1.
<mgrwt>
<rscale>  0 0.17346523E+04</rscale>
<asrwt>0</asrwt>
<pdfrwt beam="1">  1        3 0.37857324E+00 0.17346523E+04</pdfrwt>
<pdfrwt beam="2">  1       -4 0.47031436E-01 0.17346523E+04</pdfrwt>
<totfact> 0.13883238E-01</totfact>
</mgrwt>
</event>
<event>
12    4  0.4183215E-008  0.1210016E+04  0.7818608E-02  0.9104134E-01
         -2   -1    0    0    0  501 -0.00000000000E+00  0.00000000000E+00  0.15636643263E+03  0.15636643263E+03  0.00000000000E+00 0.  1.
          1   -1    0    0  501    0  0.00000000000E+00 -0.00000000000E+00 -0.23408775720E+04  0.23408775720E+04  0.00000000000E+00 0. -1.
        -24    2    1    2    0    0  0.12920776437E+03  0.96802631380E+02 -0.70682531346E+02  0.19386623716E+03  0.80763245699E+02 0.  0.
        254    2    1    2    0    0 -0.12920776437E+03 -0.96802631380E+02 -0.21138286080E+04  0.23033777674E+04  0.90067328134E+03 0.  0.
         23    2    4    4    0    0  0.32758177515E+03 -0.18290241337E+03 -0.13548752094E+04  0.14088278178E+04  0.91355760575E+02 0.  0.
         23    2    4    4    0    0 -0.45678953952E+03  0.86099781992E+02 -0.75895339861E+03  0.89454994963E+03  0.90219151220E+02 0.  0.
          3    1    3    3  502    0  0.70210884663E+02  0.94391076597E+02 -0.65367387730E+02  0.13458134731E+03  0.00000000000E+00 0. -1.
         -4    1    3    3    0  502  0.58996879711E+02  0.24115547823E+01 -0.53151436161E+01  0.59284889844E+02  0.00000000000E+00 0.  1.
         11    1    5    5    0    0  0.14415110001E+03 -0.87275967400E+02 -0.77645055702E+03  0.79452633791E+03  0.00000000000E+00 0.  1.
        -11    1    5    5    0    0  0.18343067513E+03 -0.95626445971E+02 -0.57842465235E+03  0.61430147989E+03  0.00000000000E+00 0. -1.
          1    1    6    6  503    0 -0.29366876311E+03  0.64849150095E+02 -0.56644316666E+03  0.64133034838E+03  0.00000000000E+00 0. -1.
         -1    1    6    6    0  503 -0.16312077641E+03  0.21250631897E+02 -0.19251023195E+03  0.25321960126E+03  0.00000000000E+00 0.  1.
<mgrwt>
<rscale>  0 0.12100160E+04</rscale>
<asrwt>0</asrwt>
<pdfrwt beam="1">  1        1 0.36013500E+00 0.12100160E+04</pdfrwt>
<pdfrwt beam="2">  1       -2 0.24056375E-01 0.12100160E+04</pdfrwt>
<totfact> 0.23407269E+01</totfact>
</mgrwt>
</event>
<event>
12    4  0.4183215E-008  0.1865757E+04  0.7818608E-02  0.8672092E-01
         -2   -1    0    0    0  501 -0.00000000000E+00  0.00000000000E+00  0.89695689706E+03  0.89695689706E+03  0.00000000000E+00 0.  1.
          1   -1    0    0  501    0  0.00000000000E+00 -0.00000000000E+00 -0.97023875899E+03  0.97023875899E+03  0.00000000000E+00 0. -1.
        -24    2    1    2    0    0  0.29267852152E+03  0.90741556952E+02  0.61661664792E+03  0.69312584425E+03  0.79451861931E+02 0.  0.
        254    2    1    2    0    0 -0.29267852152E+03 -0.90741556952E+02 -0.68989850984E+03  0.11740698118E+04  0.89921366869E+03 0.  0.
         23    2    4    4    0    0 -0.27718968323E+03  0.29164090176E+03 -0.41753483613E+02  0.41624455841E+03  0.98120553123E+02 0.  0.
         23    2    4    4    0    0 -0.15488838293E+02 -0.38238245872E+03 -0.64814502623E+03  0.75782525338E+03  0.88039143496E+02 0.  0.
          3    1    3    3  502    0  0.10271450149E+03  0.14210187907E+02  0.28598666952E+03  0.30420482146E+03  0.00000000000E+00 0. -1.
         -4    1    3    3    0  502  0.18996402003E+03  0.76531369045E+02  0.33062997839E+03  0.38892102279E+03  0.00000000000E+00 0.  1.
         11    1    5    5    0    0  0.35664816831E+01  0.20551556452E+02 -0.13717883060E+02  0.24965307525E+02  0.00000000000E+00 0.  1.
        -11    1    5    5    0    0 -0.28075616491E+03  0.27108934531E+03 -0.28035600554E+02  0.39127925089E+03  0.00000000000E+00 0. -1.
          1    1    6    6  503    0  0.22641161997E+02 -0.29793256306E+03 -0.46802142353E+03  0.55526614090E+03  0.00000000000E+00 0. -1.
         -1    1    6    6    0  503 -0.38130000290E+02 -0.84449895658E+02 -0.18012360270E+03  0.20255911248E+03  0.00000000000E+00 0.  1.
<mgrwt>
<rscale>  0 0.18657571E+04</rscale>
<asrwt>0</asrwt>
<pdfrwt beam="1">  1        1 0.14926750E+00 0.18657571E+04</pdfrwt>
<pdfrwt beam="2">  1       -2 0.13799337E+00 0.18657571E+04</pdfrwt>
<totfact> 0.48975029E+00</totfact>
</mgrwt>
</event>
<event>
12    4  0.4183215E-008  0.2227953E+04  0.7818608E-02  0.8506883E-01
          1   -1    0    0  501    0  0.00000000000E+00  0.00000000000E+00  0.12765314830E+04  0.12765314830E+04  0.00000000000E+00 0. -1.
         -2   -1    0    0    0  501 -0.00000000000E+00 -0.00000000000E+00 -0.97212139492E+03  0.97212139492E+03  0.00000000000E+00 0.  1.
        -24    2    1    2    0    0  0.75326619887E+03  0.54279172289E+03  0.89270960893E+02  0.93596897002E+03  0.77690331376E+02 0.  0.
        254    2    1    2    0    0 -0.75326619887E+03 -0.54279172289E+03  0.21513912724E+03  0.13126839079E+04  0.90267456887E+03 0.  0.
         23    2    4    4    0    0 -0.48736239988E+03 -0.30317562464E+03 -0.31870376212E+03  0.66298850359E+03  0.92434299471E+02 0.  0.
         23    2    4    4    0    0 -0.26590379900E+03 -0.23961609825E+03  0.53384288936E+03  0.64969540434E+03  0.94842938839E+02 0.  0.
          1    1    3    3  502    0  0.32083675120E+03  0.20890844798E+03  0.70678764196E+02  0.38932563269E+03  0.00000000000E+00 0. -1.
         -2    1    3    3    0  502  0.43242944767E+03  0.33388327491E+03  0.18592196697E+02  0.54664333734E+03  0.00000000000E+00 0.  1.
         11    1    5    5    0    0 -0.14425686273E+03 -0.77662263501E+02 -0.13878608950E+03  0.21471620399E+03  0.00000000000E+00 0.  1.
        -11    1    5    5    0    0 -0.34310553715E+03 -0.22551336114E+03 -0.17991767263E+03  0.44827229961E+03  0.00000000000E+00 0. -1.
          4    1    6    6  503    0 -0.19878861565E+03 -0.16155359038E+03  0.44616863569E+03  0.51447344708E+03  0.00000000000E+00 0. -1.
         -4    1    6    6    0  503 -0.67115183345E+02 -0.78062507868E+02  0.87674253670E+02  0.13522195727E+03  0.00000000000E+00 0.  1.
<mgrwt>
<rscale>  0 0.22279529E+04</rscale>
<asrwt>0</asrwt>
<pdfrwt beam="1">  1        1 0.19638946E+00 0.22279529E+04</pdfrwt>
<pdfrwt beam="2">  1       -2 0.14955714E+00 0.22279529E+04</pdfrwt>
<totfact> 0.22662330E+00</totfact>
</mgrwt>
</event>
<event>
12    4  0.4183215E-008  0.2592730E+04  0.7818608E-02  0.8370675E-01
          1   -1    0    0  501    0  0.00000000000E+00  0.00000000000E+00  0.95968915055E+03  0.95968915055E+03  0.00000000000E+00 0. -1.
         -2   -1    0    0    0  501 -0.00000000000E+00 -0.00000000000E+00 -0.17511531438E+04  0.17511531438E+04  0.00000000000E+00 0.  1.
        -24    2    1    2    0    0 -0.80259453885E+02  0.40367499993E+03  0.76251575940E+03  0.87009447062E+03  0.78987460775E+02 0.  0.
        254    2    1    2    0    0  0.80259453885E+02 -0.40367499993E+03 -0.15539797527E+04  0.18407478238E+04  0.89671868131E+03 0.  0.
         23    2    4    4    0    0 -0.18100840558E+03 -0.54386241833E+03 -0.13513496392E+04  0.14705618600E+04  0.88633875468E+02 0.  0.
         23    2    4    4    0    0  0.26126785947E+03  0.14018741840E+03 -0.20263011349E+03  0.37018596372E+03  0.89806893802E+02 0.  0.
          1    1    3    3  502    0 -0.73567299730E+02  0.26314606336E+03  0.56493859261E+03  0.62754570484E+03  0.00000000000E+00 0. -1.
         -2    1    3    3    0  502 -0.66921541555E+01  0.14052893657E+03  0.19757716680E+03  0.24254876578E+03  0.00000000000E+00 0.  1.
         11    1    5    5    0    0 -0.38960262691E+02 -0.11679622127E+03 -0.39208151460E+03  0.41095884644E+03  0.00000000000E+00 0. -1.
        -11    1    5    5    0    0 -0.14204814289E+03 -0.42706619706E+03 -0.95926812459E+03  0.10596030136E+04  0.00000000000E+00 0.  1.
          3    1    6    6  503    0  0.19719907537E+03  0.10104692169E+03 -0.10018977769E+03  0.24317883803E+03  0.00000000000E+00 0. -1.
         -3    1    6    6    0  503  0.64068784094E+02  0.39140496714E+02 -0.10244033580E+03  0.12700712569E+03  0.00000000000E+00 0.  1.
<mgrwt>
<rscale>  0 0.25927304E+04</rscale>
<asrwt>0</asrwt>
<pdfrwt beam="1">  1        1 0.14764449E+00 0.25927304E+04</pdfrwt>
<pdfrwt beam="2">  1       -2 0.26940817E+00 0.25927304E+04</pdfrwt>
<totfact> 0.61507548E-01</totfact>
</mgrwt>
</event>
<event>
12    4  0.4183215E-008  0.1260146E+04  0.7818608E-02  0.9061781E-01
          1   -1    0    0  501    0  0.00000000000E+00  0.00000000000E+00  0.12597935067E+04  0.12597935067E+04  0.00000000000E+00 0. -1.
         -2   -1    0    0    0  501 -0.00000000000E+00 -0.00000000000E+00 -0.31512468103E+03  0.31512468103E+03  0.00000000000E+00 0.  1.
        -24    2    1    2    0    0  0.45828243834E+02 -0.26843404771E+03  0.10890630876E+03  0.30394507208E+03  0.79780679691E+02 0.  0.
        254    2    1    2    0    0 -0.45828243834E+02  0.26843404771E+03  0.83576251694E+03  0.12709731157E+04  0.91799597501E+03 0.  0.
         23    2    4    4    0    0  0.37162519109E+02  0.17288819451E+03 -0.16360081940E+03  0.25942177655E+03  0.96244737064E+02 0.  0.
         23    2    4    4    0    0 -0.82990762943E+02  0.95545853203E+02  0.99936333634E+03  0.10115513391E+04  0.92155069631E+02 0.  0.
          1    1    3    3  502    0  0.74083497381E+01  0.27797502407E+01 -0.24061773337E+01  0.82704502056E+01  0.00000000000E+00 0. -1.
         -4    1    3    3    0  502  0.38419894096E+02 -0.27121379795E+03  0.11131248609E+03  0.29567462187E+03  0.00000000000E+00 0.  1.
         11    1    5    5    0    0  0.46583252322E+02  0.14840022837E+03 -0.17197583801E+03  0.23187996040E+03  0.00000000000E+00 0. -1.
        -11    1    5    5    0    0 -0.94207332127E+01  0.24487966141E+02  0.83750186101E+01  0.27541816148E+02  0.00000000000E+00 0.  1.
          4    1    6    6  503    0 -0.54274790805E+02 -0.23617748790E+01  0.32353672701E+03  0.32806606746E+03  0.00000000000E+00 0. -1.
         -4    1    6    6    0  503 -0.28715972138E+02  0.97907628081E+02  0.67582660934E+03  0.68348527166E+03  0.00000000000E+00 0.  1.
<mgrwt>
<rscale>  0 0.12601461E+04</rscale>
<asrwt>0</asrwt>
<pdfrwt beam="1">  1        1 0.19381438E+00 0.12601461E+04</pdfrwt>
<pdfrwt beam="2">  1       -2 0.48480721E-01 0.12601461E+04</pdfrwt>
<totfact> 0.33669935E+01</totfact>
</mgrwt>
</event>
<event>
12    4  0.4183215E-008  0.1692153E+04  0.7818608E-02  0.8765853E-01
          1   -1    0    0  501    0  0.00000000000E+00  0.00000000000E+00  0.20336822788E+04  0.20336822788E+04  0.00000000000E+00 0. -1.
         -2   -1    0    0    0  501 -0.00000000000E+00 -0.00000000000E+00 -0.35199459243E+03  0.35199459243E+03  0.00000000000E+00 0.  1.
        -24    2    1    2    0    0 -0.33868736013E+02 -0.29084222651E+03 -0.14481720512E+03  0.33622790106E+03  0.79629683879E+02 0.  0.
        254    2    1    2    0    0  0.33868736013E+02  0.29084222651E+03  0.18265048915E+04  0.20494489702E+04  0.88226111251E+03 0.  0.
         23    2    4    4    0    0 -0.24415065411E+03 -0.63775244443E+01  0.10890992491E+03  0.28234919891E+03  0.90606201007E+02 0.  0.
         23    2    4    4    0    0  0.27801939012E+03  0.29721975095E+03  0.17175949666E+04  0.17670997713E+04  0.82914236919E+02 0.  0.
          1    1    3    3  502    0  0.19466561688E+02 -0.11149736330E+03 -0.31516609610E+02  0.11749002395E+03  0.00000000000E+00 0. -1.
         -2    1    3    3    0  502 -0.53335297701E+02 -0.17934486321E+03 -0.11330059551E+03  0.21873787712E+03  0.00000000000E+00 0.  1.
         11    1    5    5    0    0 -0.89411381102E+02 -0.45310655153E+02  0.32016397933E+02  0.10522594869E+03  0.00000000000E+00 0. -1.
        -11    1    5    5    0    0 -0.15473927301E+03  0.38933130709E+02  0.76893526975E+02  0.17712325022E+03  0.00000000000E+00 0.  1.
          1    1    6    6  503    0  0.15736911060E+02  0.33199668503E+02  0.26749525072E+03  0.27000662495E+03  0.00000000000E+00 0. -1.
         -1    1    6    6    0  503  0.26228247906E+03  0.26402008245E+03  0.14500997159E+04  0.14970931463E+04  0.00000000000E+00 0.  1.
<mgrwt>
<rscale>  0 0.16921527E+04</rscale>
<asrwt>0</asrwt>
<pdfrwt beam="1">  1        1 0.31287419E+00 0.16921527E+04</pdfrwt>
<pdfrwt beam="2">  1       -2 0.54153015E-01 0.16921527E+04</pdfrwt>
<totfact> 0.75920636E+00</totfact>
</mgrwt>
</event>
<event>
12    4  0.4183215E-008  0.1944351E+04  0.7818608E-02  0.8633090E-01
         -2   -1    0    0    0  501 -0.00000000000E+00  0.00000000000E+00  0.52093071076E+03  0.52093071076E+03  0.00000000000E+00 0.  1.
          1   -1    0    0  501    0  0.00000000000E+00 -0.00000000000E+00 -0.18143007641E+04  0.18143007641E+04  0.00000000000E+00 0. -1.
        -24    2    1    2    0    0 -0.55452692643E+03  0.28353076963E+03 -0.10478861851E+04  0.12216744808E+04  0.80828650952E+02 0.  0.
        254    2    1    2    0    0  0.55452692643E+03 -0.28353076963E+03 -0.24548386828E+03  0.11135569940E+04  0.88986349510E+03 0.  0.
         23    2    4    4    0    0  0.19353285919E+03  0.16617042766E+03  0.23540519578E+03  0.35703075559E+03  0.83592916096E+02 0.  0.
         23    2    4    4    0    0  0.36099406724E+03 -0.44970119728E+03 -0.48088906406E+03  0.75652623844E+03  0.92356776146E+02 0.  0.
          3    1    3    3  502    0 -0.54020387386E+03  0.28698699902E+03 -0.10072052626E+04  0.11784074863E+04  0.00000000000E+00 0. -1.
         -4    1    3    3    0  502 -0.14323052571E+02 -0.34562293968E+01 -0.40680922504E+02  0.43266994492E+02  0.00000000000E+00 0.  1.
         11    1    5    5    0    0  0.89275922211E+02  0.10834176589E+03  0.81422688960E+02  0.16228919496E+03  0.00000000000E+00 0. -1.
        -11    1    5    5    0    0  0.10425693698E+03  0.57828661769E+02  0.15398250682E+03  0.19474156063E+03  0.00000000000E+00 0.  1.
          4    1    6    6  503    0  0.29634132933E+03 -0.38858951304E+03 -0.44381851296E+03  0.66014760891E+03  0.00000000000E+00 0. -1.
         -4    1    6    6    0  503  0.64652737911E+02 -0.61111684249E+02 -0.37070551100E+02  0.96378629529E+02  0.00000000000E+00 0.  1.
<mgrwt>
<rscale>  0 0.19443508E+04</rscale>
<asrwt>0</asrwt>
<pdfrwt beam="1">  1        1 0.27912319E+00 0.19443508E+04</pdfrwt>
<pdfrwt beam="2">  1       -2 0.80143186E-01 0.19443508E+04</pdfrwt>
<totfact> 0.44884759E+00</totfact>
</mgrwt>
</event>
<event>
12    4  0.4183215E-008  0.1504465E+04  0.7818608E-02  0.8881489E-01
         -4   -1    0    0    0  501 -0.00000000000E+00  0.00000000000E+00  0.11546452909E+04  0.11546452909E+04  0.00000000000E+00 0.  1.
          3   -1    0    0  501    0  0.00000000000E+00 -0.00000000000E+00 -0.49006741485E+03  0.49006741485E+03  0.00000000000E+00 0. -1.
        -24    2    1    2    0    0 -0.40961869117E+03 -0.23238696511E+03  0.28568754548E+03  0.55806151498E+03  0.89577380835E+02 0.  0.
        254    2    1    2    0    0  0.40961869117E+03  0.23238696511E+03  0.37889033061E+03  0.10866511908E+04  0.90302921002E+03 0.  0.
         23    2    4    4    0    0 -0.28052367514E+03  0.75589846591E+02  0.11463628366E+03  0.32558270274E+03  0.91952496289E+02 0.  0.
         23    2    4    4    0    0  0.69014236630E+03  0.15679711852E+03  0.26425404695E+03  0.76106848807E+03  0.92267112563E+02 0.  0.
          1    1    3    3  502    0 -0.15929832017E+03 -0.93357232601E+02  0.16393459688E+03  0.24691310161E+03  0.00000000000E+00 0. -1.
         -2    1    3    3    0  502 -0.25032037099E+03 -0.13902973251E+03  0.12175294859E+03  0.31114841338E+03  0.00000000000E+00 0.  1.
         11    1    5    5    0    0 -0.15870500813E+03  0.66599179444E+01  0.92672327069E+02  0.18390158868E+03  0.00000000000E+00 0.  1.
        -11    1    5    5    0    0 -0.12181866700E+03  0.68929928647E+02  0.21963956592E+02  0.14168111406E+03  0.00000000000E+00 0. -1.
          1    1    6    6  503    0  0.22690368265E+03  0.34996456058E+02  0.12904003051E+03  0.26336545447E+03  0.00000000000E+00 0. -1.
         -1    1    6    6    0  503  0.46323868365E+03  0.12180066246E+03  0.13521401645E+03  0.49770303360E+03  0.00000000000E+00 0.  1.
<mgrwt>
<rscale>  0 0.15044654E+04</rscale>
<asrwt>0</asrwt>
<pdfrwt beam="1">  1        3 0.75394987E-01 0.15044654E+04</pdfrwt>
<pdfrwt beam="2">  1       -4 0.17763774E+00 0.15044654E+04</pdfrwt>
<totfact> 0.68452050E-01</totfact>
</mgrwt>
</event>
<event>
12    4  0.4183215E-008  0.1808448E+04  0.7818608E-02  0.8701820E-01
          1   -1    0    0  501    0  0.00000000000E+00  0.00000000000E+00  0.10563153859E+04  0.10563153859E+04  0.00000000000E+00 0. -1.
         -2   -1    0    0    0  501 -0.00000000000E+00 -0.00000000000E+00 -0.77403102277E+03  0.77403102277E+03  0.00000000000E+00 0.  1.
        -24    2    1    2    0    0  0.23433493149E+03  0.54141120643E+03  0.37267584228E+03  0.70213642865E+03  0.77905882016E+02 0.  0.
        254    2    1    2    0    0 -0.23433493149E+03 -0.54141120643E+03 -0.90391479164E+02  0.11282099800E+04  0.95741745592E+03 0.  0.
         23    2    4    4    0    0  0.17597145770E+03  0.18618103678E+03 -0.94474170373E+02  0.28744907082E+03  0.89845796030E+02 0.  0.
         23    2    4    4    0    0 -0.41030638919E+03 -0.72759224321E+03  0.40826912085E+01  0.84076090918E+03  0.95500956305E+02 0.  0.
          3    1    3    3  502    0  0.27820402447E+00  0.32265091784E+02  0.36271383336E+02  0.48546130581E+02  0.00000000000E+00 0. -1.
         -4    1    3    3    0  502  0.23405672747E+03  0.50914611464E+03  0.33640445894E+03  0.65359029806E+03  0.00000000000E+00 0.  1.
         11    1    5    5    0    0  0.60319660922E+02  0.10617506768E+02 -0.21534268178E+02  0.64922397135E+02  0.00000000000E+00 0. -1.
        -11    1    5    5    0    0  0.11565179678E+03  0.17556353001E+03 -0.72939902195E+02  0.22252667368E+03  0.00000000000E+00 0.  1.
          4    1    6    6  503    0 -0.67286050397E+02 -0.15257349305E+03  0.35407830141E+02  0.17046934561E+03  0.00000000000E+00 0. -1.
         -4    1    6    6    0  503 -0.34302033880E+03 -0.57501875016E+03 -0.31325138932E+02  0.67029156357E+03  0.00000000000E+00 0.  1.
<mgrwt>
<rscale>  0 0.18084478E+04</rscale>
<asrwt>0</asrwt>
<pdfrwt beam="1">  1        1 0.16251006E+00 0.18084478E+04</pdfrwt>
<pdfrwt beam="2">  1       -2 0.11908170E+00 0.18084478E+04</pdfrwt>
<totfact> 0.61239167E+00</totfact>
</mgrwt>
</event>
<event>
12    4  0.4183215E-008  0.1315475E+04  0.7818608E-02  0.9017383E-01
         -2   -1    0    0    0  501 -0.00000000000E+00  0.00000000000E+00  0.27153286457E+03  0.27153286457E+03  0.00000000000E+00 0.  1.
          1   -1    0    0  501    0  0.00000000000E+00 -0.00000000000E+00 -0.15932450958E+04  0.15932450958E+04  0.00000000000E+00 0. -1.
        -24    2    1    2    0    0  0.18528662156E+03  0.10541367797E+03 -0.29113651836E+03  0.36960135504E+03  0.80009460040E+02 0.  0.
        254    2    1    2    0    0 -0.18528662156E+03 -0.10541367797E+03 -0.10305757129E+04  0.14951766053E+04  0.10620845567E+04 0.  0.
         23    2    4    4    0    0 -0.10664674404E+03 -0.34095236815E+03  0.57918379578E+02  0.37497329265E+03  0.98124340224E+02 0.  0.
         23    2    4    4    0    0 -0.78639877518E+02  0.23553869018E+03 -0.10884940925E+04  0.11202033127E+04  0.91506106509E+02 0.  0.
          3    1    3    3  502    0  0.34917365378E+02 -0.89943031670E+01 -0.69978357967E+02  0.78721601090E+02  0.00000000000E+00 0. -1.
         -4    1    3    3    0  502  0.15036925618E+03  0.11440798113E+03 -0.22115816039E+03  0.29087975395E+03  0.00000000000E+00 0.  1.
         11    1    5    5    0    0  0.15711668884E+01 -0.14057392774E+03  0.41821020161E+02  0.14667138594E+03  0.00000000000E+00 0. -1.
        -11    1    5    5    0    0 -0.10821791093E+03 -0.20037844041E+03  0.16097359417E+02  0.22830190671E+03  0.00000000000E+00 0.  1.
          4    1    6    6  503    0 -0.77371372251E+02  0.10916452689E+03 -0.45690073102E+03  0.47608980369E+03  0.00000000000E+00 0. -1.
         -4    1    6    6    0  503 -0.12685052674E+01  0.12637416330E+03 -0.63159336144E+03  0.64411350900E+03  0.00000000000E+00 0.  1.
<mgrwt>
<rscale>  0 0.13154747E+04</rscale>
<asrwt>0</asrwt>
<pdfrwt beam="1">  1        1 0.24511463E+00 0.13154747E+04</pdfrwt>
<pdfrwt beam="2">  1       -2 0.41774287E-01 0.13154747E+04</pdfrwt>
<totfact> 0.26376950E+01</totfact>
</mgrwt>
</event>
<event>
12    4  0.4183215E-008  0.1695775E+04  0.7818608E-02  0.8763778E-01
          3   -1    0    0  501    0  0.00000000000E+00  0.00000000000E+00  0.10134487739E+04  0.10134487739E+04  0.00000000000E+00 0. -1.
         -4   -1    0    0    0  501 -0.00000000000E+00 -0.00000000000E+00 -0.70937280877E+03  0.70937280877E+03  0.00000000000E+00 0.  1.
        -24    2    1    2    0    0  0.13118855794E+03 -0.24280455685E+03  0.66617942295E+03  0.72552780189E+03  0.80193997221E+02 0.  0.
        254    2    1    2    0    0 -0.13118855794E+03  0.24280455685E+03 -0.36210345786E+03  0.99729378075E+03  0.88730574233E+03 0.  0.
         23    2    4    4    0    0 -0.13393902980E+03  0.26354254493E+03  0.23782565176E+03  0.39006589007E+03  0.90531879853E+02 0.  0.
         23    2    4    4    0    0  0.27504718590E+01 -0.20737988089E+02 -0.59992910962E+03  0.60722789068E+03  0.91504892789E+02 0.  0.
          3    1    3    3  502    0  0.13773160259E+03 -0.19847259900E+03  0.58240141771E+03  0.63051786513E+03  0.00000000000E+00 0. -1.
         -4    1    3    3    0  502 -0.65430446441E+01 -0.44331957847E+02  0.83778005247E+02  0.95009936759E+02  0.00000000000E+00 0.  1.
         11    1    5    5    0    0 -0.12638720639E+03  0.17891162454E+03  0.20159285219E+03  0.29769577321E+03  0.00000000000E+00 0. -1.
        -11    1    5    5    0    0 -0.75518234073E+01  0.84630920396E+02  0.36232799563E+02  0.92370116857E+02  0.00000000000E+00 0.  1.
          2    1    6    6  503    0 -0.41784808394E+02 -0.14878870855E+02 -0.39204736185E+03  0.39454845703E+03  0.00000000000E+00 0.  1.
         -2    1    6    6    0  503  0.44535280253E+02 -0.58591172341E+01 -0.20788174777E+03  0.21267943365E+03  0.00000000000E+00 0. -1.
<mgrwt>
<rscale>  0 0.16957748E+04</rscale>
<asrwt>0</asrwt>
<pdfrwt beam="1">  1        3 0.15591520E+00 0.16957748E+04</pdfrwt>
<pdfrwt beam="2">  1       -4 0.10913428E+00 0.16957748E+04</pdfrwt>
<totfact> 0.42634779E-01</totfact>
</mgrwt>
</event>
<event>
12    4  0.4183215E-008  0.1351334E+04  0.7818608E-02  0.8989819E-01
          1   -1    0    0  501    0  0.00000000000E+00  0.00000000000E+00  0.16739195133E+04  0.16739195133E+04  0.00000000000E+00 0. -1.
         -2   -1    0    0    0  501 -0.00000000000E+00 -0.00000000000E+00 -0.27272871479E+03  0.27272871479E+03  0.00000000000E+00 0.  1.
        -24    2    1    2    0    0 -0.31720803240E+03  0.16791299336E+03  0.27432822756E+03  0.45904320476E+03  0.81541267096E+02 0.  0.
        254    2    1    2    0    0  0.31720803240E+03 -0.16791299336E+03  0.11268625709E+04  0.14876050233E+04  0.90240442287E+03 0.  0.
         23    2    4    4    0    0  0.26118926489E+02  0.13654616101E+03  0.10330126053E+04  0.10461857047E+04  0.89791055119E+02 0.  0.
         23    2    4    4    0    0  0.29108910592E+03 -0.30445915437E+03  0.93849965598E+02  0.44141931858E+03  0.92816779280E+02 0.  0.
          1    1    3    3  502    0 -0.34620879521E+02  0.14690677927E+02  0.18665381905E+01  0.37655083077E+02  0.00000000000E+00 0. -1.
         -2    1    3    3    0  502 -0.28258715288E+03  0.15322231543E+03  0.27246168937E+03  0.42138812168E+03  0.00000000000E+00 0.  1.
         11    1    5    5    0    0  0.13288412292E+02  0.92997810844E+02  0.37424246429E+03  0.38585307671E+03  0.00000000000E+00 0. -1.
        -11    1    5    5    0    0  0.12830514196E+02  0.43548350164E+02  0.65877014102E+03  0.66033262799E+03  0.00000000000E+00 0.  1.
          1    1    6    6  503    0  0.25092822272E+03 -0.26242134160E+03  0.11291228740E+03  0.38023560871E+03  0.00000000000E+00 0. -1.
         -1    1    6    6    0  503  0.40160883196E+02 -0.42037812767E+02 -0.19062321806E+02  0.61183709875E+02  0.00000000000E+00 0.  1.
<mgrwt>
<rscale>  0 0.13513340E+04</rscale>
<asrwt>0</asrwt>
<pdfrwt beam="1">  1        1 0.25752607E+00 0.13513340E+04</pdfrwt>
<pdfrwt beam="2">  1       -2 0.41958265E-01 0.13513340E+04</pdfrwt>
<totfact> 0.22964011E+01</totfact>
</mgrwt>
</event>
<event>
12    4  0.4183215E-008  0.1823565E+04  0.7818608E-02  0.8693868E-01
          1   -1    0    0  501    0  0.00000000000E+00  0.00000000000E+00  0.11264929791E+04  0.11264929791E+04  0.00000000000E+00 0. -1.
         -2   -1    0    0    0  501 -0.00000000000E+00 -0.00000000000E+00 -0.73799568083E+03  0.73799568083E+03  0.00000000000E+00 0.  1.
        -24    2    1    2    0    0  0.28936046885E+03  0.61642346191E+03  0.23811226590E+03  0.72576444108E+03  0.79556316127E+02 0.  0.
        254    2    1    2    0    0 -0.28936046885E+03 -0.61642346191E+03  0.15038503236E+03  0.11387242188E+04  0.90020543394E+03 0.  0.
         23    2    4    4    0    0 -0.13736433284E+03  0.13687551209E+03  0.28139325677E+03  0.35381676428E+03  0.91652997687E+02 0.  0.
         23    2    4    4    0    0 -0.15199613600E+03 -0.75329897399E+03 -0.13100822441E+03  0.78490745456E+03  0.91402340103E+02 0.  0.
          3    1    3    3  502    0  0.10402404685E+03  0.19336672787E+03  0.11451743833E+03  0.24764074271E+03  0.00000000000E+00 0. -1.
         -4    1    3    3    0  502  0.18533642200E+03  0.42305673404E+03  0.12359482757E+03  0.47812369836E+03  0.00000000000E+00 0.  1.
         11    1    5    5    0    0 -0.72305186752E+02  0.95875859190E+02  0.98153217542E+02  0.15509440519E+03  0.00000000000E+00 0. -1.
        -11    1    5    5    0    0 -0.65059146092E+02  0.40999652896E+02  0.18324003923E+03  0.19872235909E+03  0.00000000000E+00 0.  1.
          1    1    6    6  503    0 -0.69656485513E+01 -0.24892773341E+03 -0.37480565461E+02  0.25182996150E+03  0.00000000000E+00 0. -1.
         -1    1    6    6    0  503 -0.14503048745E+03 -0.50437124059E+03 -0.93527658953E+02  0.53307749306E+03  0.00000000000E+00 0.  1.
<mgrwt>
<rscale>  0 0.18235646E+04</rscale>
<asrwt>0</asrwt>
<pdfrwt beam="1">  1        1 0.17330661E+00 0.18235646E+04</pdfrwt>
<pdfrwt beam="2">  1       -2 0.11353780E+00 0.18235646E+04</pdfrwt>
<totfact> 0.60848949E+00</totfact>
</mgrwt>
</event>
<event>
12    4  0.4183215E-008  0.1894921E+04  0.7818608E-02  0.8657389E-01
          1   -1    0    0  501    0  0.00000000000E+00  0.00000000000E+00  0.43904021999E+03  0.43904021999E+03  0.00000000000E+00 0. -1.
         -2   -1    0    0    0  501 -0.00000000000E+00 -0.00000000000E+00 -0.20446447463E+04  0.20446447463E+04  0.00000000000E+00 0.  1.
        -24    2    1    2    0    0  0.45581357078E+03  0.40590652877E+02  0.12951883828E+03  0.48228324288E+03  0.80052385909E+02 0.  0.
        254    2    1    2    0    0 -0.45581357078E+03 -0.40590652877E+02 -0.17351233646E+04  0.20014017234E+04  0.88630816067E+03 0.  0.
         23    2    4    4    0    0 -0.10272020790E+03 -0.42610944636E+03 -0.60546400936E+03  0.75322503120E+03  0.92954718046E+02 0.  0.
         23    2    4    4    0    0 -0.35309336288E+03  0.38551879348E+03 -0.11296593552E+04  0.12481766922E+04  0.92277478662E+02 0.  0.
          1    1    3    3  502    0  0.39282642936E+03  0.36265368816E+02  0.81168400161E+02  0.40276058616E+03  0.00000000000E+00 0. -1.
         -2    1    3    3    0  502  0.62987141422E+02  0.43252840601E+01  0.48350438117E+02  0.79522656727E+02  0.00000000000E+00 0.  1.
         11    1    5    5    0    0 -0.11652206131E+02 -0.23175057384E+03 -0.28489773324E+03  0.36743818635E+03  0.00000000000E+00 0.  1.
        -11    1    5    5    0    0 -0.91068001771E+02 -0.19435887252E+03 -0.32056627612E+03  0.38578684485E+03  0.00000000000E+00 0. -1.
          3    1    6    6  503    0 -0.33866068953E+03  0.36388907841E+03 -0.11077541611E+04  0.12141769251E+04  0.00000000000E+00 0. -1.
         -3    1    6    6    0  503 -0.14432673344E+02  0.21629715070E+02 -0.21905194180E+02  0.33999767146E+02  0.00000000000E+00 0.  1.
<mgrwt>
<rscale>  0 0.18949209E+04</rscale>
<asrwt>0</asrwt>
<pdfrwt beam="1">  1        1 0.67544649E-01 0.18949209E+04</pdfrwt>
<pdfrwt beam="2">  1       -2 0.31456073E+00 0.18949209E+04</pdfrwt>
<totfact> 0.11236803E+00</totfact>
</mgrwt>
</event>
<event>
12    4  0.4183215E-008  0.2871146E+04  0.7818608E-02  0.8281514E-01
         -2   -1    0    0    0  501 -0.00000000000E+00  0.00000000000E+00  0.81868726375E+03  0.81868726375E+03  0.00000000000E+00 0.  1.
          1   -1    0    0  501    0  0.00000000000E+00 -0.00000000000E+00 -0.25172860792E+04  0.25172860792E+04  0.00000000000E+00 0. -1.
        -24    2    1    2    0    0 -0.12504382515E+04  0.12647204926E+03 -0.41156764378E+03  0.13249883577E+04  0.81334018210E+02 0.  0.
        254    2    1    2    0    0  0.12504382515E+04 -0.12647204926E+03 -0.12870311717E+04  0.20109849853E+04  0.89889953509E+03 0.  0.
         23    2    4    4    0    0  0.27797853536E+03 -0.41554529808E+03 -0.28568190701E+03  0.58261147947E+03  0.88724422474E+02 0.  0.
         23    2    4    4    0    0  0.97245971612E+03  0.28907324882E+03 -0.10013492646E+04  0.14283735058E+04  0.91155250049E+02 0.  0.
          1    1    3    3  502    0 -0.12195627604E+03  0.14156999438E+02 -0.15462688033E+02  0.12374509533E+03  0.00000000000E+00 0. -1.
         -2    1    3    3    0  502 -0.11284819754E+04  0.11231504982E+03 -0.39610495575E+03  0.12012432623E+04  0.00000000000E+00 0.  1.
         11    1    5    5    0    0  0.18738385703E+03 -0.22044336653E+03 -0.19652530792E+03  0.34975732212E+03  0.00000000000E+00 0. -1.
        -11    1    5    5    0    0  0.90594678333E+02 -0.19510193155E+03 -0.89156599089E+02  0.23285415735E+03  0.00000000000E+00 0.  1.
          4    1    6    6  503    0  0.86088563014E+03  0.26974590997E+03 -0.85139621540E+03  0.12404686371E+04  0.00000000000E+00 0. -1.
         -4    1    6    6    0  503  0.11157408598E+03  0.19327338848E+02 -0.14995304925E+03  0.18790486866E+03  0.00000000000E+00 0.  1.
<mgrwt>
<rscale>  0 0.28711461E+04</rscale>
<asrwt>0</asrwt>
<pdfrwt beam="1">  1        1 0.38727478E+00 0.28711461E+04</pdfrwt>
<pdfrwt beam="2">  1       -2 0.12595189E+00 0.28711461E+04</pdfrwt>
<totfact> 0.46905706E-01</totfact>
</mgrwt>
</event>
<event>
12    4  0.4183215E-008  0.1746565E+04  0.7818608E-02  0.8735243E-01
          1   -1    0    0  501    0  0.00000000000E+00  0.00000000000E+00  0.86055045871E+03  0.86055045871E+03  0.00000000000E+00 0. -1.
         -2   -1    0    0    0  501 -0.00000000000E+00 -0.00000000000E+00 -0.88620300599E+03  0.88620300599E+03  0.00000000000E+00 0.  1.
        -24    2    1    2    0    0 -0.14100319558E+03 -0.11855812761E+02 -0.63620464746E+03  0.65667556881E+03  0.80274452808E+02 0.  0.
        254    2    1    2    0    0  0.14100319558E+03  0.11855812761E+02  0.61055210017E+03  0.10900778959E+04  0.89189320584E+03 0.  0.
         23    2    4    4    0    0  0.61751205890E+01 -0.16508640004E+03  0.77560435844E+03  0.79818376826E+03  0.90794027852E+02 0.  0.
         23    2    4    4    0    0  0.13482807499E+03  0.17694221280E+03 -0.16505225827E+03  0.29189412763E+03  0.92047690388E+02 0.  0.
          1    1    3    3  502    0 -0.12139996243E+02 -0.29897107450E+02 -0.14296832146E+03  0.14656451645E+03  0.00000000000E+00 0. -1.
         -2    1    3    3    0  502 -0.12886319934E+03  0.18041294689E+02 -0.49323632600E+03  0.51011105236E+03  0.00000000000E+00 0.  1.
         11    1    5    5    0    0  0.25966660452E+02 -0.11492556203E+03  0.35279379962E+03  0.37194840679E+03  0.00000000000E+00 0.  1.
        -11    1    5    5    0    0 -0.19791539863E+02 -0.50160838013E+02  0.42281055882E+03  0.42623536148E+03  0.00000000000E+00 0. -1.
          1    1    6    6  503    0  0.98040336176E+02  0.68835517223E+02 -0.11872851352E+03  0.16866148307E+03  0.00000000000E+00 0. -1.
         -1    1    6    6    0  503  0.36787738813E+02  0.10810669558E+03 -0.46323744746E+02  0.12323264455E+03  0.00000000000E+00 0.  1.
<mgrwt>
<rscale>  0 0.17465651E+04</rscale>
<asrwt>0</asrwt>
<pdfrwt beam="1">  1        1 0.13239238E+00 0.17465651E+04</pdfrwt>
<pdfrwt beam="2">  1       -2 0.13633892E+00 0.17465651E+04</pdfrwt>
<totfact> 0.62676172E+00</totfact>
</mgrwt>
</event>
<event>
12    4  0.4183215E-008  0.1468874E+04  0.7818608E-02  0.8905419E-01
         -4   -1    0    0    0  501 -0.00000000000E+00  0.00000000000E+00  0.14571468684E+04  0.14571468684E+04  0.00000000000E+00 0.  1.
          3   -1    0    0  501    0  0.00000000000E+00 -0.00000000000E+00 -0.37017391774E+03  0.37017391774E+03  0.00000000000E+00 0. -1.
        -24    2    1    2    0    0  0.67637528533E+02  0.25009346121E+03 -0.12367767224E+03  0.29790135219E+03  0.79545423605E+02 0.  0.
        254    2    1    2    0    0 -0.67637528533E+02 -0.25009346121E+03  0.12106506229E+04  0.15294194339E+04  0.89795729275E+03 0.  0.
         23    2    4    4    0    0 -0.45669779995E+03 -0.10442231531E+02  0.66801299246E+03  0.81420531953E+03  0.89481973505E+02 0.  0.
         23    2    4    4    0    0  0.38906027142E+03 -0.23965122968E+03  0.54263763043E+03  0.71521411440E+03  0.90967163291E+02 0.  0.
          3    1    3    3  502    0  0.27441822199E+02  0.17622790770E+03 -0.47826598336E+02  0.18465295169E+03  0.00000000000E+00 0. -1.
         -4    1    3    3    0  502  0.40195706334E+02  0.73865553513E+02 -0.75851073907E+02  0.11324840050E+03  0.00000000000E+00 0.  1.
         11    1    5    5    0    0  0.37623339161E+00 -0.83205772369E+01  0.99456659494E+01  0.12972656948E+02  0.00000000000E+00 0. -1.
        -11    1    5    5    0    0 -0.45707403334E+03 -0.21216542938E+01  0.65806732651E+03  0.80123266259E+03  0.00000000000E+00 0.  1.
          4    1    6    6  503    0  0.17598143468E+03 -0.56450036760E+02  0.20833866874E+03  0.27849788670E+03  0.00000000000E+00 0. -1.
         -4    1    6    6    0  503  0.21307883674E+03 -0.18320119292E+03  0.33429896169E+03  0.43671622770E+03  0.00000000000E+00 0.  1.
<mgrwt>
<rscale>  0 0.14688741E+04</rscale>
<asrwt>0</asrwt>
<pdfrwt beam="1">  1        3 0.56949834E-01 0.14688741E+04</pdfrwt>
<pdfrwt beam="2">  1       -4 0.22417644E+00 0.14688741E+04</pdfrwt>
<totfact> 0.61646134E-01</totfact>
</mgrwt>
</event>
<event>
12    4  0.4183215E-008  0.2392853E+04  0.7818608E-02  0.8442184E-01
         -2   -1    0    0    0  501 -0.00000000000E+00  0.00000000000E+00  0.12434725044E+04  0.12434725044E+04  0.00000000000E+00 0.  1.
          1   -1    0    0  501    0  0.00000000000E+00 -0.00000000000E+00 -0.11511608750E+04  0.11511608750E+04  0.00000000000E+00 0. -1.
        -24    2    1    2    0    0  0.99969288715E+03 -0.14885004388E+03  0.23141576111E+03  0.10399320341E+04  0.79769523879E+02 0.  0.
        254    2    1    2    0    0 -0.99969288715E+03  0.14885004388E+03 -0.13910413176E+03  0.13547013453E+04  0.89124832184E+03 0.  0.
         23    2    4    4    0    0  0.10780362302E+03 -0.13813740511E+03  0.11102694910E+02  0.19707357405E+03  0.89505083248E+02 0.  0.
         23    2    4    4    0    0 -0.11074965102E+04  0.28698744899E+03 -0.15020682667E+03  0.11576277712E+04  0.92895909379E+02 0.  0.
          1    1    3    3  502    0  0.41590327313E+03 -0.49376738444E+02  0.13421978862E+03  0.43980512338E+03  0.00000000000E+00 0. -1.
         -2    1    3    3    0  502  0.58378961402E+03 -0.99473305433E+02  0.97195972495E+02  0.60012691075E+03  0.00000000000E+00 0.  1.
         11    1    5    5    0    0 -0.14633163879E+02 -0.57903966304E+01  0.55677437815E+01  0.16693050921E+02  0.00000000000E+00 0.  1.
        -11    1    5    5    0    0  0.12243678690E+03 -0.13234700848E+03  0.55349511281E+01  0.18038052313E+03  0.00000000000E+00 0. -1.
          2    1    6    6  503    0 -0.10433063081E+04  0.24851273190E+03 -0.14886811035E+03  0.10827780681E+04  0.00000000000E+00 0. -1.
         -2    1    6    6    0  503 -0.64190202053E+02  0.38474717084E+02 -0.13387163192E+01  0.74849703110E+02  0.00000000000E+00 0.  1.
<mgrwt>
<rscale>  0 0.23928534E+04</rscale>
<asrwt>0</asrwt>
<pdfrwt beam="1">  1        1 0.17710167E+00 0.23928534E+04</pdfrwt>
<pdfrwt beam="2">  1       -2 0.19130346E+00 0.23928534E+04</pdfrwt>
<totfact> 0.13872230E+00</totfact>
</mgrwt>
</event>
<event>
12    4  0.4183215E-008  0.1840097E+04  0.7818608E-02  0.8685262E-01
          1   -1    0    0  501    0  0.00000000000E+00  0.00000000000E+00  0.24482416730E+04  0.24482416730E+04  0.00000000000E+00 0. -1.
         -2   -1    0    0    0  501 -0.00000000000E+00 -0.00000000000E+00 -0.34575383710E+03  0.34575383710E+03  0.00000000000E+00 0.  1.
        -24    2    1    2    0    0 -0.97405673508E+02 -0.53329403306E+03  0.14455430620E+04  0.15458595946E+04  0.78719446384E+02 0.  0.
        254    2    1    2    0    0  0.97405673508E+02  0.53329403306E+03  0.65694477388E+03  0.12481359155E+04  0.91234666471E+03 0.  0.
         23    2    4    4    0    0 -0.31550118010E+03  0.14937835227E+03  0.56322695372E+03  0.66955238945E+03  0.96025590587E+02 0.  0.
         23    2    4    4    0    0  0.41290685361E+03  0.38391568079E+03  0.93717820156E+02  0.57858352601E+03  0.89958585152E+02 0.  0.
          3    1    3    3  502    0 -0.59277703435E+02 -0.26527497388E+03  0.83113620550E+03  0.87445528759E+03  0.00000000000E+00 0. -1.
         -4    1    3    3    0  502 -0.38127970073E+02 -0.26801905918E+03  0.61440685650E+03  0.67140430703E+03  0.00000000000E+00 0.  1.
         11    1    5    5    0    0 -0.64826409432E+01  0.23335218027E+02  0.17547775516E+02  0.29907882900E+02  0.00000000000E+00 0.  1.
        -11    1    5    5    0    0 -0.30901853915E+03  0.12604313424E+03  0.54567917821E+03  0.63964450655E+03  0.00000000000E+00 0. -1.
          3    1    6    6  503    0  0.27653071769E+03  0.30809220826E+03  0.53408228319E+02  0.41742362831E+03  0.00000000000E+00 0. -1.
         -3    1    6    6    0  503  0.13637613591E+03  0.75823472535E+02  0.40309591837E+02  0.16115989770E+03  0.00000000000E+00 0.  1.
<mgrwt>
<rscale>  0 0.18400967E+04</rscale>
<asrwt>0</asrwt>
<pdfrwt beam="1">  1        1 0.37665255E+00 0.18400967E+04</pdfrwt>
<pdfrwt beam="2">  1       -2 0.53192900E-01 0.18400967E+04</pdfrwt>
<totfact> 0.40526637E+00</totfact>
</mgrwt>
</event>
<event>
12    4  0.4183215E-008  0.2125154E+04  0.7818608E-02  0.8550243E-01
         -2   -1    0    0    0  501 -0.00000000000E+00  0.00000000000E+00  0.22571827091E+04  0.22571827091E+04  0.00000000000E+00 0.  1.
          1   -1    0    0  501    0  0.00000000000E+00 -0.00000000000E+00 -0.50021191901E+03  0.50021191901E+03  0.00000000000E+00 0. -1.
        -24    2    1    2    0    0 -0.16328192715E+03  0.13701947455E+03  0.18120669817E+04  0.18263076500E+04  0.79859641624E+02 0.  0.
        254    2    1    2    0    0  0.16328192715E+03 -0.13701947455E+03 -0.55096191538E+02  0.93108697811E+03  0.90468339564E+03 0.  0.
         23    2    4    4    0    0  0.13575754494E+03 -0.28256894367E+03  0.35679494657E+03  0.48387800422E+03  0.92520106634E+02 0.  0.
         23    2    4    4    0    0  0.27524382218E+02  0.14554946912E+03 -0.41189113811E+03  0.44720897390E+03  0.91647788329E+02 0.  0.
          3    1    3    3  502    0  0.82537074807E+01  0.54314341661E+00  0.54567350252E+02  0.55190709413E+02  0.00000000000E+00 0. -1.
         -4    1    3    3    0  502 -0.17153563464E+03  0.13647633113E+03  0.17574996314E+04  0.17711169406E+04  0.00000000000E+00 0.  1.
         11    1    5    5    0    0  0.29352881883E+02 -0.53297035204E+01  0.29814840745E+02  0.42177270456E+02  0.00000000000E+00 0.  1.
        -11    1    5    5    0    0  0.10640466305E+03 -0.27723924015E+03  0.32698010582E+03  0.44170073376E+03  0.00000000000E+00 0. -1.
          1    1    6    6  503    0 -0.53898531028E+01  0.13809486133E+03 -0.35646019093E+03  0.38231284174E+03  0.00000000000E+00 0. -1.
         -1    1    6    6    0  503  0.32914235321E+02  0.74546077955E+01 -0.55430947176E+02  0.64896132157E+02  0.00000000000E+00 0.  1.
<mgrwt>
<rscale>  0 0.21251538E+04</rscale>
<asrwt>0</asrwt>
<pdfrwt beam="1">  1        1 0.76955681E-01 0.21251538E+04</pdfrwt>
<pdfrwt beam="2">  1       -2 0.34725887E+00 0.21251538E+04</pdfrwt>
<totfact> 0.57719213E-01</totfact>
</mgrwt>
</event>
<event>
12    4  0.4183215E-008  0.1256130E+04  0.7818608E-02  0.9065096E-01
         -2   -1    0    0    0  501 -0.00000000000E+00  0.00000000000E+00  0.18340961536E+03  0.18340961536E+03  0.00000000000E+00 0.  1.
          1   -1    0    0  501    0  0.00000000000E+00 -0.00000000000E+00 -0.21507375935E+04  0.21507375935E+04  0.00000000000E+00 0. -1.
        -24    2    1    2    0    0 -0.15938315771E+03 -0.33634021812E+02 -0.94072558473E+03  0.95784880270E+03  0.77301129883E+02 0.  0.
        254    2    1    2    0    0  0.15938315771E+03  0.33634021812E+02 -0.10266023934E+04  0.13762984062E+04  0.90208125480E+03 0.  0.
         23    2    4    4    0    0  0.30404294764E+03 -0.31792981862E+03 -0.27124188960E+03  0.52482602035E+03  0.91371250348E+02 0.  0.
         23    2    4    4    0    0 -0.14465978992E+03  0.35156384043E+03 -0.75536050380E+03  0.85147238580E+03  0.99559752710E+02 0.  0.
          1    1    3    3  502    0 -0.46692225506E+02  0.25308848110E+02 -0.27081601791E+03  0.27597466781E+03  0.00000000000E+00 0. -1.
         -2    1    3    3    0  502 -0.11269093221E+03 -0.58942869921E+02 -0.66990956682E+03  0.68187413489E+03  0.00000000000E+00 0.  1.
         11    1    5    5    0    0  0.14862625434E+03 -0.19859848358E+03 -0.19108176078E+03  0.31311876415E+03  0.00000000000E+00 0.  1.
        -11    1    5    5    0    0  0.15541669329E+03 -0.11933133504E+03 -0.80160128827E+02  0.21170725621E+03  0.00000000000E+00 0. -1.
          3    1    6    6  503    0 -0.13885290167E+03  0.32337342546E+03 -0.61845126811E+03  0.71157042633E+03  0.00000000000E+00 0. -1.
         -3    1    6    6    0  503 -0.58068882525E+01  0.28190414975E+02 -0.13690923569E+03  0.13990195948E+03  0.00000000000E+00 0.  1.
<mgrwt>
<rscale>  0 0.12561305E+04</rscale>
<asrwt>0</asrwt>
<pdfrwt beam="1">  1        1 0.33088274E+00 0.12561305E+04</pdfrwt>
<pdfrwt beam="2">  1       -2 0.28216861E-01 0.12561305E+04</pdfrwt>
<totfact> 0.23463383E+01</totfact>
</mgrwt>
</event>
<event>
12    4  0.4183215E-008  0.2071735E+04  0.7818608E-02  0.8573798E-01
         -2   -1    0    0    0  501 -0.00000000000E+00  0.00000000000E+00  0.72907139306E+03  0.72907139306E+03  0.00000000000E+00 0.  1.
          1   -1    0    0  501    0  0.00000000000E+00 -0.00000000000E+00 -0.14717640710E+04  0.14717640710E+04  0.00000000000E+00 0. -1.
        -24    2    1    2    0    0 -0.75832870941E+03  0.35170482656E+03 -0.19933104649E+03  0.86283628671E+03  0.77426578308E+02 0.  0.
        254    2    1    2    0    0  0.75832870941E+03 -0.35170482656E+03 -0.54336163144E+03  0.13379991773E+04  0.89232349486E+03 0.  0.
         23    2    4    4    0    0 -0.26449563465E+02  0.76875826110E+02 -0.41251031918E+03  0.42970096320E+03  0.88705593358E+02 0.  0.
         23    2    4    4    0    0  0.78477827288E+03 -0.42858065267E+03 -0.13085131225E+03  0.90829821414E+03  0.91242898139E+02 0.  0.
          1    1    3    3  502    0 -0.80910280793E+02  0.44470123758E+02  0.16064645390E+01  0.92339840662E+02  0.00000000000E+00 0. -1.
         -2    1    3    3    0  502 -0.67741842862E+03  0.30723470280E+03 -0.20093751103E+03  0.77049644605E+03  0.00000000000E+00 0.  1.
         11    1    5    5    0    0  0.27974085418E+02  0.54263797358E+02 -0.19371127369E+03  0.20310383234E+03  0.00000000000E+00 0.  1.
        -11    1    5    5    0    0 -0.54423648882E+02  0.22612028753E+02 -0.21879904550E+03  0.22659713086E+03  0.00000000000E+00 0. -1.
          3    1    6    6  503    0  0.61275808774E+03 -0.29238893367E+03 -0.11153204810E+03  0.68804299312E+03  0.00000000000E+00 0. -1.
         -3    1    6    6    0  503  0.17202018513E+03 -0.13619171900E+03 -0.19319264153E+02  0.22025522102E+03  0.00000000000E+00 0.  1.
<mgrwt>
<rscale>  0 0.20717346E+04</rscale>
<asrwt>0</asrwt>
<pdfrwt beam="1">  1        1 0.22642524E+00 0.20717346E+04</pdfrwt>
<pdfrwt beam="2">  1       -2 0.11216483E+00 0.20717346E+04</pdfrwt>
<totfact> 0.34706849E+00</totfact>
</mgrwt>
</event>
<event>
12    4  0.4183215E-008  0.1474622E+04  0.7818608E-02  0.8901507E-01
         -2   -1    0    0    0  501 -0.00000000000E+00  0.00000000000E+00  0.88379465798E+03  0.88379465798E+03  0.00000000000E+00 0.  1.
          1   -1    0    0  501    0  0.00000000000E+00 -0.00000000000E+00 -0.61510616884E+03  0.61510616884E+03  0.00000000000E+00 0. -1.
        -24    2    1    2    0    0  0.12779339083E+03 -0.43723072595E+03  0.16024909366E+02  0.46277848085E+03  0.80032906735E+02 0.  0.
        254    2    1    2    0    0 -0.12779339083E+03  0.43723072595E+03  0.25266357978E+03  0.10361223460E+04  0.89566108144E+03 0.  0.
         23    2    4    4    0    0 -0.87199188820E+02  0.63079102155E+03 -0.69437953781E+02  0.64706858401E+03  0.91515635739E+02 0.  0.
         23    2    4    4    0    0 -0.40594202008E+02 -0.19356029560E+03  0.32210153356E+03  0.38905376196E+03  0.92195197821E+02 0.  0.
          1    1    3    3  502    0  0.17260577629E+02 -0.63314397138E+02  0.31002308049E+02  0.72579497996E+02  0.00000000000E+00 0. -1.
         -2    1    3    3    0  502  0.11053281320E+03 -0.37391632881E+03 -0.14977398684E+02  0.39019898285E+03  0.00000000000E+00 0.  1.
         11    1    5    5    0    0 -0.28191993350E+02  0.28364750100E+03  0.13302705250E+02  0.28535531409E+03  0.00000000000E+00 0.  1.
        -11    1    5    5    0    0 -0.59007195470E+02  0.34714352056E+03 -0.82740659031E+02  0.36171326992E+03  0.00000000000E+00 0. -1.
          3    1    6    6  503    0 -0.57984835607E+02 -0.17137411954E+03  0.30877357825E+03  0.35787211771E+03  0.00000000000E+00 0. -1.
         -3    1    6    6    0  503  0.17390633599E+02 -0.22186176065E+02  0.13327955310E+02  0.31181644249E+02  0.00000000000E+00 0.  1.
<mgrwt>
<rscale>  0 0.14746220E+04</rscale>
<asrwt>0</asrwt>
<pdfrwt beam="1">  1        1 0.94631718E-01 0.14746220E+04</pdfrwt>
<pdfrwt beam="2">  1       -2 0.13596841E+00 0.14746220E+04</pdfrwt>
<totfact> 0.10849504E+01</totfact>
</mgrwt>
</event>
<event>
12    4  0.4183215E-008  0.1316147E+04  0.7818608E-02  0.9016858E-01
         -2   -1    0    0    0  501 -0.00000000000E+00  0.00000000000E+00  0.52861506133E+03  0.52861506133E+03  0.00000000000E+00 0.  1.
          1   -1    0    0  501    0  0.00000000000E+00 -0.00000000000E+00 -0.81923620765E+03  0.81923620765E+03  0.00000000000E+00 0. -1.
        -24    2    1    2    0    0  0.19313900203E+03  0.15308617076E+03  0.15112744599E+03  0.30784488548E+03  0.10578713911E+03 0.  0.
        254    2    1    2    0    0 -0.19313900203E+03 -0.15308617076E+03 -0.44174859231E+03  0.10400063835E+04  0.90869874498E+03 0.  0.
         23    2    4    4    0    0 -0.54372336596E+03 -0.57440606705E+01 -0.23881272263E+03  0.59946283599E+03  0.81584816751E+02 0.  0.
         23    2    4    4    0    0  0.35058436393E+03 -0.14734211009E+03 -0.20293586968E+03  0.44054354751E+03  0.90975581411E+02 0.  0.
          3    1    3    3  502    0 -0.12737403181E+01  0.76425964214E+01 -0.12749110535E+02  0.14918830849E+02  0.00000000000E+00 0. -1.
         -4    1    3    3    0  502  0.19441274235E+03  0.14544357434E+03  0.16387655652E+03  0.29292605463E+03  0.00000000000E+00 0.  1.
         11    1    5    5    0    0 -0.27913334707E+01  0.40365054715E+01  0.41159132419E+01  0.64051276944E+01  0.00000000000E+00 0. -1.
        -11    1    5    5    0    0 -0.54093203249E+03 -0.97805661421E+01 -0.24292863587E+03  0.59305770830E+03  0.00000000000E+00 0.  1.
          3    1    6    6  503    0  0.16348001914E+03 -0.22302453759E+02 -0.10136171552E+03  0.19364223061E+03  0.00000000000E+00 0. -1.
         -3    1    6    6    0  503  0.18710434478E+03 -0.12503965633E+03 -0.10157415416E+03  0.24690131690E+03  0.00000000000E+00 0.  1.
<mgrwt>
<rscale>  0 0.13161468E+04</rscale>
<asrwt>0</asrwt>
<pdfrwt beam="1">  1        1 0.12603634E+00 0.13161468E+04</pdfrwt>
<pdfrwt beam="2">  1       -2 0.81325395E-01 0.13161468E+04</pdfrwt>
<totfact> 0.24370687E+01</totfact>
</mgrwt>
</event>
<event>
12    4  0.4183215E-008  0.1598008E+04  0.7818608E-02  0.8821773E-01
         -2   -1    0    0    0  501 -0.00000000000E+00  0.00000000000E+00  0.24888412199E+03  0.24888412199E+03  0.00000000000E+00 0.  1.
          1   -1    0    0  501    0  0.00000000000E+00 -0.00000000000E+00 -0.25650777105E+04  0.25650777105E+04  0.00000000000E+00 0. -1.
        -24    2    1    2    0    0  0.44036648491E+03  0.31683403928E+03 -0.70410727048E+03  0.89237234549E+03  0.79087958403E+02 0.  0.
        254    2    1    2    0    0 -0.44036648491E+03 -0.31683403928E+03 -0.16120863180E+04  0.19215894870E+04  0.89407908502E+03 0.  0.
         23    2    4    4    0    0  0.18189436642E+03  0.13379826861E+03 -0.21868629218E+03  0.32789207744E+03  0.93284419075E+02 0.  0.
         23    2    4    4    0    0 -0.62226085133E+03 -0.45063230789E+03 -0.13934000259E+04  0.15936974096E+04  0.89608912440E+02 0.  0.
          3    1    3    3  502    0  0.10994568176E+03  0.10237874860E+03 -0.14801563171E+03  0.21089828907E+03  0.00000000000E+00 0. -1.
         -4    1    3    3    0  502  0.33042080315E+03  0.21445529068E+03 -0.55609163877E+03  0.68147405642E+03  0.00000000000E+00 0.  1.
         11    1    5    5    0    0  0.57931775491E+01  0.41692490737E+02 -0.19056449287E+02  0.46205767491E+02  0.00000000000E+00 0.  1.
        -11    1    5    5    0    0  0.17610118887E+03  0.92105777870E+02 -0.19962984290E+03  0.28168630995E+03  0.00000000000E+00 0. -1.
          4    1    6    6  503    0 -0.36171511282E+03 -0.24071852243E+03 -0.70176613918E+03  0.82538411905E+03  0.00000000000E+00 0. -1.
         -4    1    6    6    0  503 -0.26054573851E+03 -0.20991378546E+03 -0.69163388667E+03  0.76831329051E+03  0.00000000000E+00 0.  1.
<mgrwt>
<rscale>  0 0.15980077E+04</rscale>
<asrwt>0</asrwt>
<pdfrwt beam="1">  1        1 0.39462731E+00 0.15980077E+04</pdfrwt>
<pdfrwt beam="2">  1       -2 0.38289868E-01 0.15980077E+04</pdfrwt>
<totfact> 0.66408526E+00</totfact>
</mgrwt>
</event>
<event>
12    4  0.4183215E-008  0.1460578E+04  0.7818608E-02  0.8911100E-01
         -2   -1    0    0    0  501 -0.00000000000E+00  0.00000000000E+00  0.42046729180E+03  0.42046729180E+03  0.00000000000E+00 0.  1.
          1   -1    0    0  501    0  0.00000000000E+00 -0.00000000000E+00 -0.12684032605E+04  0.12684032605E+04  0.00000000000E+00 0. -1.
        -24    2    1    2    0    0  0.89294215582E+02  0.99515858790E+02  0.22683309132E+03  0.27476412541E+03  0.78518852538E+02 0.  0.
        254    2    1    2    0    0 -0.89294215582E+02 -0.99515858790E+02 -0.10747690601E+04  0.14141064269E+04  0.90922581965E+03 0.  0.
         23    2    4    4    0    0  0.36996286495E+03 -0.60218942208E+02 -0.23369493038E+03  0.45101126610E+03  0.91098843142E+02 0.  0.
         23    2    4    4    0    0 -0.45925708054E+03 -0.39296916582E+02 -0.84107412968E+03  0.96309516082E+03  0.87665748754E+02 0.  0.
          3    1    3    3  502    0  0.13338697857E+02 -0.33452336881E+01 -0.69418026403E+00  0.13769289567E+02  0.00000000000E+00 0. -1.
         -4    1    3    3    0  502  0.75955517725E+02  0.10286109248E+03  0.22752727159E+03  0.26099483584E+03  0.00000000000E+00 0.  1.
         11    1    5    5    0    0  0.22139996637E+03 -0.30103351993E+02 -0.18988109209E+03  0.29322173529E+03  0.00000000000E+00 0.  1.
        -11    1    5    5    0    0  0.14856289858E+03 -0.30115590215E+02 -0.43813838280E+02  0.15778953081E+03  0.00000000000E+00 0. -1.
          2    1    6    6  503    0 -0.42360984205E+03 -0.12671777212E+02 -0.74224779193E+03  0.85471495649E+03  0.00000000000E+00 0.  1.
         -2    1    6    6    0  503 -0.35647238484E+02 -0.26625139370E+02 -0.98826337749E+02  0.10838020433E+03  0.00000000000E+00 0. -1.
<mgrwt>
<rscale>  0 0.14605781E+04</rscale>
<asrwt>0</asrwt>
<pdfrwt beam="1">  1        1 0.19513896E+00 0.14605781E+04</pdfrwt>
<pdfrwt beam="2">  1       -2 0.64687276E-01 0.14605781E+04</pdfrwt>
<totfact> 0.17895606E+01</totfact>
</mgrwt>
</event>
<event>
12    4  0.4183215E-008  0.1655685E+04  0.7818608E-02  0.8787051E-01
         -2   -1    0    0    0  501 -0.00000000000E+00  0.00000000000E+00  0.36134993437E+03  0.36134993437E+03  0.00000000000E+00 0.  1.
          1   -1    0    0  501    0  0.00000000000E+00 -0.00000000000E+00 -0.18965626994E+04  0.18965626994E+04  0.00000000000E+00 0. -1.
        -24    2    1    2    0    0 -0.12234626245E+03 -0.49166303551E+03 -0.15202508194E+03  0.53492654358E+03  0.79584125682E+02 0.  0.
        254    2    1    2    0    0  0.12234626245E+03  0.49166303551E+03 -0.13831876831E+04  0.17229860902E+04  0.89374031571E+03 0.  0.
         23    2    4    4    0    0  0.13314549917E+03  0.16446869561E+03  0.64279359481E+02  0.23615081896E+03  0.82811215754E+02 0.  0.
         23    2    4    4    0    0 -0.10799236719E+02  0.32719433990E+03 -0.14474670426E+04  0.14868352712E+04  0.91353844379E+02 0.  0.
          1    1    3    3  502    0  0.79875816570E+01 -0.28357603977E+02  0.21692257585E+01  0.29540831140E+02  0.00000000000E+00 0. -1.
         -2    1    3    3    0  502 -0.13033384411E+03 -0.46330543154E+03 -0.15419430770E+03  0.50538571244E+03  0.00000000000E+00 0.  1.
         11    1    5    5    0    0  0.92759323378E+02  0.50825666061E+02  0.19825394072E+02  0.10761313421E+03  0.00000000000E+00 0.  1.
        -11    1    5    5    0    0  0.40386175789E+02  0.11364302955E+03  0.44453965409E+02  0.12853768475E+03  0.00000000000E+00 0. -1.
          3    1    6    6  503    0  0.31762169461E+02  0.70237273531E+02 -0.40921800359E+03  0.41641503871E+03  0.00000000000E+00 0. -1.
         -3    1    6    6    0  503 -0.42561406180E+02  0.25695706637E+03 -0.10382490390E+04  0.10704202325E+04  0.00000000000E+00 0.  1.
<mgrwt>
<rscale>  0 0.16556845E+04</rscale>
<asrwt>0</asrwt>
<pdfrwt beam="1">  1        1 0.29177887E+00 0.16556845E+04</pdfrwt>
<pdfrwt beam="2">  1       -2 0.55592298E-01 0.16556845E+04</pdfrwt>
<totfact> 0.89317624E+00</totfact>
</mgrwt>
</event>
<event>
12    4  0.4183215E-008  0.1301174E+04  0.7818608E-02  0.9028635E-01
          1   -1    0    0  501    0  0.00000000000E+00  0.00000000000E+00  0.11636669244E+04  0.11636669244E+04  0.00000000000E+00 0. -1.
         -2   -1    0    0    0  501 -0.00000000000E+00 -0.00000000000E+00 -0.36373253944E+03  0.36373253944E+03  0.00000000000E+00 0.  1.
        -24    2    1    2    0    0  0.99512500367E+02  0.13419796680E+03 -0.14086879399E+03  0.23408624589E+03  0.83907814726E+02 0.  0.
        254    2    1    2    0    0 -0.99512500367E+02 -0.13419796680E+03  0.94080317900E+03  0.12933132180E+04  0.87157135461E+03 0.  0.
         23    2    4    4    0    0 -0.34735252005E+03 -0.36939644871E+03  0.68495025804E+03  0.85709284378E+03  0.91344279303E+02 0.  0.
         23    2    4    4    0    0  0.24784001968E+03  0.23519848191E+03  0.25585292096E+03  0.43622037421E+03  0.89913828002E+02 0.  0.
          1    1    3    3  502    0  0.49430154833E+01  0.75423161016E+02 -0.55091606834E+02  0.93531661822E+02  0.00000000000E+00 0. -1.
         -2    1    3    3    0  502  0.94569484884E+02  0.58774805786E+02 -0.85777187161E+02  0.14055458407E+03  0.00000000000E+00 0.  1.
         11    1    5    5    0    0 -0.96442511817E+02 -0.93974652610E+02  0.12010667404E+03  0.18043837332E+03  0.00000000000E+00 0.  1.
        -11    1    5    5    0    0 -0.25091000823E+03 -0.27542179610E+03  0.56484358401E+03  0.67665447046E+03  0.00000000000E+00 0. -1.
          1    1    6    6  503    0  0.11440553359E+03  0.88213492890E+02  0.57197195096E+02  0.15537620658E+03  0.00000000000E+00 0. -1.
         -1    1    6    6    0  503  0.13343448609E+03  0.14698498902E+03  0.19865572586E+03  0.28084416763E+03  0.00000000000E+00 0.  1.
<mgrwt>
<rscale>  0 0.13011741E+04</rscale>
<asrwt>0</asrwt>
<pdfrwt beam="1">  1        1 0.17902568E+00 0.13011741E+04</pdfrwt>
<pdfrwt beam="2">  1       -2 0.55958853E-01 0.13011741E+04</pdfrwt>
<totfact> 0.29361817E+01</totfact>
</mgrwt>
</event>
<event>
12    4  0.4183215E-008  0.1481774E+04  0.7818608E-02  0.8896664E-01
         -2   -1    0    0    0  501 -0.00000000000E+00  0.00000000000E+00  0.32851929884E+03  0.32851929884E+03  0.00000000000E+00 0.  1.
          1   -1    0    0  501    0  0.00000000000E+00 -0.00000000000E+00 -0.16708719095E+04  0.16708719095E+04  0.00000000000E+00 0. -1.
        -24    2    1    2    0    0  0.45592691391E+02 -0.44971351027E+02  0.19073227279E+03  0.21596036908E+03  0.78479074976E+02 0.  0.
        254    2    1    2    0    0 -0.45592691391E+02  0.44971351027E+02 -0.15330848834E+04  0.17834308393E+04  0.90894179277E+03 0.  0.
         23    2    4    4    0    0 -0.34617700798E+02  0.19924489241E+03 -0.15826106822E+04  0.15980308129E+04  0.90271784448E+02 0.  0.
         23    2    4    4    0    0 -0.10974990593E+02 -0.15427354139E+03  0.49525798787E+02  0.18540002637E+03  0.89440421738E+02 0.  0.
          3    1    3    3  502    0  0.25087022771E+02 -0.65329624061E+02  0.11169802244E+03  0.13180958504E+03  0.00000000000E+00 0. -1.
         -4    1    3    3    0  502  0.20505668620E+02  0.20358273034E+02  0.79034250354E+02  0.84150784046E+02  0.00000000000E+00 0.  1.
         11    1    5    5    0    0  0.30248676525E+02  0.57421604784E+02 -0.41292995900E+03  0.41799925140E+03  0.00000000000E+00 0.  1.
        -11    1    5    5    0    0 -0.64866377323E+02  0.14182328763E+03 -0.11696807232E+04  0.11800315615E+04  0.00000000000E+00 0. -1.
          3    1    6    6  503    0  0.26687501294E+02 -0.81241814463E+02 -0.67913752448E+01  0.85782153857E+02  0.00000000000E+00 0. -1.
         -3    1    6    6    0  503 -0.37662491886E+02 -0.73031726924E+02  0.56317174031E+02  0.99617872510E+02  0.00000000000E+00 0.  1.
<mgrwt>
<rscale>  0 0.14817742E+04</rscale>
<asrwt>0</asrwt>
<pdfrwt beam="1">  1        1 0.25705721E+00 0.14817742E+04</pdfrwt>
<pdfrwt beam="2">  1       -2 0.50541431E-01 0.14817742E+04</pdfrwt>
<totfact> 0.15705275E+01</totfact>
</mgrwt>
</event>
<event>
12    4  0.4183215E-008  0.1203898E+04  0.7818608E-02  0.9109451E-01
          1   -1    0    0  501    0  0.00000000000E+00  0.00000000000E+00  0.26420732744E+04  0.26420732744E+04  0.00000000000E+00 0. -1.
         -2   -1    0    0    0  501 -0.00000000000E+00 -0.00000000000E+00 -0.13714328463E+03  0.13714328463E+03  0.00000000000E+00 0.  1.
        -24    2    1    2    0    0  0.30668144407E+02 -0.21259817622E+03  0.23806640842E+03  0.33051302518E+03  0.80154384663E+02 0.  0.
        254    2    1    2    0    0 -0.30668144407E+02  0.21259817622E+03  0.22668635813E+04  0.24487035338E+04  0.90074412607E+03 0.  0.
         23    2    4    4    0    0  0.34298400021E+03  0.21008286902E+03  0.17857272743E+04  0.18325498505E+04  0.87431230817E+02 0.  0.
         23    2    4    4    0    0 -0.37365214461E+03  0.25153072071E+01  0.48113630703E+03  0.61615368334E+03  0.92363215652E+02 0.  0.
          3    1    3    3  502    0 -0.37051480266E+00 -0.38170153381E+02  0.96358024991E+02  0.10364346034E+03  0.00000000000E+00 0. -1.
         -4    1    3    3    0  502  0.31038659210E+02 -0.17442802284E+03  0.14170838343E+03  0.22686956485E+03  0.00000000000E+00 0.  1.
         11    1    5    5    0    0  0.25815663076E+03  0.14832922135E+03  0.14698592100E+04  0.14997108058E+04  0.00000000000E+00 0.  1.
        -11    1    5    5    0    0  0.84827369444E+02  0.61753647671E+02  0.31586806431E+03  0.33283904467E+03  0.00000000000E+00 0. -1.
          4    1    6    6  503    0 -0.20743030654E+02 -0.20448598711E+02  0.56233524773E+02  0.63329517749E+02  0.00000000000E+00 0. -1.
         -4    1    6    6    0  503 -0.35290911396E+03  0.22963905918E+02  0.42490278226E+03  0.55282416559E+03  0.00000000000E+00 0.  1.
<mgrwt>
<rscale>  0 0.12038980E+04</rscale>
<asrwt>0</asrwt>
<pdfrwt beam="1">  1        1 0.40647277E+00 0.12038980E+04</pdfrwt>
<pdfrwt beam="2">  1       -2 0.21098969E-01 0.12038980E+04</pdfrwt>
<totfact> 0.18359310E+01</totfact>
</mgrwt>
</event>
<event>
12    4  0.4183215E-008  0.1492510E+04  0.7818608E-02  0.8889449E-01
         -4   -1    0    0    0  501 -0.00000000000E+00  0.00000000000E+00  0.23776168880E+04  0.23776168880E+04  0.00000000000E+00 0.  1.
          3   -1    0    0  501    0  0.00000000000E+00 -0.00000000000E+00 -0.23422466472E+03  0.23422466472E+03  0.00000000000E+00 0. -1.
        -24    2    1    2    0    0 -0.43661198047E+02  0.18812277250E+02 -0.13250967511E+03  0.16302741677E+03  0.82212667092E+02 0.  0.
        254    2    1    2    0    0  0.43661198047E+02 -0.18812277250E+02  0.22759018984E+04  0.24488141360E+04  0.90260789902E+03 0.  0.
         23    2    4    4    0    0  0.30164330743E+03 -0.29839992208E+03  0.16874191496E+04  0.17423543438E+04  0.91564591733E+02 0.  0.
         23    2    4    4    0    0 -0.25798210938E+03  0.27958764483E+03  0.58848274883E+03  0.70645979221E+03  0.89718852165E+02 0.  0.
          1    1    3    3  502    0 -0.20407586145E+02  0.42446835448E+02 -0.11758600751E+03  0.12666756718E+03  0.00000000000E+00 0. -1.
         -2    1    3    3    0  502 -0.23253611902E+02 -0.23634558198E+02 -0.14923667596E+02  0.36359849591E+02  0.00000000000E+00 0.  1.
         11    1    5    5    0    0  0.20043481087E+03 -0.13948775511E+03  0.88075667325E+03  0.91398209211E+03  0.00000000000E+00 0. -1.
        -11    1    5    5    0    0  0.10120849656E+03 -0.15891216696E+03  0.80666247632E+03  0.82837225164E+03  0.00000000000E+00 0.  1.
          4    1    6    6  503    0  0.68632402826E+01  0.12861156056E+02  0.28661190231E+02  0.32155516288E+02  0.00000000000E+00 0.  1.
         -4    1    6    6    0  503 -0.26484534966E+03  0.26672648877E+03  0.55982155860E+03  0.67430427592E+03  0.00000000000E+00 0. -1.
<mgrwt>
<rscale>  0 0.14925100E+04</rscale>
<asrwt>0</asrwt>
<pdfrwt beam="1">  1        3 0.36034565E-01 0.14925100E+04</pdfrwt>
<pdfrwt beam="2">  1       -4 0.36578720E+00 0.14925100E+04</pdfrwt>
<totfact> 0.19907332E-01</totfact>
</mgrwt>
</event>
<event>
12    4  0.4183215E-008  0.1628369E+04  0.7818608E-02  0.8803307E-01
          1   -1    0    0  501    0  0.00000000000E+00  0.00000000000E+00  0.11010942883E+04  0.11010942883E+04  0.00000000000E+00 0. -1.
         -2   -1    0    0    0  501 -0.00000000000E+00 -0.00000000000E+00 -0.60203432479E+03  0.60203432479E+03  0.00000000000E+00 0.  1.
        -24    2    1    2    0    0 -0.52500126157E+03 -0.17822860960E+03  0.64172463175E+02  0.56366927561E+03  0.78823761087E+02 0.  0.
        254    2    1    2    0    0  0.52500126157E+03  0.17822860960E+03  0.43488750035E+03  0.11394593375E+04  0.89546003925E+03 0.  0.
         23    2    4    4    0    0  0.72843358440E+03 -0.64489829571E+01  0.18559112044E+03  0.75736066858E+03  0.92163127445E+02 0.  0.
         23    2    4    4    0    0 -0.20343232283E+03  0.18467759255E+03  0.24929637991E+03  0.38209866891E+03  0.91434044982E+02 0.  0.
          1    1    3    3  502    0 -0.27259896130E+03 -0.75371306793E+02 -0.34591895861E+01  0.28284800438E+03  0.00000000000E+00 0. -1.
         -2    1    3    3    0  502 -0.25240230027E+03 -0.10285730280E+03  0.67631652761E+02  0.28082127123E+03  0.00000000000E+00 0.  1.
         11    1    5    5    0    0  0.49985955402E+02 -0.16581005344E+02 -0.40915679778E+01  0.52822972315E+02  0.00000000000E+00 0.  1.
        -11    1    5    5    0    0  0.67844762900E+03  0.10132022387E+02  0.18968268842E+03  0.70453769626E+03  0.00000000000E+00 0. -1.
          1    1    6    6  503    0 -0.20544115281E+03  0.18363764787E+03  0.25532537362E+03  0.37565928632E+03  0.00000000000E+00 0. -1.
         -1    1    6    6    0  503  0.20088299842E+01  0.10399446862E+01 -0.60289937154E+01  0.64393825850E+01  0.00000000000E+00 0.  1.
<mgrwt>
<rscale>  0 0.16283692E+04</rscale>
<asrwt>0</asrwt>
<pdfrwt beam="1">  1        1 0.16939912E+00 0.16283692E+04</pdfrwt>
<pdfrwt beam="2">  1       -2 0.92620666E-01 0.16283692E+04</pdfrwt>
<totfact> 0.10504168E+01</totfact>
</mgrwt>
</event>
<event>
12    4  0.4183215E-008  0.1198157E+04  0.7818608E-02  0.9114471E-01
          1   -1    0    0  501    0  0.00000000000E+00  0.00000000000E+00  0.75787056523E+03  0.75787056523E+03  0.00000000000E+00 0. -1.
         -2   -1    0    0    0  501 -0.00000000000E+00 -0.00000000000E+00 -0.47355732519E+03  0.47355732519E+03  0.00000000000E+00 0.  1.
        -24    2    1    2    0    0  0.73839471939E+02  0.15366254785E+02 -0.18665124302E+03  0.21701752958E+03  0.81052650911E+02 0.  0.
        254    2    1    2    0    0 -0.73839471939E+02 -0.15366254785E+02  0.47096448307E+03  0.10144103608E+04  0.89528344476E+03 0.  0.
         23    2    4    4    0    0 -0.30554499487E+03  0.28473101956E+03  0.45591152218E+03  0.62495344967E+03  0.91005498791E+02 0.  0.
         23    2    4    4    0    0  0.23170552293E+03 -0.30009727434E+03  0.15052960891E+02  0.38945691117E+03  0.87773974497E+02 0.  0.
          1    1    3    3  502    0 -0.15733421373E+01 -0.23552726565E+02 -0.60854713790E+02  0.65272525037E+02  0.00000000000E+00 0. -1.
         -2    1    3    3    0  502  0.75412814077E+02  0.38918981351E+02 -0.12579652923E+03  0.15174500454E+03  0.00000000000E+00 0.  1.
         11    1    5    5    0    0 -0.66249624031E+02  0.59578630083E+02  0.48113491257E+02  0.10125973478E+03  0.00000000000E+00 0. -1.
        -11    1    5    5    0    0 -0.23929537084E+03  0.22515238948E+03  0.40779803092E+03  0.52369371489E+03  0.00000000000E+00 0.  1.
          1    1    6    6  503    0  0.17400311051E+03 -0.25672551198E+03  0.40817552337E+02  0.31281167426E+03  0.00000000000E+00 0. -1.
         -1    1    6    6    0  503  0.57702412415E+02 -0.43371762362E+02 -0.25764591446E+02  0.76645236911E+02  0.00000000000E+00 0.  1.
<mgrwt>
<rscale>  0 0.11981572E+04</rscale>
<asrwt>0</asrwt>
<pdfrwt beam="1">  1        1 0.11659547E+00 0.11981572E+04</pdfrwt>
<pdfrwt beam="2">  1       -2 0.72854973E-01 0.11981572E+04</pdfrwt>
<totfact> 0.35582431E+01</totfact>
</mgrwt>
</event>
<event>
12    4  0.4183215E-008  0.1409045E+04  0.7818608E-02  0.8947297E-01
         -2   -1    0    0    0  501 -0.00000000000E+00  0.00000000000E+00  0.37438232917E+03  0.37438232917E+03  0.00000000000E+00 0.  1.
          1   -1    0    0  501    0  0.00000000000E+00 -0.00000000000E+00 -0.13257895498E+04  0.13257895498E+04  0.00000000000E+00 0. -1.
        -24    2    1    2    0    0  0.16079435355E+03  0.31650166565E+03 -0.52240690217E+03  0.63667498268E+03  0.80112006877E+02 0.  0.
        254    2    1    2    0    0 -0.16079435355E+03 -0.31650166565E+03 -0.42900031847E+03  0.10634968963E+04  0.90606635888E+03 0.  0.
         23    2    4    4    0    0  0.13179584268E+03 -0.36488269479E+03  0.13470697970E+03  0.42061683931E+03  0.90901210252E+02 0.  0.
         23    2    4    4    0    0 -0.29259019624E+03  0.48381029142E+02 -0.56370729817E+03  0.64288005699E+03  0.87058042361E+02 0.  0.
          1    1    3    3  502    0  0.11730328903E+03  0.17287770310E+03 -0.25123855850E+03  0.32675307975E+03  0.00000000000E+00 0. -1.
         -2    1    3    3    0  502  0.43491064528E+02  0.14362396255E+03 -0.27116834367E+03  0.30992190294E+03  0.00000000000E+00 0.  1.
         11    1    5    5    0    0  0.13494455083E+03 -0.25930195907E+03  0.89370726796E+02  0.30567084353E+03  0.00000000000E+00 0.  1.
        -11    1    5    5    0    0 -0.31487081476E+01 -0.10558073573E+03  0.45336252908E+02  0.11494599579E+03  0.00000000000E+00 0. -1.
          3    1    6    6  503    0 -0.18142801801E+03  0.35792508402E+02 -0.43298858850E+03  0.47082517684E+03  0.00000000000E+00 0. -1.
         -3    1    6    6    0  503 -0.11116217823E+03  0.12588520741E+02 -0.13071870968E+03  0.17205488015E+03  0.00000000000E+00 0.  1.
<mgrwt>
<rscale>  0 0.14090453E+04</rscale>
<asrwt>0</asrwt>
<pdfrwt beam="1">  1        1 0.20396762E+00 0.14090453E+04</pdfrwt>
<pdfrwt beam="2">  1       -2 0.57597282E-01 0.14090453E+04</pdfrwt>
<totfact> 0.20920116E+01</totfact>
</mgrwt>
</event>
<event>
12    4  0.4183215E-008  0.2966190E+04  0.7818608E-02  0.8253452E-01
         -2   -1    0    0    0  501 -0.00000000000E+00  0.00000000000E+00  0.11335382514E+04  0.11335382514E+04  0.00000000000E+00 0.  1.
          1   -1    0    0  501    0  0.00000000000E+00 -0.00000000000E+00 -0.19404472967E+04  0.19404472967E+04  0.00000000000E+00 0. -1.
        -24    2    1    2    0    0  0.50287047250E+03 -0.34907301047E+03 -0.16141121116E+04  0.17280861405E+04  0.78696388860E+02 0.  0.
        254    2    1    2    0    0 -0.50287047250E+03  0.34907301047E+03  0.80720306636E+03  0.13458994075E+04  0.88607998857E+03 0.  0.
         23    2    4    4    0    0  0.97558998740E+02 -0.10174796915E+03  0.50343695827E+03  0.53132691202E+03  0.94810911962E+02 0.  0.
         23    2    4    4    0    0 -0.60042947124E+03  0.45082097962E+03  0.30376610809E+03  0.81457249552E+03  0.86599055630E+02 0.  0.
          1    1    3    3  502    0  0.44779385650E+03 -0.31449457279E+03 -0.13642393559E+04  0.14698895177E+04  0.00000000000E+00 0. -1.
         -4    1    3    3    0  502  0.55076616002E+02 -0.34578437675E+02 -0.24987275571E+03  0.25819662280E+03  0.00000000000E+00 0.  1.
         11    1    5    5    0    0  0.48825830791E+02 -0.47496044726E+02  0.39382391050E+03  0.39967125053E+03  0.00000000000E+00 0.  1.
        -11    1    5    5    0    0  0.48733167949E+02 -0.54251924427E+02  0.10961304776E+03  0.13165566149E+03  0.00000000000E+00 0. -1.
          1    1    6    6  503    0 -0.45392188582E+03  0.38327251461E+03  0.24958447811E+03  0.64438754689E+03  0.00000000000E+00 0. -1.
         -1    1    6    6    0  503 -0.14650758543E+03  0.67548465010E+02  0.54181629984E+02  0.17018494863E+03  0.00000000000E+00 0.  1.
<mgrwt>
<rscale>  0 0.29661903E+04</rscale>
<asrwt>0</asrwt>
<pdfrwt beam="1">  1        1 0.29853035E+00 0.29661903E+04</pdfrwt>
<pdfrwt beam="2">  1       -2 0.17439050E+00 0.29661903E+04</pdfrwt>
<totfact> 0.48693510E-01</totfact>
</mgrwt>
</event>
<event>
12    4  0.4183215E-008  0.1835753E+04  0.7818608E-02  0.8687514E-01
          1   -1    0    0  501    0  0.00000000000E+00  0.00000000000E+00  0.39313239217E+03  0.39313239217E+03  0.00000000000E+00 0. -1.
         -2   -1    0    0    0  501 -0.00000000000E+00 -0.00000000000E+00 -0.21430365955E+04  0.21430365955E+04  0.00000000000E+00 0.  1.
        -24    2    1    2    0    0  0.46710227966E+03 -0.37540174756E+03 -0.16495883161E+03  0.62666142434E+03  0.79888127354E+02 0.  0.
        254    2    1    2    0    0 -0.46710227966E+03  0.37540174756E+03 -0.15849453717E+04  0.19095075633E+04  0.88037281381E+03 0.  0.
         23    2    4    4    0    0 -0.35542174806E+03  0.37512144557E+03 -0.27632651789E+03  0.59294379030E+03  0.90472515420E+02 0.  0.
         23    2    4    4    0    0 -0.11168053160E+03  0.28030199464E+00 -0.13086188538E+04  0.13165637730E+04  0.91565518315E+02 0.  0.
          3    1    3    3  502    0  0.35207287914E+03 -0.23815958885E+03 -0.12678346982E+03  0.44356436986E+03  0.00000000000E+00 0. -1.
         -4    1    3    3    0  502  0.11502940052E+03 -0.13724215871E+03 -0.38175361787E+02  0.18309705448E+03  0.00000000000E+00 0.  1.
         11    1    5    5    0    0 -0.11655720446E+03  0.12268356235E+03 -0.43823793251E+02  0.17480664529E+03  0.00000000000E+00 0. -1.
        -11    1    5    5    0    0 -0.23886454360E+03  0.25243788322E+03 -0.23250272464E+03  0.41813714502E+03  0.00000000000E+00 0.  1.
          1    1    6    6  503    0 -0.90792699429E+02  0.40009482375E+02 -0.85958656921E+03  0.86529367437E+03  0.00000000000E+00 0. -1.
         -1    1    6    6    0  503 -0.20887832168E+02 -0.39729180380E+02 -0.44903228457E+03  0.45127009861E+03  0.00000000000E+00 0.  1.
<mgrwt>
<rscale>  0 0.18357528E+04</rscale>
<asrwt>0</asrwt>
<pdfrwt beam="1">  1        1 0.60481906E-01 0.18357528E+04</pdfrwt>
<pdfrwt beam="2">  1       -2 0.32969794E+00 0.18357528E+04</pdfrwt>
<totfact> 0.10560848E+00</totfact>
</mgrwt>
</event>
<event>
12    4  0.4183215E-008  0.1634893E+04  0.7818608E-02  0.8799394E-01
          1   -1    0    0  501    0  0.00000000000E+00  0.00000000000E+00  0.17260440978E+04  0.17260440978E+04  0.00000000000E+00 0. -1.
         -2   -1    0    0    0  501 -0.00000000000E+00 -0.00000000000E+00 -0.38713885927E+03  0.38713885927E+03  0.00000000000E+00 0.  1.
        -24    2    1    2    0    0  0.50360558681E+02  0.33297536000E+03 -0.12183699429E+03  0.36678777410E+03  0.79247976720E+02 0.  0.
        254    2    1    2    0    0 -0.50360558681E+02 -0.33297536000E+03  0.14607422328E+04  0.17463951829E+04  0.89594614128E+03 0.  0.
         23    2    4    4    0    0 -0.30999425761E+03  0.93547277438E+02  0.21039858748E+03  0.39699074258E+03  0.92122479416E+02 0.  0.
         23    2    4    4    0    0  0.25963369893E+03 -0.42652263744E+03  0.12503436453E+04  0.13494044404E+04  0.90564310854E+02 0.  0.
          3    1    3    3  502    0  0.45079507835E+02  0.11990091684E+03 -0.16865731606E+02  0.12920079252E+03  0.00000000000E+00 0. -1.
         -4    1    3    3    0  502  0.52810508456E+01  0.21307444316E+03 -0.10497126268E+03  0.23758698158E+03  0.00000000000E+00 0.  1.
         11    1    5    5    0    0 -0.28718813871E+03  0.10601476110E+03  0.20955712799E+03  0.37098564188E+03  0.00000000000E+00 0.  1.
        -11    1    5    5    0    0 -0.22806118901E+02 -0.12467483666E+02  0.84145948096E+00  0.26005100699E+02  0.00000000000E+00 0. -1.
          3    1    6    6  503    0  0.60352088615E+02 -0.10025019231E+03  0.20095377831E+03  0.23254009692E+03  0.00000000000E+00 0. -1.
         -3    1    6    6    0  503  0.19928161031E+03 -0.32627244513E+03  0.10493898670E+04  0.11168643435E+04  0.00000000000E+00 0.  1.
<mgrwt>
<rscale>  0 0.16348930E+04</rscale>
<asrwt>0</asrwt>
<pdfrwt beam="1">  1        1 0.26554524E+00 0.16348930E+04</pdfrwt>
<pdfrwt beam="2">  1       -2 0.59559826E-01 0.16348930E+04</pdfrwt>
<totfact> 0.10107334E+01</totfact>
</mgrwt>
</event>
<event>
12    4  0.4183215E-008  0.1846309E+04  0.7818608E-02  0.8682053E-01
         -2   -1    0    0    0  501 -0.00000000000E+00  0.00000000000E+00  0.13766560369E+04  0.13766560369E+04  0.00000000000E+00 0.  1.
          1   -1    0    0  501    0  0.00000000000E+00 -0.00000000000E+00 -0.61904681096E+03  0.61904681096E+03  0.00000000000E+00 0. -1.
        -24    2    1    2    0    0  0.66345601678E+03 -0.10722686409E+03  0.16942192025E+03  0.69774327055E+03  0.80438783819E+02 0.  0.
        254    2    1    2    0    0 -0.66345601678E+03  0.10722686409E+03  0.58818730570E+03  0.12979595773E+04  0.94184036395E+03 0.  0.
         23    2    4    4    0    0 -0.54640517225E+03 -0.21429202533E+03 -0.19823347122E+02  0.59434892144E+03  0.91531365939E+02 0.  0.
         23    2    4    4    0    0 -0.11705084454E+03  0.32151888942E+03  0.60801065282E+03  0.70361065587E+03  0.91190485498E+02 0.  0.
          1    1    3    3  502    0  0.21803668638E+03 -0.18374136891E+02  0.90290036018E+02  0.23670634998E+03  0.00000000000E+00 0. -1.
         -2    1    3    3    0  502  0.44541933040E+03 -0.88852727200E+02  0.79131884228E+02  0.46103692057E+03  0.00000000000E+00 0.  1.
         11    1    5    5    0    0 -0.68424328345E+02 -0.15427269336E+02  0.25583280360E+02  0.74661861634E+02  0.00000000000E+00 0. -1.
        -11    1    5    5    0    0 -0.47798084390E+03 -0.19886475600E+03 -0.45406627481E+02  0.51968705981E+03  0.00000000000E+00 0.  1.
          1    1    6    6  503    0 -0.10558258294E+03  0.18025886781E+03  0.31282720112E+03  0.37616724871E+03  0.00000000000E+00 0. -1.
         -1    1    6    6    0  503 -0.11468261593E+02  0.14126002162E+03  0.29518345171E+03  0.32744340716E+03  0.00000000000E+00 0.  1.
<mgrwt>
<rscale>  0 0.18463093E+04</rscale>
<asrwt>0</asrwt>
<pdfrwt beam="1">  1        1 0.95237971E-01 0.18463093E+04</pdfrwt>
<pdfrwt beam="2">  1       -2 0.21179324E+00 0.18463093E+04</pdfrwt>
<totfact> 0.30008376E+00</totfact>
</mgrwt>
</event>
<event>
12    4  0.4183215E-008  0.1521999E+04  0.7818608E-02  0.8869954E-01
          1   -1    0    0  501    0  0.00000000000E+00  0.00000000000E+00  0.10053940762E+04  0.10053940762E+04  0.00000000000E+00 0. -1.
         -2   -1    0    0    0  501 -0.00000000000E+00 -0.00000000000E+00 -0.57601340417E+03  0.57601340417E+03  0.00000000000E+00 0.  1.
        -24    2    1    2    0    0  0.33514538507E+02  0.49122160103E+03  0.21951596794E+03  0.54463351282E+03  0.77566213640E+02 0.  0.
        254    2    1    2    0    0 -0.33514538507E+02 -0.49122160103E+03  0.20986470405E+03  0.10367739675E+04  0.88793872542E+03 0.  0.
         23    2    4    4    0    0 -0.29988331946E+03  0.45640900558E+02 -0.12896461268E+03  0.34235191279E+03  0.92519531845E+02 0.  0.
         23    2    4    4    0    0  0.26636878096E+03 -0.53686250158E+03  0.33882931673E+03  0.69442205472E+03  0.90791030009E+02 0.  0.
          3    1    3    3  502    0  0.37011019051E+01  0.45403606153E+02  0.47604875336E+02  0.65889375188E+02  0.00000000000E+00 0. -1.
         -4    1    3    3    0  502  0.29813436602E+02  0.44581799487E+03  0.17191109261E+03  0.47874413763E+03  0.00000000000E+00 0.  1.
         11    1    5    5    0    0 -0.22689155438E+03 -0.27509102155E+00 -0.11703500643E+03  0.25529795505E+03  0.00000000000E+00 0.  1.
        -11    1    5    5    0    0 -0.72991765082E+02  0.45915991580E+02 -0.11929606247E+02  0.87053957737E+02  0.00000000000E+00 0. -1.
          3    1    6    6  503    0  0.65153937173E+01 -0.32154554495E+02 -0.96540710046E+00  0.32822214138E+02  0.00000000000E+00 0. -1.
         -3    1    6    6    0  503  0.25985338724E+03 -0.50470794709E+03  0.33979472383E+03  0.66159984058E+03  0.00000000000E+00 0.  1.
<mgrwt>
<rscale>  0 0.15219993E+04</rscale>
<asrwt>0</asrwt>
<pdfrwt beam="1">  1        1 0.15467601E+00 0.15219993E+04</pdfrwt>
<pdfrwt beam="2">  1       -2 0.88617447E-01 0.15219993E+04</pdfrwt>
<totfact> 0.13893551E+01</totfact>
</mgrwt>
</event>
<event>
12    4  0.4183215E-008  0.1103078E+04  0.7818608E-02  0.9202197E-01
          1   -1    0    0  501    0  0.00000000000E+00  0.00000000000E+00  0.90545113823E+03  0.90545113823E+03  0.00000000000E+00 0. -1.
         -2   -1    0    0    0  501 -0.00000000000E+00 -0.00000000000E+00 -0.33595968440E+03  0.33595968440E+03  0.00000000000E+00 0.  1.
        -24    2    1    2    0    0 -0.17323153350E+03  0.38033520533E+02  0.75363447442E+02  0.20682256749E+03  0.75101347048E+02 0.  0.
        254    2    1    2    0    0  0.17323153350E+03 -0.38033520533E+02  0.49412800639E+03  0.10345882551E+04  0.89149013348E+03 0.  0.
         23    2    4    4    0    0 -0.88191399863E+02  0.86971133931E+02 -0.21523032758E+03  0.26381322195E+03  0.89059648658E+02 0.  0.
         23    2    4    4    0    0  0.26142293337E+03 -0.12500465446E+03  0.70935833397E+03  0.77077503319E+03  0.83287406534E+02 0.  0.
          1    1    3    3  502    0 -0.40708018648E+01 -0.35459021379E+01  0.24879896747E+02  0.25458870987E+02  0.00000000000E+00 0. -1.
         -2    1    3    3    0  502 -0.16916073164E+03  0.41579422671E+02  0.50483550694E+02  0.18136369650E+03  0.00000000000E+00 0.  1.
         11    1    5    5    0    0 -0.73320834050E+02  0.42151789636E+02 -0.65967323477E+02  0.10725859332E+03  0.00000000000E+00 0.  1.
        -11    1    5    5    0    0 -0.14870565813E+02  0.44819344295E+02 -0.14926300410E+03  0.15655462863E+03  0.00000000000E+00 0. -1.
          3    1    6    6  503    0  0.14520294767E+03 -0.94335108513E+02  0.50290759287E+03  0.53188255816E+03  0.00000000000E+00 0. -1.
         -3    1    6    6    0  503  0.11621998569E+03 -0.30669545951E+02  0.20645074110E+03  0.23889247503E+03  0.00000000000E+00 0.  1.
<mgrwt>
<rscale>  0 0.11030777E+04</rscale>
<asrwt>0</asrwt>
<pdfrwt beam="1">  1        1 0.13930017E+00 0.11030777E+04</pdfrwt>
<pdfrwt beam="2">  1       -2 0.51686106E-01 0.11030777E+04</pdfrwt>
<totfact> 0.55600051E+01</totfact>
</mgrwt>
</event>
<event>
12    4  0.4183215E-008  0.1380674E+04  0.7818608E-02  0.8967927E-01
          1   -1    0    0  501    0  0.00000000000E+00  0.00000000000E+00  0.16393381078E+04  0.16393381078E+04  0.00000000000E+00 0. -1.
         -2   -1    0    0    0  501 -0.00000000000E+00 -0.00000000000E+00 -0.29070602896E+03  0.29070602896E+03  0.00000000000E+00 0.  1.
        -24    2    1    2    0    0  0.48497196902E+02  0.28847447112E+03  0.21820459822E+02  0.30484622251E+03  0.82979445138E+02 0.  0.
        254    2    1    2    0    0 -0.48497196902E+02 -0.28847447112E+03  0.13268116191E+04  0.16251979143E+04  0.89177894658E+03 0.  0.
         23    2    4    4    0    0 -0.32076037052E+03 -0.30168514057E+03  0.12485555342E+04  0.13271313224E+04  0.92116696035E+02 0.  0.
         23    2    4    4    0    0  0.27226317361E+03  0.13210669449E+02  0.78256084873E+02  0.29806659187E+03  0.91749228189E+02 0.  0.
          1    1    3    3  502    0  0.58315998462E+02  0.11118781722E+03  0.20932060060E+02  0.12728565321E+03  0.00000000000E+00 0. -1.
         -2    1    3    3    0  502 -0.98188015604E+01  0.17728665390E+03  0.88839976139E+00  0.17756056930E+03  0.00000000000E+00 0.  1.
         11    1    5    5    0    0 -0.75115792939E+02 -0.10769600972E+03  0.28008262614E+03  0.30933329973E+03  0.00000000000E+00 0.  1.
        -11    1    5    5    0    0 -0.24564457758E+03 -0.19398913085E+03  0.96847290806E+03  0.10177980227E+04  0.00000000000E+00 0. -1.
          2    1    6    6  503    0  0.12765589027E+03 -0.34244069296E+02  0.14159420135E+02  0.13292543692E+03  0.00000000000E+00 0. -1.
         -2    1    6    6    0  503  0.14460728334E+03  0.47454738745E+02  0.64096664737E+02  0.16514115494E+03  0.00000000000E+00 0.  1.
<mgrwt>
<rscale>  0 0.13806744E+04</rscale>
<asrwt>0</asrwt>
<pdfrwt beam="1">  1        1 0.25220586E+00 0.13806744E+04</pdfrwt>
<pdfrwt beam="2">  1       -2 0.44724006E-01 0.13806744E+04</pdfrwt>
<totfact> 0.21308698E+01</totfact>
</mgrwt>
</event>
<event>
12    4  0.4183215E-008  0.3581767E+04  0.7818608E-02  0.8094681E-01
          1   -1    0    0  501    0  0.00000000000E+00  0.00000000000E+00  0.20867101903E+04  0.20867101903E+04  0.00000000000E+00 0. -1.
         -2   -1    0    0    0  501 -0.00000000000E+00 -0.00000000000E+00 -0.15369950642E+04  0.15369950642E+04  0.00000000000E+00 0.  1.
        -24    2    1    2    0    0  0.18959699937E+03  0.12513358832E+04 -0.83946496041E+03  0.15206743520E+04  0.77204600673E+02 0.  0.
        254    2    1    2    0    0 -0.18959699937E+03 -0.12513358832E+04  0.13891800865E+04  0.21030309025E+04  0.94399637157E+03 0.  0.
         23    2    4    4    0    0 -0.31035487622E+03 -0.22587959961E+03  0.32801137872E+02  0.39600098615E+03  0.91646733023E+02 0.  0.
         23    2    4    4    0    0  0.12075787686E+03 -0.10254562836E+04  0.13563789487E+04  0.17070299164E+04  0.89689624534E+02 0.  0.
          1    1    3    3  502    0  0.31786174832E+02  0.16283467975E+03 -0.14124250291E+03  0.21788744449E+03  0.00000000000E+00 0. -1.
         -2    1    3    3    0  502  0.15781082453E+03  0.10885012034E+04 -0.69822245751E+03  0.13027869075E+04  0.00000000000E+00 0.  1.
         11    1    5    5    0    0 -0.24434681267E+03 -0.20866192845E+03  0.24253244732E+01  0.32132701014E+03  0.00000000000E+00 0. -1.
        -11    1    5    5    0    0 -0.66008063553E+02 -0.17217671161E+02  0.30375813399E+02  0.74673976015E+02  0.00000000000E+00 0.  1.
          1    1    6    6  503    0  0.13498620943E+03 -0.94066169404E+03  0.12517492556E+04  0.15716048798E+04  0.00000000000E+00 0. -1.
         -1    1    6    6    0  503 -0.14228332570E+02 -0.84794589519E+02  0.10462969307E+03  0.13542503657E+03  0.00000000000E+00 0.  1.
<mgrwt>
<rscale>  0 0.35817668E+04</rscale>
<asrwt>0</asrwt>
<pdfrwt beam="1">  1        1 0.32103234E+00 0.35817668E+04</pdfrwt>
<pdfrwt beam="2">  1       -2 0.23646078E+00 0.35817668E+04</pdfrwt>
<totfact> 0.14446629E-01</totfact>
</mgrwt>
</event>
<event>
12    4  0.4183215E-008  0.1921252E+04  0.7818608E-02  0.8644350E-01
          1   -1    0    0  501    0  0.00000000000E+00  0.00000000000E+00  0.12915743580E+04  0.12915743580E+04  0.00000000000E+00 0. -1.
         -2   -1    0    0    0  501 -0.00000000000E+00 -0.00000000000E+00 -0.71447839947E+03  0.71447839947E+03  0.00000000000E+00 0.  1.
        -24    2    1    2    0    0  0.46927626612E+03  0.57342048570E+03  0.30692476101E+03  0.80606504299E+03  0.80664597180E+02 0.  0.
        254    2    1    2    0    0 -0.46927626612E+03 -0.57342048570E+03  0.27017119749E+03  0.11999877144E+04  0.90440409746E+03 0.  0.
         23    2    4    4    0    0 -0.69580670568E+03 -0.30700170602E+03  0.31288377717E+02  0.76676732630E+03  0.92499464519E+02 0.  0.
         23    2    4    4    0    0  0.22653043957E+03 -0.26641877969E+03  0.23888281977E+03  0.43322038814E+03  0.91213468837E+02 0.  0.
          1    1    3    3  502    0  0.29455202153E+02  0.72454645541E+02  0.23411964220E+02  0.81641929564E+02  0.00000000000E+00 0. -1.
         -2    1    3    3    0  502  0.43982106396E+03  0.50096584016E+03  0.28351279679E+03  0.72442311342E+03  0.00000000000E+00 0.  1.
         11    1    5    5    0    0 -0.67964172118E+03 -0.29872881594E+03  0.45380671179E+02  0.74378167492E+03  0.00000000000E+00 0.  1.
        -11    1    5    5    0    0 -0.16164984507E+02 -0.82728900775E+01 -0.14092293462E+02  0.22985651380E+02  0.00000000000E+00 0. -1.
          3    1    6    6  503    0  0.97280788324E+01 -0.95406026123E+01 -0.83234096362E+01  0.15966770617E+02  0.00000000000E+00 0. -1.
         -3    1    6    6    0  503  0.21680236073E+03 -0.25687817708E+03  0.24720622941E+03  0.41725361752E+03  0.00000000000E+00 0.  1.
<mgrwt>
<rscale>  0 0.19212517E+04</rscale>
<asrwt>0</asrwt>
<pdfrwt beam="1">  1        1 0.19870375E+00 0.19212517E+04</pdfrwt>
<pdfrwt beam="2">  1       -2 0.10991975E+00 0.19212517E+04</pdfrwt>
<totfact> 0.49467113E+00</totfact>
</mgrwt>
</event>
<event>
12    4  0.4183215E-008  0.1818475E+04  0.7818608E-02  0.8696536E-01
          1   -1    0    0  501    0  0.00000000000E+00  0.00000000000E+00  0.84589294846E+03  0.84589294846E+03  0.00000000000E+00 0. -1.
         -2   -1    0    0    0  501 -0.00000000000E+00 -0.00000000000E+00 -0.97732529215E+03  0.97732529215E+03  0.00000000000E+00 0.  1.
        -24    2    1    2    0    0  0.25284065754E+03 -0.52325319121E+03  0.25836865171E+03  0.64125468683E+03  0.82042141452E+02 0.  0.
        254    2    1    2    0    0 -0.25284065754E+03  0.52325319121E+03 -0.38980099540E+03  0.11819635538E+04  0.95256009062E+03 0.  0.
         23    2    4    4    0    0  0.10277357897E+03  0.50299141672E+03  0.13728706446E+03  0.53934722338E+03  0.92113600934E+02 0.  0.
         23    2    4    4    0    0 -0.35561423651E+03  0.20261774498E+02 -0.52708805986E+03  0.64261633040E+03  0.90894997336E+02 0.  0.
          1    1    3    3  502    0  0.22236496683E+03 -0.42591173942E+03  0.18178891174E+03  0.51370633311E+03  0.00000000000E+00 0. -1.
         -2    1    3    3    0  502  0.30475690706E+02 -0.97341451798E+02  0.76579739974E+02  0.12754835372E+03  0.00000000000E+00 0.  1.
         11    1    5    5    0    0 -0.56028161830E+01  0.18576106172E+03  0.60361491860E+02  0.19540233699E+03  0.00000000000E+00 0.  1.
        -11    1    5    5    0    0  0.10837639515E+03  0.31723035499E+03  0.76925572600E+02  0.34394488639E+03  0.00000000000E+00 0. -1.
          1    1    6    6  503    0 -0.16239801282E+03  0.36763569553E+02 -0.18126251108E+03  0.24613161629E+03  0.00000000000E+00 0. -1.
         -1    1    6    6    0  503 -0.19321622368E+03 -0.16501795054E+02 -0.34582554878E+03  0.39648471411E+03  0.00000000000E+00 0.  1.
<mgrwt>
<rscale>  0 0.18184747E+04</rscale>
<asrwt>0</asrwt>
<pdfrwt beam="1">  1        1 0.13013738E+00 0.18184747E+04</pdfrwt>
<pdfrwt beam="2">  1       -2 0.15035774E+00 0.18184747E+04</pdfrwt>
<totfact> 0.49602124E+00</totfact>
</mgrwt>
</event>
<event>
12    4  0.4183215E-008  0.2540853E+04  0.7818608E-02  0.8388574E-01
         -2   -1    0    0    0  501 -0.00000000000E+00  0.00000000000E+00  0.99906087795E+03  0.99906087795E+03  0.00000000000E+00 0.  1.
          1   -1    0    0  501    0  0.00000000000E+00 -0.00000000000E+00 -0.16155007914E+04  0.16155007914E+04  0.00000000000E+00 0. -1.
        -24    2    1    2    0    0 -0.88725161307E+03 -0.97735688397E+01  0.43302455993E+03  0.99057606618E+03  0.80123191573E+02 0.  0.
        254    2    1    2    0    0  0.88725161307E+03  0.97735688397E+01 -0.10494644734E+04  0.16239856032E+04  0.86524135991E+03 0.  0.
         23    2    4    4    0    0  0.99298126829E+02  0.32716200163E+03 -0.15296872101E+03  0.38550087629E+03  0.91194312918E+02 0.  0.
         23    2    4    4    0    0  0.78795348625E+03 -0.31738843279E+03 -0.89649575236E+03  0.12384847269E+04  0.92377870533E+02 0.  0.
          1    1    3    3  502    0 -0.16476814687E+03  0.29168976853E+02  0.85582501678E+02  0.18794609873E+03  0.00000000000E+00 0. -1.
         -2    1    3    3    0  502 -0.72248346620E+03 -0.38942545692E+02  0.34744205825E+03  0.80262996745E+03  0.00000000000E+00 0.  1.
         11    1    5    5    0    0 -0.30546534520E+01  0.92264742428E+02 -0.12106841625E+02  0.93105795830E+02  0.00000000000E+00 0. -1.
        -11    1    5    5    0    0  0.10235278028E+03  0.23489725921E+03 -0.14086187939E+03  0.29239508046E+03  0.00000000000E+00 0.  1.
          3    1    6    6  503    0  0.36053441954E+03 -0.11304311281E+03 -0.34757324067E+03  0.51339163477E+03  0.00000000000E+00 0. -1.
         -3    1    6    6    0  503  0.42741906671E+03 -0.20434531998E+03 -0.54892251169E+03  0.72509309211E+03  0.00000000000E+00 0.  1.
<mgrwt>
<rscale>  0 0.25408531E+04</rscale>
<asrwt>0</asrwt>
<pdfrwt beam="1">  1        1 0.24853858E+00 0.25408531E+04</pdfrwt>
<pdfrwt beam="2">  1       -2 0.15370167E+00 0.25408531E+04</pdfrwt>
<totfact> 0.11887669E+00</totfact>
</mgrwt>
</event>
<event>
12    4  0.4183215E-008  0.1660136E+04  0.7818608E-02  0.8784433E-01
         -2   -1    0    0    0  501 -0.00000000000E+00  0.00000000000E+00  0.54314348585E+03  0.54314348585E+03  0.00000000000E+00 0.  1.
          1   -1    0    0  501    0  0.00000000000E+00 -0.00000000000E+00 -0.12685652210E+04  0.12685652210E+04  0.00000000000E+00 0. -1.
        -24    2    1    2    0    0  0.12871016932E+03 -0.58479747920E+02  0.36127122954E+03  0.39603200608E+03  0.79613189488E+02 0.  0.
        254    2    1    2    0    0 -0.12871016932E+03  0.58479747920E+02 -0.10866929647E+04  0.14156767008E+04  0.89624367950E+03 0.  0.
         23    2    4    4    0    0 -0.35556569111E+03 -0.20017895718E+03 -0.94268137817E+03  0.10319385612E+04  0.98744304801E+02 0.  0.
         23    2    4    4    0    0  0.22685552180E+03  0.25865870510E+03 -0.14401158655E+03  0.38373813962E+03  0.90265548470E+02 0.  0.
          3    1    3    3  502    0  0.47756546743E+02  0.15112126511E+02  0.81909375528E+02  0.96011509331E+02  0.00000000000E+00 0. -1.
         -4    1    3    3    0  502  0.80953622573E+02 -0.73591874431E+02  0.27936185401E+03  0.30002049675E+03  0.00000000000E+00 0.  1.
         11    1    5    5    0    0  0.35457387574E+01 -0.12512348074E+02 -0.48907424411E+02  0.50606988452E+02  0.00000000000E+00 0.  1.
        -11    1    5    5    0    0 -0.35911142987E+03 -0.18766660911E+03 -0.89377395376E+03  0.98133157274E+03  0.00000000000E+00 0. -1.
          4    1    6    6  503    0  0.13833133386E+02  0.30369281588E+02 -0.45300446336E+02  0.56265258212E+02  0.00000000000E+00 0.  1.
         -4    1    6    6    0  503  0.21302238841E+03  0.22828942351E+03 -0.98711140213E+02  0.32747288140E+03  0.00000000000E+00 0. -1.
<mgrwt>
<rscale>  0 0.16601361E+04</rscale>
<asrwt>0</asrwt>
<pdfrwt beam="1">  1        1 0.19516388E+00 0.16601361E+04</pdfrwt>
<pdfrwt beam="2">  1       -2 0.83560538E-01 0.16601361E+04</pdfrwt>
<totfact> 0.99964742E+00</totfact>
</mgrwt>
</event>
<event>
12    4  0.4183215E-008  0.1517621E+04  0.7818608E-02  0.8872819E-01
         -2   -1    0    0    0  501 -0.00000000000E+00  0.00000000000E+00  0.29442049788E+04  0.29442049788E+04  0.00000000000E+00 0.  1.
          1   -1    0    0  501    0  0.00000000000E+00 -0.00000000000E+00 -0.19556831936E+03  0.19556831936E+03  0.00000000000E+00 0. -1.
        -24    2    1    2    0    0 -0.16481132072E+03  0.42237000695E+03  0.12783478021E+04  0.13586302346E+04  0.78382504071E+02 0.  0.
        254    2    1    2    0    0  0.16481132072E+03 -0.42237000695E+03  0.14702888573E+04  0.17811430636E+04  0.89730824958E+03 0.  0.
         23    2    4    4    0    0  0.15602972772E+03  0.16307346674E+03  0.98200187723E+03  0.10118605231E+04  0.92713536483E+02 0.  0.
         23    2    4    4    0    0  0.87815929990E+01 -0.58544347370E+03  0.48828698010E+03  0.76928254048E+03  0.10271453105E+03 0.  0.
          1    1    3    3  502    0 -0.73388117311E+02  0.20980235218E+03  0.74000065079E+03  0.77266021375E+03  0.00000000000E+00 0. -1.
         -2    1    3    3    0  502 -0.91423203407E+02  0.21256765478E+03  0.53834715134E+03  0.58597002085E+03  0.00000000000E+00 0.  1.
         11    1    5    5    0    0  0.10724071698E+03  0.14847367843E+03  0.86625726691E+03  0.88540762197E+03  0.00000000000E+00 0. -1.
        -11    1    5    5    0    0  0.48789010741E+02  0.14599788318E+02  0.11574461032E+03  0.12645290114E+03  0.00000000000E+00 0.  1.
          1    1    6    6  503    0 -0.24455099180E+02 -0.38716304542E+03  0.36960954505E+03  0.53582132414E+03  0.00000000000E+00 0. -1.
         -1    1    6    6    0  503  0.33236692179E+02 -0.19828042828E+03  0.11867743505E+03  0.23346121634E+03  0.00000000000E+00 0.  1.
<mgrwt>
<rscale>  0 0.15176208E+04</rscale>
<asrwt>0</asrwt>
<pdfrwt beam="1">  1        1 0.30087436E-01 0.15176208E+04</pdfrwt>
<pdfrwt beam="2">  1       -2 0.45295458E+00 0.15176208E+04</pdfrwt>
<totfact> 0.43189395E-01</totfact>
</mgrwt>
</event>
<event>
12    4  0.4183215E-008  0.1517921E+04  0.7818608E-02  0.8872623E-01
          1   -1    0    0  501    0  0.00000000000E+00  0.00000000000E+00  0.21313743529E+04  0.21313743529E+04  0.00000000000E+00 0. -1.
         -2   -1    0    0    0  501 -0.00000000000E+00 -0.00000000000E+00 -0.27025786534E+03  0.27025786534E+03  0.00000000000E+00 0.  1.
        -24    2    1    2    0    0 -0.26598203430E+03  0.40950558358E+02 -0.43368817669E+02  0.28451034514E+03  0.81497799649E+02 0.  0.
        254    2    1    2    0    0  0.26598203430E+03 -0.40950558358E+02  0.19044853052E+04  0.21171218731E+04  0.88471314949E+03 0.  0.
         23    2    4    4    0    0  0.38469485959E+03  0.33507473826E+03  0.97816227918E+03  0.11069142095E+04  0.90511919589E+02 0.  0.
         23    2    4    4    0    0 -0.11871282529E+03 -0.37602529662E+03  0.92632302604E+03  0.10102076636E+04  0.83411128634E+02 0.  0.
          3    1    3    3  502    0 -0.13581255067E+02  0.41625268821E+01  0.17242467541E+02  0.22340094139E+02  0.00000000000E+00 0. -1.
         -4    1    3    3    0  502 -0.25240077923E+03  0.36788031476E+02 -0.60611285209E+02  0.26217025100E+03  0.00000000000E+00 0.  1.
         11    1    5    5    0    0  0.19419649980E+02  0.43221504937E+02  0.13081662561E+03  0.13913378752E+03  0.00000000000E+00 0. -1.
        -11    1    5    5    0    0  0.36527520961E+03  0.29185323332E+03  0.84734565357E+03  0.96778042199E+03  0.00000000000E+00 0.  1.
          1    1    6    6  503    0 -0.31211078294E+02 -0.20002203848E+03  0.54125853468E+03  0.57787866256E+03  0.00000000000E+00 0. -1.
         -1    1    6    6    0  503 -0.87501746998E+02 -0.17600325814E+03  0.38506449136E+03  0.43232900101E+03  0.00000000000E+00 0.  1.
<mgrwt>
<rscale>  0 0.15179205E+04</rscale>
<asrwt>0</asrwt>
<pdfrwt beam="1">  1        1 0.32790374E+00 0.15179205E+04</pdfrwt>
<pdfrwt beam="2">  1       -2 0.41578134E-01 0.15179205E+04</pdfrwt>
<totfact> 0.11287944E+01</totfact>
</mgrwt>
</event>
<event>
12    4  0.4183215E-008  0.1642352E+04  0.7818608E-02  0.8794944E-01
          1   -1    0    0  501    0  0.00000000000E+00  0.00000000000E+00  0.15409878747E+04  0.15409878747E+04  0.00000000000E+00 0. -1.
         -2   -1    0    0    0  501 -0.00000000000E+00 -0.00000000000E+00 -0.43759610017E+03  0.43759610017E+03  0.00000000000E+00 0.  1.
        -24    2    1    2    0    0  0.51852248176E+03 -0.14140982729E+03  0.15323460162E+03  0.56448967385E+03  0.79406834748E+02 0.  0.
        254    2    1    2    0    0 -0.51852248176E+03  0.14140982729E+03  0.95015717293E+03  0.14140943010E+04  0.89888916760E+03 0.  0.
         23    2    4    4    0    0 -0.30047854056E+03  0.17426382833E+03  0.10827784385E+04  0.11406771366E+04  0.89888530458E+02 0.  0.
         23    2    4    4    0    0 -0.21804394120E+03 -0.32854001047E+02 -0.13262126560E+03  0.27341716440E+03  0.92444578106E+02 0.  0.
          1    1    3    3  502    0  0.49063640779E+02 -0.12126929894E+02 -0.88044490883E+01  0.51301282625E+02  0.00000000000E+00 0. -1.
         -2    1    3    3    0  502  0.46945884098E+03 -0.12928289739E+03  0.16203905071E+03  0.51318839122E+03  0.00000000000E+00 0.  1.
         11    1    5    5    0    0 -0.12644197788E+03  0.10350503835E+03  0.62114500794E+03  0.64227874604E+03  0.00000000000E+00 0.  1.
        -11    1    5    5    0    0 -0.17403656268E+03  0.70758789981E+02  0.46163343059E+03  0.49839839060E+03  0.00000000000E+00 0. -1.
          2    1    6    6  503    0 -0.20512961332E+03 -0.46232717019E+02 -0.93548794951E+02  0.23014560483E+03  0.00000000000E+00 0.  1.
         -2    1    6    6    0  503 -0.12914327882E+02  0.13378715971E+02 -0.39072470649E+02  0.43271559578E+02  0.00000000000E+00 0. -1.
<mgrwt>
<rscale>  0 0.16423523E+04</rscale>
<asrwt>0</asrwt>
<pdfrwt beam="1">  1        1 0.23707506E+00 0.16423523E+04</pdfrwt>
<pdfrwt beam="2">  1       -2 0.67322478E-01 0.16423523E+04</pdfrwt>
<totfact> 0.10405427E+01</totfact>
</mgrwt>
</event>
<event>
12    4  0.4183215E-008  0.1411286E+04  0.7818608E-02  0.8945690E-01
          1   -1    0    0  501    0  0.00000000000E+00  0.00000000000E+00  0.49806004384E+03  0.49806004384E+03  0.00000000000E+00 0. -1.
         -2   -1    0    0    0  501 -0.00000000000E+00 -0.00000000000E+00 -0.99974254456E+03  0.99974254456E+03  0.00000000000E+00 0.  1.
        -24    2    1    2    0    0  0.40463990395E+03 -0.66986914665E+02 -0.12321950638E+03  0.43544849414E+03  0.78813994250E+02 0.  0.
        254    2    1    2    0    0 -0.40463990395E+03  0.66986914665E+02 -0.37846299434E+03  0.10623540943E+04  0.90395867433E+03 0.  0.
         23    2    4    4    0    0 -0.26620663866E+03 -0.27431249029E+03  0.14231173656E+03  0.41816758062E+03  0.92185564628E+02 0.  0.
         23    2    4    4    0    0 -0.13843326529E+03  0.34129940496E+03 -0.52077473090E+03  0.64418651363E+03  0.90115987703E+02 0.  0.
          1    1    3    3  502    0  0.39030680576E+02 -0.20981072653E+02  0.65076082229E+01  0.44787815315E+02  0.00000000000E+00 0. -1.
         -4    1    3    3    0  502  0.36560922338E+03 -0.46005842012E+02 -0.12972711460E+03  0.39066067883E+03  0.00000000000E+00 0.  1.
         11    1    5    5    0    0 -0.24347812483E+03 -0.21055464421E+03  0.13834686539E+03  0.35036368339E+03  0.00000000000E+00 0. -1.
        -11    1    5    5    0    0 -0.22728513825E+02 -0.63757846079E+02  0.39648711710E+01  0.67803897238E+02  0.00000000000E+00 0.  1.
          2    1    6    6  503    0 -0.96427772758E+01  0.29655530341E+02 -0.10122783833E+03  0.10592218317E+03  0.00000000000E+00 0. -1.
         -2    1    6    6    0  503 -0.12879048802E+03  0.31164387461E+03 -0.41954689257E+03  0.53826433047E+03  0.00000000000E+00 0.  1.
<mgrwt>
<rscale>  0 0.14112857E+04</rscale>
<asrwt>0</asrwt>
<pdfrwt beam="1">  1        1 0.76624623E-01 0.14112857E+04</pdfrwt>
<pdfrwt beam="2">  1       -2 0.15380654E+00 0.14112857E+04</pdfrwt>
<totfact> 0.10630569E+01</totfact>
</mgrwt>
</event>
<event>
12    4  0.4183215E-008  0.1083726E+04  0.7818608E-02  0.9221201E-01
          1   -1    0    0  501    0  0.00000000000E+00  0.00000000000E+00  0.41038055524E+03  0.41038055524E+03  0.00000000000E+00 0. -1.
         -2   -1    0    0    0  501 -0.00000000000E+00 -0.00000000000E+00 -0.71547085586E+03  0.71547085586E+03  0.00000000000E+00 0.  1.
        -24    2    1    2    0    0 -0.10125429326E+03  0.82516855343E+02  0.41725470380E+02  0.15882007061E+03  0.80133242989E+02 0.  0.
        254    2    1    2    0    0  0.10125429326E+03 -0.82516855343E+02 -0.34681577100E+03  0.96703134049E+03  0.89320040929E+03 0.  0.
         23    2    4    4    0    0  0.21843373098E+03 -0.26144722932E+03 -0.55427474175E+03  0.65700642597E+03  0.91482270813E+02 0.  0.
         23    2    4    4    0    0 -0.11717943772E+03  0.17893037398E+03  0.20745897075E+03  0.31002491452E+03  0.85610301511E+02 0.  0.
          1    1    3    3  502    0 -0.20972232646E+02  0.24194132105E+02  0.49861037683E+02  0.59256338473E+02  0.00000000000E+00 0. -1.
         -2    1    3    3    0  502 -0.80282060614E+02  0.58322723239E+02 -0.81355673026E+01  0.99563732141E+02  0.00000000000E+00 0.  1.
         11    1    5    5    0    0  0.75324765968E+02 -0.33214227932E+02 -0.15202393767E+03  0.17288228055E+03  0.00000000000E+00 0.  1.
        -11    1    5    5    0    0  0.14310896501E+03 -0.22823300139E+03 -0.40225080408E+03  0.48412414541E+03  0.00000000000E+00 0. -1.
          1    1    6    6  503    0 -0.13310818750E+01  0.74170646036E+02  0.68142093253E+02  0.10072934719E+03  0.00000000000E+00 0. -1.
         -1    1    6    6    0  503 -0.11584835584E+03  0.10475972794E+03  0.13931687750E+03  0.20929556733E+03  0.00000000000E+00 0.  1.
<mgrwt>
<rscale>  0 0.10837257E+04</rscale>
<asrwt>0</asrwt>
<pdfrwt beam="1">  1        1 0.63135471E-01 0.10837257E+04</pdfrwt>
<pdfrwt beam="2">  1       -2 0.11007244E+00 0.10837257E+04</pdfrwt>
<totfact> 0.33144196E+01</totfact>
</mgrwt>
</event>
<event>
12    4  0.4183215E-008  0.2302840E+04  0.7818608E-02  0.8476802E-01
          1   -1    0    0  501    0  0.00000000000E+00  0.00000000000E+00  0.11932066949E+04  0.11932066949E+04  0.00000000000E+00 0. -1.
         -2   -1    0    0    0  501 -0.00000000000E+00 -0.00000000000E+00 -0.11110964778E+04  0.11110964778E+04  0.00000000000E+00 0.  1.
        -24    2    1    2    0    0  0.16270024723E+01  0.67433199926E+03 -0.63382600609E+03  0.92896542192E+03  0.80715901630E+02 0.  0.
        254    2    1    2    0    0 -0.16270024723E+01 -0.67433199926E+03  0.71593622314E+03  0.13753377508E+04  0.96138595826E+03 0.  0.
         23    2    4    4    0    0 -0.17991115213E+03  0.18577117900E+03  0.27142355872E+03  0.38665706228E+03  0.94625482678E+02 0.  0.
         23    2    4    4    0    0  0.17828414966E+03 -0.86010317826E+03  0.44451266442E+03  0.98868068849E+03  0.91297752965E+02 0.  0.
          3    1    3    3  502    0  0.15779057835E+02  0.33058092151E+03 -0.36209218227E+03  0.49055425061E+03  0.00000000000E+00 0. -1.
         -4    1    3    3    0  502 -0.14152055363E+02  0.34375107775E+03 -0.27173382382E+03  0.43841117131E+03  0.00000000000E+00 0.  1.
         11    1    5    5    0    0 -0.13736274105E+03  0.75693161753E+02  0.14299033754E+03  0.21223622215E+03  0.00000000000E+00 0. -1.
        -11    1    5    5    0    0 -0.42548411089E+02  0.11007801725E+03  0.12843322119E+03  0.17442084013E+03  0.00000000000E+00 0.  1.
          2    1    6    6  503    0  0.11872881112E+03 -0.36334045709E+03  0.17525092232E+03  0.42050648523E+03  0.00000000000E+00 0. -1.
         -2    1    6    6    0  503  0.59555338543E+02 -0.49676272117E+03  0.26926174210E+03  0.56817420326E+03  0.00000000000E+00 0.  1.
<mgrwt>
<rscale>  0 0.23028398E+04</rscale>
<asrwt>0</asrwt>
<pdfrwt beam="1">  1        1 0.18357026E+00 0.23028398E+04</pdfrwt>
<pdfrwt beam="2">  1       -2 0.17093792E+00 0.23028398E+04</pdfrwt>
<totfact> 0.17985520E+00</totfact>
</mgrwt>
</event>
<event>
12    4  0.4183215E-008  0.1145534E+04  0.7818608E-02  0.9161913E-01
          1   -1    0    0  501    0  0.00000000000E+00  0.00000000000E+00  0.98310797762E+03  0.98310797762E+03  0.00000000000E+00 0. -1.
         -2   -1    0    0    0  501 -0.00000000000E+00 -0.00000000000E+00 -0.33369905960E+03  0.33369905960E+03  0.00000000000E+00 0.  1.
        -24    2    1    2    0    0 -0.13466567595E+02 -0.17791541600E+03  0.45788552201E+02  0.20051268284E+03  0.79205433986E+02 0.  0.
        254    2    1    2    0    0  0.13466567595E+02  0.17791541600E+03  0.60362036582E+03  0.11162943544E+04  0.92191121911E+03 0.  0.
         23    2    4    4    0    0 -0.43399375652E+03  0.15039104733E+03  0.21167090828E+03  0.51222635109E+03  0.81260159538E+02 0.  0.
         23    2    4    4    0    0  0.44746032412E+03  0.27524368672E+02  0.39194945754E+03  0.60406800330E+03  0.10146646150E+03 0.  0.
          1    1    3    3  502    0 -0.32304742064E+02 -0.25208066524E+02  0.14738007221E+02  0.43545973804E+02  0.00000000000E+00 0. -1.
         -2    1    3    3    0  502  0.18838174469E+02 -0.15270734947E+03  0.31050544980E+02  0.15696670903E+03  0.00000000000E+00 0.  1.
         11    1    5    5    0    0 -0.42284516743E+03  0.13075887629E+03  0.20908391104E+03  0.48950178877E+03  0.00000000000E+00 0.  1.
        -11    1    5    5    0    0 -0.11148589089E+02  0.19632171034E+02  0.25869972348E+01  0.22724562325E+02  0.00000000000E+00 0. -1.
          1    1    6    6  503    0  0.79608935003E+02 -0.69156714207E+01  0.12460553291E+03  0.14802684850E+03  0.00000000000E+00 0. -1.
         -1    1    6    6    0  503  0.36785138911E+03  0.34440040093E+02  0.26734392463E+03  0.45604115480E+03  0.00000000000E+00 0.  1.
<mgrwt>
<rscale>  0 0.11455343E+04</rscale>
<asrwt>0</asrwt>
<pdfrwt beam="1">  1        1 0.15124738E+00 0.11455343E+04</pdfrwt>
<pdfrwt beam="2">  1       -2 0.51338317E-01 0.11455343E+04</pdfrwt>
<totfact> 0.48703878E+01</totfact>
</mgrwt>
</event>
<event>
12    4  0.4183215E-008  0.1837370E+04  0.7818608E-02  0.8686675E-01
          1   -1    0    0  501    0  0.00000000000E+00  0.00000000000E+00  0.18478104141E+04  0.18478104141E+04  0.00000000000E+00 0. -1.
         -2   -1    0    0    0  501 -0.00000000000E+00 -0.00000000000E+00 -0.45674694994E+03  0.45674694994E+03  0.00000000000E+00 0.  1.
        -24    2    1    2    0    0 -0.11401145147E+03 -0.23678019002E+02 -0.32883654271E+03  0.35761774316E+03  0.78725591470E+02 0.  0.
        254    2    1    2    0    0  0.11401145147E+03  0.23678019002E+02  0.17199000069E+04  0.19469396209E+04  0.90496331089E+03 0.  0.
         23    2    4    4    0    0 -0.23565516769E+03  0.33873100184E+03  0.65474810559E+03  0.77891872461E+03  0.88018453267E+02 0.  0.
         23    2    4    4    0    0  0.34966661915E+03 -0.31505298284E+03  0.10651519013E+04  0.11680208963E+04  0.90548963374E+02 0.  0.
          3    1    3    3  502    0 -0.87168833061E+01 -0.18831169562E+02 -0.12599029473E+02  0.24276172378E+02  0.00000000000E+00 0. -1.
         -2    1    3    3    0  502 -0.10529456816E+03 -0.48468494397E+01 -0.31623751324E+03  0.33334157078E+03  0.00000000000E+00 0.  1.
         11    1    5    5    0    0  0.27176634019E+01  0.61494297018E+01 -0.11996811429E+00  0.67242525512E+01  0.00000000000E+00 0.  1.
        -11    1    5    5    0    0 -0.23837283109E+03  0.33258157214E+03  0.65486807370E+03  0.77219447206E+03  0.00000000000E+00 0. -1.
          4    1    6    6  503    0  0.30869197061E+03 -0.28144337378E+03  0.85930052271E+03  0.95545721709E+03  0.00000000000E+00 0. -1.
         -4    1    6    6    0  503  0.40974648542E+02 -0.33609609053E+02  0.20585137857E+03  0.21256367918E+03  0.00000000000E+00 0.  1.
<mgrwt>
<rscale>  0 0.18373696E+04</rscale>
<asrwt>0</asrwt>
<pdfrwt beam="1">  1        1 0.28427852E+00 0.18373696E+04</pdfrwt>
<pdfrwt beam="2">  1       -2 0.70268762E-01 0.18373696E+04</pdfrwt>
<totfact> 0.57548184E+00</totfact>
</mgrwt>
</event>
<event>
12    4  0.4183215E-008  0.3157250E+04  0.7818608E-02  0.8200199E-01
         -2   -1    0    0    0  501 -0.00000000000E+00  0.00000000000E+00  0.14969474408E+04  0.14969474408E+04  0.00000000000E+00 0.  1.
          1   -1    0    0  501    0  0.00000000000E+00 -0.00000000000E+00 -0.16647595028E+04  0.16647595028E+04  0.00000000000E+00 0. -1.
        -24    2    1    2    0    0 -0.10513017581E+04  0.62381929325E+03 -0.83716363551E+03  0.14837924548E+04  0.80069964744E+02 0.  0.
        254    2    1    2    0    0  0.10513017581E+04 -0.62381929325E+03  0.66935157346E+03  0.16779144887E+04  0.93433377630E+03 0.  0.
         23    2    4    4    0    0  0.10455523902E+04 -0.23390377006E+03  0.68846287440E+03  0.12767917631E+04  0.91243095858E+02 0.  0.
         23    2    4    4    0    0  0.57493678847E+01 -0.38991552319E+03 -0.19111300946E+02  0.40112272569E+03  0.92016459297E+02 0.  0.
          1    1    3    3  502    0 -0.59632859383E+03  0.37613340473E+03 -0.52430126631E+03  0.87862161812E+03  0.00000000000E+00 0. -1.
         -2    1    3    3    0  502 -0.45497316422E+03  0.24768588853E+03 -0.31286236919E+03  0.60517083670E+03  0.00000000000E+00 0.  1.
         11    1    5    5    0    0  0.10406643244E+03 -0.45684884357E+02  0.52797281213E+02  0.12531753239E+03  0.00000000000E+00 0.  1.
        -11    1    5    5    0    0  0.94148595773E+03 -0.18821888571E+03  0.63566559319E+03  0.11514742307E+04  0.00000000000E+00 0. -1.
          2    1    6    6  503    0 -0.78646413240E+01 -0.34382206599E+03  0.11563126100E+02  0.34410633753E+03  0.00000000000E+00 0. -1.
         -2    1    6    6    0  503  0.13614009209E+02 -0.46093457201E+02 -0.30674427046E+02  0.57016388154E+02  0.00000000000E+00 0.  1.
<mgrwt>
<rscale>  0 0.31572504E+04</rscale>
<asrwt>0</asrwt>
<pdfrwt beam="1">  1        1 0.25611685E+00 0.31572504E+04</pdfrwt>
<pdfrwt beam="2">  1       -2 0.23029961E+00 0.31572504E+04</pdfrwt>
<totfact> 0.31642505E-01</totfact>
</mgrwt>
</event>
<event>
12    4  0.4183215E-008  0.1682626E+04  0.7818608E-02  0.8771336E-01
          1   -1    0    0  501    0  0.00000000000E+00  0.00000000000E+00  0.17383271136E+04  0.17383271136E+04  0.00000000000E+00 0. -1.
         -4   -1    0    0    0  501 -0.00000000000E+00 -0.00000000000E+00 -0.40717765604E+03  0.40717765604E+03  0.00000000000E+00 0.  1.
        -24    2    1    2    0    0 -0.25611852533E+03 -0.31006311468E+03 -0.53677283732E+02  0.41343328709E+03  0.79435495737E+02 0.  0.
        254    2    1    2    0    0  0.25611852533E+03  0.31006311468E+03  0.13848267413E+04  0.17320714826E+04  0.95947417015E+03 0.  0.
         23    2    4    4    0    0 -0.32391377865E+03 -0.56520476986E+02  0.36272801528E+03  0.49760224069E+03  0.89003800730E+02 0.  0.
         23    2    4    4    0    0  0.58003230399E+03  0.36658359166E+03  0.10220987261E+04  0.12344692419E+04  0.91692420974E+02 0.  0.
          1    1    3    3  502    0 -0.23730753525E+03 -0.25245597331E+03 -0.27977598939E+02  0.34760844464E+03  0.00000000000E+00 0. -1.
         -2    1    3    3    0  502 -0.18810990083E+02 -0.57607141366E+02 -0.25699684793E+02  0.65824842444E+02  0.00000000000E+00 0.  1.
         11    1    5    5    0    0 -0.21533198673E+03 -0.68977043525E+02  0.20177783883E+03  0.30305113972E+03  0.00000000000E+00 0.  1.
        -11    1    5    5    0    0 -0.10858179193E+03  0.12456566539E+02  0.16095017645E+03  0.19455110097E+03  0.00000000000E+00 0. -1.
          2    1    6    6  503    0  0.71590977501E+02  0.80737293975E+02  0.13568741639E+03  0.17336335733E+03  0.00000000000E+00 0. -1.
         -2    1    6    6    0  503  0.50844132648E+03  0.28584629769E+03  0.88641130967E+03  0.10611058846E+04  0.00000000000E+00 0.  1.
<mgrwt>
<rscale>  0 0.16826265E+04</rscale>
<asrwt>0</asrwt>
<pdfrwt beam="1">  1        1 0.26743494E+00 0.16826265E+04</pdfrwt>
<pdfrwt beam="2">  1       -4 0.62642717E-01 0.16826265E+04</pdfrwt>
<totfact> 0.50274397E+00</totfact>
</mgrwt>
</event>
<event>
12    4  0.4183215E-008  0.1335909E+04  0.7818608E-02  0.9001564E-01
         -2   -1    0    0    0  501 -0.00000000000E+00  0.00000000000E+00  0.46006142923E+03  0.46006142923E+03  0.00000000000E+00 0.  1.
          1   -1    0    0  501    0  0.00000000000E+00 -0.00000000000E+00 -0.96979109493E+03  0.96979109493E+03  0.00000000000E+00 0. -1.
        -24    2    1    2    0    0  0.16370606904E+03  0.15077669471E+03 -0.43022990374E+03  0.49035931127E+03  0.76296758540E+02 0.  0.
        254    2    1    2    0    0 -0.16370606904E+03 -0.15077669471E+03 -0.79499761961E+02  0.93949321290E+03  0.90928213235E+03 0.  0.
         23    2    4    4    0    0 -0.21924815308E+03  0.32762892894E+03 -0.17801749665E+03  0.44029926467E+03  0.82235914566E+02 0.  0.
         23    2    4    4    0    0  0.55542084040E+02 -0.47840562365E+03  0.98517734692E+02  0.49919394823E+03  0.86787038501E+02 0.  0.
          1    1    3    3  502    0  0.52990994387E+02  0.46082118691E+02 -0.21843369838E+03  0.22944473788E+03  0.00000000000E+00 0. -1.
         -2    1    3    3    0  502  0.11071507466E+03  0.10469457602E+03 -0.21179620535E+03  0.26091457339E+03  0.00000000000E+00 0.  1.
         11    1    5    5    0    0 -0.17387691136E+03  0.30031966409E+03 -0.17104258196E+03  0.38688583043E+03  0.00000000000E+00 0. -1.
        -11    1    5    5    0    0 -0.45371241726E+02  0.27309264851E+02 -0.69749146921E+01  0.53413434241E+02  0.00000000000E+00 0.  1.
          3    1    6    6  503    0  0.90307315323E+01 -0.32505987277E+03  0.95510663972E+02  0.33892146868E+03  0.00000000000E+00 0. -1.
         -3    1    6    6    0  503  0.46511352507E+02 -0.15334575088E+03  0.30070707200E+01  0.16027247955E+03  0.00000000000E+00 0.  1.
<mgrwt>
<rscale>  0 0.13359094E+04</rscale>
<asrwt>0</asrwt>
<pdfrwt beam="1">  1        1 0.14919863E+00 0.13359094E+04</pdfrwt>
<pdfrwt beam="2">  1       -2 0.70778682E-01 0.13359094E+04</pdfrwt>
<totfact> 0.24913180E+01</totfact>
</mgrwt>
</event>
<event>
12    4  0.4183215E-008  0.2110489E+04  0.7818608E-02  0.8556637E-01
          1   -1    0    0  501    0  0.00000000000E+00  0.00000000000E+00  0.18650564730E+04  0.18650564730E+04  0.00000000000E+00 0. -1.
         -2   -1    0    0    0  501 -0.00000000000E+00 -0.00000000000E+00 -0.59705494756E+03  0.59705494756E+03  0.00000000000E+00 0.  1.
        -24    2    1    2    0    0  0.61758758561E+02  0.22197801013E+03  0.15077403755E+04  0.15274565462E+04  0.82183205339E+02 0.  0.
        254    2    1    2    0    0 -0.61758758561E+02 -0.22197801013E+03 -0.23973885008E+03  0.93465487439E+03  0.87350823508E+03 0.  0.
         23    2    4    4    0    0 -0.29844486401E+03  0.65292518722E+02 -0.40720722753E+03  0.51662441594E+03  0.88037555289E+02 0.  0.
         23    2    4    4    0    0  0.23668610544E+03 -0.28727052885E+03  0.16746837745E+03  0.41803045845E+03  0.90327944132E+02 0.  0.
          3    1    3    3  502    0  0.70088906131E+02  0.98631953811E+02  0.74829126639E+03  0.75801090785E+03  0.00000000000E+00 0. -1.
         -4    1    3    3    0  502 -0.83301475695E+01  0.12334605631E+03  0.75944910914E+03  0.76944563833E+03  0.00000000000E+00 0.  1.
         11    1    5    5    0    0 -0.37971417692E+02  0.40700878475E+02 -0.84454942742E+02  0.10114854138E+03  0.00000000000E+00 0. -1.
        -11    1    5    5    0    0 -0.26047344631E+03  0.24591640246E+02 -0.32275228479E+03  0.41547587456E+03  0.00000000000E+00 0.  1.
          4    1    6    6  503    0  0.20227862732E+02 -0.26159232287E+01 -0.50098263523E+01  0.21002567584E+02  0.00000000000E+00 0. -1.
         -4    1    6    6    0  503  0.21645824271E+03 -0.28465460562E+03  0.17247820380E+03  0.39702789087E+03  0.00000000000E+00 0.  1.
<mgrwt>
<rscale>  0 0.21104892E+04</rscale>
<asrwt>0</asrwt>
<pdfrwt beam="1">  1        1 0.28693176E+00 0.21104892E+04</pdfrwt>
<pdfrwt beam="2">  1       -2 0.91854608E-01 0.21104892E+04</pdfrwt>
<totfact> 0.29931851E+00</totfact>
</mgrwt>
</event>
<event>
12    4  0.4183215E-008  0.1589825E+04  0.7818608E-02  0.8826823E-01
          1   -1    0    0  501    0  0.00000000000E+00  0.00000000000E+00  0.12956426879E+04  0.12956426879E+04  0.00000000000E+00 0. -1.
         -2   -1    0    0    0  501 -0.00000000000E+00 -0.00000000000E+00 -0.48770098584E+03  0.48770098584E+03  0.00000000000E+00 0.  1.
        -24    2    1    2    0    0 -0.38395045397E+03  0.36160456114E+03  0.38366207628E+03  0.65711210448E+03  0.80149356438E+02 0.  0.
        254    2    1    2    0    0  0.38395045397E+03 -0.36160456114E+03  0.42427962583E+03  0.11262315693E+04  0.90011584648E+03 0.  0.
         23    2    4    4    0    0  0.63336585427E+03 -0.40767087336E+03  0.39276996514E+03  0.85446037162E+03  0.92121847628E+02 0.  0.
         23    2    4    4    0    0 -0.24941540030E+03  0.46066312227E+02  0.31509660692E+02  0.27177119769E+03  0.92393604486E+02 0.  0.
          1    1    3    3  502    0 -0.97997463227E+02  0.48926087882E+02  0.71125776465E+02  0.13059916138E+03  0.00000000000E+00 0. -1.
         -2    1    3    3    0  502 -0.28595299074E+03  0.31267847325E+03  0.31253629982E+03  0.52651294310E+03  0.00000000000E+00 0.  1.
         11    1    5    5    0    0 -0.19537603259E+01 -0.74233950432E+01  0.17891982863E+01  0.78819543190E+01  0.00000000000E+00 0.  1.
        -11    1    5    5    0    0  0.63531961459E+03 -0.40024747832E+03  0.39098076685E+03  0.84657841730E+03  0.00000000000E+00 0. -1.
          1    1    6    6  503    0 -0.18418744374E+03 -0.74227015617E+01  0.94475316859E+01  0.18457889041E+03  0.00000000000E+00 0. -1.
         -1    1    6    6    0  503 -0.65227956557E+02  0.53489013789E+02  0.22062129006E+02  0.87192307281E+02  0.00000000000E+00 0.  1.
<mgrwt>
<rscale>  0 0.15898254E+04</rscale>
<asrwt>0</asrwt>
<pdfrwt beam="1">  1        1 0.19932964E+00 0.15898254E+04</pdfrwt>
<pdfrwt beam="2">  1       -2 0.75030922E-01 0.15898254E+04</pdfrwt>
<totfact> 0.12244541E+01</totfact>
</mgrwt>
</event>
<event>
12    4  0.4183215E-008  0.2136584E+04  0.7818608E-02  0.8545297E-01
          1   -1    0    0  501    0  0.00000000000E+00  0.00000000000E+00  0.24774632147E+04  0.24774632147E+04  0.00000000000E+00 0. -1.
         -2   -1    0    0    0  501 -0.00000000000E+00 -0.00000000000E+00 -0.46065176453E+03  0.46065176453E+03  0.00000000000E+00 0.  1.
        -24    2    1    2    0    0  0.17087977515E+03  0.85747519121E+03  0.92014418582E+03  0.12718876570E+04  0.81051146094E+02 0.  0.
        254    2    1    2    0    0 -0.17087977515E+03 -0.85747519121E+03  0.10966672643E+04  0.16662273222E+04  0.89953921509E+03 0.  0.
         23    2    4    4    0    0 -0.41106300114E+03 -0.97549697006E+02  0.53547457213E+03  0.68782402163E+03  0.88770113467E+02 0.  0.
         23    2    4    4    0    0  0.24018322599E+03 -0.75992549421E+03  0.56119269221E+03  0.97840330057E+03  0.84622940082E+02 0.  0.
          3    1    3    3  502    0  0.68345179387E+02  0.25579953329E+03  0.32760027787E+03  0.42122014059E+03  0.00000000000E+00 0. -1.
         -4    1    3    3    0  502  0.10253459576E+03  0.60167565792E+03  0.59254390795E+03  0.85066751643E+03  0.00000000000E+00 0.  1.
         11    1    5    5    0    0 -0.41067845354E+03 -0.99992168545E+02  0.53807433046E+03  0.68423622461E+03  0.00000000000E+00 0. -1.
        -11    1    5    5    0    0 -0.38454759961E+00  0.24424715397E+01 -0.25997583301E+01  0.35877970195E+01  0.00000000000E+00 0.  1.
          2    1    6    6  503    0  0.12102452435E+03 -0.26834683830E+03  0.23322458110E+03  0.37556712629E+03  0.00000000000E+00 0. -1.
         -2    1    6    6    0  503  0.11915870165E+03 -0.49157865591E+03  0.32796811111E+03  0.60283617428E+03  0.00000000000E+00 0.  1.
<mgrwt>
<rscale>  0 0.21365840E+04</rscale>
<asrwt>0</asrwt>
<pdfrwt beam="1">  1        1 0.38114818E+00 0.21365840E+04</pdfrwt>
<pdfrwt beam="2">  1       -2 0.70869504E-01 0.21365840E+04</pdfrwt>
<totfact> 0.20471457E+00</totfact>
</mgrwt>
</event>
<event>
12    4  0.4183215E-008  0.1797632E+04  0.7818608E-02  0.8707560E-01
          1   -1    0    0  501    0  0.00000000000E+00  0.00000000000E+00  0.18318585254E+04  0.18318585254E+04  0.00000000000E+00 0. -1.
         -2   -1    0    0    0  501 -0.00000000000E+00 -0.00000000000E+00 -0.44101135374E+03  0.44101135374E+03  0.00000000000E+00 0.  1.
        -24    2    1    2    0    0 -0.50604934684E+03  0.41896607600E+03  0.35625052181E+03  0.75161281585E+03  0.79930447182E+02 0.  0.
        254    2    1    2    0    0  0.50604934684E+03 -0.41896607600E+03  0.10345966499E+04  0.15212570633E+04  0.90122933288E+03 0.  0.
         23    2    4    4    0    0 -0.13625080159E+03  0.17214915850E+03  0.21292453843E+03  0.31912530633E+03  0.91128965574E+02 0.  0.
         23    2    4    4    0    0  0.64230014843E+03 -0.59111523450E+03  0.82167211145E+03  0.12021317570E+04  0.89493023658E+02 0.  0.
          3    1    3    3  502    0 -0.13276620046E+03  0.13928839607E+03  0.13703192283E+03  0.23623265892E+03  0.00000000000E+00 0. -1.
         -4    1    3    3    0  502 -0.37328314638E+03  0.27967767993E+03  0.21921859897E+03  0.51538015693E+03  0.00000000000E+00 0.  1.
         11    1    5    5    0    0 -0.11082862960E+03  0.10025795787E+03  0.89955050019E+02  0.17443209074E+03  0.00000000000E+00 0. -1.
        -11    1    5    5    0    0 -0.25422171985E+02  0.71891200625E+02  0.12296948841E+03  0.14469321558E+03  0.00000000000E+00 0.  1.
          4    1    6    6  503    0  0.33215358890E+03 -0.34522734256E+03  0.49591557697E+03  0.68952170680E+03  0.00000000000E+00 0. -1.
         -4    1    6    6    0  503  0.31014655953E+03 -0.24588789194E+03  0.32575653448E+03  0.51261005018E+03  0.00000000000E+00 0.  1.
<mgrwt>
<rscale>  0 0.17976322E+04</rscale>
<asrwt>0</asrwt>
<pdfrwt beam="1">  1        1 0.28182439E+00 0.17976322E+04</pdfrwt>
<pdfrwt beam="2">  1       -2 0.67847901E-01 0.17976322E+04</pdfrwt>
<totfact> 0.63903622E+00</totfact>
</mgrwt>
</event>
<event>
12    4  0.4183215E-008  0.2230724E+04  0.7818608E-02  0.8505748E-01
          1   -1    0    0  501    0  0.00000000000E+00  0.00000000000E+00  0.14476292676E+04  0.14476292676E+04  0.00000000000E+00 0. -1.
         -2   -1    0    0    0  501 -0.00000000000E+00 -0.00000000000E+00 -0.85935857444E+03  0.85935857444E+03  0.00000000000E+00 0.  1.
        -24    2    1    2    0    0 -0.15288640501E+03  0.23592415326E+03  0.11764227401E+04  0.12121883012E+04  0.79972215219E+02 0.  0.
        254    2    1    2    0    0  0.15288640501E+03 -0.23592415326E+03 -0.58815204693E+03  0.10947995409E+04  0.87956167801E+03 0.  0.
         23    2    4    4    0    0  0.15543442065E+03  0.30341984206E+03 -0.35530347059E+03  0.50027857959E+03  0.88400459858E+02 0.  0.
         23    2    4    4    0    0 -0.25480156346E+01 -0.53934399532E+03 -0.23284857634E+03  0.59452096127E+03  0.91314162194E+02 0.  0.
          3    1    3    3  502    0 -0.13337323408E+03  0.20858034070E+03  0.88969702639E+03  0.92350147637E+03  0.00000000000E+00 0. -1.
         -2    1    3    3    0  502 -0.19513170933E+02  0.27343812553E+02  0.28672571366E+03  0.28868682478E+03  0.00000000000E+00 0.  1.
         11    1    5    5    0    0  0.29307863832E+02  0.15349478848E+03 -0.15814876803E+03  0.22233001102E+03  0.00000000000E+00 0.  1.
        -11    1    5    5    0    0  0.12612655681E+03  0.14992505359E+03 -0.19715470256E+03  0.27794856857E+03  0.00000000000E+00 0. -1.
          1    1    6    6  503    0 -0.24341778120E+02 -0.39447398013E+03 -0.20561626454E+03  0.44551126967E+03  0.00000000000E+00 0. -1.
         -1    1    6    6    0  503  0.21793762485E+02 -0.14487001519E+03 -0.27232311796E+02  0.14900969160E+03  0.00000000000E+00 0.  1.
<mgrwt>
<rscale>  0 0.22307242E+04</rscale>
<asrwt>0</asrwt>
<pdfrwt beam="1">  1        1 0.22271220E+00 0.22307242E+04</pdfrwt>
<pdfrwt beam="2">  1       -2 0.13220901E+00 0.22307242E+04</pdfrwt>
<totfact> 0.23630900E+00</totfact>
</mgrwt>
</event>
<event>
12    4  0.4183215E-008  0.2375989E+04  0.7818608E-02  0.8448548E-01
          1   -1    0    0  501    0  0.00000000000E+00  0.00000000000E+00  0.18268815084E+04  0.18268815084E+04  0.00000000000E+00 0. -1.
         -2   -1    0    0    0  501 -0.00000000000E+00 -0.00000000000E+00 -0.77253542753E+03  0.77253542753E+03  0.00000000000E+00 0.  1.
        -24    2    1    2    0    0  0.37488214336E+03 -0.44048179262E+03  0.13625498380E+04  0.14823756676E+04  0.79591002386E+02 0.  0.
        254    2    1    2    0    0 -0.37488214336E+03  0.44048179262E+03 -0.30820375714E+03  0.11170412684E+04  0.90456111363E+03 0.  0.
         23    2    4    4    0    0  0.25828157628E+03  0.31769620219E+03 -0.16278907232E+03  0.44979342514E+03  0.90407929390E+02 0.  0.
         23    2    4    4    0    0 -0.63316371964E+03  0.12278559043E+03 -0.14541468482E+03  0.66724784324E+03  0.90009203166E+02 0.  0.
          1    1    3    3  502    0  0.33996091297E+03 -0.39224412717E+03  0.12737947734E+04  0.13754933669E+04  0.00000000000E+00 0. -1.
         -2    1    3    3    0  502  0.34921230391E+02 -0.48237665446E+02  0.88755064637E+02  0.10688230068E+03  0.00000000000E+00 0.  1.
         11    1    5    5    0    0  0.25002098651E+03  0.30602494130E+03 -0.13335065886E+03  0.41706612979E+03  0.00000000000E+00 0. -1.
        -11    1    5    5    0    0  0.82605897696E+01  0.11671260887E+02 -0.29438413457E+02  0.32727295350E+02  0.00000000000E+00 0.  1.
          4    1    6    6  503    0 -0.28668045297E+03  0.87271951783E+02 -0.10045775630E+03  0.31605986219E+03  0.00000000000E+00 0. -1.
         -4    1    6    6    0  503 -0.34648326667E+03  0.35513638644E+02 -0.44956928517E+02  0.35118798105E+03  0.00000000000E+00 0.  1.
<mgrwt>
<rscale>  0 0.23759888E+04</rscale>
<asrwt>0</asrwt>
<pdfrwt beam="1">  1        1 0.28105869E+00 0.23759888E+04</pdfrwt>
<pdfrwt beam="2">  1       -2 0.11885160E+00 0.23759888E+04</pdfrwt>
<totfact> 0.16757496E+00</totfact>
</mgrwt>
</event>
<event>
12    4  0.4183215E-008  0.1431874E+04  0.7818608E-02  0.8931064E-01
         -2   -1    0    0    0  501 -0.00000000000E+00  0.00000000000E+00  0.35557011434E+03  0.35557011434E+03  0.00000000000E+00 0.  1.
          1   -1    0    0  501    0  0.00000000000E+00 -0.00000000000E+00 -0.14415329299E+04  0.14415329299E+04  0.00000000000E+00 0. -1.
        -24    2    1    2    0    0  0.15370879125E+03 -0.25739302001E+03 -0.69916507776E+03  0.76493527244E+03  0.80103719138E+02 0.  0.
        254    2    1    2    0    0 -0.15370879125E+03  0.25739302001E+03 -0.38679773784E+03  0.10321677718E+04  0.90877954419E+03 0.  0.
         23    2    4    4    0    0  0.20714245451E+03 -0.15439495689E+03 -0.39073612070E+03  0.47713774317E+03  0.90773954195E+02 0.  0.
         23    2    4    4    0    0 -0.36085124577E+03  0.41178797690E+03  0.39383828613E+01  0.55503002866E+03  0.90883784904E+02 0.  0.
          1    1    3    3  502    0  0.77938108572E+02 -0.17401268811E+03 -0.35741600901E+03  0.40509377666E+03  0.00000000000E+00 0. -1.
         -2    1    3    3    0  502  0.75770682682E+02 -0.83380331901E+02 -0.34174906875E+03  0.35984149579E+03  0.00000000000E+00 0.  1.
         11    1    5    5    0    0  0.19324608960E+03 -0.10464693805E+03 -0.28925620883E+03  0.36326875332E+03  0.00000000000E+00 0. -1.
        -11    1    5    5    0    0  0.13896364911E+02 -0.49748018844E+02 -0.10147991187E+03  0.11386898985E+03  0.00000000000E+00 0.  1.
          1    1    6    6  503    0 -0.16023870728E+03  0.24732165661E+03 -0.13761353488E+02  0.29501494875E+03  0.00000000000E+00 0. -1.
         -1    1    6    6    0  503 -0.20061253849E+03  0.16446632029E+03  0.17699736349E+02  0.26001507990E+03  0.00000000000E+00 0.  1.
<mgrwt>
<rscale>  0 0.14318743E+04</rscale>
<asrwt>0</asrwt>
<pdfrwt beam="1">  1        1 0.22177429E+00 0.14318743E+04</pdfrwt>
<pdfrwt beam="2">  1       -2 0.54703095E-01 0.14318743E+04</pdfrwt>
<totfact> 0.19276842E+01</totfact>
</mgrwt>
</event>
<event>
12    4  0.4183215E-008  0.1098428E+04  0.7818608E-02  0.9206725E-01
         -2   -1    0    0    0  501 -0.00000000000E+00  0.00000000000E+00  0.58814974246E+03  0.58814974246E+03  0.00000000000E+00 0.  1.
          1   -1    0    0  501    0  0.00000000000E+00 -0.00000000000E+00 -0.51285590102E+03  0.51285590102E+03  0.00000000000E+00 0. -1.
        -24    2    1    2    0    0 -0.13863417997E+03 -0.14595546143E+02  0.95457438313E+02  0.19152233952E+03  0.90200987709E+02 0.  0.
        254    2    1    2    0    0  0.13863417997E+03  0.14595546143E+02 -0.20163596876E+02  0.90948330396E+03  0.89851034703E+03 0.  0.
         23    2    4    4    0    0 -0.93118913880E+02  0.29912118119E+02 -0.41829618311E+03  0.43948384409E+03  0.92781924307E+02 0.  0.
         23    2    4    4    0    0  0.23175309385E+03 -0.15316571975E+02  0.39813258623E+03  0.46999945988E+03  0.91901263199E+02 0.  0.
          3    1    3    3  502    0 -0.34803846739E+02  0.69206436327E+01 -0.14892658821E+02  0.38483689309E+02  0.00000000000E+00 0. -1.
         -4    1    3    3    0  502 -0.10383033323E+03 -0.21516189776E+02  0.11035009713E+03  0.15303865021E+03  0.00000000000E+00 0.  1.
         11    1    5    5    0    0 -0.57481603304E+02 -0.22914359991E+02 -0.28629699214E+03  0.29290812608E+03  0.00000000000E+00 0.  1.
        -11    1    5    5    0    0 -0.35637310577E+02  0.52826478109E+02 -0.13199919097E+03  0.14657571801E+03  0.00000000000E+00 0. -1.
          3    1    6    6  503    0  0.18027696810E+02 -0.25451741665E+02  0.25418146557E+02  0.40235198278E+02  0.00000000000E+00 0. -1.
         -3    1    6    6    0  503  0.21372539704E+03  0.10135169690E+02  0.37271443968E+03  0.42976426160E+03  0.00000000000E+00 0.  1.
<mgrwt>
<rscale>  0 0.10984281E+04</rscale>
<asrwt>0</asrwt>
<pdfrwt beam="1">  1        1 0.78900908E-01 0.10984281E+04</pdfrwt>
<pdfrwt beam="2">  1       -2 0.90484575E-01 0.10984281E+04</pdfrwt>
<totfact> 0.38941898E+01</totfact>
</mgrwt>
</event>
<event>
12    4  0.4183215E-008  0.1792665E+04  0.7818608E-02  0.8710210E-01
          1   -1    0    0  501    0  0.00000000000E+00  0.00000000000E+00  0.13977254924E+04  0.13977254924E+04  0.00000000000E+00 0. -1.
         -2   -1    0    0    0  501 -0.00000000000E+00 -0.00000000000E+00 -0.57479978258E+03  0.57479978258E+03  0.00000000000E+00 0.  1.
        -24    2    1    2    0    0  0.49570571107E+03  0.92098315411E+02 -0.17309940095E+03  0.53847035054E+03  0.76030678729E+02 0.  0.
        254    2    1    2    0    0 -0.49570571107E+03 -0.92098315411E+02  0.99602511073E+03  0.14340549244E+04  0.90013401966E+03 0.  0.
         23    2    4    4    0    0  0.23148936822E+03  0.20374340252E+02  0.44465448707E+03  0.51016132553E+03  0.92436593671E+02 0.  0.
         23    2    4    4    0    0 -0.72719507929E+03 -0.11247265566E+03  0.55137062366E+03  0.92389359889E+03  0.90039079471E+02 0.  0.
          3    1    3    3  502    0  0.44300191673E+01 -0.21912370761E+01  0.54140474350E+01  0.73306547712E+01  0.00000000000E+00 0. -1.
         -4    1    3    3    0  502  0.49127569190E+03  0.94289552487E+02 -0.17851344838E+03  0.53113969576E+03  0.00000000000E+00 0.  1.
         11    1    5    5    0    0  0.15584060332E+03 -0.22129314870E+02  0.23071293655E+03  0.27929278421E+03  0.00000000000E+00 0.  1.
        -11    1    5    5    0    0  0.75648764893E+02  0.42503655122E+02  0.21394155052E+03  0.23086854131E+03  0.00000000000E+00 0. -1.
          2    1    6    6  503    0 -0.47833209351E+03 -0.99270755932E+02  0.40723860434E+03  0.63600279522E+03  0.00000000000E+00 0.  1.
         -2    1    6    6    0  503 -0.24886298578E+03 -0.13201899732E+02  0.14413201932E+03  0.28789080367E+03  0.00000000000E+00 0. -1.
<mgrwt>
<rscale>  0 0.17926654E+04</rscale>
<asrwt>0</asrwt>
<pdfrwt beam="1">  1        1 0.21503469E+00 0.17926654E+04</pdfrwt>
<pdfrwt beam="2">  1       -2 0.88430736E-01 0.17926654E+04</pdfrwt>
<totfact> 0.70309377E+00</totfact>
</mgrwt>
</event>
